Generated by trjconv : CNT in water t= 306.00000
33518
    1C        C    1   2.844   2.770   4.747
    1C        C    2   2.896   2.716   4.867
    1C        C    3   2.839   2.767   4.984
    1C        C    4   2.847   2.773   4.259
    1C        C    5   2.903   2.731   4.382
    1C        C    6   2.846   2.774   4.504
    1C        C    7   3.013   2.644   4.623
    1C        C    8   2.896   2.722   4.625
    1C        C    9   3.077   2.605   4.743
    1C        C   10   3.009   2.631   4.864
    1C        C   11   3.183   2.491   4.977
    1C        C   12   3.060   2.557   4.972
    1C        C   13   2.849   2.773   3.770
    1C        C   14   2.899   2.723   3.892
    1C        C   15   2.848   2.776   4.012
    1C        C   16   3.017   2.650   4.137
    1C        C   17   2.902   2.733   4.136
    1C        C   18   3.079   2.612   4.259
    1C        C   19   3.017   2.648   4.381
    1C        C   20   3.207   2.553   4.504
    1C        C   21   3.075   2.604   4.502
    1C        C   22   3.276   2.529   4.624
    1C        C   23   3.206   2.545   4.746
    1C        C   24   3.412   2.487   4.862
    1C        C   25   3.270   2.498   4.864
    1C        C   26   3.488   2.488   4.980
    1C        C   27   2.852   2.771   3.280
    1C        C   28   2.906   2.725   3.402
    1C        C   29   2.858   2.777   3.524
    1C        C   30   3.016   2.640   3.647
    1C        C   31   2.907   2.729   3.648
    1C        C   32   3.076   2.605   3.770
    1C        C   33   3.014   2.640   3.892
    1C        C   34   3.204   2.550   4.016
    1C        C   35   3.074   2.607   4.016
    1C        C   36   3.276   2.535   4.137
    1C        C   37   3.209   2.558   4.260
    1C        C   38   3.416   2.514   4.381
    1C        C   39   3.277   2.539   4.382
    1C        C   40   3.489   2.504   4.502
    1C        C   41   3.416   2.509   4.623
    1C        C   42   3.631   2.484   4.743
    1C        C   43   3.489   2.488   4.742
    1C        C   44   3.703   2.488   4.864
    1C        C   45   3.627   2.488   4.982
    1C        C   46   2.838   2.752   2.793
    1C        C   47   2.898   2.716   2.916
    1C        C   48   2.847   2.766   3.038
    1C        C   49   3.017   2.635   3.158
    1C        C   50   2.905   2.722   3.159
    1C        C   51   3.079   2.602   3.281
    1C        C   52   3.019   2.640   3.403
    1C        C   53   3.207   2.543   3.526
    1C        C   54   3.078   2.603   3.526
    1C        C   55   3.273   2.526   3.649
    1C        C   56   3.206   2.549   3.771
    1C        C   57   3.411   2.504   3.894
    1C        C   58   3.271   2.524   3.894
    1C        C   59   3.485   2.505   4.014
    1C        C   60   3.414   2.509   4.137
    1C        C   61   3.627   2.501   4.256
    1C        C   62   3.486   2.504   4.259
    1C        C   63   3.698   2.513   4.378
    1C        C   64   3.630   2.509   4.502
    1C        C   65   3.839   2.540   4.621
    1C        C   66   3.703   2.504   4.623
    1C        C   67   3.904   2.563   4.745
    1C        C   68   3.838   2.528   4.864
    1C        C   69   4.049   2.592   4.977
    1C        C   70   3.925   2.526   4.974
    1C        C   71   2.820   2.734   2.309
    1C        C   72   2.886   2.694   2.427
    1C        C   73   2.834   2.744   2.549
    1C        C   74   3.008   2.626   2.672
    1C        C   75   2.889   2.701   2.672
    1C        C   76   3.072   2.592   2.794
    1C        C   77   3.011   2.631   2.915
    1C        C   78   3.208   2.547   3.035
    1C        C   79   3.075   2.597   3.036
    1C        C   80   3.276   2.529   3.157
    1C        C   81   3.210   2.548   3.280
    1C        C   82   3.413   2.499   3.401
    1C        C   83   3.274   2.521   3.403
    1C        C   84   3.481   2.497   3.525
    1C        C   85   3.412   2.504   3.649
    1C        C   86   3.622   2.510   3.768
    1C        C   87   3.482   2.497   3.772
    1C        C   88   3.693   2.514   3.891
    1C        C   89   3.626   2.504   4.015
    1C        C   90   3.836   2.547   4.135
    1C        C   91   3.700   2.510   4.135
    1C        C   92   3.904   2.571   4.257
    1C        C   93   3.835   2.545   4.378
    1C        C   94   4.028   2.636   4.499
    1C        C   95   3.903   2.571   4.499
    1C        C   96   4.091   2.672   4.620
    1C        C   97   4.032   2.626   4.740
    1C        C   98   4.198   2.762   4.859
    1C        C   99   4.099   2.659   4.861
    1C        C  100   4.222   2.834   4.977
    1C        C  101   2.823   2.729   2.068
    1C        C  102   2.990   2.595   2.189
    1C        C  103   2.877   2.683   2.189
    1C        C  104   3.067   2.581   2.307
    1C        C  105   3.009   2.624   2.428
    1C        C  106   3.203   2.540   2.550
    1C        C  107   3.072   2.593   2.550
    1C        C  108   3.271   2.519   2.672
    1C        C  109   3.201   2.533   2.793
    1C        C  110   3.414   2.501   2.913
    1C        C  111   3.274   2.520   2.913
    1C        C  112   3.484   2.497   3.036
    1C        C  113   3.414   2.496   3.159
    1C        C  114   3.627   2.498   3.280
    1C        C  115   3.486   2.490   3.280
    1C        C  116   3.696   2.507   3.403
    1C        C  117   3.622   2.501   3.524
    1C        C  118   3.831   2.539   3.648
    1C        C  119   3.692   2.514   3.646
    1C        C  120   3.897   2.567   3.770
    1C        C  121   3.830   2.549   3.893
    1C        C  122   4.026   2.640   4.010
    1C        C  123   3.900   2.576   4.012
    1C        C  124   4.086   2.677   4.133
    1C        C  125   4.026   2.641   4.256
    1C        C  126   4.197   2.767   4.376
    1C        C  127   4.089   2.675   4.378
    1C        C  128   4.247   2.818   4.498
    1C        C  129   4.199   2.763   4.619
    1C        C  130   4.328   2.937   4.737
    1C        C  131   4.248   2.820   4.739
    1C        C  132   4.364   3.000   4.859
    1C        C  133   4.301   2.949   4.973
    1C        C  134   3.169   2.464   2.084
    1C        C  135   3.036   2.508   2.085
    1C        C  136   3.260   2.476   2.190
    1C        C  137   3.195   2.518   2.308
    1C        C  138   3.406   2.478   2.428
    1C        C  139   3.268   2.509   2.429
    1C        C  140   3.481   2.480   2.548
    1C        C  141   3.411   2.495   2.670
    1C        C  142   3.623   2.492   2.789
    1C        C  143   3.482   2.485   2.791
    1C        C  144   3.694   2.498   2.911
    1C        C  145   3.625   2.488   3.034
    1C        C  146   3.832   2.534   3.158
    1C        C  147   3.695   2.498   3.156
    1C        C  148   3.899   2.560   3.280
    1C        C  149   3.833   2.540   3.403
    1C        C  150   4.024   2.629   3.522
    1C        C  151   3.898   2.564   3.526
    1C        C  152   4.084   2.666   3.644
    1C        C  153   4.022   2.633   3.767
    1C        C  154   4.193   2.766   3.888
    1C        C  155   4.084   2.677   3.887
    1C        C  156   4.242   2.816   4.011
    1C        C  157   4.197   2.764   4.134
    1C        C  158   4.342   2.921   4.252
    1C        C  159   4.256   2.808   4.255
    1C        C  160   4.374   2.985   4.373
    1C        C  161   4.333   2.930   4.497
    1C        C  162   4.447   3.114   4.613
    1C        C  163   4.376   2.992   4.616
    1C        C  164   4.473   3.182   4.733
    1C        C  165   4.439   3.119   4.855
    1C        C  166   4.516   3.321   4.973
    1C        C  167   4.472   3.189   4.972
    1C        C  168   3.472   2.434   2.071
    1C        C  169   3.399   2.456   2.189
    1C        C  170   3.619   2.463   2.306
    1C        C  171   3.477   2.464   2.307
    1C        C  172   3.694   2.485   2.423
    1C        C  173   3.622   2.488   2.545
    1C        C  174   3.830   2.537   2.668
    1C        C  175   3.693   2.500   2.666
    1C        C  176   3.898   2.556   2.790
    1C        C  177   3.830   2.535   2.913
    1C        C  178   4.025   2.618   3.033
    1C        C  179   3.897   2.559   3.035
    1C        C  180   4.085   2.658   3.154
    1C        C  181   4.026   2.622   3.277
    1C        C  182   4.196   2.750   3.399
    1C        C  183   4.085   2.662   3.399
    1C        C  184   4.244   2.804   3.521
    1C        C  185   4.195   2.753   3.644
    1C        C  186   4.330   2.921   3.761
    1C        C  187   4.246   2.807   3.764
    1C        C  188   4.374   2.978   3.882
    1C        C  189   4.335   2.923   4.006
    1C        C  190   4.447   3.102   4.127
    1C        C  191   4.380   2.978   4.128
    1C        C  192   4.471   3.171   4.248
    1C        C  193   4.442   3.109   4.372
    1C        C  194   4.517   3.313   4.491
    1C        C  195   4.473   3.179   4.490
    1C        C  196   4.530   3.387   4.611
    1C        C  197   4.515   3.318   4.733
    1C        C  198   4.556   3.532   4.849
    1C        C  199   4.539   3.390   4.854
    1C        C  200   4.586   3.620   4.958
    1C        C  201   3.612   2.425   2.070
    1C        C  202   3.826   2.508   2.183
    1C        C  203   3.692   2.459   2.183
    1C        C  204   3.899   2.540   2.302
    1C        C  205   3.832   2.514   2.423
    1C        C  206   4.019   2.619   2.544
    1C        C  207   3.895   2.552   2.544
    1C        C  208   4.081   2.656   2.666
    1C        C  209   4.023   2.620   2.790
    1C        C  210   4.196   2.745   2.906
    1C        C  211   4.083   2.661   2.911
    1C        C  212   4.247   2.793   3.029
    1C        C  213   4.196   2.746   3.152
    1C        C  214   4.329   2.908   3.269
    1C        C  215   4.246   2.794   3.275
    1C        C  216   4.372   2.965   3.391
    1C        C  217   4.329   2.916   3.516
    1C        C  218   4.435   3.102   3.639
    1C        C  219   4.368   2.978   3.637
    1C        C  220   4.466   3.166   3.761
    1C        C  221   4.441   3.102   3.884
    1C        C  222   4.504   3.305   4.003
    1C        C  223   4.475   3.167   4.005
    1C        C  224   4.514   3.378   4.123
    1C        C  225   4.507   3.308   4.245
    1C        C  226   4.515   3.521   4.365
    1C        C  227   4.517   3.380   4.366
    1C        C  228   4.515   3.596   4.485
    1C        C  229   4.532   3.528   4.608
    1C        C  230   4.501   3.741   4.728
    1C        C  231   4.536   3.603   4.728
    1C        C  232   4.488   3.816   4.847
    1C        C  233   4.546   3.754   4.959
    1C        C  234   4.015   2.614   2.065
    1C        C  235   3.896   2.542   2.067
    1C        C  236   4.085   2.646   2.181
    1C        C  237   4.021   2.613   2.302
    1C        C  238   4.200   2.733   2.421
    1C        C  239   4.085   2.649   2.423
    1C        C  240   4.252   2.784   2.542
    1C        C  241   4.196   2.738   2.663
    1C        C  242   4.335   2.903   2.785
    1C        C  243   4.246   2.793   2.783
    1C        C  244   4.374   2.961   2.907
    1C        C  245   4.333   2.905   3.030
    1C        C  246   4.437   3.095   3.150
    1C        C  247   4.374   2.969   3.149
    1C        C  248   4.457   3.162   3.273
    1C        C  249   4.431   3.093   3.394
    1C        C  250   4.492   3.300   3.513
    1C        C  251   4.457   3.164   3.513
    1C        C  252   4.505   3.370   3.635
    1C        C  253   4.503   3.303   3.759
    1C        C  254   4.519   3.515   3.878
    1C        C  255   4.514   3.374   3.880
    1C        C  256   4.507   3.587   3.999
    1C        C  257   4.513   3.520   4.123
    1C        C  258   4.488   3.732   4.240
    1C        C  259   4.516   3.593   4.244
    1C        C  260   4.469   3.801   4.362
    1C        C  261   4.489   3.734   4.485
    1C        C  262   4.424   3.939   4.604
    1C        C  263   4.474   3.807   4.606
    1C        C  264   4.400   4.011   4.723
    1C        C  265   4.429   3.944   4.844
    1C        C  266   4.313   4.126   4.961
    1C        C  267   4.392   4.011   4.961
    1C        C  268   4.263   2.778   2.068
    1C        C  269   4.200   2.728   2.182
    1C        C  270   4.350   2.888   2.299
    1C        C  271   4.258   2.780   2.301
    1C        C  272   4.386   2.949   2.421
    1C        C  273   4.342   2.893   2.543
    1C        C  274   4.452   3.079   2.661
    1C        C  275   4.378   2.959   2.662
    1C        C  276   4.471   3.149   2.783
    1C        C  277   4.437   3.088   2.905
    1C        C  278   4.498   3.294   3.024
    1C        C  279   4.461   3.157   3.026
    1C        C  280   4.503   3.368   3.144
    1C        C  281   4.488   3.300   3.267
    1C        C  282   4.516   3.509   3.391
    1C        C  283   4.504   3.368   3.389
    1C        C  284   4.513   3.580   3.513
    1C        C  285   4.517   3.511   3.636
    1C        C  286   4.490   3.724   3.754
    1C        C  287   4.521   3.586   3.756
    1C        C  288   4.476   3.796   3.875
    1C        C  289   4.493   3.728   3.998
    1C        C  290   4.430   3.934   4.118
    1C        C  291   4.479   3.802   4.118
    1C        C  292   4.396   4.000   4.238
    1C        C  293   4.422   3.934   4.360
    1C        C  294   4.325   4.124   4.479
    1C        C  295   4.391   3.999   4.481
    1C        C  296   4.282   4.187   4.598
    1C        C  297   4.326   4.133   4.721
    1C        C  298   4.206   4.314   4.838
    1C        C  299   4.282   4.193   4.842
    1C        C  300   4.172   4.401   4.947
    1C        C  301   4.352   2.884   2.060
    1C        C  302   4.467   3.070   2.178
    1C        C  303   4.399   2.945   2.178
    1C        C  304   4.485   3.140   2.301
    1C        C  305   4.450   3.075   2.421
    1C        C  306   4.507   3.284   2.539
    1C        C  307   4.479   3.146   2.540
    1C        C  308   4.512   3.359   2.659
    1C        C  309   4.497   3.288   2.780
    1C        C  310   4.523   3.501   2.902
    1C        C  311   4.515   3.360   2.901
    1C        C  312   4.517   3.576   3.022
    1C        C  313   4.514   3.509   3.146
    1C        C  314   4.486   3.718   3.265
    1C        C  315   4.511   3.579   3.269
    1C        C  316   4.470   3.787   3.387
    1C        C  317   4.484   3.719   3.510
    1C        C  318   4.424   3.924   3.628
    1C        C  319   4.467   3.789   3.631
    1C        C  320   4.395   3.988   3.750
    1C        C  321   4.429   3.929   3.874
    1C        C  322   4.321   4.113   3.991
    1C        C  323   4.399   3.996   3.995
    1C        C  324   4.278   4.172   4.112
    1C        C  325   4.322   4.121   4.236
    1C        C  326   4.188   4.287   4.357
    1C        C  327   4.281   4.180   4.358
    1C        C  328   4.136   4.341   4.477
    1C        C  329   4.190   4.294   4.598
    1C        C  330   4.028   4.438   4.712
    1C        C  331   4.140   4.350   4.718
    1C        C  332   3.973   4.495   4.829
    1C        C  333   4.059   4.483   4.939
    1C        C  334   4.557   3.266   2.064
    1C        C  335   4.529   3.129   2.063
    1C        C  336   4.535   3.348   2.175
    1C        C  337   4.514   3.279   2.296
    1C        C  338   4.525   3.494   2.414
    1C        C  339   4.518   3.353   2.417
    1C        C  340   4.519   3.568   2.534
    1C        C  341   4.525   3.499   2.658
    1C        C  342   4.493   3.710   2.774
    1C        C  343   4.520   3.571   2.780
    1C        C  344   4.479   3.781   2.895
    1C        C  345   4.496   3.716   3.019
    1C        C  346   4.426   3.917   3.136
    1C        C  347   4.475   3.784   3.141
    1C        C  348   4.391   3.982   3.257
    1C        C  349   4.420   3.919   3.380
    1C        C  350   4.323   4.106   3.502
    1C        C  351   4.395   3.984   3.503
    1C        C  352   4.283   4.166   3.623
    1C        C  353   4.322   4.109   3.747
    1C        C  354   4.183   4.272   3.868
    1C        C  355   4.279   4.168   3.868
    1C        C  356   4.127   4.319   3.989
    1C        C  357   4.180   4.274   4.112
    1C        C  358   4.019   4.409   4.233
    1C        C  359   4.136   4.330   4.233
    1C        C  360   3.954   4.448   4.352
    1C        C  361   4.017   4.418   4.474
    1C        C  362   3.830   4.523   4.590
    1C        C  363   3.960   4.470   4.593
    1C        C  364   3.763   4.549   4.711
    1C        C  365   3.841   4.546   4.829
    1C        C  366   3.634   4.597   4.949
    1C        C  367   3.772   4.578   4.946
    1C        C  368   4.503   3.562   2.055
    1C        C  369   4.524   3.489   2.173
    1C        C  370   4.506   3.705   2.288
    1C        C  371   4.519   3.565   2.292
    1C        C  372   4.486   3.777   2.408
    1C        C  373   4.497   3.707   2.530
    1C        C  374   4.425   3.908   2.650
    1C        C  375   4.480   3.778   2.651
    1C        C  376   4.387   3.974   2.769
    1C        C  377   4.425   3.912   2.890
    1C        C  378   4.323   4.098   3.009
    1C        C  379   4.398   3.977   3.012
    1C        C  380   4.276   4.154   3.129
    1C        C  381   4.314   4.100   3.254
    1C        C  382   4.177   4.258   3.377
    1C        C  383   4.276   4.156   3.378
    1C        C  384   4.123   4.303   3.499
    1C        C  385   4.179   4.261   3.621
    1C        C  386   4.011   4.389   3.741
    1C        C  387   4.128   4.311   3.743
    1C        C  388   3.950   4.428   3.862
    1C        C  389   4.008   4.394   3.987
    1C        C  390   3.822   4.488   4.108
    1C        C  391   3.953   4.436   4.110
    1C        C  392   3.752   4.516   4.227
    1C        C  393   3.825   4.505   4.348
    1C        C  394   3.618   4.557   4.471
    1C        C  395   3.758   4.534   4.468
    1C        C  396   3.549   4.570   4.593
    1C        C  397   3.623   4.566   4.713
    1C        C  398   3.414   4.551   4.839
    1C        C  399   3.554   4.573   4.837
    1C        C  400   3.344   4.518   4.956
    1C        C  401   4.497   3.701   2.051
    1C        C  402   4.456   3.914   2.165
    1C        C  403   4.496   3.779   2.167
    1C        C  404   4.418   3.977   2.285
    1C        C  405   4.441   3.911   2.408
    1C        C  406   4.327   4.094   2.522
    1C        C  407   4.401   3.974   2.528
    1C        C  408   4.278   4.151   2.642
    1C        C  409   4.311   4.093   2.766
    1C        C  410   4.176   4.255   2.890
    1C        C  411   4.275   4.154   2.888
    1C        C  412   4.122   4.301   3.012
    1C        C  413   4.174   4.252   3.134
    1C        C  414   4.002   4.376   3.253
    1C        C  415   4.124   4.304   3.255
    1C        C  416   3.941   4.412   3.375
    1C        C  417   4.006   4.382   3.497
    1C        C  418   3.815   4.474   3.621
    1C        C  419   3.945   4.418   3.619
    1C        C  420   3.749   4.499   3.743
    1C        C  421   3.818   4.478   3.865
    1C        C  422   3.613   4.532   3.986
    1C        C  423   3.751   4.503   3.987
    1C        C  424   3.543   4.539   4.108
    1C        C  425   3.612   4.535   4.231
    1C        C  426   3.400   4.550   4.355
    1C        C  427   3.542   4.554   4.352
    1C        C  428   3.335   4.541   4.480
    1C        C  429   3.408   4.560   4.599
    1C        C  430   3.198   4.517   4.723
    1C        C  431   3.338   4.543   4.721
    1C        C  432   3.128   4.495   4.844
    1C        C  433   3.208   4.491   4.959
    1C        C  434   4.386   4.121   2.052
    1C        C  435   4.449   3.996   2.052
    1C        C  436   4.300   4.161   2.159
    1C        C  437   4.339   4.096   2.279
    1C        C  438   4.185   4.248   2.402
    1C        C  439   4.287   4.150   2.398
    1C        C  440   4.123   4.295   2.520
    1C        C  441   4.174   4.247   2.643
    1C        C  442   4.002   4.370   2.765
    1C        C  443   4.121   4.293   2.765
    1C        C  444   3.944   4.413   2.886
    1C        C  445   4.006   4.382   3.009
    1C        C  446   3.812   4.470   3.131
    1C        C  447   3.941   4.414   3.131
    1C        C  448   3.745   4.487   3.254
    1C        C  449   3.811   4.468   3.377
    1C        C  450   3.607   4.523   3.499
    1C        C  451   3.745   4.492   3.500
    1C        C  452   3.540   4.541   3.622
    1C        C  453   3.611   4.533   3.744
    1C        C  454   3.399   4.547   3.866
    1C        C  455   3.540   4.546   3.865
    1C        C  456   3.331   4.533   3.989
    1C        C  457   3.402   4.531   4.112
    1C        C  458   3.193   4.502   4.237
    1C        C  459   3.331   4.532   4.234
    1C        C  460   3.127   4.485   4.360
    1C        C  461   3.197   4.507   4.481
    1C        C  462   3.001   4.429   4.603
    1C        C  463   3.129   4.488   4.603
    1C        C  464   2.934   4.398   4.723
    1C        C  465   2.994   4.443   4.844
    1C        C  466   2.806   4.336   4.959
    1C        C  467   2.916   4.422   4.962
    1C        C  468   4.118   4.276   2.039
    1C        C  469   4.182   4.243   2.159
    1C        C  470   4.005   4.366   2.277
    1C        C  471   4.126   4.290   2.281
    1C        C  472   3.944   4.405   2.397
    1C        C  473   4.002   4.368   2.521
    1C        C  474   3.813   4.465   2.642
    1C        C  475   3.940   4.403   2.642
    1C        C  476   3.747   4.493   2.764
    1C        C  477   3.815   4.470   2.886
    1C        C  478   3.607   4.518   3.010
    1C        C  479   3.746   4.490   3.007
    1C        C  480   3.537   4.529   3.132
    1C        C  481   3.606   4.515   3.254
    1C        C  482   3.396   4.536   3.377
    1C        C  483   3.537   4.530   3.377
    1C        C  484   3.327   4.529   3.500
    1C        C  485   3.399   4.536   3.622
    1C        C  486   3.191   4.498   3.745
    1C        C  487   3.329   4.528   3.744
    1C        C  488   3.127   4.478   3.869
    1C        C  489   3.193   4.501   3.991
    1C        C  490   3.000   4.420   4.117
    1C        C  491   3.126   4.483   4.114
    1C        C  492   2.941   4.380   4.239
    1C        C  493   3.001   4.420   4.360
    1C        C  494   2.827   4.301   4.484
    1C        C  495   2.939   4.388   4.482
    1C        C  496   2.770   4.256   4.605
    1C        C  497   2.820   4.314   4.724
    1C        C  498   2.668   4.164   4.845
    1C        C  499   2.759   4.272   4.844
    1C        C  500   2.599   4.115   4.957
    1C        C  501   4.001   4.351   2.040
    1C        C  502   3.813   4.461   2.155
    1C        C  503   3.940   4.400   2.156
    1C        C  504   3.746   4.480   2.278
    1C        C  505   3.811   4.454   2.400
    1C        C  506   3.604   4.502   2.521
    1C        C  507   3.744   4.483   2.520
    1C        C  508   3.535   4.514   2.644
    1C        C  509   3.607   4.512   2.765
    1C        C  510   3.395   4.522   2.890
    1C        C  511   3.537   4.519   2.888
    1C        C  512   3.325   4.520   3.012
    1C        C  513   3.396   4.536   3.133
    1C        C  514   3.188   4.494   3.257
    1C        C  515   3.325   4.529   3.255
    1C        C  516   3.120   4.474   3.379
    1C        C  517   3.190   4.498   3.499
    1C        C  518   3.000   4.408   3.624
    1C        C  519   3.125   4.473   3.623
    1C        C  520   2.941   4.374   3.748
    1C        C  521   3.003   4.410   3.870
    1C        C  522   2.834   4.288   3.995
    1C        C  523   2.945   4.375   3.994
    1C        C  524   2.784   4.239   4.118
    1C        C  525   2.831   4.291   4.241
    1C        C  526   2.690   4.136   4.365
    1C        C  527   2.777   4.247   4.363
    1C        C  528   2.650   4.075   4.486
    1C        C  529   2.683   4.145   4.604
    1C        C  530   2.585   3.960   4.731
    1C        C  531   2.640   4.091   4.728
    1C        C  532   2.548   3.898   4.853
    1C        C  533   2.540   3.989   4.964
    1C        C  534   3.618   4.551   2.040
    1C        C  535   3.751   4.505   2.037
    1C        C  536   3.536   4.536   2.156
    1C        C  537   3.608   4.514   2.277
    1C        C  538   3.394   4.518   2.401
    1C        C  539   3.535   4.519   2.398
    1C        C  540   3.324   4.513   2.524
    1C        C  541   3.394   4.524   2.646
    1C        C  542   3.186   4.487   2.769
    1C        C  543   3.323   4.518   2.768
    1C        C  544   3.120   4.467   2.893
    1C        C  545   3.186   4.491   3.015
    1C        C  546   2.990   4.410   3.135
    1C        C  547   3.116   4.475   3.137
    1C        C  548   2.935   4.369   3.258
    1C        C  549   2.994   4.409   3.380
    1C        C  550   2.828   4.281   3.506
    1C        C  551   2.935   4.372   3.503
    1C        C  552   2.778   4.234   3.630
    1C        C  553   2.832   4.284   3.750
    1C        C  554   2.698   4.124   3.875
    1C        C  555   2.783   4.237   3.874
    1C        C  556   2.658   4.067   3.998
    1C        C  557   2.695   4.129   4.119
    1C        C  558   2.599   3.944   4.243
    1C        C  559   2.658   4.072   4.243
    1C        C  560   2.570   3.879   4.366
    1C        C  561   2.591   3.947   4.488
    1C        C  562   2.527   3.749   4.616
    1C        C  563   2.565   3.885   4.612
    1C        C  564   2.520   3.680   4.739
    1C        C  565   2.522   3.757   4.858
    1C        C  566   2.534   3.546   4.981
    1C        C  567   2.518   3.685   4.978
    1C        C  568   3.327   4.479   2.043
    1C        C  569   3.395   4.522   2.158
    1C        C  570   3.183   4.484   2.281
    1C        C  571   3.323   4.511   2.280
    1C        C  572   3.117   4.465   2.404
    1C        C  573   3.186   4.482   2.526
    1C        C  574   2.988   4.407   2.649
    1C        C  575   3.117   4.463   2.648
    1C        C  576   2.929   4.368   2.772
    1C        C  577   2.994   4.404   2.892
    1C        C  578   2.820   4.281   3.016
    1C        C  579   2.932   4.366   3.014
    1C        C  580   2.773   4.230   3.139
    1C        C  581   2.823   4.283   3.260
    1C        C  582   2.695   4.118   3.385
    1C        C  583   2.776   4.234   3.383
    1C        C  584   2.659   4.058   3.508
    1C        C  585   2.695   4.120   3.629
    1C        C  586   2.595   3.936   3.755
    1C        C  587   2.661   4.061   3.753
    1C        C  588   2.580   3.870   3.878
    1C        C  589   2.610   3.934   4.001
    1C        C  590   2.540   3.736   4.124
    1C        C  591   2.581   3.871   4.124
    1C        C  592   2.523   3.671   4.249
    1C        C  593   2.530   3.744   4.370
    1C        C  594   2.515   3.537   4.495
    1C        C  595   2.515   3.678   4.494
    1C        C  596   2.520   3.467   4.618
    1C        C  597   2.516   3.538   4.740
    1C        C  598   2.537   3.329   4.863
    1C        C  599   2.527   3.470   4.863
    1C        C  600   2.534   3.251   4.979
    1C        C  601   3.193   4.444   2.042
    1C        C  602   2.986   4.394   2.161
    1C        C  603   3.119   4.447   2.160
    1C        C  604   2.929   4.360   2.287
    1C        C  605   2.989   4.404   2.408
    1C        C  606   2.822   4.270   2.530
    1C        C  607   2.926   4.366   2.528
    1C        C  608   2.774   4.220   2.653
    1C        C  609   2.821   4.277   2.774
    1C        C  610   2.690   4.110   2.897
    1C        C  611   2.772   4.224   2.895
    1C        C  612   2.651   4.054   3.021
    1C        C  613   2.688   4.116   3.142
    1C        C  614   2.596   3.927   3.265
    1C        C  615   2.656   4.055   3.265
    1C        C  616   2.569   3.863   3.389
    1C        C  617   2.600   3.929   3.510
    1C        C  618   2.533   3.732   3.634
    1C        C  619   2.568   3.869   3.633
    1C        C  620   2.522   3.663   3.757
    1C        C  621   2.537   3.735   3.878
    1C        C  622   2.511   3.527   4.006
    1C        C  623   2.522   3.668   4.001
    1C        C  624   2.519   3.460   4.130
    1C        C  625   2.516   3.530   4.252
    1C        C  626   2.534   3.321   4.378
    1C        C  627   2.519   3.462   4.376
    1C        C  628   2.551   3.253   4.500
    1C        C  629   2.539   3.328   4.620
    1C        C  630   2.601   3.124   4.744
    1C        C  631   2.557   3.259   4.742
    1C        C  632   2.618   3.049   4.863
    1C        C  633   2.555   3.113   4.975
    1C        C  634   2.789   4.304   2.058
    1C        C  635   2.894   4.396   2.051
    1C        C  636   2.755   4.230   2.173
    1C        C  637   2.811   4.282   2.292
    1C        C  638   2.682   4.107   2.412
    1C        C  639   2.765   4.221   2.411
    1C        C  640   2.644   4.048   2.535
    1C        C  641   2.684   4.112   2.655
    1C        C  642   2.584   3.924   2.776
    1C        C  643   2.646   4.051   2.776
    1C        C  644   2.568   3.856   2.899
    1C        C  645   2.595   3.924   3.020
    1C        C  646   2.531   3.724   3.149
    1C        C  647   2.573   3.859   3.143
    1C        C  648   2.512   3.656   3.271
    1C        C  649   2.527   3.728   3.392
    1C        C  650   2.506   3.518   3.518
    1C        C  651   2.518   3.659   3.514
    1C        C  652   2.513   3.450   3.642
    1C        C  653   2.515   3.522   3.763
    1C        C  654   2.540   3.314   3.887
    1C        C  655   2.512   3.452   3.886
    1C        C  656   2.552   3.249   4.012
    1C        C  657   2.542   3.321   4.133
    1C        C  658   2.607   3.121   4.258
    1C        C  659   2.555   3.253   4.256
    1C        C  660   2.635   3.057   4.380
    1C        C  661   2.597   3.119   4.501
    1C        C  662   2.709   2.939   4.627
    1C        C  663   2.627   3.055   4.623
    1C        C  664   2.748   2.875   4.746
    1C        C  665   2.697   2.929   4.867
    1C        C  666   2.750   2.874   4.985
    1C        C  667   2.685   4.025   2.055
    1C        C  668   2.692   4.104   2.171
    1C        C  669   2.595   3.911   2.292
    1C        C  670   2.649   4.043   2.290
    1C        C  671   2.564   3.847   2.414
    1C        C  672   2.587   3.919   2.534
    1C        C  673   2.524   3.718   2.659
    1C        C  674   2.555   3.856   2.656
    1C        C  675   2.509   3.648   2.781
    1C        C  676   2.528   3.720   2.901
    1C        C  677   2.510   3.514   3.031
    1C        C  678   2.518   3.655   3.026
    1C        C  679   2.512   3.442   3.152
    1C        C  680   2.502   3.515   3.273
    1C        C  681   2.526   3.306   3.400
    1C        C  682   2.507   3.446   3.396
    1C        C  683   2.540   3.237   3.523
    1C        C  684   2.530   3.310   3.643
    1C        C  685   2.591   3.106   3.769
    1C        C  686   2.552   3.242   3.766
    1C        C  687   2.633   3.049   3.891
    1C        C  688   2.604   3.117   4.012
    1C        C  689   2.713   2.938   4.140
    1C        C  690   2.639   3.058   4.135
    1C        C  691   2.759   2.883   4.262
    1C        C  692   2.717   2.942   4.383
    1C        C  693   2.757   2.884   4.506
    1C        C  694   2.636   3.893   2.061
    1C        C  695   2.531   3.702   2.173
    1C        C  696   2.581   3.834   2.175
    1C        C  697   2.509   3.638   2.297
    1C        C  698   2.526   3.711   2.417
    1C        C  699   2.490   3.504   2.543
    1C        C  700   2.506   3.645   2.540
    1C        C  701   2.495   3.434   2.665
    1C        C  702   2.504   3.507   2.786
    1C        C  703   2.530   3.301   2.911
    1C        C  704   2.509   3.440   2.910
    1C        C  705   2.546   3.231   3.033
    1C        C  706   2.529   3.302   3.154
    1C        C  707   2.596   3.104   3.278
    1C        C  708   2.548   3.237   3.278
    1C        C  709   2.632   3.047   3.402
    1C        C  710   2.595   3.107   3.525
    1C        C  711   2.710   2.933   3.646
    1C        C  712   2.617   3.040   3.647
    1C        C  713   2.760   2.882   3.768
    1C        C  714   2.713   2.932   3.892
    1C        C  715   2.752   2.880   4.017
    1C        C  716   2.452   3.500   2.062
    1C        C  717   2.492   3.634   2.057
    1C        C  718   2.469   3.423   2.181
    1C        C  719   2.484   3.498   2.301
    1C        C  720   2.511   3.289   2.425
    1C        C  721   2.488   3.428   2.424
    1C        C  722   2.539   3.222   2.547
    1C        C  723   2.522   3.295   2.667
    1C        C  724   2.593   3.097   2.789
    1C        C  725   2.539   3.228   2.790
    1C        C  726   2.622   3.033   2.912
    1C        C  727   2.593   3.098   3.034
    1C        C  728   2.705   2.920   3.157
    1C        C  729   2.626   3.038   3.157
    1C        C  730   2.752   2.872   3.281
    1C        C  731   2.713   2.931   3.404
    1C        C  732   2.756   2.875   3.526
    1C        C  733   2.492   3.199   2.072
    1C        C  734   2.487   3.281   2.186
    1C        C  735   2.589   3.088   2.302
    1C        C  736   2.525   3.215   2.306
    1C        C  737   2.613   3.023   2.425
    1C        C  738   2.589   3.090   2.547
    1C        C  739   2.694   2.907   2.668
    1C        C  740   2.620   3.028   2.670
    1C        C  741   2.736   2.850   2.790
    1C        C  742   2.698   2.913   2.910
    1C        C  743   2.746   2.865   3.034
    1C        C  744   2.548   3.072   2.071
    1C        C  745   2.687   2.898   2.183
    1C        C  746   2.612   3.017   2.183
    1C        C  747   2.728   2.842   2.306
    1C        C  748   2.687   2.902   2.427
    1C        C  749   2.736   2.846   2.547
    1C        C  750   2.731   2.834   2.066
    1C        C  751   3.642   2.311   1.979
    1C        O  752   3.696   2.204   2.018
    1C        O  753   3.630   2.322   1.840
    1C        C  754   4.616   3.048   1.974
    1C        O  755   4.583   3.035   1.853
    1C        O  756   4.753   3.047   1.998
    1C        C  757   4.437   4.217   1.952
    1C        O  758   4.472   4.333   1.986
    1C        O  759   4.436   4.192   1.814
    1C        C  760   3.592   4.658   1.941
    1C        O  761   3.614   4.778   1.973
    1C        O  762   3.573   4.639   1.804
    1C        C  763   2.894   4.499   1.945
    1C        O  764   2.887   4.466   1.823
    1C        O  765   2.834   4.624   1.967
    1C        C  766   2.349   3.463   1.962
    1C        O  767   2.364   3.459   1.836
    1C        O  768   2.213   3.488   1.984
    1C        C  769   4.707   3.601   5.041
    1C        O  770   4.715   3.638   5.161
    1C        O  771   4.831   3.610   4.974
    1C        C  772   4.278   4.455   5.035
    1C        O  773   4.307   4.403   5.146
    1C        O  774   4.353   4.568   5.001
    1C        C  775   4.149   2.528   5.064
    1C        O  776   4.185   2.413   5.029
    1C        O  777   4.163   2.540   5.203
    1C        C  778   2.901   4.534   5.059
    1C        O  779   2.839   4.641   5.033
    1C        O  780   2.953   4.532   5.189
    1C        C  781   2.460   3.042   5.063
    1C        O  782   2.349   2.994   5.027
    1C        O  783   2.512   2.991   5.182
    1C        C  784   2.426   3.989   5.058
    1C        O  785   2.310   4.029   5.028
    1C        O  786   2.442   3.935   5.186
    1C        C  787   2.948   2.444   1.984
    1C        O  788   2.942   2.473   1.861
    1C        O  789   2.919   2.309   1.998
    1C        C  790   3.167   2.365   5.054
    1C        O  791   3.109   2.265   5.004
    1C        O  792   3.189   2.353   5.192
    1C        H  793   4.262   3.024   5.037
    1C        H  794   4.204   2.785   5.070
    1C        H  795   4.506   3.133   5.057
    1C        H  796   4.513   3.374   5.066
    1C        H  797   4.509   3.782   5.055
    1C        H  798   4.402   3.966   5.058
    1C        H  799   4.288   4.167   5.056
    1C        H  800   4.021   4.508   5.036
    1C        H  801   3.825   4.585   5.039
    1C        H  802   3.598   4.670   5.018
    1C        H  803   3.406   4.481   5.035
    1C        H  804   3.159   4.496   5.055
    1C        H  805   3.882   2.517   5.072
    1C        H  806   3.671   2.453   5.073
    1C        H  807   2.989   2.516   5.040
    1C        H  808   3.441   2.463   5.073
    1C        H  809   2.825   2.697   5.064
    1C        H  810   2.764   2.936   5.071
    1C        H  811   2.463   3.285   5.052
    1C        H  812   2.583   3.509   5.068
    1C        H  813   2.464   3.729   5.059
    1C        H  814   2.554   4.194   5.014
    1C        H  815   2.752   4.322   5.051
    1C        H  816   2.680   2.838   1.973
    1C        H  817   2.843   2.675   1.978
    1C        H  818   3.181   2.376   2.024
    1C        H  819   3.414   2.418   1.983
    1C        H  820   3.882   2.479   1.981
    1C        H  821   4.058   2.639   1.970
    1C        H  822   4.269   2.708   1.987
    1C        H  823   4.406   2.896   1.968
    1C        H  824   4.593   3.307   1.971
    1C        H  825   4.445   3.507   1.984
    1C        H  826   4.465   3.745   1.959
    1C        H  827   3.818   4.553   1.969
    1C        H  828   3.970   4.389   1.945
    1C        H  829   4.154   4.245   1.943
    1C        H  830   4.523   3.981   1.976
    1C        H  831   2.637   3.841   1.968
    1C        H  832   2.733   4.059   1.966
    1C        H  833   2.707   4.326   1.993
    1C        H  834   3.350   4.551   1.967
    1C        H  835   3.157   4.399   1.951
    1C        H  836   2.563   3.030   1.973
    1C        H  837   2.419   3.211   1.995
    1C        H  838   2.436   3.686   1.983
    2V3OU   H29  839   2.806   3.544   3.202
    2V3OU   C27  840   2.790   3.504   3.305
    2V3OU   H27  841   2.735   3.572   3.374
    2V3OU   H28  842   2.737   3.407   3.294
    2V3OU   O11  843   2.916   3.474   3.366
    2V3OU   C15  844   2.926   3.394   3.478
    2V3OU   C13  845   3.054   3.373   3.533
    2V3OU   C14  846   3.085   3.269   3.622
    2V3OU   C16  847   2.981   3.191   3.671
    2V3OU    H6  848   3.000   3.099   3.729
    2V3OU   C12  849   3.221   3.227   3.663
    2V3OU    O2  850   3.240   3.124   3.730
    2V3OU   C10  851   3.331   3.303   3.602
    2V3OU    C8  852   3.463   3.270   3.632
    2V3OU   O10  853   3.492   3.161   3.708
    2V3OU   H26  854   3.408   3.127   3.742
    2V3OU    C6  855   3.571   3.358   3.600
    2V3OU    C5  856   3.541   3.475   3.532
    2V3OU    C4  857   3.705   3.292   3.597
    2V3OU    H4  858   3.724   3.223   3.684
    2V3OU    H5  859   3.709   3.226   3.505
    2V3OU    C2  860   3.814   3.398   3.583
    2V3OU    O6  861   3.802   3.469   3.707
    2V3OU   H21  862   3.763   3.553   3.677
    2V3OU    C3  863   3.785   3.500   3.473
    2V3OU    H2  864   3.862   3.580   3.471
    2V3OU    H3  865   3.784   3.446   3.374
    2V3OU   C25  866   3.950   3.329   3.572
    2V3OU    O7  867   3.996   3.295   3.463
    2V3OU   C26  868   4.026   3.291   3.698
    2V3OU   H22  869   4.061   3.381   3.754
    2V3OU   H23  870   4.117   3.231   3.670
    2V3OU    O8  871   3.959   3.206   3.788
    2V3OU   H24  872   3.928   3.263   3.860
    2V3OU    C1  873   3.651   3.569   3.490
    2V3OU    H1  874   3.629   3.627   3.396
    2V3OU    O3  875   3.662   3.652   3.606
    2V3OU   C19  876   3.621   3.788   3.594
    2V3OU    H9  877   3.525   3.799   3.535
    2V3OU    O4  878   3.714   3.847   3.506
    2V3OU   C20  879   3.842   3.871   3.565
    2V3OU   H10  880   3.898   3.773   3.570
    2V3OU   C24  881   3.607   3.852   3.732
    2V3OU   H16  882   3.542   3.791   3.801
    2V3OU   H17  883   3.561   3.953   3.718
    2V3OU   C23  884   3.744   3.873   3.798
    2V3OU   H15  885   3.789   3.770   3.819
    2V3OU    N1  886   3.730   3.956   3.916
    2V3OU   H19  887   3.803   3.917   3.973
    2V3OU   H20  888   3.646   3.929   3.962
    2V3OU   C21  889   3.844   3.943   3.700
    2V3OU   H11  890   3.947   3.923   3.741
    2V3OU    O5  891   3.818   4.082   3.695
    2V3OU   H18  892   3.788   4.103   3.785
    2V3OU   C22  893   3.913   3.953   3.458
    2V3OU   H12  894   3.861   4.051   3.445
    2V3OU   H13  895   3.907   3.898   3.360
    2V3OU   H14  896   4.021   3.959   3.488
    2V3OU   C11  897   3.162   3.471   3.516
    2V3OU    O1  898   3.132   3.591   3.499
    2V3OU    C9  899   3.301   3.422   3.530
    2V3OU    C7  900   3.406   3.509   3.501
    2V3OU    O9  901   3.381   3.624   3.429
    2V3OU   H25  902   3.286   3.634   3.412
    2V3OU   C17  903   2.827   3.309   3.531
    2V3OU    H7  904   2.730   3.358   3.534
    2V3OU   C18  905   2.851   3.210   3.626
    2V3OU    H8  906   2.790   3.168   3.707
    3SOL     OW  907   3.038   5.148   6.235
    3SOL    HW1  908   3.077   5.194   6.315
    3SOL    HW2  909   2.972   5.209   6.190
    4SOL     OW  910   6.697   0.093   0.672
    4SOL    HW1  911   6.679   0.146   0.589
    4SOL    HW2  912   6.630   0.018   0.679
    5SOL     OW  913   4.709   2.315   2.190
    5SOL    HW1  914   4.709   2.315   2.290
    5SOL    HW2  915   4.663   2.397   2.157
    6SOL     OW  916   4.492   1.876   2.041
    6SOL    HW1  917   4.571   1.937   2.034
    6SOL    HW2  918   4.428   1.897   1.967
    7SOL     OW  919   0.542   4.538   3.756
    7SOL    HW1  920   0.484   4.506   3.830
    7SOL    HW2  921   0.621   4.586   3.794
    8SOL     OW  922   2.532   2.456   5.737
    8SOL    HW1  923   2.480   2.380   5.776
    8SOL    HW2  924   2.617   2.468   5.788
    9SOL     OW  925   6.047   2.436   5.643
    9SOL    HW1  926   6.075   2.531   5.633
    9SOL    HW2  927   5.952   2.433   5.674
   10SOL     OW  928   3.060   5.292   5.231
   10SOL    HW1  929   3.015   5.204   5.217
   10SOL    HW2  930   3.099   5.295   5.324
   11SOL     OW  931   2.221   1.502   5.851
   11SOL    HW1  932   2.131   1.517   5.810
   11SOL    HW2  933   2.231   1.561   5.931
   12SOL     OW  934   3.058   4.864   3.870
   12SOL    HW1  935   3.027   4.783   3.921
   12SOL    HW2  936   3.015   4.946   3.908
   13SOL     OW  937   3.471   6.803   3.861
   13SOL    HW1  938   3.510   6.821   3.772
   13SOL    HW2  939   3.382   6.759   3.850
   14SOL     OW  940   4.277   5.094   6.013
   14SOL    HW1  941   4.281   5.162   6.086
   14SOL    HW2  942   4.256   5.004   6.052
   15SOL     OW  943   0.882   6.142   0.816
   15SOL    HW1  944   0.935   6.086   0.879
   15SOL    HW2  945   0.855   6.086   0.738
   16SOL     OW  946   5.391   3.065   6.627
   16SOL    HW1  947   5.472   3.120   6.648
   16SOL    HW2  948   5.337   3.053   6.710
   17SOL     OW  949   5.248   6.543   6.838
   17SOL    HW1  950   5.153   6.575   6.840
   17SOL    HW2  951   5.309   6.619   6.816
   18SOL     OW  952   2.986   1.117   5.016
   18SOL    HW1  953   2.961   1.142   5.109
   18SOL    HW2  954   3.036   1.030   5.017
   19SOL     OW  955   0.226   2.215   2.431
   19SOL    HW1  956   0.280   2.197   2.348
   19SOL    HW2  957   0.135   2.175   2.420
   20SOL     OW  958   4.822   2.390   5.561
   20SOL    HW1  959   4.831   2.387   5.661
   20SOL    HW2  960   4.776   2.474   5.535
   21SOL     OW  961   2.606   0.799   2.657
   21SOL    HW1  962   2.563   0.876   2.706
   21SOL    HW2  963   2.588   0.715   2.707
   22SOL     OW  964   1.236   6.000   0.163
   22SOL    HW1  965   1.199   6.069   0.225
   22SOL    HW2  966   1.335   5.991   0.178
   23SOL     OW  967   4.085   5.295   2.015
   23SOL    HW1  968   4.167   5.250   2.052
   23SOL    HW2  969   4.011   5.289   2.083
   24SOL     OW  970   3.663   0.520   2.476
   24SOL    HW1  971   3.577   0.551   2.437
   24SOL    HW2  972   3.728   0.596   2.477
   25SOL     OW  973   2.452   6.671   3.682
   25SOL    HW1  974   2.491   6.720   3.604
   25SOL    HW2  975   2.490   6.708   3.767
   26SOL     OW  976   6.526   2.050   0.375
   26SOL    HW1  977   6.435   2.010   0.383
   26SOL    HW2  978   6.591   1.996   0.429
   27SOL     OW  979   1.834   1.317   1.922
   27SOL    HW1  980   1.843   1.346   2.018
   27SOL    HW2  981   1.911   1.351   1.869
   28SOL     OW  982   1.639   0.550   5.100
   28SOL    HW1  983   1.635   0.649   5.118
   28SOL    HW2  984   1.548   0.517   5.077
   29SOL     OW  985   6.555   1.833   1.325
   29SOL    HW1  986   6.476   1.888   1.297
   29SOL    HW2  987   6.524   1.751   1.372
   30SOL     OW  988   4.491   0.652   4.435
   30SOL    HW1  989   4.576   0.616   4.396
   30SOL    HW2  990   4.498   0.751   4.447
   31SOL     OW  991   0.360   2.450   6.497
   31SOL    HW1  992   0.263   2.437   6.519
   31SOL    HW2  993   0.405   2.497   6.573
   32SOL     OW  994   0.797   1.634   2.562
   32SOL    HW1  995   0.867   1.573   2.527
   32SOL    HW2  996   0.741   1.667   2.486
   33SOL     OW  997   0.797   4.797   5.153
   33SOL    HW1  998   0.711   4.747   5.145
   33SOL    HW2  999   0.837   4.780   5.242
   34SOL     OW 1000   2.872   6.096   4.667
   34SOL    HW1 1001   2.780   6.136   4.665
   34SOL    HW2 1002   2.868   6.006   4.711
   35SOL     OW 1003   4.372   2.199   5.719
   35SOL    HW1 1004   4.437   2.275   5.725
   35SOL    HW2 1005   4.360   2.158   5.809
   36SOL     OW 1006   4.156   2.241   3.982
   36SOL    HW1 1007   4.225   2.204   4.044
   36SOL    HW2 1008   4.199   2.304   3.917
   37SOL     OW 1009   1.832   1.968   5.097
   37SOL    HW1 1010   1.905   2.010   5.151
   37SOL    HW2 1011   1.811   1.878   5.134
   38SOL     OW 1012   1.519   4.924   1.588
   38SOL    HW1 1013   1.513   5.001   1.651
   38SOL    HW2 1014   1.610   4.923   1.545
   39SOL     OW 1015   6.139   4.947   6.389
   39SOL    HW1 1016   6.110   5.026   6.443
   39SOL    HW2 1017   6.236   4.931   6.402
   40SOL     OW 1018   3.580   2.520   0.233
   40SOL    HW1 1019   3.670   2.493   0.200
   40SOL    HW2 1020   3.515   2.522   0.156
   41SOL     OW 1021   6.560   3.628   3.353
   41SOL    HW1 1022   6.599   3.715   3.384
   41SOL    HW2 1023   6.504   3.589   3.427
   42SOL     OW 1024   3.673   6.099   4.360
   42SOL    HW1 1025   3.619   6.183   4.361
   42SOL    HW2 1026   3.660   6.049   4.446
   43SOL     OW 1027   4.649   0.968   4.982
   43SOL    HW1 1028   4.621   0.930   4.894
   43SOL    HW2 1029   4.619   1.063   4.989
   44SOL     OW 1030   5.577   2.750   5.354
   44SOL    HW1 1031   5.591   2.748   5.453
   44SOL    HW2 1032   5.655   2.708   5.308
   45SOL     OW 1033   4.710   5.255   1.528
   45SOL    HW1 1034   4.611   5.267   1.532
   45SOL    HW2 1035   4.748   5.260   1.620
   46SOL     OW 1036   0.798   2.482   3.903
   46SOL    HW1 1037   0.727   2.510   3.967
   46SOL    HW2 1038   0.886   2.477   3.950
   47SOL     OW 1039   4.316   4.138   1.074
   47SOL    HW1 1040   4.269   4.074   1.135
   47SOL    HW2 1041   4.337   4.222   1.125
   48SOL     OW 1042   6.485   2.538   6.729
   48SOL    HW1 1043   6.521   2.611   6.670
   48SOL    HW2 1044   6.385   2.541   6.726
   49SOL     OW 1045   5.795   2.634   1.896
   49SOL    HW1 1046   5.822   2.727   1.918
   49SOL    HW2 1047   5.863   2.593   1.836
   50SOL     OW 1048   6.330   1.062   5.408
   50SOL    HW1 1049   6.378   1.147   5.430
   50SOL    HW2 1050   6.332   1.001   5.488
   51SOL     OW 1051   1.990   6.628   3.024
   51SOL    HW1 1052   1.980   6.712   2.972
   51SOL    HW2 1053   2.001   6.551   2.961
   52SOL     OW 1054   5.221   3.500   1.691
   52SOL    HW1 1055   5.247   3.525   1.785
   52SOL    HW2 1056   5.125   3.522   1.676
   53SOL     OW 1057   4.570   1.313   3.672
   53SOL    HW1 1058   4.575   1.411   3.650
   53SOL    HW2 1059   4.648   1.288   3.729
   54SOL     OW 1060   5.588   6.516   1.209
   54SOL    HW1 1061   5.603   6.444   1.142
   54SOL    HW2 1062   5.667   6.522   1.270
   55SOL     OW 1063   2.106   2.954   5.066
   55SOL    HW1 1064   2.203   2.976   5.069
   55SOL    HW2 1065   2.080   2.927   4.973
   56SOL     OW 1066   0.335   1.124   1.141
   56SOL    HW1 1067   0.269   1.192   1.176
   56SOL    HW2 1068   0.376   1.158   1.057
   57SOL     OW 1069   4.109   1.047   1.344
   57SOL    HW1 1070   4.135   1.037   1.248
   57SOL    HW2 1071   4.130   0.963   1.394
   58SOL     OW 1072   0.348   6.514   5.906
   58SOL    HW1 1073   0.377   6.511   5.811
   58SOL    HW2 1074   0.259   6.471   5.916
   59SOL     OW 1075   6.923   3.675   6.119
   59SOL    HW1 1076   6.952   3.615   6.194
   59SOL    HW2 1077   6.836   3.642   6.082
   60SOL     OW 1078   5.202   3.049   4.218
   60SOL    HW1 1079   5.119   3.096   4.187
   60SOL    HW2 1080   5.265   3.037   4.142
   61SOL     OW 1081   0.068   1.267   4.651
   61SOL    HW1 1082   6.993   1.282   4.662
   61SOL    HW2 1083   0.083   1.211   4.569
   62SOL     OW 1084   2.058   1.441   2.037
   62SOL    HW1 1085   2.131   1.497   1.997
   62SOL    HW2 1086   2.000   1.499   2.095
   63SOL     OW 1087   3.608   0.468   4.464
   63SOL    HW1 1088   3.605   0.532   4.388
   63SOL    HW2 1089   3.515   0.445   4.492
   64SOL     OW 1090   0.283   2.640   6.296
   64SOL    HW1 1091   0.280   2.638   6.196
   64SOL    HW2 1092   0.297   2.547   6.330
   65SOL     OW 1093   0.161   4.921   5.871
   65SOL    HW1 1094   0.218   4.945   5.949
   65SOL    HW2 1095   0.078   4.977   5.873
   66SOL     OW 1096   3.331   0.544   3.270
   66SOL    HW1 1097   3.330   0.445   3.255
   66SOL    HW2 1098   3.417   0.582   3.236
   67SOL     OW 1099   0.534   2.981   6.202
   67SOL    HW1 1100   0.468   2.936   6.262
   67SOL    HW2 1101   0.613   2.921   6.189
   68SOL     OW 1102   0.488   1.995   6.691
   68SOL    HW1 1103   0.401   2.035   6.722
   68SOL    HW2 1104   0.478   1.896   6.681
   69SOL     OW 1105   1.347   2.382   5.606
   69SOL    HW1 1106   1.433   2.406   5.560
   69SOL    HW2 1107   1.270   2.412   5.551
   70SOL     OW 1108   5.200   4.695   4.374
   70SOL    HW1 1109   5.298   4.704   4.396
   70SOL    HW2 1110   5.164   4.614   4.421
   71SOL     OW 1111   4.949   2.261   3.464
   71SOL    HW1 1112   4.893   2.247   3.546
   71SOL    HW2 1113   5.045   2.242   3.486
   72SOL     OW 1114   0.776   0.973   3.140
   72SOL    HW1 1115   0.713   1.032   3.090
   72SOL    HW2 1116   0.866   0.974   3.096
   73SOL     OW 1117   3.471   0.289   0.646
   73SOL    HW1 1118   3.562   0.329   0.660
   73SOL    HW2 1119   3.441   0.310   0.552
   74SOL     OW 1120   3.396   1.343   0.153
   74SOL    HW1 1121   3.309   1.388   0.176
   74SOL    HW2 1122   3.378   1.268   0.089
   75SOL     OW 1123   4.313   1.232   1.618
   75SOL    HW1 1124   4.410   1.206   1.623
   75SOL    HW2 1125   4.289   1.255   1.524
   76SOL     OW 1126   3.323   3.303   6.931
   76SOL    HW1 1127   3.368   3.242   6.865
   76SOL    HW2 1128   3.229   3.271   6.948
   77SOL     OW 1129   1.198   0.108   3.163
   77SOL    HW1 1130   1.261   0.079   3.091
   77SOL    HW2 1131   1.109   0.131   3.123
   78SOL     OW 1132   4.808   1.437   0.817
   78SOL    HW1 1133   4.717   1.397   0.811
   78SOL    HW2 1134   4.799   1.535   0.836
   79SOL     OW 1135   2.786   6.401   1.626
   79SOL    HW1 1136   2.793   6.387   1.724
   79SOL    HW2 1137   2.814   6.494   1.604
   80SOL     OW 1138   3.789   1.716   4.157
   80SOL    HW1 1139   3.768   1.785   4.227
   80SOL    HW2 1140   3.737   1.736   4.074
   81SOL     OW 1141   1.848   6.739   1.941
   81SOL    HW1 1142   1.852   6.649   1.898
   81SOL    HW2 1143   1.799   6.802   1.880
   82SOL     OW 1144   5.782   5.917   1.466
   82SOL    HW1 1145   5.701   5.975   1.474
   82SOL    HW2 1146   5.754   5.822   1.451
   83SOL     OW 1147   0.667   0.994   6.761
   83SOL    HW1 1148   0.641   0.911   6.713
   83SOL    HW2 1149   0.687   0.972   6.857
   84SOL     OW 1150   5.993   3.713   3.148
   84SOL    HW1 1151   6.030   3.692   3.239
   84SOL    HW2 1152   6.055   3.775   3.100
   85SOL     OW 1153   1.490   1.062   3.246
   85SOL    HW1 1154   1.482   1.095   3.152
   85SOL    HW2 1155   1.456   1.131   3.309
   86SOL     OW 1156   6.914   1.442   6.880
   86SOL    HW1 1157   6.845   1.487   6.824
   86SOL    HW2 1158   6.908   1.476   6.974
   87SOL     OW 1159   4.131   4.304   0.944
   87SOL    HW1 1160   4.206   4.332   0.884
   87SOL    HW2 1161   4.160   4.224   0.997
   88SOL     OW 1162   3.438   2.512   5.933
   88SOL    HW1 1163   3.393   2.574   5.869
   88SOL    HW2 1164   3.525   2.481   5.894
   89SOL     OW 1165   3.048   2.742   0.044
   89SOL    HW1 1166   3.001   2.659   0.015
   89SOL    HW2 1167   2.988   2.821   0.031
   90SOL     OW 1168   3.646   5.328   2.635
   90SOL    HW1 1169   3.667   5.247   2.689
   90SOL    HW2 1170   3.728   5.384   2.624
   91SOL     OW 1171   6.468   3.863   6.041
   91SOL    HW1 1172   6.558   3.822   6.056
   91SOL    HW2 1173   6.470   3.960   6.068
   92SOL     OW 1174   4.833   4.689   0.549
   92SOL    HW1 1175   4.844   4.728   0.457
   92SOL    HW2 1176   4.842   4.761   0.617
   93SOL     OW 1177   3.346   2.944   6.994
   93SOL    HW1 1178   3.373   3.007   6.921
   93SOL    HW2 1179   3.316   2.998   0.051
   94SOL     OW 1180   2.860   5.564   6.694
   94SOL    HW1 1181   2.771   5.575   6.738
   94SOL    HW2 1182   2.895   5.653   6.665
   95SOL     OW 1183   1.984   1.554   3.499
   95SOL    HW1 1184   2.031   1.521   3.418
   95SOL    HW2 1185   2.052   1.583   3.567
   96SOL     OW 1186   4.496   5.703   5.304
   96SOL    HW1 1187   4.416   5.755   5.274
   96SOL    HW2 1188   4.467   5.612   5.333
   97SOL     OW 1189   2.191   3.609   5.293
   97SOL    HW1 1190   2.283   3.649   5.302
   97SOL    HW2 1191   2.199   3.518   5.253
   98SOL     OW 1192   1.065   1.662   0.516
   98SOL    HW1 1193   0.984   1.704   0.558
   98SOL    HW2 1194   1.042   1.569   0.488
   99SOL     OW 1195   3.837   3.568   1.811
   99SOL    HW1 1196   3.906   3.549   1.741
   99SOL    HW2 1197   3.754   3.516   1.791
  100SOL     OW 1198   0.115   0.041   4.086
  100SOL    HW1 1199   0.086   6.992   4.023
  100SOL    HW2 1200   0.103   0.130   4.043
  101SOL     OW 1201   0.204   4.963   2.145
  101SOL    HW1 1202   0.297   4.996   2.131
  101SOL    HW2 1203   0.164   5.007   2.226
  102SOL     OW 1204   3.393   5.725   2.154
  102SOL    HW1 1205   3.353   5.649   2.103
  102SOL    HW2 1206   3.490   5.733   2.133
  103SOL     OW 1207   2.195   2.370   2.450
  103SOL    HW1 1208   2.201   2.301   2.522
  103SOL    HW2 1209   2.163   2.456   2.489
  104SOL     OW 1210   1.641   5.435   2.582
  104SOL    HW1 1211   1.554   5.484   2.584
  104SOL    HW2 1212   1.704   5.480   2.520
  105SOL     OW 1213   6.012   1.114   6.551
  105SOL    HW1 1214   6.103   1.090   6.519
  105SOL    HW2 1215   5.952   1.035   6.543
  106SOL     OW 1216   3.823   5.973   3.594
  106SOL    HW1 1217   3.832   5.881   3.555
  106SOL    HW2 1218   3.740   5.978   3.650
  107SOL     OW 1219   0.353   0.899   0.373
  107SOL    HW1 1220   0.257   0.888   0.350
  107SOL    HW2 1221   0.369   0.993   0.406
  108SOL     OW 1222   4.114   6.419   6.564
  108SOL    HW1 1223   4.043   6.489   6.579
  108SOL    HW2 1224   4.085   6.333   6.607
  109SOL     OW 1225   2.705   1.087   2.694
  109SOL    HW1 1226   2.790   1.036   2.680
  109SOL    HW2 1227   2.685   1.142   2.613
  110SOL     OW 1228   3.325   5.083   4.447
  110SOL    HW1 1229   3.370   5.047   4.365
  110SOL    HW2 1230   3.227   5.064   4.442
  111SOL     OW 1231   1.796   1.457   4.000
  111SOL    HW1 1232   1.727   1.463   3.927
  111SOL    HW2 1233   1.887   1.464   3.960
  112SOL     OW 1234   4.551   5.884   0.632
  112SOL    HW1 1235   4.616   5.883   0.557
  112SOL    HW2 1236   4.516   5.977   0.645
  113SOL     OW 1237   1.457   6.036   3.290
  113SOL    HW1 1238   1.539   6.026   3.347
  113SOL    HW2 1239   1.456   5.964   3.221
  114SOL     OW 1240   1.394   6.445   2.105
  114SOL    HW1 1241   1.433   6.437   2.013
  114SOL    HW2 1242   1.461   6.412   2.172
  115SOL     OW 1243   5.336   6.783   2.912
  115SOL    HW1 1244   5.322   6.714   2.842
  115SOL    HW2 1245   5.290   6.756   2.996
  116SOL     OW 1246   0.192   5.579   1.120
  116SOL    HW1 1247   0.126   5.523   1.170
  116SOL    HW2 1248   0.284   5.544   1.136
  117SOL     OW 1249   0.719   0.809   0.695
  117SOL    HW1 1250   0.809   0.813   0.738
  117SOL    HW2 1251   0.650   0.790   0.765
  118SOL     OW 1252   1.388   1.927   2.662
  118SOL    HW1 1253   1.328   1.852   2.635
  118SOL    HW2 1254   1.336   1.993   2.717
  119SOL     OW 1255   0.202   0.554   0.015
  119SOL    HW1 1256   0.298   0.573   0.032
  119SOL    HW2 1257   0.182   0.569   6.941
  120SOL     OW 1258   5.492   0.786   4.181
  120SOL    HW1 1259   5.400   0.770   4.218
  120SOL    HW2 1260   5.487   0.789   4.081
  121SOL     OW 1261   1.341   3.931   0.329
  121SOL    HW1 1262   1.426   3.978   0.352
  121SOL    HW2 1263   1.311   3.876   0.406
  122SOL     OW 1264   1.484   3.389   0.689
  122SOL    HW1 1265   1.499   3.478   0.647
  122SOL    HW2 1266   1.547   3.378   0.767
  123SOL     OW 1267   1.170   1.334   1.945
  123SOL    HW1 1268   1.119   1.250   1.926
  123SOL    HW2 1269   1.256   1.332   1.895
  124SOL     OW 1270   3.302   2.308   0.648
  124SOL    HW1 1271   3.302   2.407   0.664
  124SOL    HW2 1272   3.211   2.279   0.620
  125SOL     OW 1273   3.621   2.744   0.672
  125SOL    HW1 1274   3.589   2.805   0.599
  125SOL    HW2 1275   3.543   2.716   0.728
  126SOL     OW 1276   3.563   2.909   3.024
  126SOL    HW1 1277   3.591   2.946   3.113
  126SOL    HW2 1278   3.470   2.872   3.031
  127SOL     OW 1279   7.000   5.393   6.472
  127SOL    HW1 1280   0.014   5.378   6.564
  127SOL    HW2 1281   6.995   5.306   6.423
  128SOL     OW 1282   4.992   3.092   1.349
  128SOL    HW1 1283   5.021   3.187   1.357
  128SOL    HW2 1284   4.924   3.071   1.420
  129SOL     OW 1285   2.897   3.606   0.270
  129SOL    HW1 1286   2.808   3.576   0.235
  129SOL    HW2 1287   2.965   3.598   0.198
  130SOL     OW 1288   6.754   0.470   4.576
  130SOL    HW1 1289   6.820   0.479   4.650
  130SOL    HW2 1290   6.797   0.421   4.499
  131SOL     OW 1291   5.183   0.383   3.803
  131SOL    HW1 1292   5.255   0.355   3.738
  131SOL    HW2 1293   5.204   0.475   3.837
  132SOL     OW 1294   3.074   2.587   0.999
  132SOL    HW1 1295   3.037   2.647   1.070
  132SOL    HW2 1296   3.147   2.634   0.950
  133SOL     OW 1297   5.489   0.612   3.634
  133SOL    HW1 1298   5.505   0.541   3.566
  133SOL    HW2 1299   5.571   0.668   3.643
  134SOL     OW 1300   6.861   0.397   3.146
  134SOL    HW1 1301   6.859   0.491   3.179
  134SOL    HW2 1302   6.956   0.367   3.137
  135SOL     OW 1303   5.303   3.773   4.232
  135SOL    HW1 1304   5.340   3.729   4.150
  135SOL    HW2 1305   5.205   3.755   4.239
  136SOL     OW 1306   2.053   5.432   4.898
  136SOL    HW1 1307   2.113   5.487   4.841
  136SOL    HW2 1308   2.105   5.356   4.938
  137SOL     OW 1309   4.268   1.411   3.662
  137SOL    HW1 1310   4.306   1.359   3.738
  137SOL    HW2 1311   4.319   1.496   3.650
  138SOL     OW 1312   0.906   4.112   3.062
  138SOL    HW1 1313   0.973   4.040   3.044
  138SOL    HW2 1314   0.953   4.195   3.091
  139SOL     OW 1315   1.936   5.995   5.594
  139SOL    HW1 1316   1.906   6.080   5.637
  139SOL    HW2 1317   2.031   6.006   5.563
  140SOL     OW 1318   1.468   6.475   4.027
  140SOL    HW1 1319   1.556   6.468   3.979
  140SOL    HW2 1320   1.410   6.397   4.001
  141SOL     OW 1321   6.876   3.063   5.560
  141SOL    HW1 1322   6.877   2.976   5.510
  141SOL    HW2 1323   6.836   3.050   5.650
  142SOL     OW 1324   2.035   3.561   2.174
  142SOL    HW1 1325   2.076   3.537   2.087
  142SOL    HW2 1326   2.095   3.533   2.249
  143SOL     OW 1327   5.413   6.229   0.943
  143SOL    HW1 1328   5.363   6.283   0.875
  143SOL    HW2 1329   5.482   6.286   0.988
  144SOL     OW 1330   2.128   4.463   5.353
  144SOL    HW1 1331   2.196   4.419   5.412
  144SOL    HW2 1332   2.038   4.423   5.371
  145SOL     OW 1333   2.431   5.376   1.152
  145SOL    HW1 1334   2.500   5.305   1.140
  145SOL    HW2 1335   2.470   5.464   1.126
  146SOL     OW 1336   5.020   0.530   0.147
  146SOL    HW1 1337   5.003   0.618   0.104
  146SOL    HW2 1338   4.961   0.461   0.106
  147SOL     OW 1339   5.329   1.041   5.912
  147SOL    HW1 1340   5.243   1.054   5.863
  147SOL    HW2 1341   5.390   1.118   5.893
  148SOL     OW 1342   0.504   5.445   1.524
  148SOL    HW1 1343   0.512   5.537   1.486
  148SOL    HW2 1344   0.450   5.448   1.608
  149SOL     OW 1345   3.403   2.028   4.996
  149SOL    HW1 1346   3.392   1.935   4.959
  149SOL    HW2 1347   3.349   2.091   4.941
  150SOL     OW 1348   5.219   0.438   6.332
  150SOL    HW1 1349   5.142   0.497   6.357
  150SOL    HW2 1350   5.184   0.356   6.288
  151SOL     OW 1351   3.794   0.837   2.198
  151SOL    HW1 1352   3.750   0.893   2.268
  151SOL    HW2 1353   3.742   0.842   2.113
  152SOL     OW 1354   0.049   1.843   0.273
  152SOL    HW1 1355   0.055   1.823   0.175
  152SOL    HW2 1356   0.002   1.930   0.286
  153SOL     OW 1357   3.225   6.522   2.955
  153SOL    HW1 1358   3.198   6.434   2.916
  153SOL    HW2 1359   3.284   6.507   3.034
  154SOL     OW 1360   0.328   3.569   0.601
  154SOL    HW1 1361   0.264   3.503   0.562
  154SOL    HW2 1362   0.344   3.546   0.697
  155SOL     OW 1363   0.833   0.705   3.064
  155SOL    HW1 1364   0.831   0.785   3.125
  155SOL    HW2 1365   0.913   0.649   3.085
  156SOL     OW 1366   6.831   0.261   6.846
  156SOL    HW1 1367   6.816   0.359   6.841
  156SOL    HW2 1368   6.840   0.223   6.754
  157SOL     OW 1369   5.671   3.425   0.573
  157SOL    HW1 1370   5.573   3.430   0.592
  157SOL    HW2 1371   5.707   3.518   0.563
  158SOL     OW 1372   1.901   2.752   1.083
  158SOL    HW1 1373   1.865   2.707   1.165
  158SOL    HW2 1374   1.978   2.811   1.108
  159SOL     OW 1375   4.129   5.133   1.226
  159SOL    HW1 1376   4.208   5.148   1.167
  159SOL    HW2 1377   4.160   5.117   1.319
  160SOL     OW 1378   5.958   0.398   0.893
  160SOL    HW1 1379   5.929   0.367   0.802
  160SOL    HW2 1380   6.002   0.487   0.886
  161SOL     OW 1381   1.580   0.274   2.655
  161SOL    HW1 1382   1.596   0.320   2.568
  161SOL    HW2 1383   1.632   0.188   2.658
  162SOL     OW 1384   3.422   5.924   6.806
  162SOL    HW1 1385   3.324   5.914   6.793
  162SOL    HW2 1386   3.465   5.943   6.718
  163SOL     OW 1387   0.610   5.780   2.604
  163SOL    HW1 1388   0.634   5.792   2.701
  163SOL    HW2 1389   0.591   5.684   2.586
  164SOL     OW 1390   0.938   3.443   2.704
  164SOL    HW1 1391   0.920   3.520   2.642
  164SOL    HW2 1392   1.010   3.386   2.665
  165SOL     OW 1393   5.656   5.377   6.961
  165SOL    HW1 1394   5.675   5.332   0.025
  165SOL    HW2 1395   5.661   5.476   6.973
  166SOL     OW 1396   0.317   3.708   1.972
  166SOL    HW1 1397   0.290   3.635   2.036
  166SOL    HW2 1398   0.414   3.728   1.984
  167SOL     OW 1399   6.479   1.716   6.318
  167SOL    HW1 1400   6.418   1.687   6.245
  167SOL    HW2 1401   6.547   1.644   6.335
  168SOL     OW 1402   4.267   2.260   1.246
  168SOL    HW1 1403   4.367   2.266   1.258
  168SOL    HW2 1404   4.227   2.218   1.328
  169SOL     OW 1405   5.483   2.577   6.797
  169SOL    HW1 1406   5.549   2.634   6.749
  169SOL    HW2 1407   5.491   2.591   6.895
  170SOL     OW 1408   6.965   5.690   2.307
  170SOL    HW1 1409   6.967   5.642   2.395
  170SOL    HW2 1410   6.902   5.642   2.245
  171SOL     OW 1411   2.497   4.679   0.395
  171SOL    HW1 1412   2.583   4.631   0.379
  171SOL    HW2 1413   2.421   4.619   0.368
  172SOL     OW 1414   5.757   1.992   2.961
  172SOL    HW1 1415   5.778   2.017   3.055
  172SOL    HW2 1416   5.678   1.931   2.960
  173SOL     OW 1417   5.637   1.700   4.854
  173SOL    HW1 1418   5.604   1.742   4.769
  173SOL    HW2 1419   5.731   1.729   4.871
  174SOL     OW 1420   4.665   5.304   3.363
  174SOL    HW1 1421   4.748   5.345   3.401
  174SOL    HW2 1422   4.644   5.348   3.275
  175SOL     OW 1423   3.260   1.121   0.986
  175SOL    HW1 1424   3.314   1.115   0.902
  175SOL    HW2 1425   3.305   1.184   1.049
  176SOL     OW 1426   5.193   4.899   2.306
  176SOL    HW1 1427   5.240   4.820   2.345
  176SOL    HW2 1428   5.209   4.901   2.207
  177SOL     OW 1429   5.091   3.447   4.651
  177SOL    HW1 1430   5.029   3.382   4.696
  177SOL    HW2 1431   5.106   3.418   4.556
  178SOL     OW 1432   2.935   4.819   5.621
  178SOL    HW1 1433   2.877   4.737   5.622
  178SOL    HW2 1434   3.007   4.808   5.553
  179SOL     OW 1435   4.200   0.183   6.753
  179SOL    HW1 1436   4.281   0.225   6.795
  179SOL    HW2 1437   4.146   0.253   6.708
  180SOL     OW 1438   2.390   6.846   0.588
  180SOL    HW1 1439   2.446   6.781   0.639
  180SOL    HW2 1440   2.306   6.801   0.558
  181SOL     OW 1441   2.892   3.186   5.962
  181SOL    HW1 1442   2.892   3.186   5.862
  181SOL    HW2 1443   2.947   3.263   5.995
  182SOL     OW 1444   3.937   2.197   6.361
  182SOL    HW1 1445   3.996   2.268   6.400
  182SOL    HW2 1446   3.945   2.113   6.415
  183SOL     OW 1447   3.422   2.109   3.685
  183SOL    HW1 1448   3.453   2.048   3.612
  183SOL    HW2 1449   3.500   2.138   3.740
  184SOL     OW 1450   0.347   6.623   3.164
  184SOL    HW1 1451   0.371   6.526   3.168
  184SOL    HW2 1452   0.331   6.649   3.068
  185SOL     OW 1453   1.216   1.318   4.974
  185SOL    HW1 1454   1.207   1.220   4.990
  185SOL    HW2 1455   1.285   1.334   4.903
  186SOL     OW 1456   5.709   0.875   4.361
  186SOL    HW1 1457   5.637   0.822   4.316
  186SOL    HW2 1458   5.697   0.871   4.460
  187SOL     OW 1459   5.755   6.827   2.303
  187SOL    HW1 1460   5.703   6.901   2.259
  187SOL    HW2 1461   5.850   6.829   2.270
  188SOL     OW 1462   0.421   3.307   3.776
  188SOL    HW1 1463   0.423   3.382   3.842
  188SOL    HW2 1464   0.513   3.293   3.738
  189SOL     OW 1465   1.740   4.983   6.706
  189SOL    HW1 1466   1.648   4.969   6.669
  189SOL    HW2 1467   1.805   4.927   6.656
  190SOL     OW 1468   6.193   4.558   6.001
  190SOL    HW1 1469   6.206   4.490   5.928
  190SOL    HW2 1470   6.186   4.649   5.961
  191SOL     OW 1471   6.569   1.340   6.625
  191SOL    HW1 1472   6.615   1.294   6.701
  191SOL    HW2 1473   6.478   1.371   6.654
  192SOL     OW 1474   0.466   4.736   1.509
  192SOL    HW1 1475   0.489   4.639   1.511
  192SOL    HW2 1476   0.370   4.748   1.535
  193SOL     OW 1477   5.004   4.199   5.177
  193SOL    HW1 1478   4.987   4.228   5.271
  193SOL    HW2 1479   5.022   4.100   5.176
  194SOL     OW 1480   3.660   6.125   3.430
  194SOL    HW1 1481   3.574   6.080   3.455
  194SOL    HW2 1482   3.736   6.081   3.478
  195SOL     OW 1483   1.515   1.154   3.499
  195SOL    HW1 1484   1.580   1.081   3.478
  195SOL    HW2 1485   1.566   1.238   3.520
  196SOL     OW 1486   2.986   0.256   6.693
  196SOL    HW1 1487   3.012   0.295   6.781
  196SOL    HW2 1488   2.920   0.316   6.648
  197SOL     OW 1489   2.959   6.985   0.549
  197SOL    HW1 1490   2.887   0.028   0.527
  197SOL    HW2 1491   3.047   7.019   0.517
  198SOL     OW 1492   4.660   0.013   2.296
  198SOL    HW1 1493   4.665   0.111   2.274
  198SOL    HW2 1494   4.659   6.983   2.211
  199SOL     OW 1495   6.559   1.168   3.119
  199SOL    HW1 1496   6.583   1.237   3.186
  199SOL    HW2 1497   6.591   1.196   3.028
  200SOL     OW 1498   0.837   4.185   1.953
  200SOL    HW1 1499   0.790   4.112   2.003
  200SOL    HW2 1500   0.878   4.149   1.870
  201SOL     OW 1501   4.745   6.847   6.547
  201SOL    HW1 1502   4.738   6.867   6.645
  201SOL    HW2 1503   4.682   6.773   6.524
  202SOL     OW 1504   5.723   0.131   5.772
  202SOL    HW1 1505   5.686   0.078   5.848
  202SOL    HW2 1506   5.700   0.228   5.784
  203SOL     OW 1507   4.882   2.257   4.607
  203SOL    HW1 1508   4.816   2.246   4.533
  203SOL    HW2 1509   4.881   2.176   4.665
  204SOL     OW 1510   6.819   0.894   6.759
  204SOL    HW1 1511   6.801   0.900   6.857
  204SOL    HW2 1512   6.901   0.948   6.737
  205SOL     OW 1513   0.946   1.049   2.118
  205SOL    HW1 1514   0.914   0.989   2.191
  205SOL    HW2 1515   0.869   1.100   2.080
  206SOL     OW 1516   0.154   4.942   2.671
  206SOL    HW1 1517   0.163   5.016   2.739
  206SOL    HW2 1518   0.243   4.927   2.628
  207SOL     OW 1519   4.256   0.579   4.306
  207SOL    HW1 1520   4.266   0.482   4.280
  207SOL    HW2 1521   4.345   0.618   4.328
  208SOL     OW 1522   5.139   3.968   5.720
  208SOL    HW1 1523   5.117   3.887   5.665
  208SOL    HW2 1524   5.238   3.984   5.718
  209SOL     OW 1525   1.170   5.145   4.740
  209SOL    HW1 1526   1.132   5.108   4.824
  209SOL    HW2 1527   1.108   5.214   4.702
  210SOL     OW 1528   4.770   2.266   1.575
  210SOL    HW1 1529   4.738   2.191   1.518
  210SOL    HW2 1530   4.709   2.276   1.654
  211SOL     OW 1531   1.201   6.122   4.489
  211SOL    HW1 1532   1.183   6.220   4.494
  211SOL    HW2 1533   1.142   6.080   4.420
  212SOL     OW 1534   2.144   4.600   2.108
  212SOL    HW1 1535   2.078   4.668   2.139
  212SOL    HW2 1536   2.119   4.567   2.017
  213SOL     OW 1537   3.525   0.909   6.188
  213SOL    HW1 1538   3.610   0.859   6.174
  213SOL    HW2 1539   3.466   0.898   6.109
  214SOL     OW 1540   3.969   6.022   2.179
  214SOL    HW1 1541   3.941   5.937   2.223
  214SOL    HW2 1542   4.065   6.015   2.151
  215SOL     OW 1543   3.171   4.132   1.889
  215SOL    HW1 1544   3.140   4.083   1.970
  215SOL    HW2 1545   3.221   4.070   1.829
  216SOL     OW 1546   1.728   6.293   4.838
  216SOL    HW1 1547   1.679   6.208   4.817
  216SOL    HW2 1548   1.683   6.340   4.914
  217SOL     OW 1549   2.741   2.312   3.825
  217SOL    HW1 1550   2.642   2.314   3.807
  217SOL    HW2 1551   2.786   2.256   3.756
  218SOL     OW 1552   0.513   3.320   4.517
  218SOL    HW1 1553   0.445   3.305   4.446
  218SOL    HW2 1554   0.602   3.288   4.485
  219SOL     OW 1555   3.321   6.613   6.445
  219SOL    HW1 1556   3.259   6.620   6.367
  219SOL    HW2 1557   3.298   6.684   6.512
  220SOL     OW 1558   3.564   6.576   6.634
  220SOL    HW1 1559   3.533   6.512   6.704
  220SOL    HW2 1560   3.501   6.573   6.556
  221SOL     OW 1561   0.132   3.793   2.467
  221SOL    HW1 1562   0.159   3.880   2.425
  221SOL    HW2 1563   0.204   3.762   2.528
  222SOL     OW 1564   2.355   5.234   5.750
  222SOL    HW1 1565   2.359   5.280   5.661
  222SOL    HW2 1566   2.296   5.153   5.743
  223SOL     OW 1567   6.017   3.443   0.996
  223SOL    HW1 1568   5.931   3.467   0.950
  223SOL    HW2 1569   6.047   3.352   0.965
  224SOL     OW 1570   2.919   1.767   3.659
  224SOL    HW1 1571   2.979   1.830   3.611
  224SOL    HW2 1572   2.877   1.704   3.593
  225SOL     OW 1573   4.943   1.347   6.196
  225SOL    HW1 1574   5.026   1.364   6.249
  225SOL    HW2 1575   4.869   1.320   6.257
  226SOL     OW 1576   0.703   0.126   5.960
  226SOL    HW1 1577   0.731   0.215   5.923
  226SOL    HW2 1578   0.747   0.053   5.908
  227SOL     OW 1579   1.396   4.257   1.797
  227SOL    HW1 1580   1.444   4.172   1.820
  227SOL    HW2 1581   1.447   4.335   1.833
  228SOL     OW 1582   3.432   6.305   3.624
  228SOL    HW1 1583   3.528   6.320   3.601
  228SOL    HW2 1584   3.406   6.366   3.699
  229SOL     OW 1585   5.149   6.701   0.460
  229SOL    HW1 1586   5.195   6.733   0.378
  229SOL    HW2 1587   5.163   6.603   0.471
  230SOL     OW 1588   2.653   4.788   2.584
  230SOL    HW1 1589   2.647   4.885   2.611
  230SOL    HW2 1590   2.745   4.768   2.551
  231SOL     OW 1591   6.407   2.300   6.292
  231SOL    HW1 1592   6.462   2.378   6.324
  231SOL    HW2 1593   6.358   2.261   6.370
  232SOL     OW 1594   1.200   4.066   6.260
  232SOL    HW1 1595   1.198   4.073   6.360
  232SOL    HW2 1596   1.112   4.032   6.227
  233SOL     OW 1597   2.192   1.118   3.826
  233SOL    HW1 1598   2.238   1.064   3.756
  233SOL    HW2 1599   2.254   1.191   3.858
  234SOL     OW 1600   3.078   5.943   5.344
  234SOL    HW1 1601   3.140   5.949   5.267
  234SOL    HW2 1602   3.003   5.879   5.322
  235SOL     OW 1603   3.061   3.430   2.202
  235SOL    HW1 1604   3.027   3.521   2.178
  235SOL    HW2 1605   3.044   3.413   2.299
  236SOL     OW 1606   5.894   2.818   6.810
  236SOL    HW1 1607   5.882   2.719   6.796
  236SOL    HW2 1608   5.901   2.863   6.721
  237SOL     OW 1609   6.544   6.680   0.810
  237SOL    HW1 1610   6.589   6.612   0.868
  237SOL    HW2 1611   6.534   6.766   0.860
  238SOL     OW 1612   5.972   1.999   6.929
  238SOL    HW1 1613   5.903   1.929   6.913
  238SOL    HW2 1614   5.935   2.068   6.991
  239SOL     OW 1615   6.853   5.776   6.881
  239SOL    HW1 1616   6.918   5.794   6.808
  239SOL    HW2 1617   6.763   5.812   6.856
  240SOL     OW 1618   0.225   3.185   5.895
  240SOL    HW1 1619   0.215   3.250   5.970
  240SOL    HW2 1620   0.260   3.233   5.814
  241SOL     OW 1621   1.412   0.465   4.529
  241SOL    HW1 1622   1.477   0.526   4.484
  241SOL    HW2 1623   1.339   0.439   4.466
  242SOL     OW 1624   2.280   3.129   6.198
  242SOL    HW1 1625   2.360   3.153   6.253
  242SOL    HW2 1626   2.296   3.156   6.103
  243SOL     OW 1627   5.174   6.916   6.674
  243SOL    HW1 1628   5.210   7.007   6.653
  243SOL    HW2 1629   5.123   6.920   6.760
  244SOL     OW 1630   4.864   3.180   4.411
  244SOL    HW1 1631   4.790   3.220   4.466
  244SOL    HW2 1632   4.896   3.096   4.455
  245SOL     OW 1633   0.079   2.400   4.934
  245SOL    HW1 1634   0.100   2.453   5.016
  245SOL    HW2 1635   0.038   2.312   4.960
  246SOL     OW 1636   5.483   2.947   3.269
  246SOL    HW1 1637   5.429   3.012   3.323
  246SOL    HW2 1638   5.469   2.854   3.303
  247SOL     OW 1639   1.907   1.692   2.090
  247SOL    HW1 1640   1.900   1.762   2.162
  247SOL    HW2 1641   1.849   1.717   2.013
  248SOL     OW 1642   4.427   2.100   4.536
  248SOL    HW1 1643   4.423   2.011   4.491
  248SOL    HW2 1644   4.352   2.107   4.602
  249SOL     OW 1645   4.674   0.275   5.380
  249SOL    HW1 1646   4.744   0.225   5.328
  249SOL    HW2 1647   4.597   0.214   5.399
  250SOL     OW 1648   4.855   2.429   5.824
  250SOL    HW1 1649   4.907   2.344   5.815
  250SOL    HW2 1650   4.916   2.507   5.809
  251SOL     OW 1651   4.484   4.865   6.246
  251SOL    HW1 1652   4.510   4.953   6.206
  251SOL    HW2 1653   4.389   4.843   6.221
  252SOL     OW 1654   0.023   0.756   6.990
  252SOL    HW1 1655   6.947   0.747   7.006
  252SOL    HW2 1656   0.069   0.673   7.022
  253SOL     OW 1657   2.250   4.072   0.015
  253SOL    HW1 1658   2.201   4.002   0.067
  253SOL    HW2 1659   2.185   4.137   6.998
  254SOL     OW 1660   6.509   2.800   3.333
  254SOL    HW1 1661   6.478   2.861   3.260
  254SOL    HW2 1662   6.529   2.710   3.294
  255SOL     OW 1663   1.848   3.128   3.972
  255SOL    HW1 1664   1.920   3.072   4.012
  255SOL    HW2 1665   1.859   3.223   4.002
  256SOL     OW 1666   6.563   4.571   0.477
  256SOL    HW1 1667   6.606   4.490   0.518
  256SOL    HW2 1668   6.464   4.567   0.491
  257SOL     OW 1669   3.775   5.296   5.295
  257SOL    HW1 1670   3.801   5.393   5.296
  257SOL    HW2 1671   3.720   5.276   5.214
  258SOL     OW 1672   5.447   4.932   4.700
  258SOL    HW1 1673   5.533   4.958   4.745
  258SOL    HW2 1674   5.372   4.944   4.765
  259SOL     OW 1675   1.886   2.954   2.438
  259SOL    HW1 1676   1.840   2.946   2.526
  259SOL    HW2 1677   1.975   2.909   2.442
  260SOL     OW 1678   4.641   1.188   1.412
  260SOL    HW1 1679   4.609   1.132   1.488
  260SOL    HW2 1680   4.575   1.261   1.394
  261SOL     OW 1681   6.678   3.723   1.151
  261SOL    HW1 1682   6.592   3.721   1.202
  261SOL    HW2 1683   6.683   3.643   1.091
  262SOL     OW 1684   0.585   3.838   1.532
  262SOL    HW1 1685   0.496   3.884   1.533
  262SOL    HW2 1686   0.603   3.797   1.621
  263SOL     OW 1687   0.654   1.066   3.775
  263SOL    HW1 1688   0.685   1.111   3.859
  263SOL    HW2 1689   0.554   1.070   3.771
  264SOL     OW 1690   5.506   4.083   4.891
  264SOL    HW1 1691   5.511   4.109   4.795
  264SOL    HW2 1692   5.444   4.144   4.940
  265SOL     OW 1693   4.625   4.321   3.288
  265SOL    HW1 1694   4.591   4.227   3.290
  265SOL    HW2 1695   4.709   4.325   3.234
  266SOL     OW 1696   3.273   3.146   5.829
  266SOL    HW1 1697   3.263   3.224   5.891
  266SOL    HW2 1698   3.346   3.086   5.863
  267SOL     OW 1699   6.919   2.570   6.052
  267SOL    HW1 1700   6.898   2.638   5.982
  267SOL    HW2 1701   6.847   2.500   6.053
  268SOL     OW 1702   5.029   6.140   4.934
  268SOL    HW1 1703   4.940   6.118   4.894
  268SOL    HW2 1704   5.048   6.237   4.920
  269SOL     OW 1705   2.002   1.739   0.198
  269SOL    HW1 1706   2.068   1.683   0.249
  269SOL    HW2 1707   2.000   1.710   0.103
  270SOL     OW 1708   6.974   0.560   2.058
  270SOL    HW1 1709   6.964   0.495   1.983
  270SOL    HW2 1710   0.048   0.580   2.072
  271SOL     OW 1711   2.731   2.533   0.223
  271SOL    HW1 1712   2.824   2.497   0.232
  271SOL    HW2 1713   2.673   2.493   0.294
  272SOL     OW 1714   3.001   5.483   4.142
  272SOL    HW1 1715   2.996   5.431   4.057
  272SOL    HW2 1716   3.049   5.569   4.125
  273SOL     OW 1717   1.434   5.526   5.295
  273SOL    HW1 1718   1.346   5.527   5.342
  273SOL    HW2 1719   1.487   5.446   5.324
  274SOL     OW 1720   5.576   1.908   3.988
  274SOL    HW1 1721   5.597   1.861   4.074
  274SOL    HW2 1722   5.503   1.975   4.004
  275SOL     OW 1723   0.157   5.901   6.360
  275SOL    HW1 1724   0.077   5.945   6.320
  275SOL    HW2 1725   0.129   5.817   6.407
  276SOL     OW 1726   6.740   5.166   3.734
  276SOL    HW1 1727   6.648   5.135   3.757
  276SOL    HW2 1728   6.736   5.259   3.698
  277SOL     OW 1729   2.758   1.351   6.800
  277SOL    HW1 1730   2.805   1.421   6.746
  277SOL    HW2 1731   2.669   1.332   6.759
  278SOL     OW 1732   6.487   3.553   1.850
  278SOL    HW1 1733   6.567   3.539   1.908
  278SOL    HW2 1734   6.409   3.504   1.888
  279SOL     OW 1735   6.284   2.694   4.579
  279SOL    HW1 1736   6.273   2.618   4.515
  279SOL    HW2 1737   6.220   2.683   4.655
  280SOL     OW 1738   3.889   6.843   2.883
  280SOL    HW1 1739   3.955   6.916   2.865
  280SOL    HW2 1740   3.809   6.855   2.825
  281SOL     OW 1741   2.638   4.654   2.814
  281SOL    HW1 1742   2.582   4.571   2.813
  281SOL    HW2 1743   2.626   4.703   2.728
  282SOL     OW 1744   3.947   2.466   5.415
  282SOL    HW1 1745   3.975   2.518   5.335
  282SOL    HW2 1746   3.876   2.401   5.390
  283SOL     OW 1747   6.373   0.869   5.955
  283SOL    HW1 1748   6.403   0.816   6.034
  283SOL    HW2 1749   6.273   0.878   5.957
  284SOL     OW 1750   0.576   4.610   5.177
  284SOL    HW1 1751   0.626   4.563   5.104
  284SOL    HW2 1752   0.527   4.543   5.233
  285SOL     OW 1753   4.943   5.791   0.010
  285SOL    HW1 1754   4.999   5.837   6.964
  285SOL    HW2 1755   4.999   5.770   0.090
  286SOL     OW 1756   4.274   4.795   5.060
  286SOL    HW1 1757   4.176   4.807   5.077
  286SOL    HW2 1758   4.293   4.699   5.039
  287SOL     OW 1759   0.604   5.185   6.777
  287SOL    HW1 1760   0.591   5.103   6.721
  287SOL    HW2 1761   0.591   5.266   6.720
  288SOL     OW 1762   4.186   1.151   0.577
  288SOL    HW1 1763   4.228   1.131   0.489
  288SOL    HW2 1764   4.087   1.146   0.570
  289SOL     OW 1765   0.132   5.298   5.011
  289SOL    HW1 1766   0.041   5.265   5.035
  289SOL    HW2 1767   0.201   5.240   5.055
  290SOL     OW 1768   4.843   1.554   3.883
  290SOL    HW1 1769   4.922   1.500   3.853
  290SOL    HW2 1770   4.792   1.503   3.952
  291SOL     OW 1771   3.607   0.937   4.116
  291SOL    HW1 1772   3.667   0.863   4.146
  291SOL    HW2 1773   3.645   1.025   4.146
  292SOL     OW 1774   4.170   1.716   3.979
  292SOL    HW1 1775   4.237   1.684   3.913
  292SOL    HW2 1776   4.117   1.791   3.940
  293SOL     OW 1777   3.649   6.237   1.607
  293SOL    HW1 1778   3.641   6.332   1.638
  293SOL    HW2 1779   3.745   6.210   1.607
  294SOL     OW 1780   6.392   5.778   6.807
  294SOL    HW1 1781   6.346   5.859   6.769
  294SOL    HW2 1782   6.345   5.749   6.890
  295SOL     OW 1783   2.514   1.895   5.343
  295SOL    HW1 1784   2.610   1.896   5.373
  295SOL    HW2 1785   2.506   1.946   5.258
  296SOL     OW 1786   6.434   2.349   2.013
  296SOL    HW1 1787   6.484   2.435   2.000
  296SOL    HW2 1788   6.484   2.274   1.969
  297SOL     OW 1789   3.135   4.961   2.956
  297SOL    HW1 1790   3.078   4.879   2.967
  297SOL    HW2 1791   3.170   4.990   3.045
  298SOL     OW 1792   4.043   6.876   0.063
  298SOL    HW1 1793   4.094   6.901   7.004
  298SOL    HW2 1794   4.056   6.945   0.133
  299SOL     OW 1795   4.670   2.509   6.080
  299SOL    HW1 1796   4.588   2.474   6.126
  299SOL    HW2 1797   4.718   2.433   6.037
  300SOL     OW 1798   4.474   0.903   2.398
  300SOL    HW1 1799   4.481   0.805   2.417
  300SOL    HW2 1800   4.443   0.916   2.304
  301SOL     OW 1801   4.884   1.719   0.800
  301SOL    HW1 1802   4.798   1.770   0.796
  301SOL    HW2 1803   4.961   1.781   0.784
  302SOL     OW 1804   6.665   0.693   2.904
  302SOL    HW1 1805   6.568   0.696   2.930
  302SOL    HW2 1806   6.691   0.599   2.883
  303SOL     OW 1807   6.345   6.102   2.210
  303SOL    HW1 1808   6.445   6.089   2.212
  303SOL    HW2 1809   6.301   6.013   2.202
  304SOL     OW 1810   2.025   6.309   6.345
  304SOL    HW1 1811   2.076   6.279   6.425
  304SOL    HW2 1812   1.927   6.309   6.366
  305SOL     OW 1813   1.165   3.011   0.754
  305SOL    HW1 1814   1.156   3.019   0.654
  305SOL    HW2 1815   1.095   2.948   0.788
  306SOL     OW 1816   0.549   1.080   2.670
  306SOL    HW1 1817   0.611   1.116   2.600
  306SOL    HW2 1818   0.556   0.981   2.673
  307SOL     OW 1819   4.686   4.489   0.421
  307SOL    HW1 1820   4.753   4.423   0.388
  307SOL    HW2 1821   4.731   4.576   0.440
  308SOL     OW 1822   5.943   3.496   4.345
  308SOL    HW1 1823   5.965   3.509   4.249
  308SOL    HW2 1824   6.024   3.464   4.394
  309SOL     OW 1825   1.510   5.973   0.168
  309SOL    HW1 1826   1.597   6.019   0.186
  309SOL    HW2 1827   1.511   5.934   0.076
  310SOL     OW 1828   5.242   5.712   4.383
  310SOL    HW1 1829   5.189   5.679   4.461
  310SOL    HW2 1830   5.272   5.806   4.399
  311SOL     OW 1831   3.319   5.544   2.726
  311SOL    HW1 1832   3.411   5.580   2.713
  311SOL    HW2 1833   3.274   5.593   2.802
  312SOL     OW 1834   3.723   1.921   4.345
  312SOL    HW1 1835   3.770   1.872   4.419
  312SOL    HW2 1836   3.656   1.984   4.385
  313SOL     OW 1837   3.529   4.154   2.400
  313SOL    HW1 1838   3.585   4.119   2.325
  313SOL    HW2 1839   3.539   4.253   2.407
  314SOL     OW 1840   2.471   4.627   6.022
  314SOL    HW1 1841   2.509   4.718   6.039
  314SOL    HW2 1842   2.449   4.583   6.108
  315SOL     OW 1843   0.775   2.797   4.181
  315SOL    HW1 1844   0.796   2.854   4.102
  315SOL    HW2 1845   0.705   2.842   4.237
  316SOL     OW 1846   3.354   0.477   4.565
  316SOL    HW1 1847   3.271   0.431   4.533
  316SOL    HW2 1848   3.371   0.558   4.509
  317SOL     OW 1849   6.883   1.999   1.356
  317SOL    HW1 1850   6.822   2.053   1.413
  317SOL    HW2 1851   6.906   2.050   1.273
  318SOL     OW 1852   0.058   6.623   6.805
  318SOL    HW1 1853   0.090   6.531   6.829
  318SOL    HW2 1854   0.136   6.677   6.773
  319SOL     OW 1855   6.573   1.474   3.885
  319SOL    HW1 1856   6.626   1.556   3.861
  319SOL    HW2 1857   6.479   1.485   3.851
  320SOL     OW 1858   5.460   2.568   0.061
  320SOL    HW1 1859   5.363   2.553   0.080
  320SOL    HW2 1860   5.501   2.620   0.136
  321SOL     OW 1861   3.806   2.092   0.147
  321SOL    HW1 1862   3.719   2.136   0.169
  321SOL    HW2 1863   3.796   2.040   0.062
  322SOL     OW 1864   3.017   3.178   4.008
  322SOL    HW1 1865   2.999   3.193   4.105
  322SOL    HW2 1866   2.988   3.257   3.955
  323SOL     OW 1867   1.108   2.620   6.023
  323SOL    HW1 1868   1.082   2.695   5.962
  323SOL    HW2 1869   1.166   2.555   5.973
  324SOL     OW 1870   3.221   0.272   2.949
  324SOL    HW1 1871   3.161   0.216   3.006
  324SOL    HW2 1872   3.205   0.369   2.968
  325SOL     OW 1873   0.507   2.820   1.752
  325SOL    HW1 1874   0.575   2.761   1.709
  325SOL    HW2 1875   0.453   2.865   1.680
  326SOL     OW 1876   0.923   4.106   6.420
  326SOL    HW1 1877   0.953   4.103   6.325
  326SOL    HW2 1878   0.862   4.184   6.433
  327SOL     OW 1879   1.693   4.748   2.304
  327SOL    HW1 1880   1.747   4.801   2.239
  327SOL    HW2 1881   1.660   4.809   2.377
  328SOL     OW 1882   1.323   5.708   1.870
  328SOL    HW1 1883   1.316   5.807   1.853
  328SOL    HW2 1884   1.240   5.663   1.838
  329SOL     OW 1885   2.986   3.418   5.494
  329SOL    HW1 1886   3.082   3.409   5.467
  329SOL    HW2 1887   2.928   3.415   5.413
  330SOL     OW 1888   3.147   6.445   1.362
  330SOL    HW1 1889   3.152   6.379   1.287
  330SOL    HW2 1890   3.076   6.513   1.341
  331SOL     OW 1891   4.145   5.479   0.668
  331SOL    HW1 1892   4.184   5.474   0.576
  331SOL    HW2 1893   4.046   5.468   0.664
  332SOL     OW 1894   5.024   2.880   5.542
  332SOL    HW1 1895   5.046   2.956   5.481
  332SOL    HW2 1896   5.063   2.796   5.506
  333SOL     OW 1897   4.344   0.902   5.677
  333SOL    HW1 1898   4.422   0.892   5.616
  333SOL    HW2 1899   4.358   0.981   5.737
  334SOL     OW 1900   3.557   1.560   0.085
  334SOL    HW1 1901   3.601   1.569   0.175
  334SOL    HW2 1902   3.495   1.482   0.086
  335SOL     OW 1903   4.127   0.018   6.564
  335SOL    HW1 1904   4.085   0.109   6.559
  335SOL    HW2 1905   4.056   6.973   6.584
  336SOL     OW 1906   2.894   1.239   3.279
  336SOL    HW1 1907   2.857   1.190   3.358
  336SOL    HW2 1908   2.994   1.240   3.285
  337SOL     OW 1909   0.159   3.419   6.080
  337SOL    HW1 1910   0.137   3.478   6.002
  337SOL    HW2 1911   0.114   3.454   6.162
  338SOL     OW 1912   2.895   2.442   1.141
  338SOL    HW1 1913   2.839   2.518   1.174
  338SOL    HW2 1914   2.942   2.469   1.057
  339SOL     OW 1915   4.534   5.706   4.750
  339SOL    HW1 1916   4.598   5.685   4.676
  339SOL    HW2 1917   4.572   5.778   4.808
  340SOL     OW 1918   5.433   3.795   4.675
  340SOL    HW1 1919   5.466   3.785   4.768
  340SOL    HW2 1920   5.334   3.783   4.673
  341SOL     OW 1921   6.246   6.640   4.264
  341SOL    HW1 1922   6.176   6.711   4.257
  341SOL    HW2 1923   6.258   6.614   4.360
  342SOL     OW 1924   5.601   3.733   0.566
  342SOL    HW1 1925   5.541   3.741   0.645
  342SOL    HW2 1926   5.554   3.684   0.493
  343SOL     OW 1927   1.133   5.751   1.349
  343SOL    HW1 1928   1.083   5.665   1.348
  343SOL    HW2 1929   1.070   5.827   1.333
  344SOL     OW 1930   0.765   3.204   1.724
  344SOL    HW1 1931   0.792   3.161   1.810
  344SOL    HW2 1932   0.766   3.136   1.651
  345SOL     OW 1933   5.529   2.484   3.650
  345SOL    HW1 1934   5.588   2.425   3.705
  345SOL    HW2 1935   5.554   2.580   3.666
  346SOL     OW 1936   2.002   1.311   2.682
  346SOL    HW1 1937   2.073   1.255   2.640
  346SOL    HW2 1938   1.929   1.251   2.717
  347SOL     OW 1939   2.948   5.702   0.108
  347SOL    HW1 1940   2.989   5.793   0.100
  347SOL    HW2 1941   2.992   5.652   0.183
  348SOL     OW 1942   5.042   4.125   2.606
  348SOL    HW1 1943   5.121   4.131   2.666
  348SOL    HW2 1944   5.031   4.031   2.575
  349SOL     OW 1945   6.908   4.938   0.924
  349SOL    HW1 1946   6.977   4.900   0.986
  349SOL    HW2 1947   6.952   4.964   0.838
  350SOL     OW 1948   3.014   2.208   0.953
  350SOL    HW1 1949   2.954   2.160   0.889
  350SOL    HW2 1950   3.006   2.167   1.044
  351SOL     OW 1951   2.810   3.755   0.761
  351SOL    HW1 1952   2.763   3.668   0.743
  351SOL    HW2 1953   2.842   3.794   0.674
  352SOL     OW 1954   3.213   7.004   3.418
  352SOL    HW1 1955   3.120   0.017   3.424
  352SOL    HW2 1956   3.275   0.052   3.385
  353SOL     OW 1957   2.994   0.139   0.089
  353SOL    HW1 1958   3.062   0.111   0.157
  353SOL    HW2 1959   2.906   0.098   0.112
  354SOL     OW 1960   4.422   2.778   1.129
  354SOL    HW1 1961   4.469   2.694   1.158
  354SOL    HW2 1962   4.341   2.754   1.076
  355SOL     OW 1963   1.488   4.062   2.904
  355SOL    HW1 1964   1.587   4.056   2.913
  355SOL    HW2 1965   1.445   4.003   2.972
  356SOL     OW 1966   1.748   0.410   5.803
  356SOL    HW1 1967   1.755   0.310   5.809
  356SOL    HW2 1968   1.824   0.452   5.854
  357SOL     OW 1969   6.843   6.702   5.344
  357SOL    HW1 1970   6.836   6.612   5.301
  357SOL    HW2 1971   6.916   6.755   5.299
  358SOL     OW 1972   4.594   6.570   0.840
  358SOL    HW1 1973   4.524   6.625   0.793
  358SOL    HW2 1974   4.571   6.473   0.830
  359SOL     OW 1975   2.906   2.176   1.520
  359SOL    HW1 1976   2.983   2.131   1.566
  359SOL    HW2 1977   2.848   2.219   1.589
  360SOL     OW 1978   1.317   4.058   5.604
  360SOL    HW1 1979   1.285   3.989   5.539
  360SOL    HW2 1980   1.243   4.082   5.666
  361SOL     OW 1981   6.826   6.129   2.816
  361SOL    HW1 1982   6.894   6.187   2.861
  361SOL    HW2 1983   6.734   6.165   2.836
  362SOL     OW 1984   3.441   2.547   1.367
  362SOL    HW1 1985   3.428   2.482   1.292
  362SOL    HW2 1986   3.497   2.504   1.438
  363SOL     OW 1987   5.822   4.020   2.980
  363SOL    HW1 1988   5.748   3.953   2.979
  363SOL    HW2 1989   5.785   4.111   2.960
  364SOL     OW 1990   6.170   4.897   6.749
  364SOL    HW1 1991   6.236   4.844   6.695
  364SOL    HW2 1992   6.110   4.834   6.798
  365SOL     OW 1993   5.439   0.018   2.055
  365SOL    HW1 1994   5.397   7.003   1.972
  365SOL    HW2 1995   5.533   0.046   2.034
  366SOL     OW 1996   5.488   0.927   6.965
  366SOL    HW1 1997   5.470   1.016   6.921
  366SOL    HW2 1998   5.401   0.887   6.994
  367SOL     OW 1999   5.920   2.588   1.246
  367SOL    HW1 2000   5.920   2.685   1.271
  367SOL    HW2 2001   5.840   2.544   1.287
  368SOL     OW 2002   0.366   2.840   5.609
  368SOL    HW1 2003   0.389   2.832   5.512
  368SOL    HW2 2004   0.442   2.880   5.658
  369SOL     OW 2005   5.990   5.208   2.578
  369SOL    HW1 2006   5.920   5.277   2.596
  369SOL    HW2 2007   6.070   5.225   2.635
  370SOL     OW 2008   1.448   1.634   5.100
  370SOL    HW1 2009   1.395   1.666   5.022
  370SOL    HW2 2010   1.386   1.601   5.171
  371SOL     OW 2011   1.411   4.444   5.677
  371SOL    HW1 2012   1.366   4.407   5.596
  371SOL    HW2 2013   1.402   4.379   5.752
  372SOL     OW 2014   1.555   6.834   6.469
  372SOL    HW1 2015   1.497   6.829   6.551
  372SOL    HW2 2016   1.501   6.809   6.389
  373SOL     OW 2017   6.204   6.564   4.534
  373SOL    HW1 2018   6.246   6.479   4.565
  373SOL    HW2 2019   6.252   6.642   4.575
  374SOL     OW 2020   2.653   1.695   3.960
  374SOL    HW1 2021   2.682   1.786   3.930
  374SOL    HW2 2022   2.565   1.701   4.006
  375SOL     OW 2023   1.095   4.507   3.776
  375SOL    HW1 2024   1.095   4.483   3.873
  375SOL    HW2 2025   1.053   4.433   3.723
  376SOL     OW 2026   2.388   1.177   5.312
  376SOL    HW1 2027   2.313   1.232   5.276
  376SOL    HW2 2028   2.470   1.193   5.257
  377SOL     OW 2029   1.218   1.636   1.070
  377SOL    HW1 2030   1.161   1.617   1.150
  377SOL    HW2 2031   1.169   1.610   0.987
  378SOL     OW 2032   4.844   2.456   6.357
  378SOL    HW1 2033   4.927   2.415   6.394
  378SOL    HW2 2034   4.812   2.402   6.279
  379SOL     OW 2035   6.039   2.579   1.717
  379SOL    HW1 2036   6.058   2.483   1.738
  379SOL    HW2 2037   6.088   2.637   1.781
  380SOL     OW 2038   3.011   1.167   0.533
  380SOL    HW1 2039   2.968   1.254   0.509
  380SOL    HW2 2040   2.973   1.134   0.620
  381SOL     OW 2041   1.382   4.303   2.909
  381SOL    HW1 2042   1.430   4.219   2.935
  381SOL    HW2 2043   1.426   4.344   2.829
  382SOL     OW 2044   5.885   0.428   6.945
  382SOL    HW1 2045   5.841   0.439   0.011
  382SOL    HW2 2046   5.929   0.514   6.919
  383SOL     OW 2047   4.182   3.945   6.588
  383SOL    HW1 2048   4.111   3.982   6.647
  383SOL    HW2 2049   4.222   3.864   6.632
  384SOL     OW 2050   6.953   5.187   3.919
  384SOL    HW1 2051   6.895   5.161   3.841
  384SOL    HW2 2052   6.982   5.282   3.909
  385SOL     OW 2053   3.084   4.728   5.316
  385SOL    HW1 2054   3.037   4.665   5.254
  385SOL    HW2 2055   3.146   4.676   5.375
  386SOL     OW 2056   2.855   6.805   4.903
  386SOL    HW1 2057   2.862   6.872   4.977
  386SOL    HW2 2058   2.766   6.813   4.859
  387SOL     OW 2059   1.172   6.763   2.326
  387SOL    HW1 2060   1.272   6.757   2.319
  387SOL    HW2 2061   1.131   6.717   2.247
  388SOL     OW 2062   0.938   1.938   5.499
  388SOL    HW1 2063   0.864   1.979   5.553
  388SOL    HW2 2064   0.909   1.849   5.464
  389SOL     OW 2065   3.806   3.557   1.511
  389SOL    HW1 2066   3.808   3.581   1.414
  389SOL    HW2 2067   3.837   3.635   1.566
  390SOL     OW 2068   2.884   1.538   1.796
  390SOL    HW1 2069   2.921   1.575   1.711
  390SOL    HW2 2070   2.796   1.582   1.816
  391SOL     OW 2071   2.169   2.735   6.867
  391SOL    HW1 2072   2.127   2.648   6.840
  391SOL    HW2 2073   2.188   2.734   6.965
  392SOL     OW 2074   1.530   4.153   0.749
  392SOL    HW1 2075   1.443   4.129   0.705
  392SOL    HW2 2076   1.585   4.207   0.685
  393SOL     OW 2077   1.367   4.722   6.433
  393SOL    HW1 2078   1.324   4.633   6.448
  393SOL    HW2 2079   1.419   4.748   6.515
  394SOL     OW 2080   6.804   1.742   0.144
  394SOL    HW1 2081   6.855   1.707   0.223
  394SOL    HW2 2082   6.859   1.728   0.061
  395SOL     OW 2083   4.906   3.779   2.996
  395SOL    HW1 2084   4.886   3.718   3.072
  395SOL    HW2 2085   5.002   3.807   3.001
  396SOL     OW 2086   3.281   3.962   1.685
  396SOL    HW1 2087   3.284   3.971   1.585
  396SOL    HW2 2088   3.274   3.865   1.709
  397SOL     OW 2089   5.931   1.706   5.687
  397SOL    HW1 2090   5.872   1.660   5.620
  397SOL    HW2 2091   5.888   1.702   5.777
  398SOL     OW 2092   0.892   6.777   1.862
  398SOL    HW1 2093   0.934   6.866   1.878
  398SOL    HW2 2094   0.837   6.751   1.942
  399SOL     OW 2095   6.355   5.941   2.617
  399SOL    HW1 2096   6.409   6.023   2.639
  399SOL    HW2 2097   6.366   5.918   2.521
  400SOL     OW 2098   6.397   6.495   5.612
  400SOL    HW1 2099   6.407   6.403   5.575
  400SOL    HW2 2100   6.378   6.560   5.538
  401SOL     OW 2101   5.825   0.762   6.271
  401SOL    HW1 2102   5.748   0.823   6.251
  401SOL    HW2 2103   5.791   0.668   6.279
  402SOL     OW 2104   5.707   0.381   3.614
  402SOL    HW1 2105   5.709   0.472   3.655
  402SOL    HW2 2106   5.621   0.336   3.639
  403SOL     OW 2107   3.539   2.117   4.435
  403SOL    HW1 2108   3.541   2.118   4.535
  403SOL    HW2 2109   3.446   2.138   4.403
  404SOL     OW 2110   1.623   4.875   3.840
  404SOL    HW1 2111   1.559   4.848   3.912
  404SOL    HW2 2112   1.640   4.974   3.847
  405SOL     OW 2113   1.422   3.725   1.906
  405SOL    HW1 2114   1.463   3.664   1.838
  405SOL    HW2 2115   1.328   3.695   1.924
  406SOL     OW 2116   1.080   4.090   4.654
  406SOL    HW1 2117   1.164   4.035   4.651
  406SOL    HW2 2118   1.010   4.042   4.706
  407SOL     OW 2119   1.579   0.704   4.428
  407SOL    HW1 2120   1.660   0.714   4.486
  407SOL    HW2 2121   1.499   0.740   4.476
  408SOL     OW 2122   1.067   2.441   2.852
  408SOL    HW1 2123   1.091   2.437   2.949
  408SOL    HW2 2124   1.132   2.388   2.798
  409SOL     OW 2125   0.188   2.907   1.769
  409SOL    HW1 2126   0.161   2.902   1.673
  409SOL    HW2 2127   0.122   2.856   1.825
  410SOL     OW 2128   1.915   1.387   0.836
  410SOL    HW1 2129   1.884   1.457   0.900
  410SOL    HW2 2130   1.972   1.321   0.884
  411SOL     OW 2131   6.068   6.944   1.728
  411SOL    HW1 2132   6.056   7.008   1.652
  411SOL    HW2 2133   6.147   6.885   1.709
  412SOL     OW 2134   4.145   6.024   4.174
  412SOL    HW1 2135   4.159   5.949   4.239
  412SOL    HW2 2136   4.056   6.066   4.190
  413SOL     OW 2137   5.038   3.514   1.311
  413SOL    HW1 2138   4.962   3.501   1.248
  413SOL    HW2 2139   5.019   3.593   1.370
  414SOL     OW 2140   3.754   5.357   3.771
  414SOL    HW1 2141   3.854   5.350   3.764
  414SOL    HW2 2142   3.722   5.300   3.847
  415SOL     OW 2143   0.889   5.836   6.806
  415SOL    HW1 2144   0.861   5.930   6.827
  415SOL    HW2 2145   0.981   5.837   6.765
  416SOL     OW 2146   4.690   6.493   4.323
  416SOL    HW1 2147   4.775   6.462   4.281
  416SOL    HW2 2148   4.614   6.479   4.260
  417SOL     OW 2149   2.471   5.578   6.598
  417SOL    HW1 2150   2.533   5.611   6.669
  417SOL    HW2 2151   2.510   5.599   6.508
  418SOL     OW 2152   4.295   6.340   0.125
  418SOL    HW1 2153   4.330   6.258   0.080
  418SOL    HW2 2154   4.198   6.328   0.146
  419SOL     OW 2155   2.287   6.868   1.524
  419SOL    HW1 2156   2.283   6.967   1.533
  419SOL    HW2 2157   2.233   6.825   1.597
  420SOL     OW 2158   5.947   1.326   0.145
  420SOL    HW1 2159   6.007   1.392   0.190
  420SOL    HW2 2160   5.852   1.355   0.155
  421SOL     OW 2161   6.893   4.464   5.580
  421SOL    HW1 2162   6.971   4.407   5.556
  421SOL    HW2 2163   6.901   4.493   5.676
  422SOL     OW 2164   5.708   3.751   1.731
  422SOL    HW1 2165   5.653   3.674   1.698
  422SOL    HW2 2166   5.727   3.814   1.656
  423SOL     OW 2167   0.650   1.874   6.320
  423SOL    HW1 2168   0.589   1.836   6.391
  423SOL    HW2 2169   0.646   1.816   6.239
  424SOL     OW 2170   1.962   5.375   0.839
  424SOL    HW1 2171   1.875   5.423   0.839
  424SOL    HW2 2172   1.966   5.312   0.917
  425SOL     OW 2173   4.683   1.577   3.650
  425SOL    HW1 2174   4.724   1.592   3.740
  425SOL    HW2 2175   4.756   1.563   3.582
  426SOL     OW 2176   3.510   2.061   4.709
  426SOL    HW1 2177   3.428   2.116   4.723
  426SOL    HW2 2178   3.486   1.964   4.704
  427SOL     OW 2179   5.629   6.196   3.642
  427SOL    HW1 2180   5.619   6.293   3.618
  427SOL    HW2 2181   5.549   6.145   3.610
  428SOL     OW 2182   4.485   0.639   4.135
  428SOL    HW1 2183   4.523   0.547   4.146
  428SOL    HW2 2184   4.527   0.700   4.203
  429SOL     OW 2185   1.227   4.637   1.173
  429SOL    HW1 2186   1.192   4.546   1.196
  429SOL    HW2 2187   1.322   4.644   1.204
  430SOL     OW 2188   0.641   0.354   4.704
  430SOL    HW1 2189   0.689   0.327   4.787
  430SOL    HW2 2190   0.694   0.424   4.656
  431SOL     OW 2191   2.474   0.214   0.764
  431SOL    HW1 2192   2.402   0.146   0.777
  431SOL    HW2 2193   2.442   0.284   0.699
  432SOL     OW 2194   6.237   1.606   0.754
  432SOL    HW1 2195   6.311   1.659   0.714
  432SOL    HW2 2196   6.205   1.650   0.838
  433SOL     OW 2197   2.097   6.562   4.911
  433SOL    HW1 2198   2.069   6.654   4.939
  433SOL    HW2 2199   2.139   6.515   4.988
  434SOL     OW 2200   3.395   5.307   2.903
  434SOL    HW1 2201   3.330   5.362   2.851
  434SOL    HW2 2202   3.480   5.299   2.852
  435SOL     OW 2203   4.904   2.881   6.604
  435SOL    HW1 2204   4.892   2.885   6.504
  435SOL    HW2 2205   4.980   2.820   6.626
  436SOL     OW 2206   3.345   5.993   1.848
  436SOL    HW1 2207   3.443   5.982   1.831
  436SOL    HW2 2208   3.295   5.984   1.762
  437SOL     OW 2209   0.747   1.445   0.036
  437SOL    HW1 2210   0.827   1.400   0.075
  437SOL    HW2 2211   0.720   1.399   6.975
  438SOL     OW 2212   2.278   4.220   3.328
  438SOL    HW1 2213   2.195   4.268   3.301
  438SOL    HW2 2214   2.292   4.229   3.426
  439SOL     OW 2215   5.815   5.412   2.617
  439SOL    HW1 2216   5.848   5.499   2.580
  439SOL    HW2 2217   5.739   5.378   2.560
  440SOL     OW 2218   2.153   1.679   4.652
  440SOL    HW1 2219   2.246   1.663   4.618
  440SOL    HW2 2220   2.089   1.679   4.576
  441SOL     OW 2221   0.525   3.172   4.044
  441SOL    HW1 2222   0.475   3.215   3.970
  441SOL    HW2 2223   0.622   3.166   4.020
  442SOL     OW 2224   4.099   5.430   5.500
  442SOL    HW1 2225   4.161   5.485   5.556
  442SOL    HW2 2226   4.098   5.465   5.406
  443SOL     OW 2227   6.016   4.553   3.790
  443SOL    HW1 2228   6.081   4.506   3.730
  443SOL    HW2 2229   5.998   4.644   3.753
  444SOL     OW 2230   4.812   0.584   6.679
  444SOL    HW1 2231   4.883   0.514   6.686
  444SOL    HW2 2232   4.732   0.555   6.732
  445SOL     OW 2233   0.907   5.687   2.820
  445SOL    HW1 2234   0.951   5.649   2.739
  445SOL    HW2 2235   0.849   5.617   2.862
  446SOL     OW 2236   3.291   5.210   3.852
  446SOL    HW1 2237   3.292   5.264   3.768
  446SOL    HW2 2238   3.344   5.258   3.922
  447SOL     OW 2239   0.469   2.799   6.405
  447SOL    HW1 2240   0.539   2.749   6.455
  447SOL    HW2 2241   0.405   2.735   6.363
  448SOL     OW 2242   1.906   0.337   3.513
  448SOL    HW1 2243   1.849   0.281   3.572
  448SOL    HW2 2244   1.862   0.426   3.499
  449SOL     OW 2245   3.204   1.030   3.570
  449SOL    HW1 2246   3.259   1.106   3.605
  449SOL    HW2 2247   3.265   0.960   3.532
  450SOL     OW 2248   1.350   4.852   2.875
  450SOL    HW1 2249   1.319   4.791   2.803
  450SOL    HW2 2250   1.293   4.934   2.875
  451SOL     OW 2251   1.339   2.393   3.825
  451SOL    HW1 2252   1.287   2.320   3.780
  451SOL    HW2 2253   1.354   2.468   3.761
  452SOL     OW 2254   5.280   6.743   0.232
  452SOL    HW1 2255   5.205   6.761   0.168
  452SOL    HW2 2256   5.351   6.691   0.185
  453SOL     OW 2257   4.674   0.219   6.460
  453SOL    HW1 2258   4.759   0.244   6.414
  453SOL    HW2 2259   4.615   0.168   6.398
  454SOL     OW 2260   6.727   4.322   5.911
  454SOL    HW1 2261   6.791   4.262   5.863
  454SOL    HW2 2262   6.775   4.372   5.982
  455SOL     OW 2263   5.714   2.161   4.020
  455SOL    HW1 2264   5.728   2.163   4.119
  455SOL    HW2 2265   5.687   2.069   3.992
  456SOL     OW 2266   6.921   6.754   3.641
  456SOL    HW1 2267   7.018   6.758   3.615
  456SOL    HW2 2268   6.869   6.713   3.566
  457SOL     OW 2269   2.119   2.618   3.927
  457SOL    HW1 2270   2.030   2.602   3.885
  457SOL    HW2 2271   2.106   2.659   4.017
  458SOL     OW 2272   4.155   5.662   3.074
  458SOL    HW1 2273   4.074   5.692   3.125
  458SOL    HW2 2274   4.127   5.596   3.004
  459SOL     OW 2275   1.857   6.842   5.799
  459SOL    HW1 2276   1.773   6.818   5.750
  459SOL    HW2 2277   1.931   6.781   5.770
  460SOL     OW 2278   2.635   6.677   4.547
  460SOL    HW1 2279   2.678   6.588   4.528
  460SOL    HW2 2280   2.536   6.669   4.536
  461SOL     OW 2281   0.006   5.952   6.069
  461SOL    HW1 2282   6.985   5.888   6.131
  461SOL    HW2 2283   6.977   6.038   6.067
  462SOL     OW 2284   4.147   3.414   6.938
  462SOL    HW1 2285   4.069   3.422   7.000
  462SOL    HW2 2286   4.156   3.497   6.884
  463SOL     OW 2287   5.448   5.847   3.464
  463SOL    HW1 2288   5.529   5.837   3.407
  463SOL    HW2 2289   5.377   5.784   3.431
  464SOL     OW 2290   2.642   1.674   5.685
  464SOL    HW1 2291   2.617   1.632   5.772
  464SOL    HW2 2292   2.579   1.644   5.614
  465SOL     OW 2293   0.699   2.889   0.386
  465SOL    HW1 2294   0.636   2.967   0.386
  465SOL    HW2 2295   0.667   2.821   0.320
  466SOL     OW 2296   1.379   6.227   3.585
  466SOL    HW1 2297   1.373   6.202   3.488
  466SOL    HW2 2298   1.475   6.228   3.613
  467SOL     OW 2299   1.801   0.942   0.518
  467SOL    HW1 2300   1.869   1.016   0.515
  467SOL    HW2 2301   1.817   0.886   0.599
  468SOL     OW 2302   3.893   6.585   5.697
  468SOL    HW1 2303   3.990   6.572   5.680
  468SOL    HW2 2304   3.875   6.680   5.720
  469SOL     OW 2305   2.937   3.501   6.594
  469SOL    HW1 2306   3.011   3.561   6.565
  469SOL    HW2 2307   2.955   3.468   6.686
  470SOL     OW 2308   4.531   6.212   1.428
  470SOL    HW1 2309   4.499   6.170   1.343
  470SOL    HW2 2310   4.466   6.283   1.457
  471SOL     OW 2311   2.484   2.573   3.559
  471SOL    HW1 2312   2.565   2.563   3.617
  471SOL    HW2 2313   2.499   2.525   3.473
  472SOL     OW 2314   4.205   3.668   6.837
  472SOL    HW1 2315   4.270   3.731   6.877
  472SOL    HW2 2316   4.212   3.672   6.737
  473SOL     OW 2317   1.408   2.293   2.540
  473SOL    HW1 2318   1.451   2.381   2.523
  473SOL    HW2 2319   1.359   2.295   2.627
  474SOL     OW 2320   5.584   5.668   4.761
  474SOL    HW1 2321   5.574   5.727   4.681
  474SOL    HW2 2322   5.499   5.617   4.775
  475SOL     OW 2323   6.060   1.401   6.407
  475SOL    HW1 2324   6.125   1.399   6.331
  475SOL    HW2 2325   6.041   1.308   6.438
  476SOL     OW 2326   0.478   3.529   2.739
  476SOL    HW1 2327   0.434   3.447   2.774
  476SOL    HW2 2328   0.578   3.516   2.738
  477SOL     OW 2329   2.766   6.364   2.853
  477SOL    HW1 2330   2.761   6.377   2.952
  477SOL    HW2 2331   2.823   6.284   2.833
  478SOL     OW 2332   3.647   6.575   2.847
  478SOL    HW1 2333   3.693   6.599   2.932
  478SOL    HW2 2334   3.695   6.498   2.804
  479SOL     OW 2335   3.942   2.370   6.118
  479SOL    HW1 2336   3.949   2.309   6.197
  479SOL    HW2 2337   3.954   2.465   6.149
  480SOL     OW 2338   2.671   0.520   0.200
  480SOL    HW1 2339   2.724   0.456   0.255
  480SOL    HW2 2340   2.609   0.470   0.140
  481SOL     OW 2341   2.183   6.487   1.524
  481SOL    HW1 2342   2.165   6.405   1.579
  481SOL    HW2 2343   2.267   6.474   1.472
  482SOL     OW 2344   3.931   4.807   2.283
  482SOL    HW1 2345   3.894   4.743   2.350
  482SOL    HW2 2346   3.879   4.800   2.198
  483SOL     OW 2347   6.475   2.036   2.769
  483SOL    HW1 2348   6.502   2.057   2.675
  483SOL    HW2 2349   6.386   2.077   2.788
  484SOL     OW 2350   1.729   3.145   5.160
  484SOL    HW1 2351   1.744   3.242   5.174
  484SOL    HW2 2352   1.766   3.118   5.071
  485SOL     OW 2353   3.995   5.250   2.666
  485SOL    HW1 2354   4.053   5.176   2.633
  485SOL    HW2 2355   4.042   5.337   2.653
  486SOL     OW 2356   6.547   1.688   0.244
  486SOL    HW1 2357   6.531   1.751   0.321
  486SOL    HW2 2358   6.639   1.702   0.208
  487SOL     OW 2359   1.051   0.546   3.115
  487SOL    HW1 2360   1.041   0.452   3.084
  487SOL    HW2 2361   1.108   0.596   3.049
  488SOL     OW 2362   0.687   1.419   1.762
  488SOL    HW1 2363   0.767   1.459   1.716
  488SOL    HW2 2364   0.637   1.491   1.810
  489SOL     OW 2365   4.406   5.802   5.624
  489SOL    HW1 2366   4.434   5.757   5.539
  489SOL    HW2 2367   4.482   5.855   5.660
  490SOL     OW 2368   0.603   6.018   3.006
  490SOL    HW1 2369   0.517   6.047   3.048
  490SOL    HW2 2370   0.594   6.022   2.906
  491SOL     OW 2371   1.492   4.026   1.925
  491SOL    HW1 2372   1.587   4.047   1.945
  491SOL    HW2 2373   1.484   3.931   1.895
  492SOL     OW 2374   1.346   0.646   5.443
  492SOL    HW1 2375   1.438   0.685   5.437
  492SOL    HW2 2376   1.290   0.679   5.367
  493SOL     OW 2377   4.153   6.661   5.490
  493SOL    HW1 2378   4.153   6.756   5.457
  493SOL    HW2 2379   4.163   6.660   5.590
  494SOL     OW 2380   0.777   6.433   0.090
  494SOL    HW1 2381   0.860   6.389   0.056
  494SOL    HW2 2382   0.697   6.385   0.054
  495SOL     OW 2383   4.535   6.079   3.761
  495SOL    HW1 2384   4.534   6.062   3.662
  495SOL    HW2 2385   4.590   6.009   3.806
  496SOL     OW 2386   5.214   2.843   1.945
  496SOL    HW1 2387   5.255   2.752   1.954
  496SOL    HW2 2388   5.138   2.851   2.009
  497SOL     OW 2389   2.726   1.905   4.972
  497SOL    HW1 2390   2.762   1.943   5.057
  497SOL    HW2 2391   2.801   1.862   4.921
  498SOL     OW 2392   0.836   4.362   1.530
  498SOL    HW1 2393   0.855   4.302   1.452
  498SOL    HW2 2394   0.740   4.352   1.557
  499SOL     OW 2395   1.419   5.385   3.996
  499SOL    HW1 2396   1.482   5.435   3.936
  499SOL    HW2 2397   1.436   5.410   4.091
  500SOL     OW 2398   0.023   1.825   5.834
  500SOL    HW1 2399   0.059   1.878   5.911
  500SOL    HW2 2400   0.056   1.731   5.840
  501SOL     OW 2401   3.128   0.181   0.673
  501SOL    HW1 2402   3.204   0.158   0.612
  501SOL    HW2 2403   3.165   0.207   0.763
  502SOL     OW 2404   0.933   3.608   6.136
  502SOL    HW1 2405   0.958   3.556   6.217
  502SOL    HW2 2406   1.002   3.679   6.119
  503SOL     OW 2407   6.693   4.915   6.768
  503SOL    HW1 2408   6.635   4.994   6.788
  503SOL    HW2 2409   6.768   4.943   6.707
  504SOL     OW 2410   0.891   4.899   2.418
  504SOL    HW1 2411   0.987   4.907   2.444
  504SOL    HW2 2412   0.884   4.882   2.320
  505SOL     OW 2413   3.108   5.812   4.673
  505SOL    HW1 2414   3.200   5.837   4.643
  505SOL    HW2 2415   3.101   5.826   4.772
  506SOL     OW 2416   3.307   4.967   3.937
  506SOL    HW1 2417   3.222   4.925   3.904
  506SOL    HW2 2418   3.310   5.063   3.909
  507SOL     OW 2419   2.933   6.985   3.304
  507SOL    HW1 2420   2.890   6.925   3.236
  507SOL    HW2 2421   2.973   0.041   3.259
  508SOL     OW 2422   0.013   3.446   2.797
  508SOL    HW1 2423   7.012   3.444   2.700
  508SOL    HW2 2424   0.037   3.540   2.824
  509SOL     OW 2425   2.689   1.156   1.514
  509SOL    HW1 2426   2.712   1.067   1.555
  509SOL    HW2 2427   2.724   1.229   1.571
  510SOL     OW 2428   6.225   4.230   6.640
  510SOL    HW1 2429   6.211   4.328   6.653
  510SOL    HW2 2430   6.180   4.201   6.555
  511SOL     OW 2431   0.855   2.368   6.161
  511SOL    HW1 2432   0.903   2.433   6.219
  511SOL    HW2 2433   0.889   2.374   6.068
  512SOL     OW 2434   0.106   2.749   6.538
  512SOL    HW1 2435   0.190   2.720   6.491
  512SOL    HW2 2436   0.119   2.742   6.636
  513SOL     OW 2437   5.663   6.571   3.396
  513SOL    HW1 2438   5.649   6.526   3.484
  513SOL    HW2 2439   5.574   6.596   3.356
  514SOL     OW 2440   6.254   1.010   4.542
  514SOL    HW1 2441   6.256   1.012   4.442
  514SOL    HW2 2442   6.299   1.092   4.578
  515SOL     OW 2443   1.173   6.037   0.656
  515SOL    HW1 2444   1.081   6.038   0.695
  515SOL    HW2 2445   1.180   5.964   0.589
  516SOL     OW 2446   2.696   4.712   2.191
  516SOL    HW1 2447   2.753   4.663   2.125
  516SOL    HW2 2448   2.646   4.646   2.247
  517SOL     OW 2449   4.175   5.141   1.497
  517SOL    HW1 2450   4.110   5.198   1.547
  517SOL    HW2 2451   4.202   5.064   1.555
  518SOL     OW 2452   2.430   1.997   3.454
  518SOL    HW1 2453   2.386   2.078   3.492
  518SOL    HW2 2454   2.364   1.921   3.453
  519SOL     OW 2455   0.566   6.245   4.056
  519SOL    HW1 2456   0.611   6.173   4.111
  519SOL    HW2 2457   0.525   6.312   4.117
  520SOL     OW 2458   5.898   3.763   0.111
  520SOL    HW1 2459   5.912   3.701   0.187
  520SOL    HW2 2460   5.987   3.802   0.083
  521SOL     OW 2461   6.059   6.009   5.033
  521SOL    HW1 2462   6.091   5.968   5.119
  521SOL    HW2 2463   6.014   6.096   5.053
  522SOL     OW 2464   3.310   3.283   4.669
  522SOL    HW1 2465   3.341   3.356   4.731
  522SOL    HW2 2466   3.260   3.214   4.721
  523SOL     OW 2467   1.023   5.390   1.598
  523SOL    HW1 2468   1.059   5.301   1.625
  523SOL    HW2 2469   0.931   5.378   1.561
  524SOL     OW 2470   0.417   1.843   2.450
  524SOL    HW1 2471   0.455   1.936   2.458
  524SOL    HW2 2472   0.370   1.819   2.535
  525SOL     OW 2473   1.868   4.149   5.815
  525SOL    HW1 2474   1.769   4.162   5.827
  525SOL    HW2 2475   1.913   4.151   5.905
  526SOL     OW 2476   4.022   5.693   4.014
  526SOL    HW1 2477   3.954   5.652   3.953
  526SOL    HW2 2478   4.073   5.763   3.964
  527SOL     OW 2479   6.227   3.071   0.645
  527SOL    HW1 2480   6.142   3.046   0.598
  527SOL    HW2 2481   6.303   3.024   0.601
  528SOL     OW 2482   1.141   2.649   3.859
  528SOL    HW1 2483   1.066   2.690   3.806
  528SOL    HW2 2484   1.150   2.552   3.834
  529SOL     OW 2485   1.489   5.904   4.613
  529SOL    HW1 2486   1.571   5.847   4.609
  529SOL    HW2 2487   1.474   5.948   4.524
  530SOL     OW 2488   3.166   3.590   3.909
  530SOL    HW1 2489   3.112   3.530   3.849
  530SOL    HW2 2490   3.105   3.653   3.957
  531SOL     OW 2491   0.501   1.974   2.876
  531SOL    HW1 2492   0.461   2.005   2.963
  531SOL    HW2 2493   0.525   2.053   2.821
  532SOL     OW 2494   0.702   2.958   0.036
  532SOL    HW1 2495   0.671   2.868   0.004
  532SOL    HW2 2496   0.749   2.948   0.124
  533SOL     OW 2497   4.238   6.803   4.135
  533SOL    HW1 2498   4.200   6.712   4.118
  533SOL    HW2 2499   4.326   6.812   4.088
  534SOL     OW 2500   5.158   6.305   2.073
  534SOL    HW1 2501   5.207   6.249   2.140
  534SOL    HW2 2502   5.196   6.397   2.072
  535SOL     OW 2503   6.837   3.414   4.707
  535SOL    HW1 2504   6.907   3.381   4.770
  535SOL    HW2 2505   6.765   3.345   4.697
  536SOL     OW 2506   6.022   4.692   2.579
  536SOL    HW1 2507   6.093   4.623   2.594
  536SOL    HW2 2508   5.992   4.688   2.483
  537SOL     OW 2509   2.310   6.678   4.778
  537SOL    HW1 2510   2.392   6.629   4.809
  537SOL    HW2 2511   2.229   6.634   4.818
  538SOL     OW 2512   1.699   5.164   4.128
  538SOL    HW1 2513   1.707   5.154   4.227
  538SOL    HW2 2514   1.758   5.097   4.083
  539SOL     OW 2515   2.032   5.772   1.249
  539SOL    HW1 2516   2.047   5.871   1.253
  539SOL    HW2 2517   2.072   5.736   1.165
  540SOL     OW 2518   1.461   1.507   3.139
  540SOL    HW1 2519   1.466   1.545   3.046
  540SOL    HW2 2520   1.368   1.516   3.173
  541SOL     OW 2521   4.683   5.251   3.743
  541SOL    HW1 2522   4.763   5.309   3.729
  541SOL    HW2 2523   4.705   5.178   3.808
  542SOL     OW 2524   5.731   5.966   6.707
  542SOL    HW1 2525   5.661   5.896   6.721
  542SOL    HW2 2526   5.721   6.005   6.616
  543SOL     OW 2527   0.582   3.001   4.271
  543SOL    HW1 2528   0.629   3.012   4.359
  543SOL    HW2 2529   0.593   3.085   4.218
  544SOL     OW 2530   2.341   4.649   6.886
  544SOL    HW1 2531   2.296   4.733   6.915
  544SOL    HW2 2532   2.437   4.651   6.915
  545SOL     OW 2533   3.374   1.316   1.632
  545SOL    HW1 2534   3.310   1.284   1.703
  545SOL    HW2 2535   3.403   1.409   1.653
  546SOL     OW 2536   2.208   3.042   0.495
  546SOL    HW1 2537   2.191   3.054   0.593
  546SOL    HW2 2538   2.122   3.021   0.449
  547SOL     OW 2539   3.086   1.108   0.266
  547SOL    HW1 2540   3.077   1.198   0.226
  547SOL    HW2 2541   3.042   1.107   0.356
  548SOL     OW 2542   3.297   3.299   2.120
  548SOL    HW1 2543   3.371   3.366   2.129
  548SOL    HW2 2544   3.212   3.339   2.153
  549SOL     OW 2545   5.388   3.265   1.169
  549SOL    HW1 2546   5.376   3.182   1.114
  549SOL    HW2 2547   5.348   3.251   1.260
  550SOL     OW 2548   0.934   5.478   4.038
  550SOL    HW1 2549   0.893   5.536   4.109
  550SOL    HW2 2550   1.009   5.424   4.078
  551SOL     OW 2551   1.120   0.505   1.926
  551SOL    HW1 2552   1.039   0.560   1.903
  551SOL    HW2 2553   1.195   0.529   1.864
  552SOL     OW 2554   6.214   4.660   6.984
  552SOL    HW1 2555   6.208   4.565   7.015
  552SOL    HW2 2556   6.124   4.703   6.992
  553SOL     OW 2557   2.952   6.132   2.827
  553SOL    HW1 2558   2.979   6.042   2.791
  553SOL    HW2 2559   3.030   6.173   2.874
  554SOL     OW 2560   5.801   6.716   6.856
  554SOL    HW1 2561   5.813   6.737   6.759
  554SOL    HW2 2562   5.891   6.709   6.900
  555SOL     OW 2563   2.119   4.435   4.306
  555SOL    HW1 2564   2.024   4.415   4.280
  555SOL    HW2 2565   2.120   4.497   4.384
  556SOL     OW 2566   4.125   2.149   3.718
  556SOL    HW1 2567   4.114   2.175   3.814
  556SOL    HW2 2568   4.193   2.209   3.675
  557SOL     OW 2569   0.230   5.482   0.671
  557SOL    HW1 2570   0.216   5.517   0.763
  557SOL    HW2 2571   0.326   5.494   0.644
  558SOL     OW 2572   2.883   3.465   3.864
  558SOL    HW1 2573   2.786   3.454   3.887
  558SOL    HW2 2574   2.914   3.555   3.894
  559SOL     OW 2575   6.514   6.169   0.547
  559SOL    HW1 2576   6.597   6.209   0.508
  559SOL    HW2 2577   6.495   6.211   0.636
  560SOL     OW 2578   5.081   4.365   6.232
  560SOL    HW1 2579   5.016   4.441   6.233
  560SOL    HW2 2580   5.131   4.365   6.145
  561SOL     OW 2581   0.882   1.499   1.571
  561SOL    HW1 2582   0.909   1.595   1.577
  561SOL    HW2 2583   0.963   1.441   1.578
  562SOL     OW 2584   4.759   0.746   6.004
  562SOL    HW1 2585   4.738   0.774   6.098
  562SOL    HW2 2586   4.745   0.647   5.996
  563SOL     OW 2587   2.463   0.580   3.537
  563SOL    HW1 2588   2.493   0.655   3.478
  563SOL    HW2 2589   2.527   0.570   3.613
  564SOL     OW 2590   1.736   1.815   6.903
  564SOL    HW1 2591   1.827   1.836   6.939
  564SOL    HW2 2592   1.702   1.894   6.851
  565SOL     OW 2593   3.192   2.883   5.213
  565SOL    HW1 2594   3.262   2.883   5.284
  565SOL    HW2 2595   3.125   2.955   5.231
  566SOL     OW 2596   6.837   5.138   3.309
  566SOL    HW1 2597   6.797   5.227   3.332
  566SOL    HW2 2598   6.798   5.068   3.369
  567SOL     OW 2599   3.013   2.754   1.218
  567SOL    HW1 2600   2.917   2.735   1.196
  567SOL    HW2 2601   3.018   2.800   1.307
  568SOL     OW 2602   5.259   0.837   0.067
  568SOL    HW1 2603   5.226   0.825   0.161
  568SOL    HW2 2604   5.191   0.799   0.003
  569SOL     OW 2605   1.865   3.329   6.253
  569SOL    HW1 2606   1.929   3.256   6.277
  569SOL    HW2 2607   1.821   3.364   6.335
  570SOL     OW 2608   3.318   6.374   6.652
  570SOL    HW1 2609   3.335   6.422   6.567
  570SOL    HW2 2610   3.283   6.438   6.720
  571SOL     OW 2611   3.242   6.940   1.926
  571SOL    HW1 2612   3.310   6.883   1.879
  571SOL    HW2 2613   3.170   6.882   1.964
  572SOL     OW 2614   2.401   4.856   5.367
  572SOL    HW1 2615   2.413   4.770   5.317
  572SOL    HW2 2616   2.470   4.862   5.439
  573SOL     OW 2617   5.654   1.863   5.528
  573SOL    HW1 2618   5.674   1.768   5.552
  573SOL    HW2 2619   5.580   1.866   5.461
  574SOL     OW 2620   3.331   1.883   4.188
  574SOL    HW1 2621   3.369   1.951   4.126
  574SOL    HW2 2622   3.306   1.801   4.136
  575SOL     OW 2623   5.114   4.195   0.056
  575SOL    HW1 2624   5.171   4.277   0.061
  575SOL    HW2 2625   5.169   4.118   0.025
  576SOL     OW 2626   0.678   2.304   2.626
  576SOL    HW1 2627   0.750   2.321   2.558
  576SOL    HW2 2628   0.686   2.371   2.699
  577SOL     OW 2629   1.538   1.033   2.765
  577SOL    HW1 2630   1.482   1.047   2.684
  577SOL    HW2 2631   1.564   0.937   2.772
  578SOL     OW 2632   5.840   6.012   3.641
  578SOL    HW1 2633   5.803   5.948   3.708
  578SOL    HW2 2634   5.770   6.080   3.618
  579SOL     OW 2635   1.891   3.029   2.933
  579SOL    HW1 2636   1.853   2.960   2.871
  579SOL    HW2 2637   1.990   3.021   2.936
  580SOL     OW 2638   5.770   5.234   0.618
  580SOL    HW1 2639   5.743   5.305   0.554
  580SOL    HW2 2640   5.690   5.180   0.644
  581SOL     OW 2641   2.568   3.338   1.227
  581SOL    HW1 2642   2.477   3.378   1.233
  581SOL    HW2 2643   2.571   3.251   1.276
  582SOL     OW 2644   4.354   6.928   1.644
  582SOL    HW1 2645   4.268   6.958   1.685
  582SOL    HW2 2646   4.337   6.892   1.552
  583SOL     OW 2647   3.119   5.285   5.817
  583SOL    HW1 2648   3.090   5.227   5.741
  583SOL    HW2 2649   3.178   5.232   5.878
  584SOL     OW 2650   3.015   4.321   6.175
  584SOL    HW1 2651   2.980   4.238   6.132
  584SOL    HW2 2652   3.018   4.307   6.274
  585SOL     OW 2653   5.561   3.012   6.381
  585SOL    HW1 2654   5.466   2.997   6.405
  585SOL    HW2 2655   5.567   3.067   6.298
  586SOL     OW 2656   3.953   1.544   6.004
  586SOL    HW1 2657   4.037   1.593   5.982
  586SOL    HW2 2658   3.921   1.495   5.923
  587SOL     OW 2659   4.313   1.791   5.386
  587SOL    HW1 2660   4.328   1.828   5.294
  587SOL    HW2 2661   4.372   1.839   5.451
  588SOL     OW 2662   1.702   4.209   1.846
  588SOL    HW1 2663   1.719   4.303   1.876
  588SOL    HW2 2664   1.789   4.165   1.822
  589SOL     OW 2665   3.262   4.647   1.420
  589SOL    HW1 2666   3.192   4.718   1.425
  589SOL    HW2 2667   3.352   4.690   1.410
  590SOL     OW 2668   4.890   3.124   3.483
  590SOL    HW1 2669   4.988   3.144   3.478
  590SOL    HW2 2670   4.872   3.066   3.562
  591SOL     OW 2671   3.548   5.516   3.832
  591SOL    HW1 2672   3.520   5.475   3.919
  591SOL    HW2 2673   3.629   5.468   3.797
  592SOL     OW 2674   3.433   1.230   1.200
  592SOL    HW1 2675   3.444   1.190   1.291
  592SOL    HW2 2676   3.522   1.232   1.153
  593SOL     OW 2677   4.686   2.594   3.341
  593SOL    HW1 2678   4.659   2.498   3.347
  593SOL    HW2 2679   4.715   2.615   3.248
  594SOL     OW 2680   6.326   2.190   6.913
  594SOL    HW1 2681   6.242   2.244   6.905
  594SOL    HW2 2682   6.302   2.096   6.939
  595SOL     OW 2683   5.777   6.840   3.326
  595SOL    HW1 2684   5.709   6.908   3.353
  595SOL    HW2 2685   5.756   6.752   3.368
  596SOL     OW 2686   1.335   4.943   3.317
  596SOL    HW1 2687   1.236   4.934   3.323
  596SOL    HW2 2688   1.371   4.873   3.255
  597SOL     OW 2689   3.572   0.384   0.303
  597SOL    HW1 2690   3.474   0.399   0.290
  597SOL    HW2 2691   3.597   0.295   0.264
  598SOL     OW 2692   4.441   4.972   5.340
  598SOL    HW1 2693   4.393   5.051   5.303
  598SOL    HW2 2694   4.442   4.977   5.440
  599SOL     OW 2695   2.548   6.134   2.143
  599SOL    HW1 2696   2.607   6.104   2.068
  599SOL    HW2 2697   2.603   6.171   2.217
  600SOL     OW 2698   0.494   1.373   0.106
  600SOL    HW1 2699   0.415   1.374   0.045
  600SOL    HW2 2700   0.570   1.421   0.063
  601SOL     OW 2701   2.834   0.080   4.642
  601SOL    HW1 2702   2.821   0.145   4.567
  601SOL    HW2 2703   2.746   0.062   4.686
  602SOL     OW 2704   1.720   3.021   6.636
  602SOL    HW1 2705   1.654   3.094   6.617
  602SOL    HW2 2706   1.674   2.947   6.685
  603SOL     OW 2707   2.715   2.098   4.491
  603SOL    HW1 2708   2.739   2.188   4.528
  603SOL    HW2 2709   2.617   2.083   4.503
  604SOL     OW 2710   1.123   3.357   1.804
  604SOL    HW1 2711   1.178   3.279   1.835
  604SOL    HW2 2712   1.152   3.440   1.852
  605SOL     OW 2713   6.691   6.630   1.946
  605SOL    HW1 2714   6.666   6.577   2.026
  605SOL    HW2 2715   6.659   6.724   1.956
  606SOL     OW 2716   4.521   0.068   6.826
  606SOL    HW1 2717   4.527   7.010   6.884
  606SOL    HW2 2718   4.479   0.143   6.878
  607SOL     OW 2719   6.644   6.679   5.985
  607SOL    HW1 2720   6.600   6.699   6.073
  607SOL    HW2 2721   6.672   6.764   5.942
  608SOL     OW 2722   2.913   6.404   6.253
  608SOL    HW1 2723   2.975   6.329   6.275
  608SOL    HW2 2724   2.964   6.490   6.250
  609SOL     OW 2725   4.122   3.265   3.196
  609SOL    HW1 2726   4.175   3.332   3.144
  609SOL    HW2 2727   4.114   3.296   3.291
  610SOL     OW 2728   5.055   3.351   2.412
  610SOL    HW1 2729   5.011   3.440   2.414
  610SOL    HW2 2730   5.120   3.347   2.336
  611SOL     OW 2731   3.838   6.967   0.807
  611SOL    HW1 2732   3.749   7.013   0.803
  611SOL    HW2 2733   3.905   0.006   0.846
  612SOL     OW 2734   4.209   6.989   5.562
  612SOL    HW1 2735   4.133   6.953   5.617
  612SOL    HW2 2736   4.295   6.971   5.609
  613SOL     OW 2737   3.904   6.844   5.787
  613SOL    HW1 2738   3.947   6.846   5.877
  613SOL    HW2 2739   3.850   6.927   5.774
  614SOL     OW 2740   4.637   4.744   1.482
  614SOL    HW1 2741   4.578   4.824   1.467
  614SOL    HW2 2742   4.641   4.724   1.580
  615SOL     OW 2743   6.812   2.642   1.724
  615SOL    HW1 2744   6.771   2.731   1.707
  615SOL    HW2 2745   6.814   2.625   1.823
  616SOL     OW 2746   0.421   1.721   3.912
  616SOL    HW1 2747   0.475   1.687   3.835
  616SOL    HW2 2748   0.380   1.809   3.887
  617SOL     OW 2749   6.535   4.366   6.388
  617SOL    HW1 2750   6.552   4.430   6.313
  617SOL    HW2 2751   6.589   4.393   6.467
  618SOL     OW 2752   6.423   2.636   6.336
  618SOL    HW1 2753   6.442   2.659   6.431
  618SOL    HW2 2754   6.324   2.644   6.319
  619SOL     OW 2755   4.181   0.806   6.857
  619SOL    HW1 2756   4.235   0.764   6.785
  619SOL    HW2 2757   4.102   0.853   6.817
  620SOL     OW 2758   4.485   3.372   1.497
  620SOL    HW1 2759   4.387   3.358   1.480
  620SOL    HW2 2760   4.514   3.314   1.573
  621SOL     OW 2761   2.632   5.660   6.784
  621SOL    HW1 2762   2.647   5.648   6.882
  621SOL    HW2 2763   2.672   5.747   6.755
  622SOL     OW 2764   1.443   0.990   5.011
  622SOL    HW1 2765   1.484   1.037   4.933
  622SOL    HW2 2766   1.344   0.990   5.003
  623SOL     OW 2767   0.647   5.768   6.053
  623SOL    HW1 2768   0.742   5.780   6.023
  623SOL    HW2 2769   0.617   5.675   6.032
  624SOL     OW 2770   0.052   1.991   2.009
  624SOL    HW1 2771   0.133   1.954   2.056
  624SOL    HW2 2772   0.012   1.919   1.952
  625SOL     OW 2773   1.045   1.788   2.073
  625SOL    HW1 2774   1.035   1.723   1.997
  625SOL    HW2 2775   1.129   1.841   2.061
  626SOL     OW 2776   1.052   5.966   3.298
  626SOL    HW1 2777   1.063   5.914   3.213
  626SOL    HW2 2778   1.115   6.043   3.298
  627SOL     OW 2779   6.245   6.281   0.709
  627SOL    HW1 2780   6.296   6.253   0.790
  627SOL    HW2 2781   6.148   6.263   0.723
  628SOL     OW 2782   5.662   5.531   5.756
  628SOL    HW1 2783   5.700   5.612   5.710
  628SOL    HW2 2784   5.579   5.503   5.708
  629SOL     OW 2785   7.015   1.059   6.635
  629SOL    HW1 2786   0.011   1.154   6.657
  629SOL    HW2 2787   0.074   1.004   6.652
  630SOL     OW 2788   0.262   1.625   1.192
  630SOL    HW1 2789   0.208   1.704   1.219
  630SOL    HW2 2790   0.305   1.642   1.104
  631SOL     OW 2791   4.227   0.730   5.261
  631SOL    HW1 2792   4.189   0.735   5.353
  631SOL    HW2 2793   4.300   0.797   5.250
  632SOL     OW 2794   3.805   1.392   1.380
  632SOL    HW1 2795   3.825   1.479   1.335
  632SOL    HW2 2796   3.760   1.409   1.468
  633SOL     OW 2797   3.445   3.531   6.783
  633SOL    HW1 2798   3.407   3.444   6.813
  633SOL    HW2 2799   3.535   3.544   6.823
  634SOL     OW 2800   4.120   3.222   2.392
  634SOL    HW1 2801   4.083   3.250   2.303
  634SOL    HW2 2802   4.205   3.171   2.377
  635SOL     OW 2803   4.441   5.493   0.565
  635SOL    HW1 2804   4.462   5.486   0.663
  635SOL    HW2 2805   4.450   5.403   0.522
  636SOL     OW 2806   2.658   6.359   0.080
  636SOL    HW1 2807   2.568   6.401   0.093
  636SOL    HW2 2808   2.706   6.355   0.168
  637SOL     OW 2809   0.098   3.204   2.777
  637SOL    HW1 2810   0.084   3.298   2.807
  637SOL    HW2 2811   0.077   3.142   2.853
  638SOL     OW 2812   6.086   2.253   4.046
  638SOL    HW1 2813   6.037   2.191   4.107
  638SOL    HW2 2814   6.047   2.248   3.955
  639SOL     OW 2815   4.870   3.384   3.365
  639SOL    HW1 2816   4.859   3.287   3.386
  639SOL    HW2 2817   4.872   3.397   3.266
  640SOL     OW 2818   0.447   5.452   4.139
  640SOL    HW1 2819   0.376   5.411   4.196
  640SOL    HW2 2820   0.530   5.397   4.143
  641SOL     OW 2821   0.061   4.689   5.080
  641SOL    HW1 2822   0.147   4.680   5.131
  641SOL    HW2 2823   0.030   4.598   5.051
  642SOL     OW 2824   6.912   2.876   3.956
  642SOL    HW1 2825   7.008   2.854   3.973
  642SOL    HW2 2826   6.906   2.948   3.887
  643SOL     OW 2827   5.791   5.535   6.036
  643SOL    HW1 2828   5.773   5.534   5.938
  643SOL    HW2 2829   5.821   5.627   6.064
  644SOL     OW 2830   1.743   6.731   4.498
  644SOL    HW1 2831   1.731   6.668   4.421
  644SOL    HW2 2832   1.837   6.764   4.500
  645SOL     OW 2833   4.321   0.629   4.649
  645SOL    HW1 2834   4.242   0.567   4.649
  645SOL    HW2 2835   4.376   0.613   4.567
  646SOL     OW 2836   3.368   0.995   4.627
  646SOL    HW1 2837   3.445   1.043   4.585
  646SOL    HW2 2838   3.398   0.905   4.659
  647SOL     OW 2839   5.507   1.864   5.284
  647SOL    HW1 2840   5.426   1.842   5.231
  647SOL    HW2 2841   5.583   1.887   5.222
  648SOL     OW 2842   0.647   3.322   3.232
  648SOL    HW1 2843   0.625   3.362   3.144
  648SOL    HW2 2844   0.574   3.343   3.298
  649SOL     OW 2845   2.835   4.401   0.625
  649SOL    HW1 2846   2.878   4.491   0.623
  649SOL    HW2 2847   2.774   4.391   0.547
  650SOL     OW 2848   5.717   4.303   0.222
  650SOL    HW1 2849   5.754   4.243   0.293
  650SOL    HW2 2850   5.792   4.335   0.164
  651SOL     OW 2851   0.462   6.323   6.162
  651SOL    HW1 2852   0.426   6.248   6.217
  651SOL    HW2 2853   0.387   6.385   6.137
  652SOL     OW 2854   4.886   0.496   3.988
  652SOL    HW1 2855   4.819   0.427   3.960
  652SOL    HW2 2856   4.843   0.587   3.985
  653SOL     OW 2857   0.658   5.629   6.305
  653SOL    HW1 2858   0.663   5.702   6.238
  653SOL    HW2 2859   0.618   5.664   6.390
  654SOL     OW 2860   0.597   4.987   6.545
  654SOL    HW1 2861   0.567   5.002   6.450
  654SOL    HW2 2862   0.570   4.896   6.575
  655SOL     OW 2863   0.359   5.847   1.708
  655SOL    HW1 2864   0.380   5.762   1.659
  655SOL    HW2 2865   0.260   5.859   1.713
  656SOL     OW 2866   1.693   6.390   1.394
  656SOL    HW1 2867   1.653   6.312   1.347
  656SOL    HW2 2868   1.792   6.383   1.393
  657SOL     OW 2869   2.323   3.671   1.683
  657SOL    HW1 2870   2.322   3.640   1.588
  657SOL    HW2 2871   2.346   3.595   1.743
  658SOL     OW 2872   2.459   4.049   6.685
  658SOL    HW1 2873   2.491   4.059   6.591
  658SOL    HW2 2874   2.536   4.053   6.748
  659SOL     OW 2875   1.187   5.507   5.435
  659SOL    HW1 2876   1.180   5.450   5.353
  659SOL    HW2 2877   1.183   5.448   5.516
  660SOL     OW 2878   5.497   3.598   2.155
  660SOL    HW1 2879   5.491   3.652   2.239
  660SOL    HW2 2880   5.545   3.512   2.174
  661SOL     OW 2881   5.111   4.650   3.048
  661SOL    HW1 2882   5.118   4.656   3.148
  661SOL    HW2 2883   5.152   4.565   3.017
  662SOL     OW 2884   4.104   0.825   4.343
  662SOL    HW1 2885   4.148   0.736   4.337
  662SOL    HW2 2886   4.107   0.856   4.438
  663SOL     OW 2887   1.643   3.928   0.018
  663SOL    HW1 2888   1.639   3.924   0.118
  663SOL    HW2 2889   1.687   4.013   7.013
  664SOL     OW 2890   6.965   5.089   6.448
  664SOL    HW1 2891   6.971   4.994   6.477
  664SOL    HW2 2892   6.987   5.096   6.351
  665SOL     OW 2893   4.695   4.685   1.067
  665SOL    HW1 2894   4.687   4.619   1.142
  665SOL    HW2 2895   4.680   4.777   1.102
  666SOL     OW 2896   4.718   1.912   2.919
  666SOL    HW1 2897   4.690   1.818   2.941
  666SOL    HW2 2898   4.655   1.949   2.850
  667SOL     OW 2899   6.635   3.448   4.085
  667SOL    HW1 2900   6.687   3.379   4.035
  667SOL    HW2 2901   6.552   3.470   4.033
  668SOL     OW 2902   4.535   5.872   6.677
  668SOL    HW1 2903   4.598   5.845   6.605
  668SOL    HW2 2904   4.448   5.901   6.636
  669SOL     OW 2905   3.761   6.277   3.758
  669SOL    HW1 2906   3.742   6.299   3.662
  669SOL    HW2 2907   3.854   6.305   3.781
  670SOL     OW 2908   2.240   3.353   1.020
  670SOL    HW1 2909   2.169   3.305   1.072
  670SOL    HW2 2910   2.271   3.432   1.071
  671SOL     OW 2911   2.195   5.828   0.436
  671SOL    HW1 2912   2.105   5.805   0.473
  671SOL    HW2 2913   2.266   5.809   0.504
  672SOL     OW 2914   1.264   5.003   2.239
  672SOL    HW1 2915   1.248   4.947   2.321
  672SOL    HW2 2916   1.355   4.983   2.203
  673SOL     OW 2917   0.491   0.742   1.250
  673SOL    HW1 2918   0.423   0.683   1.208
  673SOL    HW2 2919   0.446   0.818   1.296
  674SOL     OW 2920   0.104   3.250   4.641
  674SOL    HW1 2921   0.050   3.259   4.724
  674SOL    HW2 2922   0.198   3.280   4.659
  675SOL     OW 2923   0.959   0.257   4.004
  675SOL    HW1 2924   0.889   0.237   4.073
  675SOL    HW2 2925   0.934   0.215   3.917
  676SOL     OW 2926   4.219   6.188   2.759
  676SOL    HW1 2927   4.308   6.180   2.714
  676SOL    HW2 2928   4.156   6.238   2.700
  677SOL     OW 2929   6.479   1.594   6.817
  677SOL    HW1 2930   6.407   1.589   6.747
  677SOL    HW2 2931   6.461   1.526   6.888
  678SOL     OW 2932   1.749   1.179   5.123
  678SOL    HW1 2933   1.656   1.183   5.159
  678SOL    HW2 2934   1.811   1.148   5.195
  679SOL     OW 2935   4.273   1.711   4.238
  679SOL    HW1 2936   4.251   1.808   4.249
  679SOL    HW2 2937   4.253   1.682   4.145
  680SOL     OW 2938   5.839   5.373   5.591
  680SOL    HW1 2939   5.823   5.429   5.509
  680SOL    HW2 2940   5.792   5.414   5.669
  681SOL     OW 2941   5.341   5.518   1.627
  681SOL    HW1 2942   5.395   5.470   1.696
  681SOL    HW2 2943   5.372   5.490   1.536
  682SOL     OW 2944   1.532   0.966   0.561
  682SOL    HW1 2945   1.501   0.921   0.645
  682SOL    HW2 2946   1.631   0.957   0.552
  683SOL     OW 2947   3.787   3.073   6.956
  683SOL    HW1 2948   3.790   3.046   6.860
  683SOL    HW2 2949   3.876   3.055   6.998
  684SOL     OW 2950   6.881   1.033   0.226
  684SOL    HW1 2951   6.832   0.972   0.163
  684SOL    HW2 2952   6.971   0.994   0.247
  685SOL     OW 2953   4.731   1.332   4.009
  685SOL    HW1 2954   4.764   1.261   3.947
  685SOL    HW2 2955   4.716   1.293   4.100
  686SOL     OW 2956   5.398   2.105   4.031
  686SOL    HW1 2957   5.312   2.089   4.079
  686SOL    HW2 2958   5.428   2.199   4.048
  687SOL     OW 2959   0.297   2.145   4.464
  687SOL    HW1 2960   0.319   2.212   4.535
  687SOL    HW2 2961   0.379   2.122   4.413
  688SOL     OW 2962   0.783   2.459   0.302
  688SOL    HW1 2963   0.749   2.368   0.324
  688SOL    HW2 2964   0.840   2.492   0.377
  689SOL     OW 2965   0.082   4.140   6.033
  689SOL    HW1 2966   0.048   4.057   6.078
  689SOL    HW2 2967   0.181   4.136   6.027
  690SOL     OW 2968   0.611   4.105   3.026
  690SOL    HW1 2969   0.563   4.112   3.114
  690SOL    HW2 2970   0.709   4.093   3.041
  691SOL     OW 2971   2.683   0.320   6.414
  691SOL    HW1 2972   2.628   0.404   6.411
  691SOL    HW2 2973   2.776   0.340   6.383
  692SOL     OW 2974   3.713   5.742   3.920
  692SOL    HW1 2975   3.648   5.670   3.946
  692SOL    HW2 2976   3.726   5.740   3.821
  693SOL     OW 2977   6.255   0.878   3.544
  693SOL    HW1 2978   6.260   0.891   3.643
  693SOL    HW2 2979   6.345   0.894   3.504
  694SOL     OW 2980   4.453   6.134   2.364
  694SOL    HW1 2981   4.500   6.134   2.453
  694SOL    HW2 2982   4.355   6.145   2.378
  695SOL     OW 2983   4.222   6.050   4.687
  695SOL    HW1 2984   4.191   6.019   4.777
  695SOL    HW2 2985   4.143   6.078   4.632
  696SOL     OW 2986   4.057   5.033   2.304
  696SOL    HW1 2987   4.136   5.021   2.364
  696SOL    HW2 2988   4.006   4.947   2.299
  697SOL     OW 2989   1.941   3.035   3.336
  697SOL    HW1 2990   1.953   3.094   3.256
  697SOL    HW2 2991   1.940   2.939   3.307
  698SOL     OW 2992   5.806   6.401   0.156
  698SOL    HW1 2993   5.740   6.413   0.081
  698SOL    HW2 2994   5.866   6.481   0.160
  699SOL     OW 2995   1.868   3.813   6.111
  699SOL    HW1 2996   1.909   3.858   6.191
  699SOL    HW2 2997   1.933   3.812   6.036
  700SOL     OW 2998   2.408   1.468   3.342
  700SOL    HW1 2999   2.317   1.428   3.334
  700SOL    HW2 3000   2.464   1.437   3.265
  701SOL     OW 3001   5.756   3.661   4.967
  701SOL    HW1 3002   5.804   3.638   4.882
  701SOL    HW2 3003   5.821   3.663   5.043
  702SOL     OW 3004   0.610   6.578   5.979
  702SOL    HW1 3005   0.605   6.648   6.049
  702SOL    HW2 3006   0.524   6.527   5.975
  703SOL     OW 3007   3.629   3.995   6.339
  703SOL    HW1 3008   3.667   3.988   6.431
  703SOL    HW2 3009   3.597   3.905   6.309
  704SOL     OW 3010   1.622   1.707   0.135
  704SOL    HW1 3011   1.691   1.746   0.074
  704SOL    HW2 3012   1.655   1.620   0.171
  705SOL     OW 3013   6.463   5.836   2.950
  705SOL    HW1 3014   6.519   5.775   2.893
  705SOL    HW2 3015   6.475   5.930   2.920
  706SOL     OW 3016   4.623   2.261   4.191
  706SOL    HW1 3017   4.705   2.312   4.164
  706SOL    HW2 3018   4.545   2.323   4.197
  707SOL     OW 3019   5.039   6.811   2.390
  707SOL    HW1 3020   4.982   6.730   2.372
  707SOL    HW2 3021   5.106   6.821   2.316
  708SOL     OW 3022   3.910   0.502   1.670
  708SOL    HW1 3023   3.894   0.550   1.756
  708SOL    HW2 3024   3.979   0.551   1.616
  709SOL     OW 3025   0.997   5.152   1.305
  709SOL    HW1 3026   1.021   5.078   1.368
  709SOL    HW2 3027   1.080   5.202   1.280
  710SOL     OW 3028   3.688   2.903   2.782
  710SOL    HW1 3029   3.622   2.903   2.857
  710SOL    HW2 3030   3.644   2.870   2.699
  711SOL     OW 3031   6.904   2.609   5.262
  711SOL    HW1 3032   6.967   2.580   5.190
  711SOL    HW2 3033   6.889   2.534   5.326
  712SOL     OW 3034   4.054   3.487   1.319
  712SOL    HW1 3035   4.116   3.564   1.306
  712SOL    HW2 3036   4.022   3.486   1.414
  713SOL     OW 3037   4.004   2.585   6.227
  713SOL    HW1 3038   4.084   2.625   6.272
  713SOL    HW2 3039   3.975   2.643   6.152
  714SOL     OW 3040   6.782   4.353   3.886
  714SOL    HW1 3041   6.824   4.274   3.931
  714SOL    HW2 3042   6.837   4.435   3.902
  715SOL     OW 3043   5.608   5.751   0.392
  715SOL    HW1 3044   5.535   5.802   0.438
  715SOL    HW2 3045   5.687   5.811   0.378
  716SOL     OW 3046   0.919   6.996   1.004
  716SOL    HW1 3047   0.861   7.010   1.084
  716SOL    HW2 3048   0.922   0.057   0.950
  717SOL     OW 3049   6.191   4.750   5.714
  717SOL    HW1 3050   6.174   4.848   5.703
  717SOL    HW2 3051   6.106   4.700   5.695
  718SOL     OW 3052   5.092   2.296   6.073
  718SOL    HW1 3053   5.137   2.221   6.026
  718SOL    HW2 3054   5.104   2.380   6.020
  719SOL     OW 3055   6.667   0.405   1.877
  719SOL    HW1 3056   6.727   0.478   1.845
  719SOL    HW2 3057   6.579   0.444   1.905
  720SOL     OW 3058   3.481   1.165   6.254
  720SOL    HW1 3059   3.512   1.077   6.217
  720SOL    HW2 3060   3.478   1.233   6.181
  721SOL     OW 3061   2.972   1.068   4.029
  721SOL    HW1 3062   2.954   1.166   4.025
  721SOL    HW2 3063   2.954   1.035   4.122
  722SOL     OW 3064   2.745   1.081   4.840
  722SOL    HW1 3065   2.763   1.163   4.785
  722SOL    HW2 3066   2.820   1.067   4.905
  723SOL     OW 3067   1.804   3.744   3.327
  723SOL    HW1 3068   1.866   3.732   3.250
  723SOL    HW2 3069   1.835   3.821   3.383
  724SOL     OW 3070   0.887   3.070   4.094
  724SOL    HW1 3071   0.881   3.043   3.998
  724SOL    HW2 3072   0.975   3.042   4.131
  725SOL     OW 3073   3.113   5.642   0.575
  725SOL    HW1 3074   3.132   5.648   0.477
  725SOL    HW2 3075   3.198   5.656   0.627
  726SOL     OW 3076   4.028   4.769   0.822
  726SOL    HW1 3077   3.961   4.842   0.813
  726SOL    HW2 3078   4.030   4.737   0.916
  727SOL     OW 3079   5.659   4.508   5.651
  727SOL    HW1 3080   5.743   4.485   5.700
  727SOL    HW2 3081   5.657   4.462   5.563
  728SOL     OW 3082   6.676   3.157   4.664
  728SOL    HW1 3083   6.585   3.174   4.625
  728SOL    HW2 3084   6.732   3.107   4.598
  729SOL     OW 3085   1.439   1.792   1.033
  729SOL    HW1 3086   1.447   1.891   1.023
  729SOL    HW2 3087   1.344   1.768   1.055
  730SOL     OW 3088   5.918   0.923   3.589
  730SOL    HW1 3089   5.946   0.828   3.580
  730SOL    HW2 3090   5.961   0.963   3.671
  731SOL     OW 3091   5.759   4.397   6.141
  731SOL    HW1 3092   5.666   4.412   6.109
  731SOL    HW2 3093   5.821   4.459   6.095
  732SOL     OW 3094   6.539   2.563   1.855
  732SOL    HW1 3095   6.476   2.609   1.792
  732SOL    HW2 3096   6.633   2.574   1.822
  733SOL     OW 3097   5.977   6.503   5.586
  733SOL    HW1 3098   5.899   6.541   5.536
  733SOL    HW2 3099   6.022   6.434   5.530
  734SOL     OW 3100   0.101   4.733   2.967
  734SOL    HW1 3101   0.077   4.755   2.873
  734SOL    HW2 3102   0.200   4.716   2.974
  735SOL     OW 3103   3.930   1.843   0.404
  735SOL    HW1 3104   3.911   1.813   0.498
  735SOL    HW2 3105   3.845   1.848   0.352
  736SOL     OW 3106   0.759   0.747   3.528
  736SOL    HW1 3107   0.785   0.841   3.503
  736SOL    HW2 3108   0.801   0.723   3.615
  737SOL     OW 3109   4.846   1.909   5.430
  737SOL    HW1 3110   4.876   1.822   5.469
  737SOL    HW2 3111   4.899   1.984   5.470
  738SOL     OW 3112   1.928   4.086   1.766
  738SOL    HW1 3113   1.931   4.019   1.692
  738SOL    HW2 3114   2.009   4.144   1.760
  739SOL     OW 3115   4.331   0.271   4.117
  739SOL    HW1 3116   4.338   0.187   4.063
  739SOL    HW2 3117   4.422   0.310   4.130
  740SOL     OW 3118   6.001   0.446   1.395
  740SOL    HW1 3119   5.973   0.480   1.485
  740SOL    HW2 3120   5.959   0.357   1.378
  741SOL     OW 3121   2.343   6.233   3.344
  741SOL    HW1 3122   2.398   6.312   3.370
  741SOL    HW2 3123   2.252   6.264   3.317
  742SOL     OW 3124   2.615   6.873   2.313
  742SOL    HW1 3125   2.650   6.781   2.297
  742SOL    HW2 3126   2.655   6.910   2.396
  743SOL     OW 3127   0.257   3.635   3.609
  743SOL    HW1 3128   0.252   3.536   3.590
  743SOL    HW2 3129   0.347   3.669   3.583
  744SOL     OW 3130   5.808   0.436   6.648
  744SOL    HW1 3131   5.845   0.419   6.739
  744SOL    HW2 3132   5.708   0.424   6.650
  745SOL     OW 3133   1.064   5.718   5.005
  745SOL    HW1 3134   1.052   5.619   4.999
  745SOL    HW2 3135   1.161   5.739   5.016
  746SOL     OW 3136   0.067   4.571   6.369
  746SOL    HW1 3137   0.069   4.471   6.371
  746SOL    HW2 3138   0.053   4.603   6.275
  747SOL     OW 3139   3.757   6.448   4.472
  747SOL    HW1 3140   3.780   6.414   4.563
  747SOL    HW2 3141   3.684   6.391   4.432
  748SOL     OW 3142   3.614   5.279   2.192
  748SOL    HW1 3143   3.571   5.296   2.280
  748SOL    HW2 3144   3.590   5.187   2.160
  749SOL     OW 3145   6.036   4.505   4.896
  749SOL    HW1 3146   5.964   4.573   4.880
  749SOL    HW2 3147   6.124   4.541   4.868
  750SOL     OW 3148   1.566   1.795   1.296
  750SOL    HW1 3149   1.507   1.752   1.227
  750SOL    HW2 3150   1.512   1.859   1.351
  751SOL     OW 3151   4.317   2.326   6.683
  751SOL    HW1 3152   4.244   2.373   6.733
  751SOL    HW2 3153   4.358   2.256   6.742
  752SOL     OW 3154   3.608   1.106   2.624
  752SOL    HW1 3155   3.613   1.133   2.720
  752SOL    HW2 3156   3.513   1.113   2.592
  753SOL     OW 3157   1.965   3.308   5.284
  753SOL    HW1 3158   1.884   3.365   5.268
  753SOL    HW2 3159   2.044   3.348   5.237
  754SOL     OW 3160   4.749   2.825   5.540
  754SOL    HW1 3161   4.692   2.885   5.484
  754SOL    HW2 3162   4.841   2.865   5.549
  755SOL     OW 3163   1.319   4.288   5.296
  755SOL    HW1 3164   1.258   4.355   5.339
  755SOL    HW2 3165   1.395   4.268   5.358
  756SOL     OW 3166   3.139   6.432   0.191
  756SOL    HW1 3167   3.067   6.441   0.123
  756SOL    HW2 3168   3.222   6.478   0.158
  757SOL     OW 3169   0.785   0.537   3.353
  757SOL    HW1 3170   0.746   0.591   3.428
  757SOL    HW2 3171   0.881   0.561   3.340
  758SOL     OW 3172   3.463   6.775   1.856
  758SOL    HW1 3173   3.448   6.697   1.916
  758SOL    HW2 3174   3.546   6.759   1.802
  759SOL     OW 3175   0.342   1.464   1.408
  759SOL    HW1 3176   0.295   1.514   1.336
  759SOL    HW2 3177   0.441   1.477   1.400
  760SOL     OW 3178   5.507   0.210   5.390
  760SOL    HW1 3179   5.535   0.122   5.429
  760SOL    HW2 3180   5.422   0.240   5.434
  761SOL     OW 3181   5.439   3.151   5.843
  761SOL    HW1 3182   5.477   3.242   5.858
  761SOL    HW2 3183   5.464   3.119   5.752
  762SOL     OW 3184   2.472   0.756   4.752
  762SOL    HW1 3185   2.569   0.731   4.752
  762SOL    HW2 3186   2.463   0.854   4.767
  763SOL     OW 3187   4.311   5.260   6.252
  763SOL    HW1 3188   4.289   5.355   6.232
  763SOL    HW2 3189   4.269   5.233   6.338
  764SOL     OW 3190   5.236   2.065   5.361
  764SOL    HW1 3191   5.302   2.138   5.380
  764SOL    HW2 3192   5.166   2.065   5.432
  765SOL     OW 3193   1.339   6.135   1.396
  765SOL    HW1 3194   1.307   6.063   1.457
  765SOL    HW2 3195   1.263   6.166   1.338
  766SOL     OW 3196   2.674   3.451   6.544
  766SOL    HW1 3197   2.768   3.478   6.564
  766SOL    HW2 3198   2.657   3.361   6.584
  767SOL     OW 3199   6.109   5.869   1.910
  767SOL    HW1 3200   6.136   5.775   1.928
  767SOL    HW2 3201   6.108   5.886   1.811
  768SOL     OW 3202   2.328   6.464   2.213
  768SOL    HW1 3203   2.373   6.524   2.278
  768SOL    HW2 3204   2.294   6.517   2.135
  769SOL     OW 3205   2.998   1.153   4.735
  769SOL    HW1 3206   3.000   1.146   4.835
  769SOL    HW2 3207   3.035   1.241   4.707
  770SOL     OW 3208   1.935   4.514   2.944
  770SOL    HW1 3209   1.900   4.567   2.867
  770SOL    HW2 3210   2.025   4.550   2.970
  771SOL     OW 3211   1.904   5.090   2.516
  771SOL    HW1 3212   1.907   5.136   2.605
  771SOL    HW2 3213   1.996   5.086   2.477
  772SOL     OW 3214   5.704   5.505   0.466
  772SOL    HW1 3215   5.650   5.428   0.501
  772SOL    HW2 3216   5.645   5.585   0.457
  773SOL     OW 3217   0.051   3.906   4.963
  773SOL    HW1 3218   0.047   3.811   4.994
  773SOL    HW2 3219   0.096   3.910   4.873
  774SOL     OW 3220   1.218   1.594   1.603
  774SOL    HW1 3221   1.218   1.682   1.555
  774SOL    HW2 3222   1.310   1.576   1.639
  775SOL     OW 3223   0.401   2.320   2.945
  775SOL    HW1 3224   0.418   2.385   2.871
  775SOL    HW2 3225   0.482   2.313   3.003
  776SOL     OW 3226   1.520   0.107   6.201
  776SOL    HW1 3227   1.442   0.100   6.138
  776SOL    HW2 3228   1.605   0.090   6.151
  777SOL     OW 3229   2.217   5.211   1.564
  777SOL    HW1 3230   2.228   5.263   1.479
  777SOL    HW2 3231   2.246   5.117   1.548
  778SOL     OW 3232   2.438   1.513   2.210
  778SOL    HW1 3233   2.503   1.444   2.176
  778SOL    HW2 3234   2.464   1.541   2.302
  779SOL     OW 3235   6.682   2.752   2.253
  779SOL    HW1 3236   6.659   2.840   2.213
  779SOL    HW2 3237   6.600   2.711   2.293
  780SOL     OW 3238   6.440   3.551   4.409
  780SOL    HW1 3239   6.509   3.511   4.350
  780SOL    HW2 3240   6.476   3.634   4.451
  781SOL     OW 3241   5.772   0.546   0.124
  781SOL    HW1 3242   5.726   0.621   0.076
  781SOL    HW2 3243   5.859   0.579   0.161
  782SOL     OW 3244   1.519   4.362   6.441
  782SOL    HW1 3245   1.486   4.283   6.492
  782SOL    HW2 3246   1.466   4.371   6.356
  783SOL     OW 3247   4.657   5.093   0.841
  783SOL    HW1 3248   4.560   5.118   0.840
  783SOL    HW2 3249   4.713   5.174   0.824
  784SOL     OW 3250   4.981   5.972   0.546
  784SOL    HW1 3251   5.068   5.931   0.575
  784SOL    HW2 3252   4.913   5.900   0.532
  785SOL     OW 3253   0.485   2.381   3.318
  785SOL    HW1 3254   0.471   2.398   3.221
  785SOL    HW2 3255   0.518   2.288   3.332
  786SOL     OW 3256   1.924   1.132   2.289
  786SOL    HW1 3257   2.013   1.126   2.244
  786SOL    HW2 3258   1.912   1.053   2.350
  787SOL     OW 3259   2.713   0.702   7.010
  787SOL    HW1 3260   2.681   0.638   0.056
  787SOL    HW2 3261   2.813   0.712   7.017
  788SOL     OW 3262   3.591   3.079   5.948
  788SOL    HW1 3263   3.686   3.081   5.981
  788SOL    HW2 3264   3.589   3.098   5.850
  789SOL     OW 3265   5.114   3.977   0.598
  789SOL    HW1 3266   5.053   3.907   0.635
  789SOL    HW2 3267   5.183   4.001   0.667
  790SOL     OW 3268   2.337   0.980   3.655
  790SOL    HW1 3269   2.268   0.931   3.602
  790SOL    HW2 3270   2.421   0.925   3.661
  791SOL     OW 3271   3.073   5.678   3.849
  791SOL    HW1 3272   3.125   5.713   3.927
  791SOL    HW2 3273   2.984   5.644   3.880
  792SOL     OW 3274   1.167   6.905   0.655
  792SOL    HW1 3275   1.218   6.953   0.726
  792SOL    HW2 3276   1.230   6.848   0.602
  793SOL     OW 3277   4.674   4.682   3.526
  793SOL    HW1 3278   4.608   4.614   3.556
  793SOL    HW2 3279   4.689   4.750   3.598
  794SOL     OW 3280   3.689   3.667   5.207
  794SOL    HW1 3281   3.665   3.732   5.279
  794SOL    HW2 3282   3.780   3.631   5.223
  795SOL     OW 3283   3.235   0.012   4.067
  795SOL    HW1 3284   3.200   6.983   3.988
  795SOL    HW2 3285   3.162   0.022   4.134
  796SOL     OW 3286   0.266   1.943   6.299
  796SOL    HW1 3287   0.312   1.877   6.359
  796SOL    HW2 3288   0.230   1.895   6.219
  797SOL     OW 3289   5.644   3.190   0.879
  797SOL    HW1 3290   5.661   3.118   0.946
  797SOL    HW2 3291   5.729   3.210   0.829
  798SOL     OW 3292   4.009   0.256   2.604
  798SOL    HW1 3293   3.922   0.216   2.632
  798SOL    HW2 3294   4.079   0.184   2.601
  799SOL     OW 3295   0.084   0.092   6.079
  799SOL    HW1 3296   0.091   0.032   5.999
  799SOL    HW2 3297   0.162   0.077   6.139
  800SOL     OW 3298   5.146   2.345   2.772
  800SOL    HW1 3299   5.133   2.406   2.694
  800SOL    HW2 3300   5.095   2.260   2.757
  801SOL     OW 3301   1.434   3.581   4.457
  801SOL    HW1 3302   1.398   3.507   4.514
  801SOL    HW2 3303   1.520   3.614   4.497
  802SOL     OW 3304   3.912   1.930   1.193
  802SOL    HW1 3305   3.980   1.927   1.121
  802SOL    HW2 3306   3.824   1.961   1.156
  803SOL     OW 3307   0.428   6.498   5.647
  803SOL    HW1 3308   0.502   6.434   5.628
  803SOL    HW2 3309   0.341   6.460   5.614
  804SOL     OW 3310   5.299   5.585   6.694
  804SOL    HW1 3311   5.203   5.590   6.722
  804SOL    HW2 3312   5.345   5.514   6.746
  805SOL     OW 3313   3.553   0.034   4.997
  805SOL    HW1 3314   3.545   0.109   5.062
  805SOL    HW2 3315   3.465   0.016   4.955
  806SOL     OW 3316   5.160   0.992   4.860
  806SOL    HW1 3317   5.144   0.908   4.911
  806SOL    HW2 3318   5.082   1.053   4.869
  807SOL     OW 3319   1.659   1.863   3.878
  807SOL    HW1 3320   1.582   1.889   3.937
  807SOL    HW2 3321   1.658   1.919   3.795
  808SOL     OW 3322   4.773   3.594   6.246
  808SOL    HW1 3323   4.673   3.595   6.238
  808SOL    HW2 3324   4.800   3.542   6.327
  809SOL     OW 3325   6.640   4.957   0.920
  809SOL    HW1 3326   6.740   4.958   0.925
  809SOL    HW2 3327   6.610   5.022   0.850
  810SOL     OW 3328   2.985   3.446   1.632
  810SOL    HW1 3329   3.042   3.527   1.648
  810SOL    HW2 3330   3.007   3.376   1.699
  811SOL     OW 3331   4.398   5.450   5.253
  811SOL    HW1 3332   4.307   5.485   5.272
  811SOL    HW2 3333   4.421   5.465   5.157
  812SOL     OW 3334   0.568   1.461   2.101
  812SOL    HW1 3335   0.545   1.391   2.168
  812SOL    HW2 3336   0.667   1.474   2.100
  813SOL     OW 3337   3.414   6.343   5.042
  813SOL    HW1 3338   3.362   6.363   4.959
  813SOL    HW2 3339   3.352   6.312   5.114
  814SOL     OW 3340   6.671   6.043   2.190
  814SOL    HW1 3341   6.763   6.031   2.153
  814SOL    HW2 3342   6.672   6.112   2.262
  815SOL     OW 3343   0.568   3.469   3.030
  815SOL    HW1 3344   0.478   3.504   3.007
  815SOL    HW2 3345   0.634   3.497   2.961
  816SOL     OW 3346   6.278   6.733   0.669
  816SOL    HW1 3347   6.346   6.693   0.731
  816SOL    HW2 3348   6.310   6.821   0.636
  817SOL     OW 3349   2.307   4.740   0.758
  817SOL    HW1 3350   2.385   4.685   0.729
  817SOL    HW2 3351   2.331   4.837   0.758
  818SOL     OW 3352   6.085   3.189   2.448
  818SOL    HW1 3353   6.156   3.244   2.491
  818SOL    HW2 3354   6.079   3.100   2.493
  819SOL     OW 3355   5.788   2.687   3.415
  819SOL    HW1 3356   5.703   2.739   3.426
  819SOL    HW2 3357   5.841   2.725   3.339
  820SOL     OW 3358   2.944   2.377   5.308
  820SOL    HW1 3359   3.031   2.377   5.258
  820SOL    HW2 3360   2.940   2.458   5.366
  821SOL     OW 3361   1.786   4.887   1.442
  821SOL    HW1 3362   1.743   4.829   1.373
  821SOL    HW2 3363   1.770   4.984   1.419
  822SOL     OW 3364   1.595   4.579   3.902
  822SOL    HW1 3365   1.532   4.644   3.945
  822SOL    HW2 3366   1.545   4.497   3.875
  823SOL     OW 3367   4.867   3.828   6.635
  823SOL    HW1 3368   4.907   3.911   6.596
  823SOL    HW2 3369   4.903   3.814   6.727
  824SOL     OW 3370   5.791   0.993   5.941
  824SOL    HW1 3371   5.835   1.039   5.864
  824SOL    HW2 3372   5.815   1.041   6.026
  825SOL     OW 3373   0.575   4.028   1.319
  825SOL    HW1 3374   0.559   4.126   1.327
  825SOL    HW2 3375   0.626   3.996   1.400
  826SOL     OW 3376   5.397   3.069   5.566
  826SOL    HW1 3377   5.438   3.047   5.477
  826SOL    HW2 3378   5.350   3.157   5.560
  827SOL     OW 3379   2.614   4.846   5.569
  827SOL    HW1 3380   2.602   4.869   5.665
  827SOL    HW2 3381   2.676   4.769   5.560
  828SOL     OW 3382   5.439   6.927   6.414
  828SOL    HW1 3383   5.352   6.975   6.415
  828SOL    HW2 3384   5.466   6.905   6.508
  829SOL     OW 3385   3.622   4.157   2.823
  829SOL    HW1 3386   3.671   4.243   2.836
  829SOL    HW2 3387   3.662   4.087   2.882
  830SOL     OW 3388   5.282   5.131   6.745
  830SOL    HW1 3389   5.254   5.067   6.816
  830SOL    HW2 3390   5.299   5.081   6.659
  831SOL     OW 3391   6.521   0.335   0.158
  831SOL    HW1 3392   6.591   0.380   0.102
  831SOL    HW2 3393   6.511   0.384   0.245
  832SOL     OW 3394   3.250   0.970   1.532
  832SOL    HW1 3395   3.321   0.972   1.603
  832SOL    HW2 3396   3.167   1.012   1.569
  833SOL     OW 3397   0.910   3.896   5.766
  833SOL    HW1 3398   0.906   3.799   5.742
  833SOL    HW2 3399   0.849   3.948   5.706
  834SOL     OW 3400   4.015   4.044   0.547
  834SOL    HW1 3401   3.996   3.963   0.602
  834SOL    HW2 3402   4.114   4.061   0.547
  835SOL     OW 3403   3.515   0.274   5.176
  835SOL    HW1 3404   3.583   0.318   5.117
  835SOL    HW2 3405   3.443   0.340   5.198
  836SOL     OW 3406   3.482   6.249   6.322
  836SOL    HW1 3407   3.471   6.151   6.341
  836SOL    HW2 3408   3.446   6.269   6.231
  837SOL     OW 3409   5.604   0.430   0.692
  837SOL    HW1 3410   5.573   0.375   0.770
  837SOL    HW2 3411   5.700   0.409   0.673
  838SOL     OW 3412   2.426   0.412   4.646
  838SOL    HW1 3413   2.474   0.416   4.733
  838SOL    HW2 3414   2.356   0.341   4.650
  839SOL     OW 3415   1.369   3.100   2.252
  839SOL    HW1 3416   1.318   3.166   2.197
  839SOL    HW2 3417   1.447   3.066   2.200
  840SOL     OW 3418   6.397   6.200   0.290
  840SOL    HW1 3419   6.395   6.139   0.210
  840SOL    HW2 3420   6.433   6.150   0.369
  841SOL     OW 3421   4.267   5.034   6.470
  841SOL    HW1 3422   4.233   4.940   6.463
  841SOL    HW2 3423   4.365   5.033   6.491
  842SOL     OW 3424   4.219   0.442   5.300
  842SOL    HW1 3425   4.189   0.537   5.309
  842SOL    HW2 3426   4.246   0.407   5.390
  843SOL     OW 3427   0.921   1.486   1.128
  843SOL    HW1 3428   0.937   1.570   1.180
  843SOL    HW2 3429   0.961   1.409   1.177
  844SOL     OW 3430   5.963   0.754   0.509
  844SOL    HW1 3431   6.033   0.823   0.527
  844SOL    HW2 3432   5.874   0.786   0.543
  845SOL     OW 3433   4.937   4.507   5.187
  845SOL    HW1 3434   4.998   4.448   5.134
  845SOL    HW2 3435   4.844   4.501   5.149
  846SOL     OW 3436   1.839   2.167   6.574
  846SOL    HW1 3437   1.920   2.206   6.618
  846SOL    HW2 3438   1.768   2.237   6.565
  847SOL     OW 3439   1.660   3.132   1.556
  847SOL    HW1 3440   1.673   3.050   1.500
  847SOL    HW2 3441   1.596   3.194   1.509
  848SOL     OW 3442   6.087   0.937   6.248
  848SOL    HW1 3443   6.094   0.942   6.148
  848SOL    HW2 3444   5.995   0.910   6.273
  849SOL     OW 3445   0.324   4.283   6.547
  849SOL    HW1 3446   0.360   4.376   6.534
  849SOL    HW2 3447   0.225   4.286   6.554
  850SOL     OW 3448   5.072   0.346   3.358
  850SOL    HW1 3449   5.077   0.387   3.449
  850SOL    HW2 3450   5.006   0.396   3.303
  851SOL     OW 3451   0.143   1.636   2.348
  851SOL    HW1 3452   0.111   1.561   2.290
  851SOL    HW2 3453   0.206   1.599   2.417
  852SOL     OW 3454   1.479   2.998   0.089
  852SOL    HW1 3455   1.554   2.990   0.155
  852SOL    HW2 3456   1.488   3.084   0.039
  853SOL     OW 3457   1.815   4.393   2.035
  853SOL    HW1 3458   1.887   4.430   1.976
  853SOL    HW2 3459   1.762   4.469   2.074
  854SOL     OW 3460   4.582   5.878   1.472
  854SOL    HW1 3461   4.492   5.904   1.505
  854SOL    HW2 3462   4.627   5.820   1.539
  855SOL     OW 3463   0.105   6.922   1.570
  855SOL    HW1 3464   0.157   6.999   1.535
  855SOL    HW2 3465   0.042   6.889   1.500
  856SOL     OW 3466   1.260   2.322   5.294
  856SOL    HW1 3467   1.327   2.283   5.231
  856SOL    HW2 3468   1.191   2.253   5.317
  857SOL     OW 3469   6.012   4.128   1.739
  857SOL    HW1 3470   5.977   4.156   1.828
  857SOL    HW2 3471   6.058   4.205   1.695
  858SOL     OW 3472   2.564   3.583   0.830
  858SOL    HW1 3473   2.555   3.562   0.733
  858SOL    HW2 3474   2.507   3.662   0.853
  859SOL     OW 3475   5.448   5.883   5.245
  859SOL    HW1 3476   5.437   5.929   5.157
  859SOL    HW2 3477   5.522   5.928   5.297
  860SOL     OW 3478   5.313   3.244   0.443
  860SOL    HW1 3479   5.288   3.228   0.348
  860SOL    HW2 3480   5.324   3.156   0.490
  861SOL     OW 3481   2.790   5.535   3.432
  861SOL    HW1 3482   2.714   5.475   3.457
  861SOL    HW2 3483   2.826   5.580   3.514
  862SOL     OW 3484   0.879   3.982   4.853
  862SOL    HW1 3485   0.858   3.885   4.868
  862SOL    HW2 3486   0.955   4.009   4.913
  863SOL     OW 3487   6.243   0.811   1.003
  863SOL    HW1 3488   6.310   0.758   1.054
  863SOL    HW2 3489   6.290   0.870   0.937
  864SOL     OW 3490   4.244   4.808   3.583
  864SOL    HW1 3491   4.310   4.883   3.582
  864SOL    HW2 3492   4.154   4.843   3.611
  865SOL     OW 3493   0.544   6.149   5.943
  865SOL    HW1 3494   0.511   6.219   6.007
  865SOL    HW2 3495   0.473   6.133   5.874
  866SOL     OW 3496   1.990   1.992   1.450
  866SOL    HW1 3497   2.062   1.984   1.380
  866SOL    HW2 3498   2.017   2.059   1.518
  867SOL     OW 3499   4.142   3.714   0.886
  867SOL    HW1 3500   4.159   3.641   0.952
  867SOL    HW2 3501   4.214   3.783   0.894
  868SOL     OW 3502   5.793   1.024   1.148
  868SOL    HW1 3503   5.713   1.009   1.090
  868SOL    HW2 3504   5.791   0.959   1.225
  869SOL     OW 3505   0.067   5.229   3.243
  869SOL    HW1 3506   0.143   5.170   3.271
  869SOL    HW2 3507   7.004   5.185   3.266
  870SOL     OW 3508   4.351   3.251   0.594
  870SOL    HW1 3509   4.402   3.165   0.593
  870SOL    HW2 3510   4.415   3.328   0.595
  871SOL     OW 3511   4.428   2.471   3.389
  871SOL    HW1 3512   4.444   2.388   3.442
  871SOL    HW2 3513   4.460   2.550   3.441
  872SOL     OW 3514   5.179   3.888   3.787
  872SOL    HW1 3515   5.260   3.871   3.730
  872SOL    HW2 3516   5.180   3.983   3.819
  873SOL     OW 3517   5.713   6.905   3.889
  873SOL    HW1 3518   5.633   6.864   3.843
  873SOL    HW2 3519   5.776   6.940   3.821
  874SOL     OW 3520   0.724   4.290   6.462
  874SOL    HW1 3521   0.725   4.276   6.561
  874SOL    HW2 3522   0.755   4.382   6.441
  875SOL     OW 3523   3.497   2.956   0.522
  875SOL    HW1 3524   3.461   2.984   0.611
  875SOL    HW2 3525   3.540   3.034   0.477
  876SOL     OW 3526   0.440   5.216   2.906
  876SOL    HW1 3527   0.474   5.295   2.958
  876SOL    HW2 3528   0.433   5.137   2.967
  877SOL     OW 3529   4.425   4.043   6.624
  877SOL    HW1 3530   4.333   4.010   6.600
  877SOL    HW2 3531   4.424   4.075   6.719
  878SOL     OW 3532   3.858   5.993   5.263
  878SOL    HW1 3533   3.904   5.968   5.349
  878SOL    HW2 3534   3.769   6.034   5.284
  879SOL     OW 3535   3.026   2.381   1.374
  879SOL    HW1 3536   2.958   2.325   1.422
  879SOL    HW2 3537   2.987   2.413   1.287
  880SOL     OW 3538   3.469   4.435   5.588
  880SOL    HW1 3539   3.514   4.347   5.606
  880SOL    HW2 3540   3.511   4.506   5.645
  881SOL     OW 3541   4.678   4.134   5.100
  881SOL    HW1 3542   4.597   4.079   5.080
  881SOL    HW2 3543   4.711   4.177   5.017
  882SOL     OW 3544   0.564   2.097   4.281
  882SOL    HW1 3545   0.661   2.085   4.301
  882SOL    HW2 3546   0.533   2.022   4.223
  883SOL     OW 3547   4.713   5.700   6.110
  883SOL    HW1 3548   4.803   5.716   6.151
  883SOL    HW2 3549   4.724   5.680   6.012
  884SOL     OW 3550   0.199   3.945   0.096
  884SOL    HW1 3551   0.242   3.900   0.174
  884SOL    HW2 3552   0.159   4.032   0.124
  885SOL     OW 3553   4.808   5.790   6.589
  885SOL    HW1 3554   4.894   5.757   6.551
  885SOL    HW2 3555   4.782   5.734   6.667
  886SOL     OW 3556   4.023   0.821   1.484
  886SOL    HW1 3557   3.939   0.802   1.432
  886SOL    HW2 3558   4.100   0.777   1.439
  887SOL     OW 3559   3.514   6.977   4.168
  887SOL    HW1 3560   3.571   6.988   4.087
  887SOL    HW2 3561   3.419   6.963   4.141
  888SOL     OW 3562   5.630   5.697   3.142
  888SOL    HW1 3563   5.551   5.745   3.105
  888SOL    HW2 3564   5.636   5.606   3.100
  889SOL     OW 3565   1.784   6.688   6.191
  889SOL    HW1 3566   1.807   6.648   6.103
  889SOL    HW2 3567   1.688   6.714   6.193
  890SOL     OW 3568   2.456   5.066   2.325
  890SOL    HW1 3569   2.442   4.996   2.255
  890SOL    HW2 3570   2.554   5.076   2.342
  891SOL     OW 3571   6.262   4.183   0.319
  891SOL    HW1 3572   6.352   4.154   0.285
  891SOL    HW2 3573   6.207   4.103   0.340
  892SOL     OW 3574   3.961   3.942   5.471
  892SOL    HW1 3575   3.984   3.866   5.411
  892SOL    HW2 3576   4.002   3.927   5.561
  893SOL     OW 3577   1.919   0.938   1.914
  893SOL    HW1 3578   1.861   1.018   1.926
  893SOL    HW2 3579   1.972   0.922   1.998
  894SOL     OW 3580   1.504   2.467   3.012
  894SOL    HW1 3581   1.447   2.519   3.075
  894SOL    HW2 3582   1.546   2.390   3.060
  895SOL     OW 3583   1.291   5.125   4.471
  895SOL    HW1 3584   1.312   5.220   4.451
  895SOL    HW2 3585   1.274   5.114   4.569
  896SOL     OW 3586   6.363   6.477   1.840
  896SOL    HW1 3587   6.448   6.428   1.825
  896SOL    HW2 3588   6.287   6.426   1.800
  897SOL     OW 3589   4.605   0.378   6.981
  897SOL    HW1 3590   4.524   0.324   7.005
  897SOL    HW2 3591   4.580   0.446   6.912
  898SOL     OW 3592   3.702   6.159   2.926
  898SOL    HW1 3593   3.699   6.150   3.025
  898SOL    HW2 3594   3.787   6.117   2.892
  899SOL     OW 3595   0.292   4.901   0.591
  899SOL    HW1 3596   0.359   4.926   0.661
  899SOL    HW2 3597   0.299   4.964   0.514
  900SOL     OW 3598   4.149   6.400   0.686
  900SOL    HW1 3599   4.067   6.456   0.697
  900SOL    HW2 3600   4.179   6.403   0.591
  901SOL     OW 3601   0.984   1.308   5.290
  901SOL    HW1 3602   0.891   1.335   5.311
  901SOL    HW2 3603   1.035   1.292   5.375
  902SOL     OW 3604   0.584   2.209   0.794
  902SOL    HW1 3605   0.662   2.211   0.732
  902SOL    HW2 3606   0.551   2.302   0.809
  903SOL     OW 3607   6.653   3.990   5.809
  903SOL    HW1 3608   6.730   4.053   5.801
  903SOL    HW2 3609   6.600   4.011   5.891
  904SOL     OW 3610   1.853   2.629   3.030
  904SOL    HW1 3611   1.829   2.685   3.110
  904SOL    HW2 3612   1.775   2.627   2.968
  905SOL     OW 3613   4.706   3.910   6.307
  905SOL    HW1 3614   4.797   3.888   6.344
  905SOL    HW2 3615   4.717   3.963   6.223
  906SOL     OW 3616   0.758   3.087   5.760
  906SOL    HW1 3617   0.835   3.114   5.702
  906SOL    HW2 3618   0.772   3.123   5.852
  907SOL     OW 3619   5.656   2.745   2.926
  907SOL    HW1 3620   5.623   2.836   2.951
  907SOL    HW2 3621   5.578   2.686   2.906
  908SOL     OW 3622   1.868   5.898   3.294
  908SOL    HW1 3623   1.834   5.810   3.326
  908SOL    HW2 3624   1.854   5.905   3.195
  909SOL     OW 3625   2.887   6.059   2.360
  909SOL    HW1 3626   2.894   5.999   2.281
  909SOL    HW2 3627   2.977   6.072   2.401
  910SOL     OW 3628   3.053   0.636   0.622
  910SOL    HW1 3629   3.129   0.623   0.686
  910SOL    HW2 3630   2.990   0.559   0.630
  911SOL     OW 3631   0.281   5.208   0.687
  911SOL    HW1 3632   0.286   5.168   0.595
  911SOL    HW2 3633   0.246   5.301   0.681
  912SOL     OW 3634   6.098   0.655   3.712
  912SOL    HW1 3635   6.124   0.558   3.712
  912SOL    HW2 3636   6.177   0.709   3.740
  913SOL     OW 3637   1.336   0.798   3.054
  913SOL    HW1 3638   1.306   0.732   2.986
  913SOL    HW2 3639   1.432   0.783   3.076
  914SOL     OW 3640   2.534   5.868   4.835
  914SOL    HW1 3641   2.465   5.881   4.764
  914SOL    HW2 3642   2.576   5.956   4.857
  915SOL     OW 3643   1.589   3.430   0.105
  915SOL    HW1 3644   1.528   3.496   0.147
  915SOL    HW2 3645   1.678   3.472   0.087
  916SOL     OW 3646   1.039   2.603   1.827
  916SOL    HW1 3647   0.993   2.685   1.794
  916SOL    HW2 3648   1.038   2.533   1.756
  917SOL     OW 3649   6.003   0.600   2.096
  917SOL    HW1 3650   5.959   0.619   2.184
  917SOL    HW2 3651   6.049   0.682   2.063
  918SOL     OW 3652   3.068   6.746   7.003
  918SOL    HW1 3653   3.009   6.666   6.996
  918SOL    HW2 3654   3.111   6.748   0.070
  919SOL     OW 3655   6.544   5.273   2.502
  919SOL    HW1 3656   6.512   5.363   2.533
  919SOL    HW2 3657   6.470   5.225   2.455
  920SOL     OW 3658   2.241   6.049   3.142
  920SOL    HW1 3659   2.320   6.083   3.193
  920SOL    HW2 3660   2.159   6.099   3.170
  921SOL     OW 3661   4.545   4.448   3.020
  921SOL    HW1 3662   4.556   4.418   3.115
  921SOL    HW2 3663   4.518   4.544   3.018
  922SOL     OW 3664   3.341   2.885   5.459
  922SOL    HW1 3665   3.288   2.966   5.485
  922SOL    HW2 3666   3.379   2.842   5.540
  923SOL     OW 3667   2.788   4.863   6.049
  923SOL    HW1 3668   2.821   4.793   6.113
  923SOL    HW2 3669   2.864   4.896   5.993
  924SOL     OW 3670   6.107   2.488   2.831
  924SOL    HW1 3671   6.117   2.552   2.754
  924SOL    HW2 3672   6.024   2.509   2.881
  925SOL     OW 3673   7.001   2.113   6.520
  925SOL    HW1 3674   6.996   2.110   6.620
  925SOL    HW2 3675   6.982   2.022   6.483
  926SOL     OW 3676   5.987   1.491   0.560
  926SOL    HW1 3677   6.045   1.458   0.636
  926SOL    HW2 3678   5.893   1.498   0.591
  927SOL     OW 3679   6.009   3.492   3.554
  927SOL    HW1 3680   6.058   3.566   3.507
  927SOL    HW2 3681   5.952   3.443   3.488
  928SOL     OW 3682   1.096   5.671   0.701
  928SOL    HW1 3683   1.082   5.609   0.624
  928SOL    HW2 3684   1.010   5.718   0.721
  929SOL     OW 3685   0.339   0.759   1.621
  929SOL    HW1 3686   0.263   0.728   1.564
  929SOL    HW2 3687   0.347   0.858   1.616
  930SOL     OW 3688   5.550   6.371   4.375
  930SOL    HW1 3689   5.508   6.356   4.286
  930SOL    HW2 3690   5.617   6.446   4.368
  931SOL     OW 3691   5.611   2.377   2.775
  931SOL    HW1 3692   5.581   2.301   2.718
  931SOL    HW2 3693   5.676   2.433   2.725
  932SOL     OW 3694   3.525   6.816   2.920
  932SOL    HW1 3695   3.547   6.781   3.011
  932SOL    HW2 3696   3.515   6.739   2.857
  933SOL     OW 3697   0.898   5.344   3.368
  933SOL    HW1 3698   0.927   5.431   3.408
  933SOL    HW2 3699   0.807   5.354   3.327
  934SOL     OW 3700   1.823   0.837   5.001
  934SOL    HW1 3701   1.735   0.849   5.048
  934SOL    HW2 3702   1.811   0.852   4.903
  935SOL     OW 3703   4.946   4.528   4.862
  935SOL    HW1 3704   5.018   4.461   4.882
  935SOL    HW2 3705   4.922   4.578   4.945
  936SOL     OW 3706   1.671   0.679   6.462
  936SOL    HW1 3707   1.626   0.742   6.525
  936SOL    HW2 3708   1.640   0.586   6.480
  937SOL     OW 3709   4.831   1.389   4.958
  937SOL    HW1 3710   4.885   1.473   4.946
  937SOL    HW2 3711   4.735   1.413   4.969
  938SOL     OW 3712   0.269   5.653   5.923
  938SOL    HW1 3713   0.170   5.661   5.912
  938SOL    HW2 3714   0.311   5.742   5.907
  939SOL     OW 3715   5.900   0.360   6.049
  939SOL    HW1 3716   5.805   0.389   6.053
  939SOL    HW2 3717   5.957   0.435   6.014
  940SOL     OW 3718   0.881   2.801   1.723
  940SOL    HW1 3719   0.826   2.793   1.807
  940SOL    HW2 3720   0.823   2.783   1.644
  941SOL     OW 3721   6.159   1.184   5.217
  941SOL    HW1 3722   6.134   1.090   5.198
  941SOL    HW2 3723   6.235   1.186   5.283
  942SOL     OW 3724   4.939   0.052   3.757
  942SOL    HW1 3725   4.876   7.003   3.786
  942SOL    HW2 3726   4.917   0.080   3.664
  943SOL     OW 3727   1.838   3.349   3.554
  943SOL    HW1 3728   1.916   3.287   3.551
  943SOL    HW2 3729   1.852   3.418   3.625
  944SOL     OW 3730   6.666   3.976   5.519
  944SOL    HW1 3731   6.663   3.961   5.617
  944SOL    HW2 3732   6.683   4.073   5.501
  945SOL     OW 3733   6.407   4.590   5.193
  945SOL    HW1 3734   6.469   4.556   5.263
  945SOL    HW2 3735   6.408   4.528   5.114
  946SOL     OW 3736   4.602   2.757   5.961
  946SOL    HW1 3737   4.621   2.672   6.011
  946SOL    HW2 3738   4.537   2.812   6.012
  947SOL     OW 3739   3.867   3.077   4.267
  947SOL    HW1 3740   3.902   3.067   4.174
  947SOL    HW2 3741   3.785   3.020   4.278
  948SOL     OW 3742   4.338   0.451   0.962
  948SOL    HW1 3743   4.351   0.546   0.935
  948SOL    HW2 3744   4.418   0.398   0.934
  949SOL     OW 3745   0.730   6.349   6.262
  949SOL    HW1 3746   0.637   6.369   6.231
  949SOL    HW2 3747   0.733   6.351   6.362
  950SOL     OW 3748   4.521   4.995   1.740
  950SOL    HW1 3749   4.542   4.967   1.647
  950SOL    HW2 3750   4.599   4.976   1.799
  951SOL     OW 3751   2.290   0.541   3.321
  951SOL    HW1 3752   2.274   0.639   3.327
  951SOL    HW2 3753   2.378   0.519   3.363
  952SOL     OW 3754   5.134   2.452   3.027
  952SOL    HW1 3755   5.127   2.414   2.934
  952SOL    HW2 3756   5.220   2.423   3.068
  953SOL     OW 3757   5.233   5.295   4.093
  953SOL    HW1 3758   5.315   5.313   4.040
  953SOL    HW2 3759   5.227   5.361   4.168
  954SOL     OW 3760   4.798   6.164   0.765
  954SOL    HW1 3761   4.889   6.143   0.802
  954SOL    HW2 3762   4.771   6.092   0.701
  955SOL     OW 3763   6.786   4.063   2.846
  955SOL    HW1 3764   6.700   4.017   2.821
  955SOL    HW2 3765   6.859   3.995   2.853
  956SOL     OW 3766   6.919   2.467   2.736
  956SOL    HW1 3767   6.956   2.522   2.662
  956SOL    HW2 3768   6.970   2.380   2.741
  957SOL     OW 3769   0.437   4.846   5.190
  957SOL    HW1 3770   0.368   4.839   5.262
  957SOL    HW2 3771   0.482   4.757   5.178
  958SOL     OW 3772   4.212   1.433   2.912
  958SOL    HW1 3773   4.146   1.466   2.980
  958SOL    HW2 3774   4.163   1.397   2.833
  959SOL     OW 3775   3.752   5.178   3.042
  959SOL    HW1 3776   3.762   5.141   2.950
  959SOL    HW2 3777   3.738   5.277   3.037
  960SOL     OW 3778   0.852   5.786   3.334
  960SOL    HW1 3779   0.796   5.794   3.251
  960SOL    HW2 3780   0.933   5.843   3.325
  961SOL     OW 3781   4.539   0.192   3.600
  961SOL    HW1 3782   4.510   0.133   3.676
  961SOL    HW2 3783   4.560   0.136   3.521
  962SOL     OW 3784   1.054   0.714   4.470
  962SOL    HW1 3785   1.020   0.625   4.438
  962SOL    HW2 3786   0.988   0.785   4.447
  963SOL     OW 3787   0.099   2.032   6.001
  963SOL    HW1 3788   0.017   2.078   5.968
  963SOL    HW2 3789   0.096   2.026   6.101
  964SOL     OW 3790   6.198   4.496   6.747
  964SOL    HW1 3791   6.268   4.540   6.802
  964SOL    HW2 3792   6.112   4.547   6.756
  965SOL     OW 3793   5.800   2.044   0.863
  965SOL    HW1 3794   5.767   1.988   0.787
  965SOL    HW2 3795   5.788   2.141   0.842
  966SOL     OW 3796   5.244   2.281   1.742
  966SOL    HW1 3797   5.228   2.225   1.823
  966SOL    HW2 3798   5.164   2.277   1.683
  967SOL     OW 3799   1.993   4.503   1.872
  967SOL    HW1 3800   2.046   4.441   1.815
  967SOL    HW2 3801   1.964   4.582   1.818
  968SOL     OW 3802   3.543   1.589   2.082
  968SOL    HW1 3803   3.607   1.665   2.068
  968SOL    HW2 3804   3.475   1.589   2.008
  969SOL     OW 3805   3.206   6.063   6.051
  969SOL    HW1 3806   3.194   5.969   6.085
  969SOL    HW2 3807   3.295   6.071   6.006
  970SOL     OW 3808   5.214   0.850   6.065
  970SOL    HW1 3809   5.285   0.916   6.040
  970SOL    HW2 3810   5.133   0.866   6.008
  971SOL     OW 3811   6.477   2.091   3.121
  971SOL    HW1 3812   6.377   2.089   3.126
  971SOL    HW2 3813   6.506   2.164   3.059
  972SOL     OW 3814   5.463   3.964   1.566
  972SOL    HW1 3815   5.429   3.908   1.641
  972SOL    HW2 3816   5.547   3.925   1.529
  973SOL     OW 3817   6.887   4.319   7.006
  973SOL    HW1 3818   6.934   4.309   0.071
  973SOL    HW2 3819   6.809   4.381   7.017
  974SOL     OW 3820   5.485   6.765   2.542
  974SOL    HW1 3821   5.560   6.827   2.565
  974SOL    HW2 3822   5.509   6.672   2.569
  975SOL     OW 3823   1.839   5.661   6.356
  975SOL    HW1 3824   1.790   5.684   6.272
  975SOL    HW2 3825   1.808   5.572   6.389
  976SOL     OW 3826   0.169   3.701   2.820
  976SOL    HW1 3827   0.230   3.696   2.900
  976SOL    HW2 3828   0.219   3.742   2.744
  977SOL     OW 3829   1.183   0.475   2.654
  977SOL    HW1 3830   1.242   0.512   2.582
  977SOL    HW2 3831   1.090   0.468   2.620
  978SOL     OW 3832   4.857   3.918   5.581
  978SOL    HW1 3833   4.799   3.944   5.504
  978SOL    HW2 3834   4.862   3.993   5.646
  979SOL     OW 3835   6.734   2.042   0.703
  979SOL    HW1 3836   6.672   2.053   0.781
  979SOL    HW2 3837   6.716   2.114   0.636
  980SOL     OW 3838   4.534   2.502   3.934
  980SOL    HW1 3839   4.491   2.490   4.023
  980SOL    HW2 3840   4.589   2.586   3.935
  981SOL     OW 3841   1.194   1.956   5.116
  981SOL    HW1 3842   1.120   2.019   5.141
  981SOL    HW2 3843   1.164   1.896   5.043
  982SOL     OW 3844   2.449   2.324   3.785
  982SOL    HW1 3845   2.439   2.421   3.762
  982SOL    HW2 3846   2.366   2.291   3.829
  983SOL     OW 3847   5.656   2.374   4.579
  983SOL    HW1 3848   5.749   2.399   4.604
  983SOL    HW2 3849   5.652   2.275   4.564
  984SOL     OW 3850   2.597   1.697   4.308
  984SOL    HW1 3851   2.579   1.728   4.214
  984SOL    HW2 3852   2.657   1.763   4.353
  985SOL     OW 3853   5.146   4.620   6.036
  985SOL    HW1 3854   5.085   4.590   5.962
  985SOL    HW2 3855   5.094   4.630   6.120
  986SOL     OW 3856   5.702   4.453   0.687
  986SOL    HW1 3857   5.790   4.500   0.692
  986SOL    HW2 3858   5.715   4.356   0.706
  987SOL     OW 3859   4.541   6.996   1.878
  987SOL    HW1 3860   4.485   6.969   1.800
  987SOL    HW2 3861   4.542   0.072   1.886
  988SOL     OW 3862   3.312   3.403   3.128
  988SOL    HW1 3863   3.397   3.369   3.168
  988SOL    HW2 3864   3.238   3.393   3.194
  989SOL     OW 3865   6.355   0.642   5.107
  989SOL    HW1 3866   6.373   0.544   5.099
  989SOL    HW2 3867   6.363   0.669   5.203
  990SOL     OW 3868   3.705   7.009   1.865
  990SOL    HW1 3869   3.692   0.081   1.839
  990SOL    HW2 3870   3.763   7.003   1.946
  991SOL     OW 3871   1.389   2.606   5.331
  991SOL    HW1 3872   1.369   2.510   5.312
  991SOL    HW2 3873   1.485   2.624   5.308
  992SOL     OW 3874   7.002   2.397   2.060
  992SOL    HW1 3875   0.048   2.342   2.012
  992SOL    HW2 3876   6.934   2.336   2.100
  993SOL     OW 3877   1.590   4.134   1.603
  993SOL    HW1 3878   1.517   4.065   1.610
  993SOL    HW2 3879   1.634   4.145   1.693
  994SOL     OW 3880   3.356   3.728   2.262
  994SOL    HW1 3881   3.306   3.771   2.338
  994SOL    HW2 3882   3.306   3.743   2.177
  995SOL     OW 3883   3.676   2.992   5.435
  995SOL    HW1 3884   3.645   2.908   5.479
  995SOL    HW2 3885   3.775   2.990   5.425
  996SOL     OW 3886   3.115   4.858   4.190
  996SOL    HW1 3887   3.135   4.904   4.277
  996SOL    HW2 3888   3.202   4.834   4.145
  997SOL     OW 3889   1.146   0.987   3.461
  997SOL    HW1 3890   1.217   0.931   3.419
  997SOL    HW2 3891   1.184   1.033   3.542
  998SOL     OW 3892   4.699   0.268   4.345
  998SOL    HW1 3893   4.790   0.232   4.324
  998SOL    HW2 3894   4.663   0.224   4.427
  999SOL     OW 3895   5.009   4.677   2.356
  999SOL    HW1 3896   4.958   4.684   2.271
  999SOL    HW2 3897   5.075   4.752   2.363
 1000SOL     OW 3898   2.284   1.085   2.312
 1000SOL    HW1 3899   2.257   1.034   2.230
 1000SOL    HW2 3900   2.369   1.046   2.349
 1001SOL     OW 3901   5.260   6.466   0.401
 1001SOL    HW1 3902   5.263   6.369   0.378
 1001SOL    HW2 3903   5.285   6.521   0.321
 1002SOL     OW 3904   6.102   1.791   0.552
 1002SOL    HW1 3905   6.066   1.698   0.554
 1002SOL    HW2 3906   6.086   1.834   0.641
 1003SOL     OW 3907   1.913   5.971   1.859
 1003SOL    HW1 3908   1.987   6.037   1.874
 1003SOL    HW2 3909   1.893   5.924   1.945
 1004SOL     OW 3910   0.271   0.414   1.890
 1004SOL    HW1 3911   0.298   0.395   1.795
 1004SOL    HW2 3912   0.262   0.328   1.940
 1005SOL     OW 3913   1.390   2.606   3.598
 1005SOL    HW1 3914   1.435   2.693   3.618
 1005SOL    HW2 3915   1.455   2.543   3.558
 1006SOL     OW 3916   1.380   4.723   0.956
 1006SOL    HW1 3917   1.297   4.692   1.003
 1006SOL    HW2 3918   1.426   4.644   0.915
 1007SOL     OW 3919   4.573   0.480   5.243
 1007SOL    HW1 3920   4.618   0.407   5.295
 1007SOL    HW2 3921   4.507   0.441   5.180
 1008SOL     OW 3922   1.484   2.538   4.958
 1008SOL    HW1 3923   1.537   2.622   4.966
 1008SOL    HW2 3924   1.544   2.462   4.935
 1009SOL     OW 3925   6.942   5.895   4.800
 1009SOL    HW1 3926   7.012   5.961   4.771
 1009SOL    HW2 3927   6.904   5.923   4.888
 1010SOL     OW 3928   3.406   2.813   5.706
 1010SOL    HW1 3929   3.321   2.796   5.756
 1010SOL    HW2 3930   3.481   2.822   5.771
 1011SOL     OW 3931   2.112   5.064   2.332
 1011SOL    HW1 3932   2.173   5.142   2.345
 1011SOL    HW2 3933   2.166   4.979   2.334
 1012SOL     OW 3934   6.780   0.655   1.785
 1012SOL    HW1 3935   6.837   0.602   1.723
 1012SOL    HW2 3936   6.838   0.719   1.836
 1013SOL     OW 3937   0.598   1.178   5.633
 1013SOL    HW1 3938   0.634   1.095   5.676
 1013SOL    HW2 3939   0.523   1.153   5.572
 1014SOL     OW 3940   5.201   5.940   6.444
 1014SOL    HW1 3941   5.179   6.003   6.518
 1014SOL    HW2 3942   5.154   5.853   6.461
 1015SOL     OW 3943   2.738   6.825   5.791
 1015SOL    HW1 3944   2.660   6.822   5.729
 1015SOL    HW2 3945   2.707   6.809   5.885
 1016SOL     OW 3946   3.939   3.751   6.856
 1016SOL    HW1 3947   3.917   3.768   6.760
 1016SOL    HW2 3948   4.036   3.727   6.864
 1017SOL     OW 3949   3.934   2.584   1.628
 1017SOL    HW1 3950   4.006   2.629   1.681
 1017SOL    HW2 3951   3.922   2.490   1.661
 1018SOL     OW 3952   0.428   3.685   4.564
 1018SOL    HW1 3953   0.523   3.663   4.543
 1018SOL    HW2 3954   0.416   3.785   4.560
 1019SOL     OW 3955   6.834   0.089   1.520
 1019SOL    HW1 3956   6.800   0.021   1.585
 1019SOL    HW2 3957   6.864   0.043   1.436
 1020SOL     OW 3958   0.656   0.316   1.210
 1020SOL    HW1 3959   0.643   0.415   1.217
 1020SOL    HW2 3960   0.753   0.294   1.221
 1021SOL     OW 3961   5.128   6.852   1.440
 1021SOL    HW1 3962   5.196   6.922   1.460
 1021SOL    HW2 3963   5.066   6.884   1.369
 1022SOL     OW 3964   4.054   5.041   5.858
 1022SOL    HW1 3965   4.022   5.099   5.783
 1022SOL    HW2 3966   4.137   5.080   5.898
 1023SOL     OW 3967   0.715   6.750   2.836
 1023SOL    HW1 3968   0.743   6.789   2.924
 1023SOL    HW2 3969   0.782   6.775   2.766
 1024SOL     OW 3970   6.840   2.491   4.138
 1024SOL    HW1 3971   6.785   2.408   4.146
 1024SOL    HW2 3972   6.934   2.466   4.114
 1025SOL     OW 3973   2.311   2.799   0.763
 1025SOL    HW1 3974   2.382   2.736   0.731
 1025SOL    HW2 3975   2.329   2.823   0.859
 1026SOL     OW 3976   2.335   2.798   1.591
 1026SOL    HW1 3977   2.247   2.756   1.571
 1026SOL    HW2 3978   2.325   2.863   1.666
 1027SOL     OW 3979   2.958   6.685   1.316
 1027SOL    HW1 3980   3.017   6.765   1.314
 1027SOL    HW2 3981   2.885   6.695   1.249
 1028SOL     OW 3982   3.161   6.148   0.304
 1028SOL    HW1 3983   3.171   6.246   0.284
 1028SOL    HW2 3984   3.250   6.104   0.300
 1029SOL     OW 3985   1.637   0.076   7.014
 1029SOL    HW1 3986   1.697   0.134   6.959
 1029SOL    HW2 3987   1.544   0.114   7.012
 1030SOL     OW 3988   2.784   3.498   1.912
 1030SOL    HW1 3989   2.853   3.429   1.935
 1030SOL    HW2 3990   2.694   3.456   1.908
 1031SOL     OW 3991   5.173   5.057   1.041
 1031SOL    HW1 3992   5.089   5.057   0.987
 1031SOL    HW2 3993   5.171   4.980   1.105
 1032SOL     OW 3994   2.369   1.590   4.426
 1032SOL    HW1 3995   2.452   1.630   4.387
 1032SOL    HW2 3996   2.334   1.519   4.365
 1033SOL     OW 3997   1.510   6.382   0.856
 1033SOL    HW1 3998   1.468   6.299   0.893
 1033SOL    HW2 3999   1.475   6.462   0.904
 1034SOL     OW 4000   0.587   5.532   4.929
 1034SOL    HW1 4001   0.491   5.522   4.903
 1034SOL    HW2 4002   0.599   5.617   4.980
 1035SOL     OW 4003   0.846   0.851   4.961
 1035SOL    HW1 4004   0.790   0.770   4.977
 1035SOL    HW2 4005   0.926   0.826   4.906
 1036SOL     OW 4006   3.106   1.023   1.914
 1036SOL    HW1 4007   3.068   1.033   1.822
 1036SOL    HW2 4008   3.136   0.929   1.928
 1037SOL     OW 4009   1.533   0.631   1.649
 1037SOL    HW1 4010   1.622   0.674   1.661
 1037SOL    HW2 4011   1.543   0.532   1.658
 1038SOL     OW 4012   1.024   6.832   5.545
 1038SOL    HW1 4013   0.956   6.898   5.513
 1038SOL    HW2 4014   1.098   6.881   5.591
 1039SOL     OW 4015   3.289   3.378   6.002
 1039SOL    HW1 4016   3.238   3.381   6.088
 1039SOL    HW2 4017   3.273   3.463   5.951
 1040SOL     OW 4018   4.826   3.130   2.824
 1040SOL    HW1 4019   4.763   3.054   2.813
 1040SOL    HW2 4020   4.894   3.129   2.751
 1041SOL     OW 4021   6.622   7.004   3.970
 1041SOL    HW1 4022   6.595   0.050   3.903
 1041SOL    HW2 4023   6.691   6.943   3.929
 1042SOL     OW 4024   4.307   4.975   2.115
 1042SOL    HW1 4025   4.316   4.996   2.212
 1042SOL    HW2 4026   4.372   5.031   2.063
 1043SOL     OW 4027   3.749   1.307   5.218
 1043SOL    HW1 4028   3.784   1.242   5.151
 1043SOL    HW2 4029   3.653   1.325   5.200
 1044SOL     OW 4030   5.189   4.446   2.423
 1044SOL    HW1 4031   5.115   4.511   2.440
 1044SOL    HW2 4032   5.189   4.419   2.327
 1045SOL     OW 4033   4.287   6.603   2.391
 1045SOL    HW1 4034   4.328   6.690   2.363
 1045SOL    HW2 4035   4.224   6.570   2.321
 1046SOL     OW 4036   1.367   0.947   0.350
 1046SOL    HW1 4037   1.410   0.956   0.440
 1046SOL    HW2 4038   1.294   1.015   0.342
 1047SOL     OW 4039   1.553   0.818   3.341
 1047SOL    HW1 4040   1.537   0.916   3.336
 1047SOL    HW2 4041   1.576   0.782   3.251
 1048SOL     OW 4042   5.772   6.477   4.214
 1048SOL    HW1 4043   5.787   6.565   4.168
 1048SOL    HW2 4044   5.793   6.402   4.150
 1049SOL     OW 4045   6.582   5.883   4.179
 1049SOL    HW1 4046   6.583   5.865   4.277
 1049SOL    HW2 4047   6.551   5.801   4.130
 1050SOL     OW 4048   4.586   5.392   0.923
 1050SOL    HW1 4049   4.649   5.469   0.919
 1050SOL    HW2 4050   4.541   5.391   1.012
 1051SOL     OW 4051   2.602   5.786   0.860
 1051SOL    HW1 4052   2.562   5.848   0.794
 1051SOL    HW2 4053   2.607   5.831   0.949
 1052SOL     OW 4054   3.576   0.845   4.745
 1052SOL    HW1 4055   3.577   0.746   4.738
 1052SOL    HW2 4056   3.666   0.881   4.721
 1053SOL     OW 4057   5.848   4.870   3.000
 1053SOL    HW1 4058   5.924   4.806   3.005
 1053SOL    HW2 4059   5.836   4.901   2.905
 1054SOL     OW 4060   2.669   4.267   5.955
 1054SOL    HW1 4061   2.570   4.273   5.939
 1054SOL    HW2 4062   2.715   4.247   5.868
 1055SOL     OW 4063   4.763   7.021   4.498
 1055SOL    HW1 4064   4.676   0.043   4.520
 1055SOL    HW2 4065   4.747   6.951   4.429
 1056SOL     OW 4066   2.057   4.721   6.042
 1056SOL    HW1 4067   2.012   4.686   6.125
 1056SOL    HW2 4068   2.056   4.651   5.971
 1057SOL     OW 4069   3.145   3.158   2.470
 1057SOL    HW1 4070   3.245   3.155   2.471
 1057SOL    HW2 4071   3.112   3.122   2.383
 1058SOL     OW 4072   4.362   1.688   3.472
 1058SOL    HW1 4073   4.338   1.781   3.501
 1058SOL    HW2 4074   4.305   1.662   3.394
 1059SOL     OW 4075   2.099   6.928   1.324
 1059SOL    HW1 4076   2.169   6.884   1.382
 1059SOL    HW2 4077   2.143   6.993   1.262
 1060SOL     OW 4078   6.925   4.413   4.250
 1060SOL    HW1 4079   6.879   4.325   4.260
 1060SOL    HW2 4080   6.879   4.467   4.181
 1061SOL     OW 4081   5.710   3.813   1.456
 1061SOL    HW1 4082   5.760   3.842   1.374
 1061SOL    HW2 4083   5.644   3.741   1.432
 1062SOL     OW 4084   5.937   3.983   6.493
 1062SOL    HW1 4085   5.891   3.983   6.582
 1062SOL    HW2 4086   6.003   3.908   6.489
 1063SOL     OW 4087   1.942   4.999   1.883
 1063SOL    HW1 4088   2.024   5.042   1.844
 1063SOL    HW2 4089   1.874   5.069   1.904
 1064SOL     OW 4090   1.901   3.817   1.790
 1064SOL    HW1 4091   1.974   3.754   1.819
 1064SOL    HW2 4092   1.924   3.910   1.818
 1065SOL     OW 4093   4.082   0.035   4.106
 1065SOL    HW1 4094   4.092   0.059   4.009
 1065SOL    HW2 4095   4.136   6.976   4.126
 1066SOL     OW 4096   4.633   0.505   3.855
 1066SOL    HW1 4097   4.624   0.594   3.811
 1066SOL    HW2 4098   4.571   0.500   3.933
 1067SOL     OW 4099   0.595   3.269   0.699
 1067SOL    HW1 4100   0.608   3.333   0.774
 1067SOL    HW2 4101   0.662   3.195   0.706
 1068SOL     OW 4102   5.541   5.037   2.849
 1068SOL    HW1 4103   5.570   5.132   2.844
 1068SOL    HW2 4104   5.569   4.989   2.766
 1069SOL     OW 4105   4.857   4.843   0.804
 1069SOL    HW1 4106   4.814   4.914   0.860
 1069SOL    HW2 4107   4.894   4.772   0.863
 1070SOL     OW 4108   0.181   0.143   2.275
 1070SOL    HW1 4109   0.239   0.135   2.355
 1070SOL    HW2 4110   0.106   0.208   2.293
 1071SOL     OW 4111   1.591   0.679   3.114
 1071SOL    HW1 4112   1.683   0.662   3.150
 1071SOL    HW2 4113   1.553   0.594   3.077
 1072SOL     OW 4114   1.871   0.502   0.786
 1072SOL    HW1 4115   1.875   0.502   0.686
 1072SOL    HW2 4116   1.936   0.435   0.822
 1073SOL     OW 4117   4.670   6.635   1.545
 1073SOL    HW1 4118   4.683   6.536   1.544
 1073SOL    HW2 4119   4.759   6.681   1.542
 1074SOL     OW 4120   2.525   5.297   0.735
 1074SOL    HW1 4121   2.491   5.262   0.648
 1074SOL    HW2 4122   2.517   5.397   0.736
 1075SOL     OW 4123   4.492   6.841   3.991
 1075SOL    HW1 4124   4.575   6.784   3.993
 1075SOL    HW2 4125   4.506   6.922   4.048
 1076SOL     OW 4126   6.794   3.264   5.955
 1076SOL    HW1 4127   6.780   3.166   5.967
 1076SOL    HW2 4128   6.785   3.287   5.858
 1077SOL     OW 4129   5.624   0.471   1.341
 1077SOL    HW1 4130   5.638   0.563   1.378
 1077SOL    HW2 4131   5.674   0.462   1.255
 1078SOL     OW 4132   1.013   1.481   2.463
 1078SOL    HW1 4133   1.031   1.483   2.365
 1078SOL    HW2 4134   1.000   1.386   2.492
 1079SOL     OW 4135   2.281   6.200   2.126
 1079SOL    HW1 4136   2.297   6.288   2.171
 1079SOL    HW2 4137   2.368   6.150   2.120
 1080SOL     OW 4138   1.365   4.391   3.857
 1080SOL    HW1 4139   1.291   4.443   3.898
 1080SOL    HW2 4140   1.365   4.298   3.895
 1081SOL     OW 4141   0.333   6.128   6.292
 1081SOL    HW1 4142   0.303   6.042   6.333
 1081SOL    HW2 4143   0.256   6.173   6.248
 1082SOL     OW 4144   4.002   2.129   5.611
 1082SOL    HW1 4145   3.978   2.182   5.692
 1082SOL    HW2 4146   4.040   2.041   5.638
 1083SOL     OW 4147   4.329   3.879   0.309
 1083SOL    HW1 4148   4.316   3.934   0.391
 1083SOL    HW2 4149   4.296   3.786   0.325
 1084SOL     OW 4150   6.053   5.964   0.029
 1084SOL    HW1 4151   6.111   6.038   7.019
 1084SOL    HW2 4152   6.015   5.988   0.119
 1085SOL     OW 4153   0.895   3.794   4.324
 1085SOL    HW1 4154   0.938   3.798   4.415
 1085SOL    HW2 4155   0.907   3.881   4.278
 1086SOL     OW 4156   6.767   6.217   1.396
 1086SOL    HW1 4157   6.781   6.203   1.494
 1086SOL    HW2 4158   6.721   6.304   1.381
 1087SOL     OW 4159   5.731   2.568   5.198
 1087SOL    HW1 4160   5.802   2.551   5.267
 1087SOL    HW2 4161   5.759   2.527   5.111
 1088SOL     OW 4162   6.488   4.377   3.158
 1088SOL    HW1 4163   6.526   4.285   3.153
 1088SOL    HW2 4164   6.392   4.374   3.130
 1089SOL     OW 4165   1.572   6.323   4.341
 1089SOL    HW1 4166   1.591   6.251   4.275
 1089SOL    HW2 4167   1.476   6.349   4.336
 1090SOL     OW 4168   2.072   1.884   3.242
 1090SOL    HW1 4169   1.987   1.832   3.235
 1090SOL    HW2 4170   2.113   1.869   3.332
 1091SOL     OW 4171   2.444   2.720   5.563
 1091SOL    HW1 4172   2.344   2.722   5.565
 1091SOL    HW2 4173   2.479   2.686   5.650
 1092SOL     OW 4174   1.890   4.335   0.973
 1092SOL    HW1 4175   1.934   4.252   1.009
 1092SOL    HW2 4176   1.943   4.415   1.001
 1093SOL     OW 4177   1.334   1.633   1.979
 1093SOL    HW1 4178   1.254   1.628   1.919
 1093SOL    HW2 4179   1.323   1.567   2.054
 1094SOL     OW 4180   0.999   6.436   3.745
 1094SOL    HW1 4181   0.929   6.457   3.677
 1094SOL    HW2 4182   0.996   6.503   3.819
 1095SOL     OW 4183   0.449   2.922   6.642
 1095SOL    HW1 4184   0.451   2.887   6.548
 1095SOL    HW2 4185   0.542   2.917   6.681
 1096SOL     OW 4186   3.444   4.443   1.673
 1096SOL    HW1 4187   3.492   4.364   1.710
 1096SOL    HW2 4188   3.486   4.527   1.709
 1097SOL     OW 4189   2.259   4.174   4.421
 1097SOL    HW1 4190   2.264   4.079   4.450
 1097SOL    HW2 4191   2.166   4.196   4.392
 1098SOL     OW 4192   4.548   3.417   0.613
 1098SOL    HW1 4193   4.554   3.479   0.692
 1098SOL    HW2 4194   4.626   3.433   0.553
 1099SOL     OW 4195   4.293   1.621   5.088
 1099SOL    HW1 4196   4.289   1.721   5.091
 1099SOL    HW2 4197   4.254   1.584   5.172
 1100SOL     OW 4198   3.512   2.149   5.907
 1100SOL    HW1 4199   3.480   2.059   5.937
 1100SOL    HW2 4200   3.510   2.213   5.984
 1101SOL     OW 4201   6.029   1.933   0.252
 1101SOL    HW1 4202   6.021   2.017   0.199
 1101SOL    HW2 4203   6.121   1.926   0.290
 1102SOL     OW 4204   0.899   5.459   4.405
 1102SOL    HW1 4205   0.809   5.453   4.448
 1102SOL    HW2 4206   0.893   5.516   4.323
 1103SOL     OW 4207   3.868   2.033   0.773
 1103SOL    HW1 4208   3.791   2.096   0.787
 1103SOL    HW2 4209   3.832   1.942   0.752
 1104SOL     OW 4210   2.323   3.289   5.307
 1104SOL    HW1 4211   2.296   3.197   5.337
 1104SOL    HW2 4212   2.315   3.353   5.383
 1105SOL     OW 4213   6.318   3.793   4.987
 1105SOL    HW1 4214   6.242   3.830   5.040
 1105SOL    HW2 4215   6.404   3.824   5.027
 1106SOL     OW 4216   1.178   1.861   1.484
 1106SOL    HW1 4217   1.221   1.878   1.572
 1106SOL    HW2 4218   1.214   1.926   1.416
 1107SOL     OW 4219   2.255   0.172   6.396
 1107SOL    HW1 4220   2.166   0.217   6.383
 1107SOL    HW2 4221   2.300   0.161   6.308
 1108SOL     OW 4222   3.459   0.591   5.478
 1108SOL    HW1 4223   3.545   0.641   5.472
 1108SOL    HW2 4224   3.474   0.506   5.529
 1109SOL     OW 4225   4.574   0.232   4.585
 1109SOL    HW1 4226   4.588   0.323   4.623
 1109SOL    HW2 4227   4.482   0.225   4.546
 1110SOL     OW 4228   2.724   2.005   3.459
 1110SOL    HW1 4229   2.625   2.012   3.450
 1110SOL    HW2 4230   2.760   1.946   3.386
 1111SOL     OW 4231   5.293   5.517   6.089
 1111SOL    HW1 4232   5.232   5.440   6.070
 1111SOL    HW2 4233   5.384   5.498   6.052
 1112SOL     OW 4234   5.219   1.519   2.498
 1112SOL    HW1 4235   5.144   1.517   2.432
 1112SOL    HW2 4236   5.215   1.437   2.555
 1113SOL     OW 4237   0.044   3.665   2.248
 1113SOL    HW1 4238   0.132   3.634   2.211
 1113SOL    HW2 4239   0.060   3.723   2.327
 1114SOL     OW 4240   3.866   1.932   6.427
 1114SOL    HW1 4241   3.958   1.892   6.420
 1114SOL    HW2 4242   3.838   1.967   6.338
 1115SOL     OW 4243   4.147   3.467   0.600
 1115SOL    HW1 4244   4.231   3.493   0.553
 1115SOL    HW2 4245   4.169   3.421   0.686
 1116SOL     OW 4246   5.377   6.418   4.931
 1116SOL    HW1 4247   5.354   6.379   5.020
 1116SOL    HW2 4248   5.476   6.424   4.922
 1117SOL     OW 4249   1.080   2.420   1.617
 1117SOL    HW1 4250   1.047   2.377   1.533
 1117SOL    HW2 4251   1.176   2.397   1.631
 1118SOL     OW 4252   2.608   4.506   1.384
 1118SOL    HW1 4253   2.621   4.470   1.292
 1118SOL    HW2 4254   2.697   4.530   1.423
 1119SOL     OW 4255   4.469   4.211   0.425
 1119SOL    HW1 4256   4.514   4.239   0.341
 1119SOL    HW2 4257   4.508   4.261   0.503
 1120SOL     OW 4258   6.232   6.983   4.877
 1120SOL    HW1 4259   6.177   6.937   4.807
 1120SOL    HW2 4260   6.233   6.926   4.960
 1121SOL     OW 4261   4.958   4.930   2.777
 1121SOL    HW1 4262   5.007   4.950   2.693
 1121SOL    HW2 4263   5.020   4.935   2.855
 1122SOL     OW 4264   5.221   3.540   6.790
 1122SOL    HW1 4265   5.194   3.572   6.699
 1122SOL    HW2 4266   5.150   3.480   6.827
 1123SOL     OW 4267   5.097   1.101   3.365
 1123SOL    HW1 4268   5.045   1.120   3.282
 1123SOL    HW2 4269   5.172   1.038   3.343
 1124SOL     OW 4270   6.369   3.620   5.412
 1124SOL    HW1 4271   6.452   3.565   5.407
 1124SOL    HW2 4272   6.329   3.612   5.503
 1125SOL     OW 4273   3.073   1.608   5.178
 1125SOL    HW1 4274   3.159   1.557   5.172
 1125SOL    HW2 4275   3.018   1.591   5.096
 1126SOL     OW 4276   6.197   5.409   6.638
 1126SOL    HW1 4277   6.131   5.478   6.668
 1126SOL    HW2 4278   6.278   5.414   6.696
 1127SOL     OW 4279   4.817   5.013   4.416
 1127SOL    HW1 4280   4.891   4.961   4.457
 1127SOL    HW2 4281   4.731   4.962   4.423
 1128SOL     OW 4282   5.628   1.925   5.794
 1128SOL    HW1 4283   5.630   1.888   5.701
 1128SOL    HW2 4284   5.538   1.964   5.813
 1129SOL     OW 4285   3.444   0.542   7.013
 1129SOL    HW1 4286   3.387   0.613   6.971
 1129SOL    HW2 4287   3.456   0.563   0.087
 1130SOL     OW 4288   2.536   4.934   0.464
 1130SOL    HW1 4289   2.540   4.836   0.447
 1130SOL    HW2 4290   2.446   4.969   0.439
 1131SOL     OW 4291   0.013   6.555   6.519
 1131SOL    HW1 4292   0.071   6.474   6.509
 1131SOL    HW2 4293   0.018   6.587   6.614
 1132SOL     OW 4294   5.263   0.198   1.315
 1132SOL    HW1 4295   5.217   0.153   1.239
 1132SOL    HW2 4296   5.304   0.129   1.375
 1133SOL     OW 4297   0.930   0.309   1.236
 1133SOL    HW1 4298   0.999   0.303   1.308
 1133SOL    HW2 4299   0.954   0.383   1.173
 1134SOL     OW 4300   5.182   1.369   1.357
 1134SOL    HW1 4301   5.223   1.319   1.433
 1134SOL    HW2 4302   5.190   1.468   1.374
 1135SOL     OW 4303   2.088   1.412   2.921
 1135SOL    HW1 4304   2.047   1.481   2.980
 1135SOL    HW2 4305   2.038   1.408   2.835
 1136SOL     OW 4306   3.156   4.926   4.834
 1136SOL    HW1 4307   3.121   4.832   4.829
 1136SOL    HW2 4308   3.092   4.988   4.790
 1137SOL     OW 4309   1.093   1.370   5.841
 1137SOL    HW1 4310   1.065   1.466   5.838
 1137SOL    HW2 4311   1.193   1.365   5.840
 1138SOL     OW 4312   0.438   1.290   6.507
 1138SOL    HW1 4313   0.401   1.336   6.588
 1138SOL    HW2 4314   0.494   1.213   6.535
 1139SOL     OW 4315   3.859   5.306   1.540
 1139SOL    HW1 4316   3.798   5.368   1.589
 1139SOL    HW2 4317   3.808   5.225   1.510
 1140SOL     OW 4318   3.884   1.282   1.992
 1140SOL    HW1 4319   3.865   1.355   1.926
 1140SOL    HW2 4320   3.911   1.199   1.944
 1141SOL     OW 4321   0.355   6.636   6.442
 1141SOL    HW1 4322   0.323   6.579   6.518
 1141SOL    HW2 4323   0.423   6.701   6.476
 1142SOL     OW 4324   3.058   0.103   4.963
 1142SOL    HW1 4325   2.971   0.056   4.973
 1142SOL    HW2 4326   3.060   0.151   4.875
 1143SOL     OW 4327   1.668   3.447   2.723
 1143SOL    HW1 4328   1.669   3.512   2.799
 1143SOL    HW2 4329   1.681   3.496   2.637
 1144SOL     OW 4330   6.570   4.990   5.356
 1144SOL    HW1 4331   6.660   4.952   5.378
 1144SOL    HW2 4332   6.581   5.080   5.313
 1145SOL     OW 4333   0.150   4.053   2.033
 1145SOL    HW1 4334   0.104   3.975   1.991
 1145SOL    HW2 4335   0.240   4.065   1.992
 1146SOL     OW 4336   6.227   0.837   2.041
 1146SOL    HW1 4337   6.275   0.801   1.961
 1146SOL    HW2 4338   6.223   0.936   2.035
 1147SOL     OW 4339   1.899   5.504   1.437
 1147SOL    HW1 4340   1.802   5.518   1.454
 1147SOL    HW2 4341   1.930   5.421   1.484
 1148SOL     OW 4342   4.805   6.991   0.458
 1148SOL    HW1 4343   4.827   6.947   0.371
 1148SOL    HW2 4344   4.845   6.939   0.533
 1149SOL     OW 4345   6.530   4.104   2.565
 1149SOL    HW1 4346   6.508   4.091   2.468
 1149SOL    HW2 4347   6.527   4.016   2.612
 1150SOL     OW 4348   2.755   3.909   0.238
 1150SOL    HW1 4349   2.749   3.908   0.138
 1150SOL    HW2 4350   2.831   3.850   0.267
 1151SOL     OW 4351   3.962   5.417   6.931
 1151SOL    HW1 4352   4.032   5.346   6.926
 1151SOL    HW2 4353   3.874   5.380   6.899
 1152SOL     OW 4354   6.319   5.038   6.061
 1152SOL    HW1 4355   6.219   5.038   6.062
 1152SOL    HW2 4356   6.352   5.126   6.025
 1153SOL     OW 4357   2.252   6.970   1.869
 1153SOL    HW1 4358   2.171   6.943   1.922
 1153SOL    HW2 4359   2.234   0.033   1.822
 1154SOL     OW 4360   1.113   4.172   1.526
 1154SOL    HW1 4361   1.131   4.270   1.538
 1154SOL    HW2 4362   1.037   4.160   1.463
 1155SOL     OW 4363   2.005   5.347   6.202
 1155SOL    HW1 4364   2.043   5.318   6.114
 1155SOL    HW2 4365   2.063   5.417   6.242
 1156SOL     OW 4366   2.910   1.499   4.454
 1156SOL    HW1 4367   2.988   1.463   4.403
 1156SOL    HW2 4368   2.826   1.460   4.417
 1157SOL     OW 4369   6.093   0.447   5.246
 1157SOL    HW1 4370   5.995   0.468   5.241
 1157SOL    HW2 4371   6.145   0.532   5.241
 1158SOL     OW 4372   6.909   5.993   5.391
 1158SOL    HW1 4373   6.864   6.075   5.355
 1158SOL    HW2 4374   6.857   5.912   5.364
 1159SOL     OW 4375   6.081   6.954   4.050
 1159SOL    HW1 4376   6.176   6.951   4.019
 1159SOL    HW2 4377   6.032   0.003   4.001
 1160SOL     OW 4378   3.804   3.792   1.261
 1160SOL    HW1 4379   3.831   3.718   1.199
 1160SOL    HW2 4380   3.737   3.850   1.215
 1161SOL     OW 4381   6.157   0.578   6.837
 1161SOL    HW1 4382   6.220   0.516   6.884
 1161SOL    HW2 4383   6.175   0.574   6.738
 1162SOL     OW 4384   2.478   1.915   6.395
 1162SOL    HW1 4385   2.388   1.958   6.385
 1162SOL    HW2 4386   2.511   1.929   6.488
 1163SOL     OW 4387   6.920   3.437   1.319
 1163SOL    HW1 4388   6.854   3.492   1.371
 1163SOL    HW2 4389   6.937   3.351   1.367
 1164SOL     OW 4390   5.361   2.678   5.199
 1164SOL    HW1 4391   5.406   2.676   5.110
 1164SOL    HW2 4392   5.428   2.695   5.270
 1165SOL     OW 4393   2.685   4.641   3.945
 1165SOL    HW1 4394   2.737   4.668   4.026
 1165SOL    HW2 4395   2.746   4.641   3.865
 1166SOL     OW 4396   3.782   6.626   6.853
 1166SOL    HW1 4397   3.686   6.623   6.824
 1166SOL    HW2 4398   3.800   6.714   6.898
 1167SOL     OW 4399   4.264   6.664   6.684
 1167SOL    HW1 4400   4.316   6.706   6.609
 1167SOL    HW2 4401   4.286   6.567   6.690
 1168SOL     OW 4402   5.122   2.099   3.835
 1168SOL    HW1 4403   5.033   2.142   3.849
 1168SOL    HW2 4404   5.194   2.155   3.876
 1169SOL     OW 4405   5.562   2.266   5.965
 1169SOL    HW1 4406   5.527   2.357   5.943
 1169SOL    HW2 4407   5.656   2.257   5.932
 1170SOL     OW 4408   5.224   1.218   2.980
 1170SOL    HW1 4409   5.184   1.246   3.067
 1170SOL    HW2 4410   5.161   1.155   2.933
 1171SOL     OW 4411   2.884   6.272   6.889
 1171SOL    HW1 4412   2.789   6.270   6.858
 1171SOL    HW2 4413   2.890   6.234   6.981
 1172SOL     OW 4414   3.470   4.043   2.017
 1172SOL    HW1 4415   3.470   4.082   2.110
 1172SOL    HW2 4416   3.389   3.986   2.005
 1173SOL     OW 4417   3.582   0.519   6.363
 1173SOL    HW1 4418   3.547   0.427   6.379
 1173SOL    HW2 4419   3.629   0.552   6.445
 1174SOL     OW 4420   3.628   4.231   0.160
 1174SOL    HW1 4421   3.669   4.219   0.251
 1174SOL    HW2 4422   3.529   4.235   0.168
 1175SOL     OW 4423   3.937   3.395   6.631
 1175SOL    HW1 4424   3.915   3.461   6.560
 1175SOL    HW2 4425   4.029   3.358   6.615
 1176SOL     OW 4426   5.883   4.961   0.042
 1176SOL    HW1 4427   5.783   4.960   0.036
 1176SOL    HW2 4428   5.922   4.917   6.984
 1177SOL     OW 4429   6.586   1.951   5.908
 1177SOL    HW1 4430   6.672   1.960   5.857
 1177SOL    HW2 4431   6.547   2.042   5.923
 1178SOL     OW 4432   3.257   3.399   1.468
 1178SOL    HW1 4433   3.222   3.470   1.531
 1178SOL    HW2 4434   3.234   3.424   1.374
 1179SOL     OW 4435   3.103   6.509   0.976
 1179SOL    HW1 4436   3.187   6.507   1.031
 1179SOL    HW2 4437   3.106   6.435   0.908
 1180SOL     OW 4438   2.570   5.745   3.979
 1180SOL    HW1 4439   2.525   5.771   3.894
 1180SOL    HW2 4440   2.524   5.665   4.019
 1181SOL     OW 4441   0.297   3.587   5.406
 1181SOL    HW1 4442   0.229   3.531   5.454
 1181SOL    HW2 4443   0.359   3.527   5.356
 1182SOL     OW 4444   3.143   5.348   3.265
 1182SOL    HW1 4445   3.235   5.368   3.297
 1182SOL    HW2 4446   3.077   5.369   3.337
 1183SOL     OW 4447   3.887   5.846   1.714
 1183SOL    HW1 4448   3.885   5.781   1.790
 1183SOL    HW2 4449   3.840   5.806   1.635
 1184SOL     OW 4450   5.117   6.830   0.007
 1184SOL    HW1 4451   5.068   6.891   6.968
 1184SOL    HW2 4452   5.067   6.745   0.018
 1185SOL     OW 4453   0.645   0.994   0.989
 1185SOL    HW1 4454   0.580   1.069   1.002
 1185SOL    HW2 4455   0.598   0.916   0.947
 1186SOL     OW 4456   5.611   5.999   5.692
 1186SOL    HW1 4457   5.623   6.088   5.737
 1186SOL    HW2 4458   5.514   5.984   5.674
 1187SOL     OW 4459   5.466   6.852   5.125
 1187SOL    HW1 4460   5.519   6.822   5.046
 1187SOL    HW2 4461   5.424   6.940   5.107
 1188SOL     OW 4462   3.583   5.797   5.982
 1188SOL    HW1 4463   3.644   5.761   5.911
 1188SOL    HW2 4464   3.539   5.880   5.949
 1189SOL     OW 4465   6.433   0.515   2.000
 1189SOL    HW1 4466   6.347   0.472   2.027
 1189SOL    HW2 4467   6.454   0.590   2.063
 1190SOL     OW 4468   3.486   5.479   3.102
 1190SOL    HW1 4469   3.584   5.487   3.084
 1190SOL    HW2 4470   3.445   5.414   3.038
 1191SOL     OW 4471   2.867   6.476   4.517
 1191SOL    HW1 4472   2.930   6.403   4.491
 1191SOL    HW2 4473   2.868   6.487   4.616
 1192SOL     OW 4474   5.595   6.183   3.272
 1192SOL    HW1 4475   5.566   6.151   3.362
 1192SOL    HW2 4476   5.693   6.203   3.274
 1193SOL     OW 4477   0.524   0.653   5.496
 1193SOL    HW1 4478   0.481   0.692   5.577
 1193SOL    HW2 4479   0.607   0.704   5.474
 1194SOL     OW 4480   6.901   1.568   0.860
 1194SOL    HW1 4481   6.856   1.560   0.949
 1194SOL    HW2 4482   6.992   1.607   0.872
 1195SOL     OW 4483   6.521   3.730   0.751
 1195SOL    HW1 4484   6.577   3.671   0.810
 1195SOL    HW2 4485   6.572   3.813   0.729
 1196SOL     OW 4486   5.844   4.577   2.769
 1196SOL    HW1 4487   5.889   4.560   2.857
 1196SOL    HW2 4488   5.885   4.658   2.726
 1197SOL     OW 4489   4.452   6.444   4.143
 1197SOL    HW1 4490   4.408   6.406   4.225
 1197SOL    HW2 4491   4.475   6.370   4.081
 1198SOL     OW 4492   1.067   4.057   2.274
 1198SOL    HW1 4493   1.060   3.960   2.299
 1198SOL    HW2 4494   1.145   4.070   2.213
 1199SOL     OW 4495   3.550   3.161   2.710
 1199SOL    HW1 4496   3.617   3.087   2.722
 1199SOL    HW2 4497   3.565   3.231   2.780
 1200SOL     OW 4498   3.987   3.821   4.335
 1200SOL    HW1 4499   3.970   3.839   4.238
 1200SOL    HW2 4500   4.083   3.796   4.347
 1201SOL     OW 4501   0.060   0.733   4.812
 1201SOL    HW1 4502   0.125   0.711   4.740
 1201SOL    HW2 4503   0.004   0.811   4.784
 1202SOL     OW 4504   6.707   6.917   5.888
 1202SOL    HW1 4505   6.799   6.953   5.906
 1202SOL    HW2 4506   6.679   6.943   5.795
 1203SOL     OW 4507   0.198   6.672   0.982
 1203SOL    HW1 4508   0.245   6.584   0.988
 1203SOL    HW2 4509   0.112   6.661   0.933
 1204SOL     OW 4510   4.964   1.512   1.703
 1204SOL    HW1 4511   4.886   1.564   1.667
 1204SOL    HW2 4512   4.950   1.415   1.684
 1205SOL     OW 4513   3.605   3.621   0.104
 1205SOL    HW1 4514   3.532   3.555   0.118
 1205SOL    HW2 4515   3.634   3.621   0.008
 1206SOL     OW 4516   0.968   3.004   4.428
 1206SOL    HW1 4517   0.979   3.102   4.446
 1206SOL    HW2 4518   1.034   2.976   4.359
 1207SOL     OW 4519   0.407   0.649   0.497
 1207SOL    HW1 4520   0.457   0.601   0.424
 1207SOL    HW2 4521   0.377   0.739   0.463
 1208SOL     OW 4522   3.491   3.673   1.869
 1208SOL    HW1 4523   3.542   3.717   1.795
 1208SOL    HW2 4524   3.550   3.666   1.950
 1209SOL     OW 4525   5.544   0.335   4.200
 1209SOL    HW1 4526   5.550   0.270   4.124
 1209SOL    HW2 4527   5.636   0.368   4.223
 1210SOL     OW 4528   4.833   6.848   3.858
 1210SOL    HW1 4529   4.893   6.861   3.937
 1210SOL    HW2 4530   4.796   6.754   3.860
 1211SOL     OW 4531   0.929   3.220   3.073
 1211SOL    HW1 4532   1.012   3.221   3.018
 1211SOL    HW2 4533   0.930   3.298   3.136
 1212SOL     OW 4534   6.777   0.710   6.000
 1212SOL    HW1 4535   6.829   0.625   6.007
 1212SOL    HW2 4536   6.736   0.716   5.908
 1213SOL     OW 4537   5.894   1.889   2.743
 1213SOL    HW1 4538   5.818   1.890   2.678
 1213SOL    HW2 4539   5.863   1.925   2.831
 1214SOL     OW 4540   0.245   2.352   6.829
 1214SOL    HW1 4541   0.299   2.432   6.854
 1214SOL    HW2 4542   0.200   2.368   6.741
 1215SOL     OW 4543   1.650   4.955   2.482
 1215SOL    HW1 4544   1.740   4.993   2.503
 1215SOL    HW2 4545   1.587   5.029   2.458
 1216SOL     OW 4546   6.176   1.453   1.055
 1216SOL    HW1 4547   6.134   1.363   1.040
 1216SOL    HW2 4548   6.106   1.516   1.091
 1217SOL     OW 4549   3.156   4.576   0.588
 1217SOL    HW1 4550   3.187   4.597   0.496
 1217SOL    HW2 4551   3.146   4.661   0.640
 1218SOL     OW 4552   1.644   3.111   5.545
 1218SOL    HW1 4553   1.703   3.051   5.491
 1218SOL    HW2 4554   1.626   3.068   5.634
 1219SOL     OW 4555   5.098   5.088   1.587
 1219SOL    HW1 4556   5.035   5.152   1.542
 1219SOL    HW2 4557   5.170   5.062   1.523
 1220SOL     OW 4558   6.755   3.771   2.272
 1220SOL    HW1 4559   6.794   3.839   2.334
 1220SOL    HW2 4560   6.808   3.768   2.188
 1221SOL     OW 4561   5.474   3.612   6.389
 1221SOL    HW1 4562   5.387   3.563   6.375
 1221SOL    HW2 4563   5.505   3.597   6.482
 1222SOL     OW 4564   0.225   0.899   6.662
 1222SOL    HW1 4565   0.302   0.881   6.724
 1222SOL    HW2 4566   0.175   0.814   6.646
 1223SOL     OW 4567   3.674   1.223   0.198
 1223SOL    HW1 4568   3.658   1.202   0.294
 1223SOL    HW2 4569   3.593   1.267   0.159
 1224SOL     OW 4570   3.124   5.791   6.744
 1224SOL    HW1 4571   3.071   5.844   6.809
 1224SOL    HW2 4572   3.153   5.850   6.669
 1225SOL     OW 4573   3.783   2.804   0.017
 1225SOL    HW1 4574   3.817   2.713   7.016
 1225SOL    HW2 4575   3.807   2.825   0.112
 1226SOL     OW 4576   3.750   6.227   0.473
 1226SOL    HW1 4577   3.711   6.146   0.517
 1226SOL    HW2 4578   3.842   6.243   0.508
 1227SOL     OW 4579   5.295   5.605   5.814
 1227SOL    HW1 4580   5.230   5.599   5.739
 1227SOL    HW2 4581   5.251   5.575   5.899
 1228SOL     OW 4582   3.463   2.389   6.592
 1228SOL    HW1 4583   3.439   2.486   6.602
 1228SOL    HW2 4584   3.416   2.336   6.663
 1229SOL     OW 4585   1.781   5.151   0.164
 1229SOL    HW1 4586   1.748   5.107   0.080
 1229SOL    HW2 4587   1.821   5.240   0.142
 1230SOL     OW 4588   5.944   6.167   2.282
 1230SOL    HW1 4589   5.964   6.101   2.209
 1230SOL    HW2 4590   6.007   6.152   2.358
 1231SOL     OW 4591   1.719   1.917   5.398
 1231SOL    HW1 4592   1.692   2.011   5.379
 1231SOL    HW2 4593   1.689   1.891   5.489
 1232SOL     OW 4594   6.478   1.285   5.138
 1232SOL    HW1 4595   6.526   1.327   5.216
 1232SOL    HW2 4596   6.492   1.186   5.140
 1233SOL     OW 4597   0.606   5.501   4.514
 1233SOL    HW1 4598   0.517   5.501   4.561
 1233SOL    HW2 4599   0.599   5.554   4.430
 1234SOL     OW 4600   5.768   2.046   5.399
 1234SOL    HW1 4601   5.750   2.139   5.431
 1234SOL    HW2 4602   5.725   1.981   5.462
 1235SOL     OW 4603   5.964   4.582   1.573
 1235SOL    HW1 4604   5.986   4.654   1.639
 1235SOL    HW2 4605   6.006   4.602   1.485
 1236SOL     OW 4606   4.219   1.491   1.887
 1236SOL    HW1 4607   4.176   1.412   1.842
 1236SOL    HW2 4608   4.285   1.458   1.955
 1237SOL     OW 4609   1.252   4.700   5.290
 1237SOL    HW1 4610   1.351   4.719   5.292
 1237SOL    HW2 4611   1.213   4.740   5.207
 1238SOL     OW 4612   1.269   0.285   5.855
 1238SOL    HW1 4613   1.196   0.350   5.877
 1238SOL    HW2 4614   1.272   0.271   5.756
 1239SOL     OW 4615   0.144   6.811   6.349
 1239SOL    HW1 4616   0.140   6.856   6.439
 1239SOL    HW2 4617   0.205   6.731   6.355
 1240SOL     OW 4618   5.926   6.127   1.189
 1240SOL    HW1 4619   6.018   6.113   1.227
 1240SOL    HW2 4620   5.923   6.216   1.143
 1241SOL     OW 4621   5.923   4.717   5.528
 1241SOL    HW1 4622   5.838   4.734   5.479
 1241SOL    HW2 4623   5.939   4.618   5.533
 1242SOL     OW 4624   2.228   4.561   1.220
 1242SOL    HW1 4625   2.275   4.648   1.208
 1242SOL    HW2 4626   2.279   4.489   1.171
 1243SOL     OW 4627   0.995   0.960   5.208
 1243SOL    HW1 4628   0.969   1.014   5.288
 1243SOL    HW2 4629   0.915   0.910   5.174
 1244SOL     OW 4630   5.220   6.186   4.428
 1244SOL    HW1 4631   5.278   6.229   4.496
 1244SOL    HW2 4632   5.144   6.140   4.473
 1245SOL     OW 4633   5.243   3.977   6.988
 1245SOL    HW1 4634   5.322   4.037   6.972
 1245SOL    HW2 4635   5.270   3.903   0.027
 1246SOL     OW 4636   3.015   1.578   1.556
 1246SOL    HW1 4637   3.073   1.653   1.525
 1246SOL    HW2 4638   3.071   1.496   1.569
 1247SOL     OW 4639   6.890   6.476   6.107
 1247SOL    HW1 4640   6.808   6.527   6.079
 1247SOL    HW2 4641   6.948   6.534   6.165
 1248SOL     OW 4642   1.863   6.289   3.806
 1248SOL    HW1 4643   1.837   6.198   3.838
 1248SOL    HW2 4644   1.950   6.316   3.849
 1249SOL     OW 4645   6.823   2.573   1.996
 1249SOL    HW1 4646   6.881   2.504   2.039
 1249SOL    HW2 4647   6.753   2.602   2.062
 1250SOL     OW 4648   5.746   5.063   3.517
 1250SOL    HW1 4649   5.689   4.981   3.519
 1250SOL    HW2 4650   5.823   5.049   3.454
 1251SOL     OW 4651   1.834   1.085   3.045
 1251SOL    HW1 4652   1.776   1.158   3.080
 1251SOL    HW2 4653   1.877   1.116   2.959
 1252SOL     OW 4654   3.915   4.554   6.833
 1252SOL    HW1 4655   3.848   4.524   6.902
 1252SOL    HW2 4656   3.913   4.490   6.755
 1253SOL     OW 4657   3.703   6.449   2.469
 1253SOL    HW1 4658   3.655   6.536   2.470
 1253SOL    HW2 4659   3.701   6.409   2.561
 1254SOL     OW 4660   0.489   2.140   3.727
 1254SOL    HW1 4661   0.575   2.092   3.712
 1254SOL    HW2 4662   0.416   2.073   3.740
 1255SOL     OW 4663   5.850   1.372   5.809
 1255SOL    HW1 4664   5.793   1.375   5.727
 1255SOL    HW2 4665   5.811   1.434   5.878
 1256SOL     OW 4666   0.160   6.712   3.910
 1256SOL    HW1 4667   0.125   6.625   3.877
 1256SOL    HW2 4668   0.175   6.774   3.832
 1257SOL     OW 4669   6.935   5.171   5.073
 1257SOL    HW1 4670   7.006   5.102   5.063
 1257SOL    HW2 4671   6.845   5.127   5.077
 1258SOL     OW 4672   1.712   5.188   2.878
 1258SOL    HW1 4673   1.792   5.190   2.818
 1258SOL    HW2 4674   1.629   5.186   2.822
 1259SOL     OW 4675   4.096   0.250   4.698
 1259SOL    HW1 4676   4.004   0.233   4.662
 1259SOL    HW2 4677   4.102   0.344   4.730
 1260SOL     OW 4678   3.424   1.978   0.313
 1260SOL    HW1 4679   3.412   2.036   0.394
 1260SOL    HW2 4680   3.360   1.901   0.317
 1261SOL     OW 4681   6.714   5.463   6.467
 1261SOL    HW1 4682   6.662   5.523   6.528
 1261SOL    HW2 4683   6.811   5.467   6.491
 1262SOL     OW 4684   5.463   4.907   1.113
 1262SOL    HW1 4685   5.427   4.815   1.098
 1262SOL    HW2 4686   5.548   4.919   1.062
 1263SOL     OW 4687   6.782   2.223   1.517
 1263SOL    HW1 4688   6.875   2.204   1.548
 1263SOL    HW2 4689   6.717   2.169   1.571
 1264SOL     OW 4690   0.223   3.360   1.296
 1264SOL    HW1 4691   0.314   3.359   1.256
 1264SOL    HW2 4692   0.167   3.430   1.251
 1265SOL     OW 4693   5.392   5.466   3.435
 1265SOL    HW1 4694   5.332   5.544   3.418
 1265SOL    HW2 4695   5.374   5.394   3.368
 1266SOL     OW 4696   1.173   1.100   4.337
 1266SOL    HW1 4697   1.235   1.072   4.410
 1266SOL    HW2 4698   1.114   1.174   4.370
 1267SOL     OW 4699   5.452   5.977   1.351
 1267SOL    HW1 4700   5.427   5.908   1.419
 1267SOL    HW2 4701   5.423   6.067   1.383
 1268SOL     OW 4702   3.847   3.118   0.313
 1268SOL    HW1 4703   3.893   3.030   0.321
 1268SOL    HW2 4704   3.915   3.191   0.301
 1269SOL     OW 4705   5.274   5.702   5.348
 1269SOL    HW1 4706   5.317   5.785   5.315
 1269SOL    HW2 4707   5.216   5.663   5.277
 1270SOL     OW 4708   2.463   4.414   4.114
 1270SOL    HW1 4709   2.439   4.318   4.130
 1270SOL    HW2 4710   2.478   4.429   4.017
 1271SOL     OW 4711   2.865   2.272   4.053
 1271SOL    HW1 4712   2.824   2.282   3.962
 1271SOL    HW2 4713   2.802   2.223   4.113
 1272SOL     OW 4714   5.452   5.658   0.198
 1272SOL    HW1 4715   5.515   5.701   0.263
 1272SOL    HW2 4716   5.408   5.579   0.240
 1273SOL     OW 4717   0.482   4.154   6.737
 1273SOL    HW1 4718   0.406   4.199   6.691
 1273SOL    HW2 4719   0.468   4.055   6.735
 1274SOL     OW 4720   6.659   3.943   1.689
 1274SOL    HW1 4721   6.583   3.998   1.655
 1274SOL    HW2 4722   6.677   3.967   1.785
 1275SOL     OW 4723   3.531   1.778   4.605
 1275SOL    HW1 4724   3.616   1.764   4.656
 1275SOL    HW2 4725   3.544   1.750   4.510
 1276SOL     OW 4726   0.066   6.724   4.677
 1276SOL    HW1 4727   0.093   6.793   4.743
 1276SOL    HW2 4728   6.994   6.741   4.648
 1277SOL     OW 4729   0.928   6.130   6.230
 1277SOL    HW1 4730   0.874   6.212   6.248
 1277SOL    HW2 4731   0.901   6.058   6.294
 1278SOL     OW 4732   0.910   0.015   5.425
 1278SOL    HW1 4733   0.933   0.106   5.459
 1278SOL    HW2 4734   0.839   0.022   5.355
 1279SOL     OW 4735   3.057   6.541   0.431
 1279SOL    HW1 4736   3.068   6.486   0.347
 1279SOL    HW2 4737   2.967   6.584   0.430
 1280SOL     OW 4738   2.931   6.344   4.811
 1280SOL    HW1 4739   2.847   6.398   4.813
 1280SOL    HW2 4740   2.916   6.260   4.758
 1281SOL     OW 4741   1.312   6.442   3.743
 1281SOL    HW1 4742   1.278   6.506   3.673
 1281SOL    HW2 4743   1.332   6.354   3.700
 1282SOL     OW 4744   0.772   2.056   6.730
 1282SOL    HW1 4745   0.674   2.037   6.726
 1282SOL    HW2 4746   0.813   2.043   6.640
 1283SOL     OW 4747   6.854   3.172   4.962
 1283SOL    HW1 4748   6.892   3.136   5.047
 1283SOL    HW2 4749   6.771   3.122   4.938
 1284SOL     OW 4750   4.811   1.655   1.929
 1284SOL    HW1 4751   4.885   1.588   1.929
 1284SOL    HW2 4752   4.731   1.615   1.973
 1285SOL     OW 4753   4.831   2.266   6.135
 1285SOL    HW1 4754   4.779   2.213   6.069
 1285SOL    HW2 4755   4.929   2.257   6.116
 1286SOL     OW 4756   5.195   3.913   2.456
 1286SOL    HW1 4757   5.239   3.997   2.423
 1286SOL    HW2 4758   5.115   3.893   2.399
 1287SOL     OW 4759   5.549   5.596   5.239
 1287SOL    HW1 4760   5.514   5.688   5.225
 1287SOL    HW2 4761   5.495   5.531   5.187
 1288SOL     OW 4762   4.379   3.488   0.026
 1288SOL    HW1 4763   4.287   3.460   7.021
 1288SOL    HW2 4764   4.433   3.407   0.049
 1289SOL     OW 4765   1.119   6.075   2.027
 1289SOL    HW1 4766   1.077   6.113   1.945
 1289SOL    HW2 4767   1.059   6.090   2.105
 1290SOL     OW 4768   0.839   6.367   6.521
 1290SOL    HW1 4769   0.898   6.434   6.565
 1290SOL    HW2 4770   0.852   6.278   6.565
 1291SOL     OW 4771   0.204   3.864   5.462
 1291SOL    HW1 4772   0.255   3.782   5.438
 1291SOL    HW2 4773   0.128   3.839   5.523
 1292SOL     OW 4774   0.351   5.878   2.182
 1292SOL    HW1 4775   0.398   5.918   2.103
 1292SOL    HW2 4776   0.261   5.844   2.154
 1293SOL     OW 4777   1.275   1.772   0.364
 1293SOL    HW1 4778   1.205   1.719   0.412
 1293SOL    HW2 4779   1.232   1.851   0.320
 1294SOL     OW 4780   1.175   3.262   6.752
 1294SOL    HW1 4781   1.214   3.349   6.723
 1294SOL    HW2 4782   1.136   3.272   6.844
 1295SOL     OW 4783   0.294   3.553   2.189
 1295SOL    HW1 4784   0.273   3.480   2.254
 1295SOL    HW2 4785   0.355   3.619   2.232
 1296SOL     OW 4786   3.551   0.337   5.555
 1296SOL    HW1 4787   3.499   0.326   5.639
 1296SOL    HW2 4788   3.629   0.274   5.555
 1297SOL     OW 4789   6.066   0.990   1.126
 1297SOL    HW1 4790   6.100   0.900   1.100
 1297SOL    HW2 4791   5.966   0.990   1.121
 1298SOL     OW 4792   5.702   4.676   2.297
 1298SOL    HW1 4793   5.644   4.623   2.359
 1298SOL    HW2 4794   5.794   4.636   2.296
 1299SOL     OW 4795   1.507   3.779   3.279
 1299SOL    HW1 4796   1.475   3.777   3.374
 1299SOL    HW2 4797   1.605   3.761   3.277
 1300SOL     OW 4798   3.438   2.894   1.829
 1300SOL    HW1 4799   3.490   2.858   1.907
 1300SOL    HW2 4800   3.402   2.817   1.775
 1301SOL     OW 4801   0.840   5.631   1.205
 1301SOL    HW1 4802   0.880   5.639   1.113
 1301SOL    HW2 4803   0.814   5.536   1.221
 1302SOL     OW 4804   4.920   0.566   5.480
 1302SOL    HW1 4805   4.970   0.494   5.432
 1302SOL    HW2 4806   4.983   0.620   5.536
 1303SOL     OW 4807   4.370   1.385   2.083
 1303SOL    HW1 4808   4.466   1.402   2.101
 1303SOL    HW2 4809   4.338   1.308   2.138
 1304SOL     OW 4810   2.130   1.076   6.375
 1304SOL    HW1 4811   2.053   1.035   6.325
 1304SOL    HW2 4812   2.101   1.162   6.416
 1305SOL     OW 4813   4.970   3.359   0.208
 1305SOL    HW1 4814   4.909   3.279   0.217
 1305SOL    HW2 4815   5.064   3.327   0.200
 1306SOL     OW 4816   0.358   4.878   4.495
 1306SOL    HW1 4817   0.334   4.926   4.411
 1306SOL    HW2 4818   0.283   4.818   4.522
 1307SOL     OW 4819   0.342   4.025   4.099
 1307SOL    HW1 4820   0.275   3.990   4.164
 1307SOL    HW2 4821   0.434   3.993   4.125
 1308SOL     OW 4822   5.650   6.378   4.853
 1308SOL    HW1 4823   5.664   6.291   4.901
 1308SOL    HW2 4824   5.739   6.415   4.827
 1309SOL     OW 4825   5.246   3.626   5.400
 1309SOL    HW1 4826   5.269   3.720   5.424
 1309SOL    HW2 4827   5.242   3.618   5.300
 1310SOL     OW 4828   6.927   3.661   4.281
 1310SOL    HW1 4829   6.932   3.574   4.232
 1310SOL    HW2 4830   7.005   3.668   4.344
 1311SOL     OW 4831   0.690   6.478   4.803
 1311SOL    HW1 4832   0.728   6.389   4.826
 1311SOL    HW2 4833   0.734   6.513   4.720
 1312SOL     OW 4834   1.542   0.455   6.543
 1312SOL    HW1 4835   1.443   0.468   6.536
 1312SOL    HW2 4836   1.562   0.360   6.566
 1313SOL     OW 4837   0.696   3.906   3.935
 1313SOL    HW1 4838   0.755   3.826   3.924
 1313SOL    HW2 4839   0.747   3.989   3.917
 1314SOL     OW 4840   4.362   1.149   5.778
 1314SOL    HW1 4841   4.445   1.204   5.772
 1314SOL    HW2 4842   4.294   1.196   5.834
 1315SOL     OW 4843   0.172   1.242   1.418
 1315SOL    HW1 4844   0.141   1.214   1.509
 1315SOL    HW2 4845   0.255   1.298   1.426
 1316SOL     OW 4846   2.373   6.167   5.121
 1316SOL    HW1 4847   2.463   6.207   5.141
 1316SOL    HW2 4848   2.385   6.072   5.091
 1317SOL     OW 4849   1.986   4.118   6.084
 1317SOL    HW1 4850   2.010   4.095   6.179
 1317SOL    HW2 4851   2.010   4.041   6.025
 1318SOL     OW 4852   0.919   0.986   1.048
 1318SOL    HW1 4853   0.825   0.999   1.016
 1318SOL    HW2 4854   0.922   1.000   1.147
 1319SOL     OW 4855   6.758   0.918   0.016
 1319SOL    HW1 4856   6.679   0.935   0.074
 1319SOL    HW2 4857   6.776   0.820   0.012
 1320SOL     OW 4858   4.978   3.793   0.719
 1320SOL    HW1 4859   4.969   3.696   0.698
 1320SOL    HW2 4860   4.899   3.823   0.773
 1321SOL     OW 4861   5.654   1.312   6.276
 1321SOL    HW1 4862   5.626   1.237   6.336
 1321SOL    HW2 4863   5.703   1.381   6.329
 1322SOL     OW 4864   3.724   0.615   3.988
 1322SOL    HW1 4865   3.626   0.633   3.979
 1322SOL    HW2 4866   3.751   0.626   4.084
 1323SOL     OW 4867   4.807   1.282   5.659
 1323SOL    HW1 4868   4.870   1.205   5.656
 1323SOL    HW2 4869   4.837   1.349   5.726
 1324SOL     OW 4870   1.072   3.625   0.806
 1324SOL    HW1 4871   1.126   3.584   0.733
 1324SOL    HW2 4872   1.020   3.702   0.771
 1325SOL     OW 4873   2.296   6.827   2.965
 1325SOL    HW1 4874   2.328   6.752   2.907
 1325SOL    HW2 4875   2.359   6.904   2.957
 1326SOL     OW 4876   4.910   3.365   5.044
 1326SOL    HW1 4877   4.956   3.370   5.133
 1326SOL    HW2 4878   4.871   3.455   5.021
 1327SOL     OW 4879   1.519   4.851   2.121
 1327SOL    HW1 4880   1.585   4.841   2.195
 1327SOL    HW2 4881   1.541   4.933   2.068
 1328SOL     OW 4882   1.306   3.205   0.887
 1328SOL    HW1 4883   1.261   3.134   0.832
 1328SOL    HW2 4884   1.374   3.253   0.831
 1329SOL     OW 4885   0.247   2.412   1.163
 1329SOL    HW1 4886   0.339   2.394   1.129
 1329SOL    HW2 4887   0.247   2.406   1.263
 1330SOL     OW 4888   0.519   1.696   1.639
 1330SOL    HW1 4889   0.552   1.688   1.733
 1330SOL    HW2 4890   0.423   1.667   1.635
 1331SOL     OW 4891   4.993   2.645   3.688
 1331SOL    HW1 4892   4.989   2.557   3.735
 1331SOL    HW2 4893   4.992   2.631   3.589
 1332SOL     OW 4894   3.198   0.062   6.696
 1332SOL    HW1 4895   3.283   0.098   6.659
 1332SOL    HW2 4896   3.126   0.130   6.686
 1333SOL     OW 4897   4.017   3.761   5.294
 1333SOL    HW1 4898   4.110   3.731   5.275
 1333SOL    HW2 4899   3.990   3.831   5.229
 1334SOL     OW 4900   6.272   1.840   4.339
 1334SOL    HW1 4901   6.200   1.853   4.408
 1334SOL    HW2 4902   6.321   1.926   4.327
 1335SOL     OW 4903   2.434   1.817   2.946
 1335SOL    HW1 4904   2.390   1.903   2.921
 1335SOL    HW2 4905   2.398   1.785   3.034
 1336SOL     OW 4906   2.025   2.412   5.540
 1336SOL    HW1 4907   2.019   2.357   5.457
 1336SOL    HW2 4908   2.120   2.417   5.570
 1337SOL     OW 4909   1.948   2.057   4.718
 1337SOL    HW1 4910   1.963   2.091   4.625
 1337SOL    HW2 4911   2.021   1.994   4.743
 1338SOL     OW 4912   5.665   2.152   4.912
 1338SOL    HW1 4913   5.651   2.091   4.990
 1338SOL    HW2 4914   5.690   2.243   4.944
 1339SOL     OW 4915   0.514   1.587   6.283
 1339SOL    HW1 4916   0.607   1.573   6.250
 1339SOL    HW2 4917   0.459   1.506   6.264
 1340SOL     OW 4918   0.225   1.851   2.679
 1340SOL    HW1 4919   0.190   1.780   2.740
 1340SOL    HW2 4920   0.254   1.930   2.734
 1341SOL     OW 4921   5.168   0.186   6.193
 1341SOL    HW1 4922   5.088   0.187   6.134
 1341SOL    HW2 4923   5.250   0.206   6.139
 1342SOL     OW 4924   1.910   5.532   5.979
 1342SOL    HW1 4925   1.921   5.514   6.077
 1342SOL    HW2 4926   1.846   5.609   5.966
 1343SOL     OW 4927   4.553   6.042   3.131
 1343SOL    HW1 4928   4.645   6.023   3.099
 1343SOL    HW2 4929   4.499   5.958   3.129
 1344SOL     OW 4930   6.777   5.012   4.450
 1344SOL    HW1 4931   6.794   5.088   4.512
 1344SOL    HW2 4932   6.843   4.939   4.468
 1345SOL     OW 4933   1.757   0.550   2.696
 1345SOL    HW1 4934   1.839   0.566   2.751
 1345SOL    HW2 4935   1.722   0.458   2.712
 1346SOL     OW 4936   0.784   5.927   4.389
 1346SOL    HW1 4937   0.686   5.944   4.385
 1346SOL    HW2 4938   0.809   5.897   4.481
 1347SOL     OW 4939   6.271   6.327   4.595
 1347SOL    HW1 4940   6.201   6.256   4.603
 1347SOL    HW2 4941   6.361   6.288   4.614
 1348SOL     OW 4942   5.515   5.375   2.528
 1348SOL    HW1 4943   5.572   5.294   2.512
 1348SOL    HW2 4944   5.478   5.406   2.440
 1349SOL     OW 4945   4.388   2.448   6.196
 1349SOL    HW1 4946   4.329   2.519   6.235
 1349SOL    HW2 4947   4.347   2.414   6.112
 1350SOL     OW 4948   5.329   4.835   5.928
 1350SOL    HW1 4949   5.389   4.790   5.862
 1350SOL    HW2 4950   5.275   4.766   5.976
 1351SOL     OW 4951   6.509   1.306   3.612
 1351SOL    HW1 4952   6.440   1.365   3.654
 1351SOL    HW2 4953   6.573   1.274   3.681
 1352SOL     OW 4954   6.835   6.822   2.936
 1352SOL    HW1 4955   6.847   6.724   2.922
 1352SOL    HW2 4956   6.738   6.841   2.952
 1353SOL     OW 4957   0.165   3.587   6.823
 1353SOL    HW1 4958   0.181   3.589   6.724
 1353SOL    HW2 4959   0.070   3.563   6.841
 1354SOL     OW 4960   0.848   3.178   0.448
 1354SOL    HW1 4961   0.750   3.178   0.428
 1354SOL    HW2 4962   0.865   3.119   0.527
 1355SOL     OW 4963   6.579   2.576   5.289
 1355SOL    HW1 4964   6.513   2.592   5.362
 1355SOL    HW2 4965   6.608   2.480   5.290
 1356SOL     OW 4966   2.884   3.522   2.670
 1356SOL    HW1 4967   2.903   3.620   2.663
 1356SOL    HW2 4968   2.875   3.496   2.766
 1357SOL     OW 4969   1.294   3.322   5.554
 1357SOL    HW1 4970   1.324   3.235   5.514
 1357SOL    HW2 4971   1.313   3.396   5.490
 1358SOL     OW 4972   3.876   1.181   5.879
 1358SOL    HW1 4973   3.951   1.119   5.858
 1358SOL    HW2 4974   3.833   1.153   5.965
 1359SOL     OW 4975   5.934   4.451   1.811
 1359SOL    HW1 4976   6.023   4.407   1.825
 1359SOL    HW2 4977   5.938   4.505   1.726
 1360SOL     OW 4978   4.010   2.519   0.369
 1360SOL    HW1 4979   3.981   2.465   0.448
 1360SOL    HW2 4980   4.049   2.606   0.401
 1361SOL     OW 4981   0.202   5.763   5.390
 1361SOL    HW1 4982   0.137   5.764   5.314
 1361SOL    HW2 4983   0.153   5.765   5.476
 1362SOL     OW 4984   3.064   3.771   4.581
 1362SOL    HW1 4985   3.009   3.805   4.657
 1362SOL    HW2 4986   3.090   3.847   4.521
 1363SOL     OW 4987   0.063   5.457   3.873
 1363SOL    HW1 4988   0.121   5.525   3.917
 1363SOL    HW2 4989   0.087   5.449   3.776
 1364SOL     OW 4990   6.545   2.249   1.155
 1364SOL    HW1 4991   6.501   2.336   1.135
 1364SOL    HW2 4992   6.515   2.216   1.245
 1365SOL     OW 4993   0.828   2.561   5.856
 1365SOL    HW1 4994   0.867   2.637   5.804
 1365SOL    HW2 4995   0.739   2.589   5.893
 1366SOL     OW 4996   0.744   4.552   0.032
 1366SOL    HW1 4997   0.694   4.563   0.118
 1366SOL    HW2 4998   0.721   4.627   6.993
 1367SOL     OW 4999   1.423   6.637   2.553
 1367SOL    HW1 5000   1.409   6.539   2.563
 1367SOL    HW2 5001   1.436   6.659   2.456
 1368SOL     OW 5002   6.877   0.605   3.916
 1368SOL    HW1 5003   6.862   0.676   3.847
 1368SOL    HW2 5004   6.885   0.647   4.006
 1369SOL     OW 5005   2.265   0.082   2.278
 1369SOL    HW1 5006   2.169   0.060   2.262
 1369SOL    HW2 5007   2.318   0.059   2.197
 1370SOL     OW 5008   4.169   1.461   2.460
 1370SOL    HW1 5009   4.116   1.457   2.376
 1370SOL    HW2 5010   4.111   1.434   2.537
 1371SOL     OW 5011   6.092   1.592   4.770
 1371SOL    HW1 5012   6.180   1.550   4.748
 1371SOL    HW2 5013   6.022   1.556   4.709
 1372SOL     OW 5014   0.875   2.585   0.522
 1372SOL    HW1 5015   0.779   2.608   0.532
 1372SOL    HW2 5016   0.930   2.642   0.584
 1373SOL     OW 5017   4.361   2.569   6.546
 1373SOL    HW1 5018   4.278   2.608   6.586
 1373SOL    HW2 5019   4.379   2.479   6.587
 1374SOL     OW 5020   4.954   1.766   0.096
 1374SOL    HW1 5021   4.939   1.704   0.018
 1374SOL    HW2 5022   4.875   1.826   0.106
 1375SOL     OW 5023   0.243   5.245   6.626
 1375SOL    HW1 5024   0.225   5.149   6.647
 1375SOL    HW2 5025   0.310   5.251   6.552
 1376SOL     OW 5026   4.629   4.718   5.144
 1376SOL    HW1 5027   4.681   4.756   5.221
 1376SOL    HW2 5028   4.594   4.793   5.088
 1377SOL     OW 5029   0.720   3.118   5.393
 1377SOL    HW1 5030   0.760   3.049   5.453
 1377SOL    HW2 5031   0.725   3.207   5.438
 1378SOL     OW 5032   5.837   1.600   5.152
 1378SOL    HW1 5033   5.831   1.648   5.065
 1378SOL    HW2 5034   5.925   1.553   5.157
 1379SOL     OW 5035   3.865   6.433   3.081
 1379SOL    HW1 5036   3.930   6.505   3.107
 1379SOL    HW2 5037   3.910   6.368   3.021
 1380SOL     OW 5038   0.560   0.042   2.780
 1380SOL    HW1 5039   0.659   0.026   2.778
 1380SOL    HW2 5040   0.524   0.015   2.869
 1381SOL     OW 5041   5.788   1.823   6.798
 1381SOL    HW1 5042   5.704   1.868   6.829
 1381SOL    HW2 5043   5.784   1.812   6.698
 1382SOL     OW 5044   5.006   3.220   0.679
 1382SOL    HW1 5045   5.106   3.210   0.674
 1382SOL    HW2 5046   4.962   3.137   0.645
 1383SOL     OW 5047   0.845   0.163   2.181
 1383SOL    HW1 5048   0.764   0.215   2.209
 1383SOL    HW2 5049   0.857   0.173   2.082
 1384SOL     OW 5050   4.779   0.646   2.128
 1384SOL    HW1 5051   4.838   0.598   2.062
 1384SOL    HW2 5052   4.773   0.742   2.103
 1385SOL     OW 5053   2.326   4.364   3.565
 1385SOL    HW1 5054   2.412   4.414   3.567
 1385SOL    HW2 5055   2.255   4.418   3.610
 1386SOL     OW 5056   2.997   0.485   4.178
 1386SOL    HW1 5057   3.085   0.521   4.148
 1386SOL    HW2 5058   2.957   0.545   4.247
 1387SOL     OW 5059   3.452   6.078   2.967
 1387SOL    HW1 5060   3.454   6.020   3.048
 1387SOL    HW2 5061   3.544   6.086   2.929
 1388SOL     OW 5062   0.572   0.322   3.078
 1388SOL    HW1 5063   0.569   0.324   2.978
 1388SOL    HW2 5064   0.648   0.264   3.108
 1389SOL     OW 5065   6.784   1.452   4.267
 1389SOL    HW1 5066   6.762   1.546   4.243
 1389SOL    HW2 5067   6.709   1.392   4.238
 1390SOL     OW 5068   6.543   3.211   6.114
 1390SOL    HW1 5069   6.554   3.278   6.188
 1390SOL    HW2 5070   6.539   3.259   6.026
 1391SOL     OW 5071   5.758   6.907   5.366
 1391SOL    HW1 5072   5.808   6.855   5.436
 1391SOL    HW2 5073   5.686   6.961   5.409
 1392SOL     OW 5074   5.977   6.784   5.563
 1392SOL    HW1 5075   6.017   6.705   5.609
 1392SOL    HW2 5076   6.041   6.861   5.565
 1393SOL     OW 5077   6.615   4.003   6.323
 1393SOL    HW1 5078   6.524   4.029   6.289
 1393SOL    HW2 5079   6.665   4.084   6.350
 1394SOL     OW 5080   3.251   5.642   5.089
 1394SOL    HW1 5081   3.335   5.694   5.103
 1394SOL    HW2 5082   3.274   5.547   5.066
 1395SOL     OW 5083   1.730   4.161   4.680
 1395SOL    HW1 5084   1.777   4.230   4.624
 1395SOL    HW2 5085   1.777   4.073   4.672
 1396SOL     OW 5086   0.200   0.925   4.964
 1396SOL    HW1 5087   0.237   0.907   5.056
 1396SOL    HW2 5088   0.161   0.841   4.927
 1397SOL     OW 5089   0.294   6.389   4.735
 1397SOL    HW1 5090   0.327   6.444   4.658
 1397SOL    HW2 5091   0.198   6.409   4.752
 1398SOL     OW 5092   2.881   0.819   6.530
 1398SOL    HW1 5093   2.968   0.858   6.564
 1398SOL    HW2 5094   2.814   0.820   6.604
 1399SOL     OW 5095   3.762   5.741   0.476
 1399SOL    HW1 5096   3.675   5.781   0.447
 1399SOL    HW2 5097   3.751   5.642   0.486
 1400SOL     OW 5098   0.367   1.610   4.335
 1400SOL    HW1 5099   0.464   1.629   4.320
 1400SOL    HW2 5100   0.356   1.516   4.367
 1401SOL     OW 5101   5.766   0.461   4.328
 1401SOL    HW1 5102   5.717   0.466   4.415
 1401SOL    HW2 5103   5.798   0.552   4.303
 1402SOL     OW 5104   5.461   4.469   6.116
 1402SOL    HW1 5105   5.438   4.437   6.208
 1402SOL    HW2 5106   5.456   4.569   6.112
 1403SOL     OW 5107   2.066   1.939   0.940
 1403SOL    HW1 5108   1.986   1.960   0.883
 1403SOL    HW2 5109   2.119   2.022   0.955
 1404SOL     OW 5110   6.808   0.657   0.027
 1404SOL    HW1 5111   6.796   0.595   0.104
 1404SOL    HW2 5112   6.793   0.606   6.965
 1405SOL     OW 5113   2.922   3.826   1.171
 1405SOL    HW1 5114   2.938   3.857   1.265
 1405SOL    HW2 5115   2.824   3.813   1.157
 1406SOL     OW 5116   1.532   5.714   1.018
 1406SOL    HW1 5117   1.486   5.702   0.930
 1406SOL    HW2 5118   1.630   5.726   1.003
 1407SOL     OW 5119   0.949   3.976   3.577
 1407SOL    HW1 5120   1.043   3.948   3.559
 1407SOL    HW2 5121   0.909   4.015   3.494
 1408SOL     OW 5122   5.568   0.310   6.527
 1408SOL    HW1 5123   5.566   0.224   6.578
 1408SOL    HW2 5124   5.636   0.304   6.454
 1409SOL     OW 5125   0.485   0.400   5.406
 1409SOL    HW1 5126   0.563   0.357   5.452
 1409SOL    HW2 5127   0.489   0.499   5.419
 1410SOL     OW 5128   1.773   4.332   6.287
 1410SOL    HW1 5129   1.693   4.341   6.346
 1410SOL    HW2 5130   1.810   4.239   6.295
 1411SOL     OW 5131   3.443   6.123   0.365
 1411SOL    HW1 5132   3.518   6.099   0.304
 1411SOL    HW2 5133   3.448   6.220   0.388
 1412SOL     OW 5134   0.702   4.077   1.030
 1412SOL    HW1 5135   0.748   4.008   1.086
 1412SOL    HW2 5136   0.762   4.105   0.955
 1413SOL     OW 5137   2.334   1.122   4.593
 1413SOL    HW1 5138   2.349   1.079   4.504
 1413SOL    HW2 5139   2.277   1.204   4.581
 1414SOL     OW 5140   2.200   1.203   1.862
 1414SOL    HW1 5141   2.230   1.242   1.775
 1414SOL    HW2 5142   2.157   1.275   1.918
 1415SOL     OW 5143   2.931   1.358   3.911
 1415SOL    HW1 5144   2.840   1.399   3.907
 1415SOL    HW2 5145   2.964   1.340   3.818
 1416SOL     OW 5146   4.289   6.689   4.814
 1416SOL    HW1 5147   4.273   6.594   4.789
 1416SOL    HW2 5148   4.340   6.734   4.740
 1417SOL     OW 5149   3.030   2.379   0.032
 1417SOL    HW1 5150   3.010   2.344   6.964
 1417SOL    HW2 5151   3.001   2.312   0.100
 1418SOL     OW 5152   2.837   3.661   1.424
 1418SOL    HW1 5153   2.907   3.615   1.370
 1418SOL    HW2 5154   2.765   3.596   1.447
 1419SOL     OW 5155   3.597   6.385   4.214
 1419SOL    HW1 5156   3.583   6.483   4.220
 1419SOL    HW2 5157   3.639   6.363   4.126
 1420SOL     OW 5158   3.754   5.722   3.081
 1420SOL    HW1 5159   3.814   5.762   3.150
 1420SOL    HW2 5160   3.662   5.759   3.092
 1421SOL     OW 5161   0.879   4.045   4.229
 1421SOL    HW1 5162   0.836   4.122   4.182
 1421SOL    HW2 5163   0.943   4.078   4.298
 1422SOL     OW 5164   2.092   3.949   6.320
 1422SOL    HW1 5165   2.100   3.871   6.382
 1422SOL    HW2 5166   2.172   4.008   6.329
 1423SOL     OW 5167   4.331   0.260   4.481
 1423SOL    HW1 5168   4.277   0.251   4.565
 1423SOL    HW2 5169   4.269   0.261   4.402
 1424SOL     OW 5170   6.635   3.703   6.734
 1424SOL    HW1 5171   6.607   3.720   6.829
 1424SOL    HW2 5172   6.639   3.605   6.717
 1425SOL     OW 5173   1.778   5.537   5.525
 1425SOL    HW1 5174   1.797   5.579   5.436
 1425SOL    HW2 5175   1.811   5.597   5.598
 1426SOL     OW 5176   2.451   2.305   6.499
 1426SOL    HW1 5177   2.528   2.253   6.537
 1426SOL    HW2 5178   2.484   2.393   6.465
 1427SOL     OW 5179   6.912   6.788   4.106
 1427SOL    HW1 5180   6.931   6.738   4.022
 1427SOL    HW2 5181   6.836   6.851   4.091
 1428SOL     OW 5182   0.996   2.323   1.389
 1428SOL    HW1 5183   0.923   2.390   1.382
 1428SOL    HW2 5184   1.007   2.277   1.300
 1429SOL     OW 5185   5.344   1.727   0.257
 1429SOL    HW1 5186   5.324   1.725   0.159
 1429SOL    HW2 5187   5.303   1.647   0.300
 1430SOL     OW 5188   2.203   5.062   3.769
 1430SOL    HW1 5189   2.283   5.078   3.711
 1430SOL    HW2 5190   2.220   4.983   3.828
 1431SOL     OW 5191   2.715   2.272   0.069
 1431SOL    HW1 5192   2.705   2.243   0.164
 1431SOL    HW2 5193   2.744   2.368   0.068
 1432SOL     OW 5194   2.882   1.421   1.208
 1432SOL    HW1 5195   2.977   1.428   1.238
 1432SOL    HW2 5196   2.878   1.419   1.108
 1433SOL     OW 5197   5.108   0.786   5.574
 1433SOL    HW1 5198   5.184   0.801   5.637
 1433SOL    HW2 5199   5.104   0.861   5.507
 1434SOL     OW 5200   0.665   0.746   6.616
 1434SOL    HW1 5201   0.754   0.723   6.657
 1434SOL    HW2 5202   0.643   0.678   6.546
 1435SOL     OW 5203   6.590   6.964   3.219
 1435SOL    HW1 5204   6.518   0.009   3.238
 1435SOL    HW2 5205   6.679   7.010   3.220
 1436SOL     OW 5206   5.518   4.088   6.843
 1436SOL    HW1 5207   5.513   4.127   6.935
 1436SOL    HW2 5208   5.613   4.088   6.812
 1437SOL     OW 5209   3.594   1.652   6.097
 1437SOL    HW1 5210   3.538   1.683   6.174
 1437SOL    HW2 5211   3.639   1.731   6.056
 1438SOL     OW 5212   2.303   0.121   1.583
 1438SOL    HW1 5213   2.382   0.173   1.552
 1438SOL    HW2 5214   2.229   0.184   1.608
 1439SOL     OW 5215   6.965   4.700   0.666
 1439SOL    HW1 5216   7.005   4.764   0.732
 1439SOL    HW2 5217   6.896   4.748   0.612
 1440SOL     OW 5218   3.464   2.913   6.110
 1440SOL    HW1 5219   3.376   2.955   6.130
 1440SOL    HW2 5220   3.518   2.973   6.052
 1441SOL     OW 5221   6.092   2.883   3.767
 1441SOL    HW1 5222   6.166   2.842   3.820
 1441SOL    HW2 5223   6.130   2.948   3.701
 1442SOL     OW 5224   6.167   5.306   6.931
 1442SOL    HW1 5225   6.078   5.262   6.947
 1442SOL    HW2 5226   6.215   5.259   6.857
 1443SOL     OW 5227   0.413   2.852   4.462
 1443SOL    HW1 5228   0.436   2.913   4.385
 1443SOL    HW2 5229   0.314   2.845   4.470
 1444SOL     OW 5230   3.814   5.997   0.984
 1444SOL    HW1 5231   3.896   5.942   0.967
 1444SOL    HW2 5232   3.794   6.053   0.904
 1445SOL     OW 5233   0.324   2.622   1.826
 1445SOL    HW1 5234   0.245   2.666   1.868
 1445SOL    HW2 5235   0.397   2.689   1.814
 1446SOL     OW 5236   4.701   2.381   6.866
 1446SOL    HW1 5237   4.721   2.434   6.949
 1446SOL    HW2 5238   4.712   2.284   6.886
 1447SOL     OW 5239   6.167   6.778   5.921
 1447SOL    HW1 5240   6.191   6.784   6.018
 1447SOL    HW2 5241   6.173   6.682   5.892
 1448SOL     OW 5242   6.499   2.863   7.012
 1448SOL    HW1 5243   6.562   2.786   7.020
 1448SOL    HW2 5244   6.428   2.841   6.944
 1449SOL     OW 5245   0.151   1.297   0.049
 1449SOL    HW1 5246   0.077   1.234   0.025
 1449SOL    HW2 5247   0.162   1.299   0.148
 1450SOL     OW 5248   0.669   2.208   1.676
 1450SOL    HW1 5249   0.585   2.257   1.654
 1450SOL    HW2 5250   0.697   2.229   1.770
 1451SOL     OW 5251   2.396   0.519   2.519
 1451SOL    HW1 5252   2.347   0.469   2.446
 1451SOL    HW2 5253   2.490   0.485   2.525
 1452SOL     OW 5254   4.005   1.103   4.584
 1452SOL    HW1 5255   3.991   1.159   4.503
 1452SOL    HW2 5256   4.101   1.078   4.593
 1453SOL     OW 5257   6.997   3.969   5.272
 1453SOL    HW1 5258   0.068   3.938   5.258
 1453SOL    HW2 5259   6.935   3.891   5.260
 1454SOL     OW 5260   6.401   2.748   2.599
 1454SOL    HW1 5261   6.492   2.790   2.593
 1454SOL    HW2 5262   6.409   2.653   2.628
 1455SOL     OW 5263   1.337   0.043   1.749
 1455SOL    HW1 5264   1.301   6.975   1.767
 1455SOL    HW2 5265   1.379   0.046   1.658
 1456SOL     OW 5266   6.285   6.918   5.232
 1456SOL    HW1 5267   6.210   6.962   5.281
 1456SOL    HW2 5268   6.372   6.949   5.268
 1457SOL     OW 5269   1.263   6.776   1.276
 1457SOL    HW1 5270   1.240   6.684   1.306
 1457SOL    HW2 5271   1.357   6.776   1.241
 1458SOL     OW 5272   5.700   5.798   3.379
 1458SOL    HW1 5273   5.706   5.770   3.283
 1458SOL    HW2 5274   5.785   5.842   3.407
 1459SOL     OW 5275   2.884   5.097   5.676
 1459SOL    HW1 5276   2.898   4.998   5.679
 1459SOL    HW2 5277   2.795   5.116   5.635
 1460SOL     OW 5278   0.334   5.410   5.830
 1460SOL    HW1 5279   0.291   5.494   5.864
 1460SOL    HW2 5280   0.264   5.350   5.791
 1461SOL     OW 5281   0.284   4.909   3.643
 1461SOL    HW1 5282   0.265   4.851   3.722
 1461SOL    HW2 5283   0.370   4.957   3.657
 1462SOL     OW 5284   1.235   0.819   6.265
 1462SOL    HW1 5285   1.321   0.868   6.251
 1462SOL    HW2 5286   1.206   0.827   6.360
 1463SOL     OW 5287   0.206   5.477   6.759
 1463SOL    HW1 5288   0.225   5.389   6.717
 1463SOL    HW2 5289   0.107   5.487   6.774
 1464SOL     OW 5290   5.723   0.003   0.661
 1464SOL    HW1 5291   5.661   0.077   0.633
 1464SOL    HW2 5292   5.722   7.019   0.761
 1465SOL     OW 5293   1.633   1.406   3.553
 1465SOL    HW1 5294   1.584   1.429   3.638
 1465SOL    HW2 5295   1.728   1.382   3.575
 1466SOL     OW 5296   1.089   1.431   2.176
 1466SOL    HW1 5297   1.099   1.372   2.096
 1466SOL    HW2 5298   1.178   1.445   2.219
 1467SOL     OW 5299   2.213   2.267   1.828
 1467SOL    HW1 5300   2.297   2.319   1.845
 1467SOL    HW2 5301   2.232   2.169   1.837
 1468SOL     OW 5302   5.359   5.740   2.881
 1468SOL    HW1 5303   5.411   5.824   2.864
 1468SOL    HW2 5304   5.365   5.681   2.800
 1469SOL     OW 5305   0.769   0.922   2.342
 1469SOL    HW1 5306   0.732   1.000   2.393
 1469SOL    HW2 5307   0.861   0.901   2.376
 1470SOL     OW 5308   1.480   1.554   2.479
 1470SOL    HW1 5309   1.557   1.499   2.511
 1470SOL    HW2 5310   1.418   1.572   2.555
 1471SOL     OW 5311   0.953   0.369   0.276
 1471SOL    HW1 5312   0.991   0.392   0.365
 1471SOL    HW2 5313   0.941   0.453   0.222
 1472SOL     OW 5314   4.104   6.197   5.175
 1472SOL    HW1 5315   4.049   6.155   5.247
 1472SOL    HW2 5316   4.183   6.243   5.216
 1473SOL     OW 5317   5.814   6.208   4.086
 1473SOL    HW1 5318   5.812   6.199   4.186
 1473SOL    HW2 5319   5.731   6.167   4.048
 1474SOL     OW 5320   5.597   5.432   3.042
 1474SOL    HW1 5321   5.666   5.392   3.102
 1474SOL    HW2 5322   5.612   5.399   2.948
 1475SOL     OW 5323   6.359   0.156   1.930
 1475SOL    HW1 5324   6.270   0.145   1.974
 1475SOL    HW2 5325   6.416   0.216   1.985
 1476SOL     OW 5326   2.256   1.014   1.374
 1476SOL    HW1 5327   2.170   1.064   1.371
 1476SOL    HW2 5328   2.293   1.006   1.281
 1477SOL     OW 5329   3.699   0.617   6.590
 1477SOL    HW1 5330   3.726   0.713   6.584
 1477SOL    HW2 5331   3.767   0.566   6.643
 1478SOL     OW 5332   5.934   5.518   0.269
 1478SOL    HW1 5333   5.935   5.547   0.174
 1478SOL    HW2 5334   5.840   5.517   0.303
 1479SOL     OW 5335   1.695   3.247   0.284
 1479SOL    HW1 5336   1.651   3.224   0.371
 1479SOL    HW2 5337   1.656   3.331   0.248
 1480SOL     OW 5338   3.791   0.127   6.007
 1480SOL    HW1 5339   3.732   0.194   6.052
 1480SOL    HW2 5340   3.882   0.128   6.050
 1481SOL     OW 5341   6.834   3.085   5.226
 1481SOL    HW1 5342   6.803   2.999   5.267
 1481SOL    HW2 5343   6.770   3.158   5.250
 1482SOL     OW 5344   4.634   2.508   1.603
 1482SOL    HW1 5345   4.695   2.432   1.579
 1482SOL    HW2 5346   4.687   2.592   1.609
 1483SOL     OW 5347   5.587   1.917   6.346
 1483SOL    HW1 5348   5.573   1.980   6.422
 1483SOL    HW2 5349   5.579   1.968   6.259
 1484SOL     OW 5350   5.897   4.763   3.663
 1484SOL    HW1 5351   5.804   4.799   3.666
 1484SOL    HW2 5352   5.955   4.823   3.607
 1485SOL     OW 5353   3.279   1.791   3.050
 1485SOL    HW1 5354   3.284   1.799   2.950
 1485SOL    HW2 5355   3.330   1.866   3.092
 1486SOL     OW 5356   4.857   2.029   3.110
 1486SOL    HW1 5357   4.854   2.127   3.089
 1486SOL    HW2 5358   4.802   1.979   3.044
 1487SOL     OW 5359   6.555   2.768   6.588
 1487SOL    HW1 5360   6.651   2.744   6.601
 1487SOL    HW2 5361   6.548   2.858   6.545
 1488SOL     OW 5362   5.248   1.597   3.694
 1488SOL    HW1 5363   5.331   1.609   3.748
 1488SOL    HW2 5364   5.238   1.675   3.631
 1489SOL     OW 5365   3.623   5.504   4.302
 1489SOL    HW1 5366   3.661   5.576   4.360
 1489SOL    HW2 5367   3.641   5.415   4.345
 1490SOL     OW 5368   1.297   3.082   1.408
 1490SOL    HW1 5369   1.235   3.113   1.479
 1490SOL    HW2 5370   1.269   3.121   1.320
 1491SOL     OW 5371   6.587   3.830   3.824
 1491SOL    HW1 5372   6.638   3.817   3.909
 1491SOL    HW2 5373   6.589   3.746   3.771
 1492SOL     OW 5374   5.551   0.970   2.109
 1492SOL    HW1 5375   5.493   0.932   2.181
 1492SOL    HW2 5376   5.603   1.047   2.146
 1493SOL     OW 5377   4.437   6.997   4.727
 1493SOL    HW1 5378   4.349   6.967   4.762
 1493SOL    HW2 5379   4.455   0.068   4.756
 1494SOL     OW 5380   6.042   1.953   5.955
 1494SOL    HW1 5381   6.110   1.941   6.027
 1494SOL    HW2 5382   5.990   1.868   5.943
 1495SOL     OW 5383   6.546   2.645   5.020
 1495SOL    HW1 5384   6.558   2.605   5.110
 1495SOL    HW2 5385   6.486   2.586   4.965
 1496SOL     OW 5386   0.626   1.536   1.455
 1496SOL    HW1 5387   0.711   1.513   1.502
 1496SOL    HW2 5388   0.575   1.604   1.507
 1497SOL     OW 5389   6.693   2.986   3.103
 1497SOL    HW1 5390   6.759   3.052   3.138
 1497SOL    HW2 5391   6.739   2.899   3.084
 1498SOL     OW 5392   1.784   5.037   5.828
 1498SOL    HW1 5393   1.804   4.947   5.790
 1498SOL    HW2 5394   1.862   5.069   5.881
 1499SOL     OW 5395   1.262   3.432   6.409
 1499SOL    HW1 5396   1.307   3.434   6.320
 1499SOL    HW2 5397   1.165   3.456   6.398
 1500SOL     OW 5398   6.722   6.025   0.138
 1500SOL    HW1 5399   6.682   5.988   0.054
 1500SOL    HW2 5400   6.786   6.098   0.116
 1501SOL     OW 5401   5.994   1.845   6.262
 1501SOL    HW1 5402   6.077   1.852   6.206
 1501SOL    HW2 5403   5.988   1.924   6.323
 1502SOL     OW 5404   5.362   0.836   1.069
 1502SOL    HW1 5405   5.349   0.764   1.001
 1502SOL    HW2 5406   5.292   0.829   1.139
 1503SOL     OW 5407   1.833   2.519   1.788
 1503SOL    HW1 5408   1.927   2.487   1.775
 1503SOL    HW2 5409   1.833   2.619   1.798
 1504SOL     OW 5410   0.349   0.219   5.602
 1504SOL    HW1 5411   0.363   0.297   5.541
 1504SOL    HW2 5412   0.265   0.172   5.577
 1505SOL     OW 5413   6.047   0.892   5.727
 1505SOL    HW1 5414   6.083   0.848   5.645
 1505SOL    HW2 5415   5.972   0.953   5.702
 1506SOL     OW 5416   1.906   5.487   1.162
 1506SOL    HW1 5417   1.822   5.445   1.129
 1506SOL    HW2 5418   1.898   5.508   1.259
 1507SOL     OW 5419   0.722   1.756   5.682
 1507SOL    HW1 5420   0.626   1.771   5.705
 1507SOL    HW2 5421   0.728   1.695   5.603
 1508SOL     OW 5422   6.735   0.659   2.167
 1508SOL    HW1 5423   6.693   0.585   2.220
 1508SOL    HW2 5424   6.823   0.628   2.130
 1509SOL     OW 5425   4.454   2.621   5.774
 1509SOL    HW1 5426   4.516   2.681   5.825
 1509SOL    HW2 5427   4.361   2.657   5.781
 1510SOL     OW 5428   4.997   2.840   4.864
 1510SOL    HW1 5429   4.911   2.843   4.814
 1510SOL    HW2 5430   5.069   2.884   4.810
 1511SOL     OW 5431   3.127   2.998   1.727
 1511SOL    HW1 5432   3.112   3.047   1.813
 1511SOL    HW2 5433   3.202   2.933   1.739
 1512SOL     OW 5434   0.741   4.873   1.473
 1512SOL    HW1 5435   0.810   4.812   1.511
 1512SOL    HW2 5436   0.683   4.907   1.547
 1513SOL     OW 5437   3.189   0.384   3.580
 1513SOL    HW1 5438   3.165   0.481   3.589
 1513SOL    HW2 5439   3.288   0.374   3.584
 1514SOL     OW 5440   4.333   2.119   5.971
 1514SOL    HW1 5441   4.245   2.072   5.962
 1514SOL    HW2 5442   4.349   2.142   6.067
 1515SOL     OW 5443   5.912   2.446   4.599
 1515SOL    HW1 5444   5.951   2.446   4.507
 1515SOL    HW2 5445   5.985   2.431   4.666
 1516SOL     OW 5446   6.883   0.233   0.430
 1516SOL    HW1 5447   6.785   0.223   0.414
 1516SOL    HW2 5448   6.933   0.161   0.381
 1517SOL     OW 5449   4.462   6.313   3.897
 1517SOL    HW1 5450   4.438   6.368   3.817
 1517SOL    HW2 5451   4.515   6.233   3.868
 1518SOL     OW 5452   1.059   3.339   6.983
 1518SOL    HW1 5453   0.970   3.386   6.984
 1518SOL    HW2 5454   1.113   3.369   0.039
 1519SOL     OW 5455   6.171   4.681   2.122
 1519SOL    HW1 5456   6.174   4.592   2.077
 1519SOL    HW2 5457   6.242   4.685   2.192
 1520SOL     OW 5458   0.650   3.937   2.577
 1520SOL    HW1 5459   0.696   3.907   2.493
 1520SOL    HW2 5460   0.586   4.011   2.555
 1521SOL     OW 5461   1.945   4.194   0.366
 1521SOL    HW1 5462   1.993   4.280   0.382
 1521SOL    HW2 5463   1.902   4.196   0.276
 1522SOL     OW 5464   6.343   6.777   5.023
 1522SOL    HW1 5465   6.353   6.845   5.095
 1522SOL    HW2 5466   6.286   6.701   5.056
 1523SOL     OW 5467   5.185   4.704   6.823
 1523SOL    HW1 5468   5.232   4.774   6.877
 1523SOL    HW2 5469   5.114   4.661   6.879
 1524SOL     OW 5470   1.465   2.465   2.184
 1524SOL    HW1 5471   1.545   2.427   2.136
 1524SOL    HW2 5472   1.382   2.438   2.136
 1525SOL     OW 5473   6.632   2.477   0.374
 1525SOL    HW1 5474   6.608   2.551   0.437
 1525SOL    HW2 5475   6.638   2.391   0.424
 1526SOL     OW 5476   0.411   6.702   0.106
 1526SOL    HW1 5477   0.351   6.629   0.073
 1526SOL    HW2 5478   0.383   6.789   0.066
 1527SOL     OW 5479   3.729   1.073   5.520
 1527SOL    HW1 5480   3.653   1.135   5.500
 1527SOL    HW2 5481   3.815   1.117   5.493
 1528SOL     OW 5482   4.895   5.924   2.397
 1528SOL    HW1 5483   4.979   5.978   2.392
 1528SOL    HW2 5484   4.889   5.865   2.317
 1529SOL     OW 5485   3.713   0.423   0.750
 1529SOL    HW1 5486   3.751   0.359   0.684
 1529SOL    HW2 5487   3.740   0.396   0.842
 1530SOL     OW 5488   3.368   1.279   2.296
 1530SOL    HW1 5489   3.441   1.318   2.239
 1530SOL    HW2 5490   3.408   1.215   2.362
 1531SOL     OW 5491   4.946   1.160   4.796
 1531SOL    HW1 5492   4.976   1.180   4.703
 1531SOL    HW2 5493   4.954   1.243   4.852
 1532SOL     OW 5494   2.896   3.754   6.011
 1532SOL    HW1 5495   2.975   3.816   6.015
 1532SOL    HW2 5496   2.814   3.807   5.991
 1533SOL     OW 5497   6.618   3.238   0.061
 1533SOL    HW1 5498   6.603   3.312   0.126
 1533SOL    HW2 5499   6.565   3.158   0.088
 1534SOL     OW 5500   1.765   4.925   6.153
 1534SOL    HW1 5501   1.786   4.839   6.107
 1534SOL    HW2 5502   1.836   4.993   6.132
 1535SOL     OW 5503   4.926   6.470   4.167
 1535SOL    HW1 5504   4.983   6.531   4.111
 1535SOL    HW2 5505   4.970   6.457   4.256
 1536SOL     OW 5506   4.347   4.287   5.423
 1536SOL    HW1 5507   4.441   4.282   5.458
 1536SOL    HW2 5508   4.348   4.320   5.329
 1537SOL     OW 5509   4.022   6.281   3.851
 1537SOL    HW1 5510   4.017   6.375   3.817
 1537SOL    HW2 5511   4.098   6.273   3.916
 1538SOL     OW 5512   4.100   6.385   5.460
 1538SOL    HW1 5513   4.125   6.480   5.477
 1538SOL    HW2 5514   4.004   6.370   5.484
 1539SOL     OW 5515   4.250   3.657   1.696
 1539SOL    HW1 5516   4.347   3.674   1.682
 1539SOL    HW2 5517   4.223   3.688   1.787
 1540SOL     OW 5518   1.768   5.945   6.360
 1540SOL    HW1 5519   1.864   5.971   6.370
 1540SOL    HW2 5520   1.756   5.850   6.389
 1541SOL     OW 5521   3.775   2.898   2.410
 1541SOL    HW1 5522   3.846   2.944   2.464
 1541SOL    HW2 5523   3.695   2.881   2.468
 1542SOL     OW 5524   6.510   5.856   2.069
 1542SOL    HW1 5525   6.506   5.864   1.969
 1542SOL    HW2 5526   6.579   5.919   2.105
 1543SOL     OW 5527   3.634   4.220   4.906
 1543SOL    HW1 5528   3.646   4.316   4.931
 1543SOL    HW2 5529   3.594   4.213   4.814
 1544SOL     OW 5530   3.217   3.698   2.913
 1544SOL    HW1 5531   3.210   3.792   2.879
 1544SOL    HW2 5532   3.152   3.684   2.988
 1545SOL     OW 5533   5.350   1.000   3.941
 1545SOL    HW1 5534   5.293   0.998   4.023
 1545SOL    HW2 5535   5.430   1.058   3.958
 1546SOL     OW 5536   4.417   6.670   5.996
 1546SOL    HW1 5537   4.455   6.759   6.019
 1546SOL    HW2 5538   4.317   6.676   5.995
 1547SOL     OW 5539   1.544   3.278   3.156
 1547SOL    HW1 5540   1.627   3.289   3.100
 1547SOL    HW2 5541   1.550   3.337   3.236
 1548SOL     OW 5542   4.586   4.195   5.791
 1548SOL    HW1 5543   4.666   4.139   5.815
 1548SOL    HW2 5544   4.556   4.246   5.872
 1549SOL     OW 5545   3.932   0.998   3.178
 1549SOL    HW1 5546   3.977   1.050   3.105
 1549SOL    HW2 5547   3.975   1.020   3.266
 1550SOL     OW 5548   2.295   5.065   6.194
 1550SOL    HW1 5549   2.358   4.991   6.170
 1550SOL    HW2 5550   2.344   5.137   6.243
 1551SOL     OW 5551   2.198   4.050   6.691
 1551SOL    HW1 5552   2.148   4.004   6.765
 1551SOL    HW2 5553   2.296   4.048   6.711
 1552SOL     OW 5554   0.112   0.099   0.796
 1552SOL    HW1 5555   0.210   0.103   0.811
 1552SOL    HW2 5556   0.088   0.151   0.714
 1553SOL     OW 5557   0.235   0.966   5.760
 1553SOL    HW1 5558   0.149   0.962   5.711
 1553SOL    HW2 5559   0.292   0.888   5.734
 1554SOL     OW 5560   3.735   1.655   3.419
 1554SOL    HW1 5561   3.751   1.588   3.491
 1554SOL    HW2 5562   3.715   1.744   3.459
 1555SOL     OW 5563   4.999   1.703   0.381
 1555SOL    HW1 5564   4.964   1.638   0.448
 1555SOL    HW2 5565   5.005   1.658   0.291
 1556SOL     OW 5566   3.283   1.210   0.473
 1556SOL    HW1 5567   3.200   1.227   0.525
 1556SOL    HW2 5568   3.261   1.196   0.377
 1557SOL     OW 5569   2.245   1.203   6.167
 1557SOL    HW1 5570   2.207   1.295   6.174
 1557SOL    HW2 5571   2.210   1.147   6.242
 1558SOL     OW 5572   5.267   1.397   4.092
 1558SOL    HW1 5573   5.170   1.377   4.102
 1558SOL    HW2 5574   5.310   1.402   4.183
 1559SOL     OW 5575   0.042   2.432   0.192
 1559SOL    HW1 5576   6.977   2.464   0.158
 1559SOL    HW2 5577   0.112   2.500   0.172
 1560SOL     OW 5578   2.838   1.810   6.089
 1560SOL    HW1 5579   2.809   1.831   5.996
 1560SOL    HW2 5580   2.805   1.719   6.115
 1561SOL     OW 5581   0.218   6.130   2.465
 1561SOL    HW1 5582   0.238   6.224   2.437
 1561SOL    HW2 5583   0.304   6.083   2.486
 1562SOL     OW 5584   4.090   6.055   1.418
 1562SOL    HW1 5585   4.008   6.053   1.361
 1562SOL    HW2 5586   4.063   6.057   1.514
 1563SOL     OW 5587   2.404   0.795   6.047
 1563SOL    HW1 5588   2.343   0.838   5.980
 1563SOL    HW2 5589   2.355   0.778   6.132
 1564SOL     OW 5590   0.977   2.631   2.568
 1564SOL    HW1 5591   1.019   2.638   2.658
 1564SOL    HW2 5592   0.887   2.674   2.569
 1565SOL     OW 5593   4.327   5.243   4.104
 1565SOL    HW1 5594   4.336   5.340   4.080
 1565SOL    HW2 5595   4.238   5.227   4.145
 1566SOL     OW 5596   5.591   5.032   4.136
 1566SOL    HW1 5597   5.512   5.029   4.198
 1566SOL    HW2 5598   5.594   5.121   4.091
 1567SOL     OW 5599   6.387   5.999   0.106
 1567SOL    HW1 5600   6.450   6.031   0.035
 1567SOL    HW2 5601   6.359   5.905   0.087
 1568SOL     OW 5602   2.383   5.719   1.262
 1568SOL    HW1 5603   2.442   5.725   1.181
 1568SOL    HW2 5604   2.307   5.657   1.243
 1569SOL     OW 5605   2.861   6.790   3.775
 1569SOL    HW1 5606   2.875   6.695   3.746
 1569SOL    HW2 5607   2.836   6.845   3.696
 1570SOL     OW 5608   2.237   6.558   0.647
 1570SOL    HW1 5609   2.320   6.510   0.619
 1570SOL    HW2 5610   2.191   6.594   0.565
 1571SOL     OW 5611   6.157   1.342   2.733
 1571SOL    HW1 5612   6.165   1.354   2.634
 1571SOL    HW2 5613   6.234   1.388   2.778
 1572SOL     OW 5614   1.487   5.789   0.685
 1572SOL    HW1 5615   1.478   5.866   0.748
 1572SOL    HW2 5616   1.466   5.819   0.592
 1573SOL     OW 5617   6.281   3.460   1.989
 1573SOL    HW1 5618   6.186   3.487   1.973
 1573SOL    HW2 5619   6.312   3.495   2.077
 1574SOL     OW 5620   6.778   0.967   3.315
 1574SOL    HW1 5621   6.812   0.971   3.221
 1574SOL    HW2 5622   6.698   1.027   3.324
 1575SOL     OW 5623   2.233   2.491   1.275
 1575SOL    HW1 5624   2.201   2.555   1.346
 1575SOL    HW2 5625   2.274   2.411   1.319
 1576SOL     OW 5626   0.831   0.737   2.795
 1576SOL    HW1 5627   0.830   0.713   2.892
 1576SOL    HW2 5628   0.863   0.659   2.741
 1577SOL     OW 5629   2.517   0.651   5.816
 1577SOL    HW1 5630   2.464   0.603   5.886
 1577SOL    HW2 5631   2.523   0.748   5.841
 1578SOL     OW 5632   5.433   2.505   5.915
 1578SOL    HW1 5633   5.468   2.592   5.949
 1578SOL    HW2 5634   5.334   2.501   5.927
 1579SOL     OW 5635   0.307   1.801   2.198
 1579SOL    HW1 5636   0.361   1.873   2.241
 1579SOL    HW2 5637   0.265   1.745   2.270
 1580SOL     OW 5638   3.622   4.190   4.214
 1580SOL    HW1 5639   3.639   4.099   4.252
 1580SOL    HW2 5640   3.709   4.239   4.206
 1581SOL     OW 5641   6.429   4.406   4.982
 1581SOL    HW1 5642   6.503   4.341   4.999
 1581SOL    HW2 5643   6.445   4.452   4.895
 1582SOL     OW 5644   2.340   6.975   4.003
 1582SOL    HW1 5645   2.336   0.030   3.941
 1582SOL    HW2 5646   2.430   6.972   4.047
 1583SOL     OW 5647   0.961   5.262   2.583
 1583SOL    HW1 5648   0.960   5.289   2.487
 1583SOL    HW2 5649   1.043   5.299   2.628
 1584SOL     OW 5650   0.593   6.037   6.487
 1584SOL    HW1 5651   0.681   6.079   6.507
 1584SOL    HW2 5652   0.587   6.017   6.389
 1585SOL     OW 5653   4.460   2.010   3.604
 1585SOL    HW1 5654   4.375   1.958   3.603
 1585SOL    HW2 5655   4.537   1.950   3.582
 1586SOL     OW 5656   3.399   4.844   1.777
 1586SOL    HW1 5657   3.455   4.771   1.816
 1586SOL    HW2 5658   3.392   4.920   1.841
 1587SOL     OW 5659   2.729   6.099   6.051
 1587SOL    HW1 5660   2.770   6.151   5.976
 1587SOL    HW2 5661   2.791   6.026   6.080
 1588SOL     OW 5662   3.628   1.209   2.892
 1588SOL    HW1 5663   3.561   1.282   2.900
 1588SOL    HW2 5664   3.719   1.244   2.914
 1589SOL     OW 5665   6.977   3.260   2.024
 1589SOL    HW1 5666   7.015   3.316   1.951
 1589SOL    HW2 5667   6.976   3.164   1.996
 1590SOL     OW 5668   4.006   0.790   4.808
 1590SOL    HW1 5669   4.067   0.751   4.739
 1590SOL    HW2 5670   4.060   0.822   4.886
 1591SOL     OW 5671   0.050   5.528   1.630
 1591SOL    HW1 5672   7.021   5.461   1.575
 1591SOL    HW2 5673   0.121   5.569   1.573
 1592SOL     OW 5674   1.824   3.727   6.967
 1592SOL    HW1 5675   1.795   3.683   6.882
 1592SOL    HW2 5676   1.753   3.789   6.999
 1593SOL     OW 5677   1.204   6.291   5.484
 1593SOL    HW1 5678   1.137   6.224   5.515
 1593SOL    HW2 5679   1.219   6.280   5.385
 1594SOL     OW 5680   0.721   6.402   1.559
 1594SOL    HW1 5681   0.685   6.392   1.466
 1594SOL    HW2 5682   0.710   6.316   1.609
 1595SOL     OW 5683   2.029   4.923   0.259
 1595SOL    HW1 5684   2.070   4.987   0.193
 1595SOL    HW2 5685   1.994   4.973   0.338
 1596SOL     OW 5686   0.168   2.173   3.922
 1596SOL    HW1 5687   0.226   2.251   3.900
 1596SOL    HW2 5688   0.138   2.129   3.837
 1597SOL     OW 5689   1.437   6.526   0.288
 1597SOL    HW1 5690   1.404   6.513   0.382
 1597SOL    HW2 5691   1.368   6.493   0.224
 1598SOL     OW 5692   6.979   4.548   5.824
 1598SOL    HW1 5693   0.045   4.520   5.859
 1598SOL    HW2 5694   6.970   4.648   5.830
 1599SOL     OW 5695   4.442   5.298   4.756
 1599SOL    HW1 5696   4.356   5.275   4.802
 1599SOL    HW2 5697   4.501   5.217   4.754
 1600SOL     OW 5698   3.558   1.366   3.195
 1600SOL    HW1 5699   3.511   1.310   3.263
 1600SOL    HW2 5700   3.513   1.456   3.190
 1601SOL     OW 5701   6.785   5.750   4.609
 1601SOL    HW1 5702   6.823   5.834   4.648
 1601SOL    HW2 5703   6.689   5.765   4.585
 1602SOL     OW 5704   4.186   5.813   4.332
 1602SOL    HW1 5705   4.091   5.782   4.328
 1602SOL    HW2 5706   4.247   5.733   4.338
 1603SOL     OW 5707   1.640   5.992   3.501
 1603SOL    HW1 5708   1.726   5.944   3.481
 1603SOL    HW2 5709   1.592   5.944   3.574
 1604SOL     OW 5710   5.569   4.195   1.216
 1604SOL    HW1 5711   5.489   4.135   1.225
 1604SOL    HW2 5712   5.549   4.268   1.150
 1605SOL     OW 5713   6.715   5.169   1.442
 1605SOL    HW1 5714   6.619   5.163   1.414
 1605SOL    HW2 5715   6.763   5.086   1.413
 1606SOL     OW 5716   4.048   0.251   5.565
 1606SOL    HW1 5717   4.146   0.270   5.572
 1606SOL    HW2 5718   4.032   0.185   5.492
 1607SOL     OW 5719   4.292   1.505   1.034
 1607SOL    HW1 5720   4.198   1.514   1.065
 1607SOL    HW2 5721   4.299   1.535   0.939
 1608SOL     OW 5722   0.761   1.251   3.567
 1608SOL    HW1 5723   0.733   1.205   3.650
 1608SOL    HW2 5724   0.798   1.184   3.502
 1609SOL     OW 5725   4.079   0.066   0.288
 1609SOL    HW1 5726   4.034   0.119   0.217
 1609SOL    HW2 5727   4.082   0.121   0.372
 1610SOL     OW 5728   6.233   4.655   6.517
 1610SOL    HW1 5729   6.145   4.670   6.473
 1610SOL    HW2 5730   6.223   4.589   6.590
 1611SOL     OW 5731   2.789   4.072   0.802
 1611SOL    HW1 5732   2.787   4.084   0.702
 1611SOL    HW2 5733   2.791   3.975   0.824
 1612SOL     OW 5734   2.762   0.106   6.850
 1612SOL    HW1 5735   2.795   0.178   6.789
 1612SOL    HW2 5736   2.836   0.040   6.866
 1613SOL     OW 5737   1.155   5.823   2.166
 1613SOL    HW1 5738   1.111   5.766   2.097
 1613SOL    HW2 5739   1.184   5.910   2.125
 1614SOL     OW 5740   5.205   3.149   6.869
 1614SOL    HW1 5741   5.263   3.201   6.931
 1614SOL    HW2 5742   5.183   3.205   6.789
 1615SOL     OW 5743   6.067   5.631   0.678
 1615SOL    HW1 5744   6.072   5.542   0.724
 1615SOL    HW2 5745   6.105   5.622   0.586
 1616SOL     OW 5746   3.243   1.305   5.366
 1616SOL    HW1 5747   3.264   1.359   5.285
 1616SOL    HW2 5748   3.195   1.362   5.433
 1617SOL     OW 5749   5.603   6.482   2.614
 1617SOL    HW1 5750   5.617   6.488   2.713
 1617SOL    HW2 5751   5.672   6.537   2.567
 1618SOL     OW 5752   1.451   5.448   2.305
 1618SOL    HW1 5753   1.422   5.530   2.355
 1618SOL    HW2 5754   1.506   5.475   2.226
 1619SOL     OW 5755   0.871   4.044   1.666
 1619SOL    HW1 5756   0.963   4.074   1.641
 1619SOL    HW2 5757   0.863   3.946   1.651
 1620SOL     OW 5758   2.851   4.739   1.723
 1620SOL    HW1 5759   2.827   4.829   1.761
 1620SOL    HW2 5760   2.846   4.670   1.794
 1621SOL     OW 5761   6.844   1.104   0.817
 1621SOL    HW1 5762   6.944   1.109   0.810
 1621SOL    HW2 5763   6.817   1.115   0.913
 1622SOL     OW 5764   0.431   2.936   4.714
 1622SOL    HW1 5765   0.433   2.929   4.614
 1622SOL    HW2 5766   0.356   2.882   4.750
 1623SOL     OW 5767   2.221   3.020   4.801
 1623SOL    HW1 5768   2.166   2.942   4.770
 1623SOL    HW2 5769   2.264   2.998   4.888
 1624SOL     OW 5770   2.937   1.321   5.193
 1624SOL    HW1 5771   2.841   1.344   5.183
 1624SOL    HW2 5772   2.971   1.357   5.281
 1625SOL     OW 5773   1.493   4.755   0.025
 1625SOL    HW1 5774   1.520   4.686   6.981
 1625SOL    HW2 5775   1.552   4.835   0.017
 1626SOL     OW 5776   4.413   1.411   6.732
 1626SOL    HW1 5777   4.498   1.359   6.723
 1626SOL    HW2 5778   4.343   1.354   6.777
 1627SOL     OW 5779   6.435   3.231   3.345
 1627SOL    HW1 5780   6.522   3.272   3.320
 1627SOL    HW2 5781   6.431   3.218   3.444
 1628SOL     OW 5782   4.997   4.518   6.958
 1628SOL    HW1 5783   5.077   4.458   6.961
 1628SOL    HW2 5784   4.955   4.513   6.867
 1629SOL     OW 5785   3.159   0.735   3.900
 1629SOL    HW1 5786   3.175   0.832   3.880
 1629SOL    HW2 5787   3.177   0.718   3.997
 1630SOL     OW 5788   1.464   4.714   5.719
 1630SOL    HW1 5789   1.389   4.770   5.684
 1630SOL    HW2 5790   1.453   4.620   5.687
 1631SOL     OW 5791   1.184   2.863   0.225
 1631SOL    HW1 5792   1.238   2.900   0.149
 1631SOL    HW2 5793   1.240   2.798   0.276
 1632SOL     OW 5794   6.021   2.522   0.472
 1632SOL    HW1 5795   6.059   2.495   0.561
 1632SOL    HW2 5796   6.092   2.515   0.402
 1633SOL     OW 5797   5.663   4.100   4.218
 1633SOL    HW1 5798   5.661   4.014   4.268
 1633SOL    HW2 5799   5.582   4.108   4.162
 1634SOL     OW 5800   4.009   5.715   4.732
 1634SOL    HW1 5801   4.106   5.720   4.756
 1634SOL    HW2 5802   3.965   5.642   4.784
 1635SOL     OW 5803   7.016   4.770   6.996
 1635SOL    HW1 5804   6.952   4.846   7.001
 1635SOL    HW2 5805   0.084   4.800   0.001
 1636SOL     OW 5806   2.590   4.444   1.712
 1636SOL    HW1 5807   2.587   4.522   1.775
 1636SOL    HW2 5808   2.685   4.427   1.684
 1637SOL     OW 5809   0.384   0.584   2.790
 1637SOL    HW1 5810   0.362   0.516   2.860
 1637SOL    HW2 5811   0.305   0.642   2.773
 1638SOL     OW 5812   6.735   4.235   3.617
 1638SOL    HW1 5813   6.768   4.274   3.703
 1638SOL    HW2 5814   6.668   4.163   3.637
 1639SOL     OW 5815   4.995   0.256   2.128
 1639SOL    HW1 5816   5.091   0.246   2.101
 1639SOL    HW2 5817   4.990   0.282   2.224
 1640SOL     OW 5818   6.286   0.580   0.195
 1640SOL    HW1 5819   6.340   0.620   0.120
 1640SOL    HW2 5820   6.348   0.541   0.263
 1641SOL     OW 5821   4.746   1.874   3.297
 1641SOL    HW1 5822   4.765   1.781   3.266
 1641SOL    HW2 5823   4.783   1.939   3.231
 1642SOL     OW 5824   6.210   3.602   6.472
 1642SOL    HW1 5825   6.271   3.640   6.541
 1642SOL    HW2 5826   6.115   3.624   6.495
 1643SOL     OW 5827   2.867   4.821   4.836
 1643SOL    HW1 5828   2.878   4.760   4.915
 1643SOL    HW2 5829   2.811   4.775   4.767
 1644SOL     OW 5830   5.987   3.600   0.319
 1644SOL    HW1 5831   6.084   3.618   0.333
 1644SOL    HW2 5832   5.969   3.502   0.332
 1645SOL     OW 5833   3.537   4.676   6.604
 1645SOL    HW1 5834   3.598   4.753   6.622
 1645SOL    HW2 5835   3.558   4.637   6.514
 1646SOL     OW 5836   2.906   6.532   7.003
 1646SOL    HW1 5837   2.901   6.448   6.950
 1646SOL    HW2 5838   2.829   6.591   6.979
 1647SOL     OW 5839   5.787   3.108   4.795
 1647SOL    HW1 5840   5.741   3.090   4.708
 1647SOL    HW2 5841   5.744   3.053   4.867
 1648SOL     OW 5842   5.269   5.843   0.848
 1648SOL    HW1 5843   5.230   5.880   0.933
 1648SOL    HW2 5844   5.362   5.879   0.836
 1649SOL     OW 5845   3.340   1.191   4.174
 1649SOL    HW1 5846   3.427   1.236   4.196
 1649SOL    HW2 5847   3.268   1.229   4.232
 1650SOL     OW 5848   1.880   6.215   6.124
 1650SOL    HW1 5849   1.979   6.207   6.130
 1650SOL    HW2 5850   1.843   6.138   6.071
 1651SOL     OW 5851   0.892   1.754   1.592
 1651SOL    HW1 5852   0.804   1.788   1.559
 1651SOL    HW2 5853   0.959   1.828   1.592
 1652SOL     OW 5854   1.060   3.773   2.296
 1652SOL    HW1 5855   1.049   3.698   2.232
 1652SOL    HW2 5856   1.117   3.744   2.373
 1653SOL     OW 5857   0.568   6.672   0.953
 1653SOL    HW1 5858   0.534   6.640   0.864
 1653SOL    HW2 5859   0.625   6.753   0.940
 1654SOL     OW 5860   0.640   3.714   1.785
 1654SOL    HW1 5861   0.606   3.768   1.862
 1654SOL    HW2 5862   0.655   3.620   1.814
 1655SOL     OW 5863   0.981   2.083   5.199
 1655SOL    HW1 5864   0.950   2.032   5.280
 1655SOL    HW2 5865   0.912   2.149   5.173
 1656SOL     OW 5866   2.561   4.537   2.378
 1656SOL    HW1 5867   2.595   4.593   2.453
 1656SOL    HW2 5868   2.494   4.471   2.413
 1657SOL     OW 5869   0.115   1.086   4.176
 1657SOL    HW1 5870   0.091   1.156   4.243
 1657SOL    HW2 5871   0.199   1.114   4.128
 1658SOL     OW 5872   0.242   5.912   1.019
 1658SOL    HW1 5873   0.332   5.915   0.976
 1658SOL    HW2 5874   0.188   5.992   0.991
 1659SOL     OW 5875   3.701   6.808   6.568
 1659SOL    HW1 5876   3.665   6.715   6.574
 1659SOL    HW2 5877   3.768   6.814   6.494
 1660SOL     OW 5878   1.587   5.138   3.858
 1660SOL    HW1 5879   1.522   5.184   3.797
 1660SOL    HW2 5880   1.591   5.186   3.945
 1661SOL     OW 5881   2.560   0.068   1.195
 1661SOL    HW1 5882   2.494   0.134   1.230
 1661SOL    HW2 5883   2.621   0.039   1.270
 1662SOL     OW 5884   6.580   0.830   4.568
 1662SOL    HW1 5885   6.657   0.770   4.544
 1662SOL    HW2 5886   6.560   0.822   4.666
 1663SOL     OW 5887   4.558   6.356   3.064
 1663SOL    HW1 5888   4.560   6.349   2.964
 1663SOL    HW2 5889   4.549   6.264   3.103
 1664SOL     OW 5890   2.113   6.864   4.660
 1664SOL    HW1 5891   2.078   6.839   4.570
 1664SOL    HW2 5892   2.169   6.789   4.696
 1665SOL     OW 5893   0.098   2.083   3.004
 1665SOL    HW1 5894   0.153   2.083   2.920
 1665SOL    HW2 5895   0.004   2.109   2.983
 1666SOL     OW 5896   5.638   2.220   6.802
 1666SOL    HW1 5897   5.628   2.132   6.848
 1666SOL    HW2 5898   5.550   2.268   6.801
 1667SOL     OW 5899   6.686   5.906   1.532
 1667SOL    HW1 5900   6.713   5.811   1.545
 1667SOL    HW2 5901   6.677   5.926   1.435
 1668SOL     OW 5902   5.649   6.660   4.552
 1668SOL    HW1 5903   5.554   6.655   4.582
 1668SOL    HW2 5904   5.692   6.570   4.561
 1669SOL     OW 5905   6.428   5.448   6.318
 1669SOL    HW1 5906   6.329   5.463   6.318
 1669SOL    HW2 5907   6.465   5.471   6.408
 1670SOL     OW 5908   0.580   4.098   5.923
 1670SOL    HW1 5909   0.578   4.005   5.886
 1670SOL    HW2 5910   0.675   4.128   5.933
 1671SOL     OW 5911   5.569   1.221   2.246
 1671SOL    HW1 5912   5.488   1.275   2.221
 1671SOL    HW2 5913   5.558   1.187   2.340
 1672SOL     OW 5914   1.433   2.872   0.816
 1672SOL    HW1 5915   1.493   2.841   0.890
 1672SOL    HW2 5916   1.355   2.922   0.854
 1673SOL     OW 5917   1.434   1.556   4.490
 1673SOL    HW1 5918   1.513   1.499   4.514
 1673SOL    HW2 5919   1.350   1.504   4.502
 1674SOL     OW 5920   0.849   3.219   2.306
 1674SOL    HW1 5921   0.812   3.311   2.312
 1674SOL    HW2 5922   0.921   3.216   2.236
 1675SOL     OW 5923   5.541   0.159   0.504
 1675SOL    HW1 5924   5.496   0.096   0.441
 1675SOL    HW2 5925   5.609   0.213   0.455
 1676SOL     OW 5926   2.261   2.610   2.158
 1676SOL    HW1 5927   2.171   2.568   2.151
 1676SOL    HW2 5928   2.326   2.543   2.195
 1677SOL     OW 5929   3.164   3.497   4.525
 1677SOL    HW1 5930   3.140   3.569   4.590
 1677SOL    HW2 5931   3.197   3.417   4.574
 1678SOL     OW 5932   5.408   4.112   4.109
 1678SOL    HW1 5933   5.329   4.099   4.169
 1678SOL    HW2 5934   5.408   4.206   4.074
 1679SOL     OW 5935   2.449   2.551   4.327
 1679SOL    HW1 5936   2.441   2.515   4.420
 1679SOL    HW2 5937   2.545   2.557   4.302
 1680SOL     OW 5938   6.950   2.927   4.750
 1680SOL    HW1 5939   6.906   2.918   4.660
 1680SOL    HW2 5940   6.925   3.015   4.790
 1681SOL     OW 5941   6.999   5.404   0.079
 1681SOL    HW1 5942   6.954   5.492   0.065
 1681SOL    HW2 5943   7.001   5.353   7.016
 1682SOL     OW 5944   1.636   1.347   4.485
 1682SOL    HW1 5945   1.700   1.275   4.459
 1682SOL    HW2 5946   1.670   1.392   4.568
 1683SOL     OW 5947   4.954   5.296   1.446
 1683SOL    HW1 5948   4.858   5.270   1.455
 1683SOL    HW2 5949   4.966   5.390   1.477
 1684SOL     OW 5950   1.033   5.823   2.411
 1684SOL    HW1 5951   0.936   5.841   2.391
 1684SOL    HW2 5952   1.087   5.836   2.328
 1685SOL     OW 5953   2.686   0.989   4.258
 1685SOL    HW1 5954   2.637   1.060   4.206
 1685SOL    HW2 5955   2.635   0.967   4.341
 1686SOL     OW 5956   3.002   6.257   4.447
 1686SOL    HW1 5957   2.978   6.181   4.507
 1686SOL    HW2 5958   3.061   6.224   4.374
 1687SOL     OW 5959   1.934   3.453   1.521
 1687SOL    HW1 5960   1.907   3.394   1.596
 1687SOL    HW2 5961   1.891   3.423   1.436
 1688SOL     OW 5962   2.452   2.722   4.043
 1688SOL    HW1 5963   2.505   2.648   4.083
 1688SOL    HW2 5964   2.424   2.786   4.115
 1689SOL     OW 5965   5.939   1.500   2.843
 1689SOL    HW1 5966   5.974   1.518   2.935
 1689SOL    HW2 5967   5.999   1.434   2.798
 1690SOL     OW 5968   1.871   2.602   3.803
 1690SOL    HW1 5969   1.784   2.642   3.833
 1690SOL    HW2 5970   1.906   2.655   3.726
 1691SOL     OW 5971   6.446   3.505   3.861
 1691SOL    HW1 5972   6.361   3.467   3.823
 1691SOL    HW2 5973   6.430   3.600   3.888
 1692SOL     OW 5974   5.417   6.213   1.492
 1692SOL    HW1 5975   5.367   6.212   1.579
 1692SOL    HW2 5976   5.461   6.302   1.480
 1693SOL     OW 5977   6.854   2.123   2.150
 1693SOL    HW1 5978   6.934   2.068   2.125
 1693SOL    HW2 5979   6.856   2.142   2.248
 1694SOL     OW 5980   5.680   0.583   2.201
 1694SOL    HW1 5981   5.701   0.650   2.130
 1694SOL    HW2 5982   5.656   0.630   2.286
 1695SOL     OW 5983   3.942   0.969   5.268
 1695SOL    HW1 5984   3.956   1.050   5.325
 1695SOL    HW2 5985   3.935   0.888   5.326
 1696SOL     OW 5986   4.276   4.961   0.348
 1696SOL    HW1 5987   4.261   4.866   0.323
 1696SOL    HW2 5988   4.362   4.969   0.398
 1697SOL     OW 5989   5.761   0.813   0.662
 1697SOL    HW1 5990   5.672   0.810   0.614
 1697SOL    HW2 5991   5.757   0.755   0.743
 1698SOL     OW 5992   4.168   0.430   0.053
 1698SOL    HW1 5993   4.153   0.527   0.034
 1698SOL    HW2 5994   4.213   0.419   0.141
 1699SOL     OW 5995   1.825   0.786   0.763
 1699SOL    HW1 5996   1.887   0.769   0.840
 1699SOL    HW2 5997   1.740   0.737   0.777
 1700SOL     OW 5998   6.165   2.802   4.135
 1700SOL    HW1 5999   6.170   2.703   4.121
 1700SOL    HW2 6000   6.109   2.821   4.216
 1701SOL     OW 6001   4.819   4.124   6.601
 1701SOL    HW1 6002   4.725   4.137   6.634
 1701SOL    HW2 6003   4.882   4.171   6.662
 1702SOL     OW 6004   6.364   2.178   0.565
 1702SOL    HW1 6005   6.372   2.209   0.660
 1702SOL    HW2 6006   6.456   2.161   0.528
 1703SOL     OW 6007   2.829   2.685   1.667
 1703SOL    HW1 6008   2.881   2.655   1.747
 1703SOL    HW2 6009   2.754   2.620   1.649
 1704SOL     OW 6010   0.898   2.152   1.167
 1704SOL    HW1 6011   0.912   2.059   1.135
 1704SOL    HW2 6012   0.896   2.214   1.088
 1705SOL     OW 6013   3.108   1.453   1.950
 1705SOL    HW1 6014   3.142   1.546   1.967
 1705SOL    HW2 6015   3.030   1.457   1.888
 1706SOL     OW 6016   4.692   1.239   2.171
 1706SOL    HW1 6017   4.758   1.192   2.114
 1706SOL    HW2 6018   4.739   1.290   2.243
 1707SOL     OW 6019   5.055   1.954   2.483
 1707SOL    HW1 6020   5.129   1.985   2.424
 1707SOL    HW2 6021   5.030   1.860   2.459
 1708SOL     OW 6022   5.025   5.587   1.823
 1708SOL    HW1 6023   4.948   5.533   1.856
 1708SOL    HW2 6024   5.024   5.589   1.723
 1709SOL     OW 6025   3.488   6.101   2.538
 1709SOL    HW1 6026   3.453   6.014   2.572
 1709SOL    HW2 6027   3.509   6.161   2.616
 1710SOL     OW 6028   5.418   4.769   3.820
 1710SOL    HW1 6029   5.370   4.690   3.782
 1710SOL    HW2 6030   5.350   4.833   3.859
 1711SOL     OW 6031   1.194   4.476   4.320
 1711SOL    HW1 6032   1.158   4.481   4.413
 1711SOL    HW2 6033   1.183   4.383   4.285
 1712SOL     OW 6034   6.645   2.253   5.500
 1712SOL    HW1 6035   6.588   2.200   5.562
 1712SOL    HW2 6036   6.681   2.333   5.548
 1713SOL     OW 6037   4.390   2.776   1.492
 1713SOL    HW1 6038   4.412   2.679   1.505
 1713SOL    HW2 6039   4.317   2.785   1.424
 1714SOL     OW 6040   3.596   1.552   5.827
 1714SOL    HW1 6041   3.497   1.542   5.833
 1714SOL    HW2 6042   3.632   1.578   5.917
 1715SOL     OW 6043   0.434   5.220   3.391
 1715SOL    HW1 6044   0.378   5.300   3.415
 1715SOL    HW2 6045   0.379   5.137   3.403
 1716SOL     OW 6046   4.944   6.739   3.378
 1716SOL    HW1 6047   4.914   6.761   3.285
 1716SOL    HW2 6048   4.881   6.780   3.443
 1717SOL     OW 6049   2.512   6.204   5.873
 1717SOL    HW1 6050   2.422   6.227   5.908
 1717SOL    HW2 6051   2.572   6.175   5.948
 1718SOL     OW 6052   2.333   1.491   1.494
 1718SOL    HW1 6053   2.378   1.410   1.458
 1718SOL    HW2 6054   2.391   1.571   1.478
 1719SOL     OW 6055   1.436   3.405   1.176
 1719SOL    HW1 6056   1.374   3.326   1.171
 1719SOL    HW2 6057   1.423   3.463   1.096
 1720SOL     OW 6058   0.079   3.202   0.176
 1720SOL    HW1 6059   7.020   3.198   0.234
 1720SOL    HW2 6060   0.138   3.124   0.197
 1721SOL     OW 6061   1.675   6.681   1.411
 1721SOL    HW1 6062   1.758   6.628   1.397
 1721SOL    HW2 6063   1.618   6.637   1.480
 1722SOL     OW 6064   3.379   1.242   3.656
 1722SOL    HW1 6065   3.478   1.234   3.651
 1722SOL    HW2 6066   3.352   1.281   3.744
 1723SOL     OW 6067   5.870   2.164   2.410
 1723SOL    HW1 6068   5.891   2.194   2.317
 1723SOL    HW2 6069   5.789   2.104   2.408
 1724SOL     OW 6070   6.961   2.543   1.539
 1724SOL    HW1 6071   6.906   2.582   1.613
 1724SOL    HW2 6072   6.911   2.549   1.453
 1725SOL     OW 6073   2.175   5.196   6.478
 1725SOL    HW1 6074   2.136   5.287   6.493
 1725SOL    HW2 6075   2.184   5.180   6.379
 1726SOL     OW 6076   5.877   4.722   4.875
 1726SOL    HW1 6077   5.780   4.729   4.851
 1726SOL    HW2 6078   5.896   4.778   4.956
 1727SOL     OW 6079   3.405   3.010   4.199
 1727SOL    HW1 6080   3.430   3.104   4.223
 1727SOL    HW2 6081   3.345   3.012   4.119
 1728SOL     OW 6082   4.900   4.736   5.048
 1728SOL    HW1 6083   4.816   4.706   5.093
 1728SOL    HW2 6084   4.922   4.829   5.077
 1729SOL     OW 6085   1.945   4.247   3.016
 1729SOL    HW1 6086   1.930   4.346   3.011
 1729SOL    HW2 6087   2.017   4.221   2.952
 1730SOL     OW 6088   1.257   6.572   6.141
 1730SOL    HW1 6089   1.284   6.481   6.173
 1730SOL    HW2 6090   1.167   6.567   6.098
 1731SOL     OW 6091   6.852   3.666   3.212
 1731SOL    HW1 6092   6.905   3.730   3.157
 1731SOL    HW2 6093   6.909   3.627   3.284
 1732SOL     OW 6094   2.708   5.044   5.358
 1732SOL    HW1 6095   2.688   4.971   5.423
 1732SOL    HW2 6096   2.737   5.004   5.271
 1733SOL     OW 6097   1.996   4.770   1.754
 1733SOL    HW1 6098   1.965   4.850   1.806
 1733SOL    HW2 6099   2.043   4.800   1.671
 1734SOL     OW 6100   4.457   3.275   1.180
 1734SOL    HW1 6101   4.425   3.360   1.223
 1734SOL    HW2 6102   4.480   3.208   1.251
 1735SOL     OW 6103   4.921   6.184   0.401
 1735SOL    HW1 6104   4.936   6.099   0.452
 1735SOL    HW2 6105   4.847   6.170   0.334
 1736SOL     OW 6106   3.222   3.631   0.632
 1736SOL    HW1 6107   3.315   3.660   0.655
 1736SOL    HW2 6108   3.158   3.668   0.699
 1737SOL     OW 6109   3.162   1.328   4.375
 1737SOL    HW1 6110   3.218   1.382   4.438
 1737SOL    HW2 6111   3.134   1.243   4.420
 1738SOL     OW 6112   2.001   2.670   4.186
 1738SOL    HW1 6113   2.075   2.706   4.243
 1738SOL    HW2 6114   1.932   2.742   4.173
 1739SOL     OW 6115   0.208   2.205   5.206
 1739SOL    HW1 6116   0.263   2.169   5.282
 1739SOL    HW2 6117   0.269   2.239   5.135
 1740SOL     OW 6118   0.081   2.166   5.550
 1740SOL    HW1 6119   0.172   2.139   5.520
 1740SOL    HW2 6120   0.018   2.088   5.541
 1741SOL     OW 6121   2.190   0.352   3.523
 1741SOL    HW1 6122   2.090   0.358   3.522
 1741SOL    HW2 6123   2.229   0.427   3.470
 1742SOL     OW 6124   5.929   0.482   6.422
 1742SOL    HW1 6125   5.885   0.466   6.511
 1742SOL    HW2 6126   5.902   0.410   6.358
 1743SOL     OW 6127   0.796   2.092   1.479
 1743SOL    HW1 6128   0.752   2.146   1.551
 1743SOL    HW2 6129   0.879   2.139   1.449
 1744SOL     OW 6130   6.588   2.102   2.526
 1744SOL    HW1 6131   6.572   2.200   2.514
 1744SOL    HW2 6132   6.564   2.054   2.441
 1745SOL     OW 6133   5.700   5.910   2.263
 1745SOL    HW1 6134   5.692   5.812   2.243
 1745SOL    HW2 6135   5.796   5.936   2.258
 1746SOL     OW 6136   1.021   3.774   4.563
 1746SOL    HW1 6137   1.044   3.736   4.653
 1746SOL    HW2 6138   1.105   3.798   4.515
 1747SOL     OW 6139   4.740   1.586   3.156
 1747SOL    HW1 6140   4.838   1.605   3.163
 1747SOL    HW2 6141   4.726   1.497   3.113
 1748SOL     OW 6142   1.381   1.126   5.264
 1748SOL    HW1 6143   1.430   1.107   5.179
 1748SOL    HW2 6144   1.289   1.087   5.259
 1749SOL     OW 6145   2.740   0.648   4.795
 1749SOL    HW1 6146   2.804   0.602   4.734
 1749SOL    HW2 6147   2.713   0.585   4.868
 1750SOL     OW 6148   5.485   6.289   4.086
 1750SOL    HW1 6149   5.520   6.239   4.007
 1750SOL    HW2 6150   5.388   6.268   4.098
 1751SOL     OW 6151   3.808   6.379   4.731
 1751SOL    HW1 6152   3.874   6.421   4.793
 1751SOL    HW2 6153   3.840   6.289   4.704
 1752SOL     OW 6154   6.471   2.073   1.828
 1752SOL    HW1 6155   6.430   2.048   1.740
 1752SOL    HW2 6156   6.549   2.013   1.846
 1753SOL     OW 6157   0.140   1.363   1.157
 1753SOL    HW1 6158   0.103   1.328   1.242
 1753SOL    HW2 6159   0.196   1.445   1.175
 1754SOL     OW 6160   1.294   4.447   6.866
 1754SOL    HW1 6161   1.241   4.453   6.782
 1754SOL    HW2 6162   1.261   4.516   6.931
 1755SOL     OW 6163   6.909   6.060   2.071
 1755SOL    HW1 6164   6.964   5.998   2.015
 1755SOL    HW2 6165   6.949   6.068   2.162
 1756SOL     OW 6166   4.344   5.911   5.874
 1756SOL    HW1 6167   4.354   5.875   5.782
 1756SOL    HW2 6168   4.417   5.977   5.893
 1757SOL     OW 6169   2.241   5.159   4.685
 1757SOL    HW1 6170   2.204   5.110   4.764
 1757SOL    HW2 6171   2.331   5.122   4.662
 1758SOL     OW 6172   2.405   0.430   4.058
 1758SOL    HW1 6173   2.472   0.356   4.054
 1758SOL    HW2 6174   2.394   0.461   4.152
 1759SOL     OW 6175   1.585   6.314   6.094
 1759SOL    HW1 6176   1.557   6.312   5.998
 1759SOL    HW2 6177   1.685   6.302   6.100
 1760SOL     OW 6178   5.167   1.528   3.002
 1760SOL    HW1 6179   5.216   1.442   2.987
 1760SOL    HW2 6180   5.232   1.599   3.030
 1761SOL     OW 6181   0.244   0.577   0.713
 1761SOL    HW1 6182   0.319   0.601   0.652
 1761SOL    HW2 6183   0.202   0.661   0.749
 1762SOL     OW 6184   0.450   0.961   5.128
 1762SOL    HW1 6185   0.461   0.878   5.182
 1762SOL    HW2 6186   0.368   1.010   5.158
 1763SOL     OW 6187   1.356   3.908   4.169
 1763SOL    HW1 6188   1.271   3.931   4.121
 1763SOL    HW2 6189   1.417   3.987   4.168
 1764SOL     OW 6190   2.125   3.494   2.422
 1764SOL    HW1 6191   2.176   3.509   2.507
 1764SOL    HW2 6192   2.097   3.398   2.416
 1765SOL     OW 6193   3.673   0.876   0.828
 1765SOL    HW1 6194   3.648   0.840   0.918
 1765SOL    HW2 6195   3.764   0.844   0.803
 1766SOL     OW 6196   5.390   4.295   2.578
 1766SOL    HW1 6197   5.385   4.221   2.646
 1766SOL    HW2 6198   5.299   4.312   2.541
 1767SOL     OW 6199   0.365   3.756   2.627
 1767SOL    HW1 6200   0.406   3.847   2.632
 1767SOL    HW2 6201   0.426   3.689   2.668
 1768SOL     OW 6202   4.156   1.888   6.386
 1768SOL    HW1 6203   4.194   1.969   6.431
 1768SOL    HW2 6204   4.203   1.806   6.421
 1769SOL     OW 6205   4.549   1.575   6.097
 1769SOL    HW1 6206   4.568   1.583   6.195
 1769SOL    HW2 6207   4.599   1.647   6.048
 1770SOL     OW 6208   6.871   4.480   4.534
 1770SOL    HW1 6209   6.955   4.469   4.587
 1770SOL    HW2 6210   6.890   4.459   4.438
 1771SOL     OW 6211   2.086   5.363   0.160
 1771SOL    HW1 6212   2.069   5.398   0.253
 1771SOL    HW2 6213   2.032   5.417   0.095
 1772SOL     OW 6214   3.461   0.302   3.091
 1772SOL    HW1 6215   3.541   0.332   3.040
 1772SOL    HW2 6216   3.389   0.273   3.027
 1773SOL     OW 6217   3.119   3.680   6.496
 1773SOL    HW1 6218   3.144   3.656   6.402
 1773SOL    HW2 6219   3.167   3.763   6.523
 1774SOL     OW 6220   4.629   0.244   1.891
 1774SOL    HW1 6221   4.681   0.300   1.827
 1774SOL    HW2 6222   4.552   0.298   1.927
 1775SOL     OW 6223   1.720   5.068   5.355
 1775SOL    HW1 6224   1.783   5.048   5.429
 1775SOL    HW2 6225   1.669   4.986   5.331
 1776SOL     OW 6226   4.936   0.824   6.280
 1776SOL    HW1 6227   4.956   0.914   6.242
 1776SOL    HW2 6228   4.839   0.804   6.271
 1777SOL     OW 6229   3.105   5.576   5.818
 1777SOL    HW1 6230   3.027   5.588   5.756
 1777SOL    HW2 6231   3.114   5.480   5.843
 1778SOL     OW 6232   4.423   2.105   4.068
 1778SOL    HW1 6233   4.457   2.038   4.002
 1778SOL    HW2 6234   4.491   2.177   4.080
 1779SOL     OW 6235   3.552   1.587   5.028
 1779SOL    HW1 6236   3.504   1.670   4.997
 1779SOL    HW2 6237   3.520   1.509   4.974
 1780SOL     OW 6238   2.097   4.027   5.722
 1780SOL    HW1 6239   2.029   4.092   5.755
 1780SOL    HW2 6240   2.183   4.074   5.705
 1781SOL     OW 6241   5.076   4.689   3.361
 1781SOL    HW1 6242   5.094   4.752   3.437
 1781SOL    HW2 6243   4.980   4.696   3.335
 1782SOL     OW 6244   2.820   1.630   3.427
 1782SOL    HW1 6245   2.829   1.704   3.360
 1782SOL    HW2 6246   2.869   1.549   3.395
 1783SOL     OW 6247   2.492   3.620   6.101
 1783SOL    HW1 6248   2.569   3.557   6.112
 1783SOL    HW2 6249   2.469   3.628   6.004
 1784SOL     OW 6250   2.555   0.936   2.313
 1784SOL    HW1 6251   2.642   0.903   2.277
 1784SOL    HW2 6252   2.569   0.975   2.404
 1785SOL     OW 6253   5.465   5.670   3.693
 1785SOL    HW1 6254   5.476   5.712   3.603
 1785SOL    HW2 6255   5.369   5.674   3.720
 1786SOL     OW 6256   1.051   3.599   0.388
 1786SOL    HW1 6257   1.076   3.692   0.363
 1786SOL    HW2 6258   0.959   3.599   0.428
 1787SOL     OW 6259   2.338   0.912   5.373
 1787SOL    HW1 6260   2.378   1.003   5.369
 1787SOL    HW2 6261   2.310   0.891   5.466
 1788SOL     OW 6262   3.620   3.985   6.881
 1788SOL    HW1 6263   3.592   4.080   6.897
 1788SOL    HW2 6264   3.624   3.937   6.969
 1789SOL     OW 6265   5.809   2.270   2.143
 1789SOL    HW1 6266   5.746   2.195   2.126
 1789SOL    HW2 6267   5.758   2.356   2.151
 1790SOL     OW 6268   3.952   6.651   4.704
 1790SOL    HW1 6269   3.880   6.658   4.773
 1790SOL    HW2 6270   4.019   6.582   4.732
 1791SOL     OW 6271   0.463   1.399   4.443
 1791SOL    HW1 6272   0.525   1.464   4.485
 1791SOL    HW2 6273   0.474   1.309   4.485
 1792SOL     OW 6274   0.923   1.174   4.542
 1792SOL    HW1 6275   0.851   1.212   4.485
 1792SOL    HW2 6276   0.950   1.241   4.611
 1793SOL     OW 6277   6.279   0.451   3.715
 1793SOL    HW1 6278   6.231   0.441   3.629
 1793SOL    HW2 6279   6.300   0.360   3.753
 1794SOL     OW 6280   4.973   6.613   6.347
 1794SOL    HW1 6281   5.031   6.684   6.308
 1794SOL    HW2 6282   5.007   6.588   6.438
 1795SOL     OW 6283   6.517   4.822   1.692
 1795SOL    HW1 6284   6.551   4.742   1.642
 1795SOL    HW2 6285   6.577   4.840   1.770
 1796SOL     OW 6286   2.414   0.773   4.042
 1796SOL    HW1 6287   2.490   0.828   4.008
 1796SOL    HW2 6288   2.333   0.830   4.052
 1797SOL     OW 6289   1.476   6.680   6.251
 1797SOL    HW1 6290   1.502   6.725   6.166
 1797SOL    HW2 6291   1.410   6.607   6.231
 1798SOL     OW 6292   4.645   2.995   5.342
 1798SOL    HW1 6293   4.551   2.990   5.377
 1798SOL    HW2 6294   4.672   3.091   5.334
 1799SOL     OW 6295   5.727   2.417   6.440
 1799SOL    HW1 6296   5.814   2.396   6.396
 1799SOL    HW2 6297   5.655   2.423   6.371
 1800SOL     OW 6298   5.036   4.188   3.406
 1800SOL    HW1 6299   5.051   4.284   3.385
 1800SOL    HW2 6300   5.124   4.143   3.420
 1801SOL     OW 6301   1.190   1.438   3.266
 1801SOL    HW1 6302   1.215   1.389   3.182
 1801SOL    HW2 6303   1.167   1.371   3.337
 1802SOL     OW 6304   6.205   5.720   3.316
 1802SOL    HW1 6305   6.199   5.638   3.374
 1802SOL    HW2 6306   6.122   5.774   3.328
 1803SOL     OW 6307   6.993   6.262   1.258
 1803SOL    HW1 6308   0.026   6.306   1.328
 1803SOL    HW2 6309   6.903   6.240   1.295
 1804SOL     OW 6310   3.492   3.067   5.206
 1804SOL    HW1 6311   3.540   3.155   5.213
 1804SOL    HW2 6312   3.496   3.020   5.294
 1805SOL     OW 6313   1.063   4.344   6.049
 1805SOL    HW1 6314   1.140   4.281   6.048
 1805SOL    HW2 6315   1.064   4.400   5.966
 1806SOL     OW 6316   1.802   2.226   1.770
 1806SOL    HW1 6317   1.712   2.188   1.750
 1806SOL    HW2 6318   1.799   2.326   1.764
 1807SOL     OW 6319   6.014   2.598   6.250
 1807SOL    HW1 6320   6.021   2.620   6.153
 1807SOL    HW2 6321   6.002   2.500   6.261
 1808SOL     OW 6322   5.772   4.724   4.584
 1808SOL    HW1 6323   5.850   4.778   4.617
 1808SOL    HW2 6324   5.727   4.773   4.510
 1809SOL     OW 6325   2.624   2.497   4.817
 1809SOL    HW1 6326   2.711   2.521   4.859
 1809SOL    HW2 6327   2.586   2.417   4.862
 1810SOL     OW 6328   1.637   6.979   5.045
 1810SOL    HW1 6329   1.692   6.897   5.029
 1810SOL    HW2 6330   1.578   6.995   4.967
 1811SOL     OW 6331   4.521   4.737   3.171
 1811SOL    HW1 6332   4.449   4.748   3.103
 1811SOL    HW2 6333   4.610   4.753   3.128
 1812SOL     OW 6334   5.071   0.113   5.938
 1812SOL    HW1 6335   5.140   0.112   5.865
 1812SOL    HW2 6336   5.072   0.024   5.985
 1813SOL     OW 6337   4.723   4.998   1.074
 1813SOL    HW1 6338   4.717   5.083   1.126
 1813SOL    HW2 6339   4.700   5.016   0.978
 1814SOL     OW 6340   6.446   0.601   0.684
 1814SOL    HW1 6341   6.477   0.512   0.648
 1814SOL    HW2 6342   6.355   0.621   0.648
 1815SOL     OW 6343   6.106   0.725   2.660
 1815SOL    HW1 6344   6.185   0.785   2.671
 1815SOL    HW2 6345   6.133   0.642   2.612
 1816SOL     OW 6346   2.894   4.846   0.527
 1816SOL    HW1 6347   2.859   4.800   0.608
 1816SOL    HW2 6348   2.915   4.942   0.550
 1817SOL     OW 6349   3.748   6.961   3.407
 1817SOL    HW1 6350   3.761   0.002   3.331
 1817SOL    HW2 6351   3.783   6.871   3.381
 1818SOL     OW 6352   2.315   6.094   1.264
 1818SOL    HW1 6353   2.242   6.048   1.315
 1818SOL    HW2 6354   2.296   6.089   1.166
 1819SOL     OW 6355   0.992   6.212   1.809
 1819SOL    HW1 6356   0.939   6.140   1.764
 1819SOL    HW2 6357   1.022   6.278   1.740
 1820SOL     OW 6358   3.427   0.588   2.366
 1820SOL    HW1 6359   3.352   0.567   2.428
 1820SOL    HW2 6360   3.414   0.538   2.280
 1821SOL     OW 6361   2.793   0.667   1.332
 1821SOL    HW1 6362   2.884   0.701   1.308
 1821SOL    HW2 6363   2.726   0.740   1.321
 1822SOL     OW 6364   1.141   2.660   1.472
 1822SOL    HW1 6365   1.195   2.641   1.390
 1822SOL    HW2 6366   1.114   2.574   1.515
 1823SOL     OW 6367   3.428   5.857   2.692
 1823SOL    HW1 6368   3.492   5.785   2.664
 1823SOL    HW2 6369   3.439   5.876   2.789
 1824SOL     OW 6370   3.957   3.840   0.720
 1824SOL    HW1 6371   3.916   3.760   0.675
 1824SOL    HW2 6372   4.006   3.811   0.802
 1825SOL     OW 6373   1.478   2.614   4.651
 1825SOL    HW1 6374   1.512   2.569   4.568
 1825SOL    HW2 6375   1.463   2.545   4.722
 1826SOL     OW 6376   2.945   1.862   1.710
 1826SOL    HW1 6377   3.032   1.883   1.664
 1826SOL    HW2 6378   2.941   1.910   1.797
 1827SOL     OW 6379   6.804   5.447   1.364
 1827SOL    HW1 6380   6.810   5.349   1.383
 1827SOL    HW2 6381   6.742   5.462   1.288
 1828SOL     OW 6382   1.736   2.786   0.416
 1828SOL    HW1 6383   1.697   2.712   0.361
 1828SOL    HW2 6384   1.813   2.827   0.368
 1829SOL     OW 6385   3.579   0.616   3.229
 1829SOL    HW1 6386   3.603   0.710   3.252
 1829SOL    HW2 6387   3.615   0.593   3.139
 1830SOL     OW 6388   5.928   5.905   4.747
 1830SOL    HW1 6389   6.006   5.883   4.806
 1830SOL    HW2 6390   5.904   5.825   4.692
 1831SOL     OW 6391   5.731   6.708   1.588
 1831SOL    HW1 6392   5.805   6.732   1.525
 1831SOL    HW2 6393   5.658   6.662   1.537
 1832SOL     OW 6394   4.250   2.186   0.961
 1832SOL    HW1 6395   4.237   2.260   0.895
 1832SOL    HW2 6396   4.254   2.225   1.053
 1833SOL     OW 6397   5.185   0.858   1.271
 1833SOL    HW1 6398   5.219   0.857   1.365
 1833SOL    HW2 6399   5.095   0.814   1.268
 1834SOL     OW 6400   2.364   3.985   0.455
 1834SOL    HW1 6401   2.273   3.985   0.414
 1834SOL    HW2 6402   2.418   3.909   0.420
 1835SOL     OW 6403   0.116   4.847   1.909
 1835SOL    HW1 6404   0.144   4.898   1.990
 1835SOL    HW2 6405   0.191   4.787   1.880
 1836SOL     OW 6406   5.132   2.473   1.398
 1836SOL    HW1 6407   5.090   2.413   1.466
 1836SOL    HW2 6408   5.185   2.419   1.333
 1837SOL     OW 6409   0.722   6.633   5.042
 1837SOL    HW1 6410   0.632   6.652   5.081
 1837SOL    HW2 6411   0.713   6.563   4.970
 1838SOL     OW 6412   6.751   1.466   5.593
 1838SOL    HW1 6413   6.740   1.551   5.643
 1838SOL    HW2 6414   6.774   1.392   5.656
 1839SOL     OW 6415   0.254   1.666   5.428
 1839SOL    HW1 6416   0.334   1.643   5.372
 1839SOL    HW2 6417   0.236   1.592   5.493
 1840SOL     OW 6418   3.889   0.242   1.661
 1840SOL    HW1 6419   3.808   0.207   1.708
 1840SOL    HW2 6420   3.892   0.342   1.669
 1841SOL     OW 6421   2.152   1.358   3.337
 1841SOL    HW1 6422   2.122   1.357   3.242
 1841SOL    HW2 6423   2.168   1.264   3.368
 1842SOL     OW 6424   1.530   5.435   0.383
 1842SOL    HW1 6425   1.444   5.486   0.389
 1842SOL    HW2 6426   1.547   5.409   0.287
 1843SOL     OW 6427   6.403   1.241   4.643
 1843SOL    HW1 6428   6.460   1.252   4.725
 1843SOL    HW2 6429   6.350   1.324   4.629
 1844SOL     OW 6430   3.070   6.572   4.989
 1844SOL    HW1 6431   3.047   6.495   4.930
 1844SOL    HW2 6432   3.097   6.650   4.933
 1845SOL     OW 6433   3.122   6.783   4.823
 1845SOL    HW1 6434   3.179   6.864   4.842
 1845SOL    HW2 6435   3.026   6.811   4.818
 1846SOL     OW 6436   3.706   1.248   2.202
 1846SOL    HW1 6437   3.781   1.246   2.135
 1846SOL    HW2 6438   3.666   1.340   2.203
 1847SOL     OW 6439   1.249   0.414   6.127
 1847SOL    HW1 6440   1.264   0.322   6.090
 1847SOL    HW2 6441   1.335   0.451   6.161
 1848SOL     OW 6442   2.033   6.275   3.534
 1848SOL    HW1 6443   1.949   6.316   3.568
 1848SOL    HW2 6444   2.110   6.303   3.591
 1849SOL     OW 6445   4.162   2.706   1.684
 1849SOL    HW1 6446   4.226   2.643   1.728
 1849SOL    HW2 6447   4.167   2.695   1.585
 1850SOL     OW 6448   0.058   2.616   2.574
 1850SOL    HW1 6449   0.019   2.595   2.485
 1850SOL    HW2 6450   0.034   2.710   2.599
 1851SOL     OW 6451   0.725   3.473   6.741
 1851SOL    HW1 6452   0.708   3.387   6.693
 1851SOL    HW2 6453   0.763   3.454   6.831
 1852SOL     OW 6454   6.539   4.667   2.514
 1852SOL    HW1 6455   6.632   4.673   2.478
 1852SOL    HW2 6456   6.541   4.625   2.605
 1853SOL     OW 6457   0.662   2.382   3.653
 1853SOL    HW1 6458   0.600   2.305   3.666
 1853SOL    HW2 6459   0.651   2.447   3.728
 1854SOL     OW 6460   2.162   5.697   3.037
 1854SOL    HW1 6461   2.154   5.719   3.134
 1854SOL    HW2 6462   2.175   5.781   2.984
 1855SOL     OW 6463   5.296   3.911   5.434
 1855SOL    HW1 6464   5.329   3.968   5.509
 1855SOL    HW2 6465   5.211   3.949   5.398
 1856SOL     OW 6466   5.402   4.094   6.001
 1856SOL    HW1 6467   5.341   4.014   6.008
 1856SOL    HW2 6468   5.459   4.100   6.082
 1857SOL     OW 6469   4.124   2.248   6.970
 1857SOL    HW1 6470   4.095   2.317   6.903
 1857SOL    HW2 6471   4.143   2.293   0.034
 1858SOL     OW 6472   5.593   3.386   3.205
 1858SOL    HW1 6473   5.529   3.375   3.281
 1858SOL    HW2 6474   5.687   3.380   3.239
 1859SOL     OW 6475   4.616   1.762   4.043
 1859SOL    HW1 6476   4.655   1.799   4.128
 1859SOL    HW2 6477   4.610   1.835   3.975
 1860SOL     OW 6478   0.774   0.566   5.025
 1860SOL    HW1 6479   0.679   0.567   4.995
 1860SOL    HW2 6480   0.822   0.490   4.982
 1861SOL     OW 6481   6.323   6.972   2.412
 1861SOL    HW1 6482   6.334   7.006   2.506
 1861SOL    HW2 6483   6.325   6.872   2.412
 1862SOL     OW 6484   3.025   0.598   6.133
 1862SOL    HW1 6485   2.962   0.662   6.177
 1862SOL    HW2 6486   2.975   0.517   6.103
 1863SOL     OW 6487   0.281   2.443   3.527
 1863SOL    HW1 6488   0.311   2.538   3.524
 1863SOL    HW2 6489   0.326   2.392   3.453
 1864SOL     OW 6490   1.870   6.126   4.590
 1864SOL    HW1 6491   1.870   6.114   4.689
 1864SOL    HW2 6492   1.830   6.215   4.567
 1865SOL     OW 6493   3.989   0.207   0.083
 1865SOL    HW1 6494   4.040   0.288   0.055
 1865SOL    HW2 6495   3.912   0.192   0.021
 1866SOL     OW 6496   6.230   4.949   3.795
 1866SOL    HW1 6497   6.200   4.930   3.702
 1866SOL    HW2 6498   6.236   4.863   3.846
 1867SOL     OW 6499   1.214   3.803   0.546
 1867SOL    HW1 6500   1.167   3.839   0.626
 1867SOL    HW2 6501   1.241   3.708   0.562
 1868SOL     OW 6502   4.804   3.633   6.955
 1868SOL    HW1 6503   4.730   3.676   6.903
 1868SOL    HW2 6504   4.839   3.698   7.023
 1869SOL     OW 6505   0.025   3.646   4.871
 1869SOL    HW1 6506   6.997   3.565   4.899
 1869SOL    HW2 6507   0.112   3.619   4.830
 1870SOL     OW 6508   1.480   3.067   5.173
 1870SOL    HW1 6509   1.578   3.085   5.172
 1870SOL    HW2 6510   1.453   3.022   5.088
 1871SOL     OW 6511   0.430   0.727   6.750
 1871SOL    HW1 6512   0.506   0.718   6.686
 1871SOL    HW2 6513   0.450   0.675   6.833
 1872SOL     OW 6514   4.712   1.915   0.116
 1872SOL    HW1 6515   4.667   1.844   0.170
 1872SOL    HW2 6516   4.652   1.944   0.041
 1873SOL     OW 6517   6.567   1.090   5.752
 1873SOL    HW1 6518   6.577   1.088   5.851
 1873SOL    HW2 6519   6.514   1.010   5.722
 1874SOL     OW 6520   2.108   0.817   6.725
 1874SOL    HW1 6521   2.066   0.905   6.704
 1874SOL    HW2 6522   2.056   0.744   6.682
 1875SOL     OW 6523   6.618   0.844   0.712
 1875SOL    HW1 6524   6.552   0.782   0.669
 1875SOL    HW2 6525   6.621   0.827   0.810
 1876SOL     OW 6526   3.805   6.206   5.568
 1876SOL    HW1 6527   3.812   6.231   5.665
 1876SOL    HW2 6528   3.880   6.144   5.544
 1877SOL     OW 6529   0.818   1.489   3.484
 1877SOL    HW1 6530   0.890   1.543   3.528
 1877SOL    HW2 6531   0.815   1.398   3.526
 1878SOL     OW 6532   6.840   2.884   4.225
 1878SOL    HW1 6533   6.809   2.792   4.249
 1878SOL    HW2 6534   6.892   2.881   4.140
 1879SOL     OW 6535   2.178   5.595   3.518
 1879SOL    HW1 6536   2.227   5.572   3.602
 1879SOL    HW2 6537   2.182   5.518   3.455
 1880SOL     OW 6538   0.578   1.411   3.286
 1880SOL    HW1 6539   0.671   1.423   3.320
 1880SOL    HW2 6540   0.559   1.314   3.274
 1881SOL     OW 6541   1.447   2.178   3.502
 1881SOL    HW1 6542   1.524   2.241   3.511
 1881SOL    HW2 6543   1.437   2.150   3.407
 1882SOL     OW 6544   1.164   4.403   6.645
 1882SOL    HW1 6545   1.168   4.466   6.567
 1882SOL    HW2 6546   1.156   4.309   6.611
 1883SOL     OW 6547   0.840   3.248   3.410
 1883SOL    HW1 6548   0.922   3.301   3.387
 1883SOL    HW2 6549   0.773   3.256   3.336
 1884SOL     OW 6550   6.345   2.804   0.366
 1884SOL    HW1 6551   6.420   2.757   0.411
 1884SOL    HW2 6552   6.352   2.902   0.382
 1885SOL     OW 6553   6.927   2.117   6.790
 1885SOL    HW1 6554   6.958   2.160   6.875
 1885SOL    HW2 6555   6.831   2.091   6.799
 1886SOL     OW 6556   2.602   1.056   1.034
 1886SOL    HW1 6557   2.662   1.033   0.958
 1886SOL    HW2 6558   2.655   1.064   1.118
 1887SOL     OW 6559   0.437   5.594   6.712
 1887SOL    HW1 6560   0.347   5.554   6.730
 1887SOL    HW2 6561   0.427   5.674   6.653
 1888SOL     OW 6562   2.909   2.159   6.361
 1888SOL    HW1 6563   2.849   2.102   6.305
 1888SOL    HW2 6564   2.927   2.113   6.448
 1889SOL     OW 6565   5.506   2.630   6.282
 1889SOL    HW1 6566   5.483   2.660   6.189
 1889SOL    HW2 6567   5.471   2.696   6.348
 1890SOL     OW 6568   1.682   5.861   5.529
 1890SOL    HW1 6569   1.632   5.910   5.600
 1890SOL    HW2 6570   1.779   5.885   5.534
 1891SOL     OW 6571   5.371   2.976   4.020
 1891SOL    HW1 6572   5.389   2.888   4.064
 1891SOL    HW2 6573   5.344   2.961   3.925
 1892SOL     OW 6574   3.849   0.658   0.780
 1892SOL    HW1 6575   3.789   0.578   0.770
 1892SOL    HW2 6576   3.922   0.637   0.845
 1893SOL     OW 6577   3.433   1.956   6.083
 1893SOL    HW1 6578   3.522   1.980   6.121
 1893SOL    HW2 6579   3.363   1.964   6.154
 1894SOL     OW 6580   3.483   3.659   2.976
 1894SOL    HW1 6581   3.538   3.695   2.901
 1894SOL    HW2 6582   3.474   3.729   3.047
 1895SOL     OW 6583   5.483   1.095   2.524
 1895SOL    HW1 6584   5.425   1.164   2.568
 1895SOL    HW2 6585   5.523   1.036   2.594
 1896SOL     OW 6586   0.586   0.818   2.661
 1896SOL    HW1 6587   0.526   0.740   2.677
 1896SOL    HW2 6588   0.676   0.801   2.703
 1897SOL     OW 6589   0.765   5.082   2.565
 1897SOL    HW1 6590   0.813   5.015   2.508
 1897SOL    HW2 6591   0.823   5.162   2.579
 1898SOL     OW 6592   3.186   4.851   2.201
 1898SOL    HW1 6593   3.184   4.882   2.296
 1898SOL    HW2 6594   3.235   4.764   2.195
 1899SOL     OW 6595   0.590   2.107   2.462
 1899SOL    HW1 6596   0.609   2.163   2.542
 1899SOL    HW2 6597   0.666   2.044   2.445
 1900SOL     OW 6598   1.081   0.200   5.526
 1900SOL    HW1 6599   1.137   0.129   5.486
 1900SOL    HW2 6600   1.134   0.284   5.536
 1901SOL     OW 6601   2.009   1.121   1.420
 1901SOL    HW1 6602   2.004   1.209   1.374
 1901SOL    HW2 6603   1.920   1.077   1.419
 1902SOL     OW 6604   2.257   2.402   5.035
 1902SOL    HW1 6605   2.249   2.433   4.940
 1902SOL    HW2 6606   2.197   2.324   5.050
 1903SOL     OW 6607   6.383   3.163   3.626
 1903SOL    HW1 6608   6.413   3.067   3.627
 1903SOL    HW2 6609   6.350   3.187   3.717
 1904SOL     OW 6610   6.112   6.880   4.328
 1904SOL    HW1 6611   6.024   6.845   4.360
 1904SOL    HW2 6612   6.111   6.889   4.229
 1905SOL     OW 6613   1.784   0.997   4.098
 1905SOL    HW1 6614   1.713   0.933   4.070
 1905SOL    HW2 6615   1.818   1.046   4.018
 1906SOL     OW 6616   2.621   0.074   5.411
 1906SOL    HW1 6617   2.636   0.085   5.313
 1906SOL    HW2 6618   2.658   0.154   5.460
 1907SOL     OW 6619   3.524   0.077   2.867
 1907SOL    HW1 6620   3.524   7.003   2.895
 1907SOL    HW2 6621   3.441   0.096   2.814
 1908SOL     OW 6622   3.807   0.949   4.653
 1908SOL    HW1 6623   3.864   0.878   4.696
 1908SOL    HW2 6624   3.865   1.025   4.624
 1909SOL     OW 6625   1.071   4.035   2.573
 1909SOL    HW1 6626   1.164   4.053   2.604
 1909SOL    HW2 6627   1.058   4.073   2.482
 1910SOL     OW 6628   0.407   2.575   6.820
 1910SOL    HW1 6629   0.474   2.604   6.888
 1910SOL    HW2 6630   0.326   2.633   6.826
 1911SOL     OW 6631   5.533   3.455   5.227
 1911SOL    HW1 6632   5.559   3.461   5.324
 1911SOL    HW2 6633   5.616   3.449   5.171
 1912SOL     OW 6634   3.053   0.451   1.111
 1912SOL    HW1 6635   2.985   0.378   1.119
 1912SOL    HW2 6636   3.020   0.533   1.158
 1913SOL     OW 6637   0.923   5.689   5.261
 1913SOL    HW1 6638   0.977   5.751   5.205
 1913SOL    HW2 6639   0.932   5.595   5.226
 1914SOL     OW 6640   3.556   2.847   6.415
 1914SOL    HW1 6641   3.481   2.801   6.464
 1914SOL    HW2 6642   3.565   2.807   6.324
 1915SOL     OW 6643   3.644   2.065   5.563
 1915SOL    HW1 6644   3.600   2.146   5.600
 1915SOL    HW2 6645   3.705   2.025   5.631
 1916SOL     OW 6646   3.207   5.548   1.314
 1916SOL    HW1 6647   3.299   5.585   1.317
 1916SOL    HW2 6648   3.147   5.603   1.372
 1917SOL     OW 6649   3.041   3.134   4.646
 1917SOL    HW1 6650   3.108   3.104   4.578
 1917SOL    HW2 6651   3.016   3.057   4.704
 1918SOL     OW 6652   0.662   1.339   6.816
 1918SOL    HW1 6653   0.716   1.288   6.750
 1918SOL    HW2 6654   0.574   1.293   6.829
 1919SOL     OW 6655   2.677   0.470   1.165
 1919SOL    HW1 6656   2.582   0.484   1.192
 1919SOL    HW2 6657   2.736   0.532   1.216
 1920SOL     OW 6658   1.592   4.743   2.692
 1920SOL    HW1 6659   1.599   4.828   2.639
 1920SOL    HW2 6660   1.498   4.730   2.723
 1921SOL     OW 6661   1.621   4.892   0.353
 1921SOL    HW1 6662   1.536   4.924   0.311
 1921SOL    HW2 6663   1.697   4.948   0.320
 1922SOL     OW 6664   3.033   4.156   0.502
 1922SOL    HW1 6665   3.059   4.132   0.596
 1922SOL    HW2 6666   2.945   4.203   0.502
 1923SOL     OW 6667   3.134   0.632   5.781
 1923SOL    HW1 6668   3.039   0.649   5.808
 1923SOL    HW2 6669   3.163   0.702   5.716
 1924SOL     OW 6670   4.962   5.123   1.850
 1924SOL    HW1 6671   4.975   5.083   1.759
 1924SOL    HW2 6672   5.051   5.133   1.895
 1925SOL     OW 6673   1.787   4.288   0.665
 1925SOL    HW1 6674   1.848   4.293   0.744
 1925SOL    HW2 6675   1.839   4.265   0.583
 1926SOL     OW 6676   1.529   6.837   3.007
 1926SOL    HW1 6677   1.601   6.796   2.951
 1926SOL    HW2 6678   1.564   6.852   3.100
 1927SOL     OW 6679   3.269   4.138   6.105
 1927SOL    HW1 6680   3.354   4.169   6.062
 1927SOL    HW2 6681   3.224   4.215   6.149
 1928SOL     OW 6682   6.520   4.570   5.840
 1928SOL    HW1 6683   6.569   4.487   5.817
 1928SOL    HW2 6684   6.514   4.629   5.760
 1929SOL     OW 6685   1.089   5.134   1.672
 1929SOL    HW1 6686   1.147   5.102   1.748
 1929SOL    HW2 6687   1.099   5.071   1.595
 1930SOL     OW 6688   3.648   3.931   6.626
 1930SOL    HW1 6689   3.719   3.860   6.622
 1930SOL    HW2 6690   3.638   3.961   6.720
 1931SOL     OW 6691   0.534   3.029   2.327
 1931SOL    HW1 6692   0.595   3.058   2.401
 1931SOL    HW2 6693   0.585   2.971   2.263
 1932SOL     OW 6694   4.997   3.479   3.680
 1932SOL    HW1 6695   4.977   3.564   3.727
 1932SOL    HW2 6696   4.961   3.483   3.586
 1933SOL     OW 6697   2.548   4.621   0.656
 1933SOL    HW1 6698   2.554   4.656   0.562
 1933SOL    HW2 6699   2.605   4.677   0.715
 1934SOL     OW 6700   0.801   0.285   4.920
 1934SOL    HW1 6701   0.777   0.284   5.017
 1934SOL    HW2 6702   0.868   0.214   4.902
 1935SOL     OW 6703   3.911   6.574   4.197
 1935SOL    HW1 6704   3.885   6.661   4.157
 1935SOL    HW2 6705   3.829   6.527   4.231
 1936SOL     OW 6706   6.276   3.400   4.092
 1936SOL    HW1 6707   6.296   3.498   4.104
 1936SOL    HW2 6708   6.246   3.362   4.179
 1937SOL     OW 6709   4.076   0.358   0.820
 1937SOL    HW1 6710   4.086   0.389   0.726
 1937SOL    HW2 6711   4.144   0.404   0.878
 1938SOL     OW 6712   2.420   1.224   1.463
 1938SOL    HW1 6713   2.515   1.219   1.493
 1938SOL    HW2 6714   2.389   1.132   1.438
 1939SOL     OW 6715   6.642   0.734   5.059
 1939SOL    HW1 6716   6.575   0.711   4.988
 1939SOL    HW2 6717   6.734   0.725   5.022
 1940SOL     OW 6718   5.061   5.170   0.511
 1940SOL    HW1 6719   5.084   5.264   0.485
 1940SOL    HW2 6720   5.145   5.117   0.522
 1941SOL     OW 6721   0.147   4.469   3.682
 1941SOL    HW1 6722   0.161   4.391   3.742
 1941SOL    HW2 6723   0.052   4.498   3.686
 1942SOL     OW 6724   5.598   0.189   1.511
 1942SOL    HW1 6725   5.611   0.138   1.426
 1942SOL    HW2 6726   5.586   0.286   1.491
 1943SOL     OW 6727   3.126   6.230   2.609
 1943SOL    HW1 6728   3.219   6.218   2.642
 1943SOL    HW2 6729   3.061   6.208   2.682
 1944SOL     OW 6730   6.158   2.190   0.216
 1944SOL    HW1 6731   6.120   2.240   0.138
 1944SOL    HW2 6732   6.255   2.210   0.223
 1945SOL     OW 6733   3.187   5.661   1.595
 1945SOL    HW1 6734   3.250   5.616   1.531
 1945SOL    HW2 6735   3.204   5.759   1.595
 1946SOL     OW 6736   6.334   0.000   1.353
 1946SOL    HW1 6737   6.422   0.045   1.369
 1946SOL    HW2 6738   6.266   0.036   1.417
 1947SOL     OW 6739   5.419   6.587   4.674
 1947SOL    HW1 6740   5.378   6.677   4.685
 1947SOL    HW2 6741   5.351   6.517   4.696
 1948SOL     OW 6742   5.389   5.157   3.871
 1948SOL    HW1 6743   5.354   5.066   3.894
 1948SOL    HW2 6744   5.380   5.172   3.773
 1949SOL     OW 6745   3.271   4.313   6.525
 1949SOL    HW1 6746   3.268   4.413   6.527
 1949SOL    HW2 6747   3.356   4.283   6.482
 1950SOL     OW 6748   4.189   4.384   0.440
 1950SOL    HW1 6749   4.188   4.431   0.528
 1950SOL    HW2 6750   4.252   4.306   0.445
 1951SOL     OW 6751   5.858   3.397   6.902
 1951SOL    HW1 6752   5.830   3.356   6.815
 1951SOL    HW2 6753   5.868   3.325   6.971
 1952SOL     OW 6754   4.797   2.743   0.358
 1952SOL    HW1 6755   4.843   2.793   0.284
 1952SOL    HW2 6756   4.866   2.701   0.417
 1953SOL     OW 6757   6.356   1.638   6.070
 1953SOL    HW1 6758   6.385   1.641   5.974
 1953SOL    HW2 6759   6.272   1.585   6.077
 1954SOL     OW 6760   5.600   1.223   3.209
 1954SOL    HW1 6761   5.672   1.167   3.169
 1954SOL    HW2 6762   5.517   1.168   3.221
 1955SOL     OW 6763   0.919   1.878   2.715
 1955SOL    HW1 6764   0.853   1.871   2.789
 1955SOL    HW2 6765   0.886   1.829   2.635
 1956SOL     OW 6766   4.794   6.729   2.666
 1956SOL    HW1 6767   4.755   6.698   2.752
 1956SOL    HW2 6768   4.845   6.814   2.681
 1957SOL     OW 6769   5.906   5.009   4.182
 1957SOL    HW1 6770   5.929   5.107   4.180
 1957SOL    HW2 6771   5.909   4.972   4.089
 1958SOL     OW 6772   4.876   2.401   2.828
 1958SOL    HW1 6773   4.871   2.378   2.925
 1958SOL    HW2 6774   4.925   2.330   2.779
 1959SOL     OW 6775   0.691   0.842   5.321
 1959SOL    HW1 6776   0.680   0.902   5.400
 1959SOL    HW2 6777   0.659   0.889   5.239
 1960SOL     OW 6778   6.910   4.569   2.197
 1960SOL    HW1 6779   7.006   4.586   2.176
 1960SOL    HW2 6780   6.894   4.471   2.203
 1961SOL     OW 6781   5.851   4.298   4.255
 1961SOL    HW1 6782   5.822   4.393   4.248
 1961SOL    HW2 6783   5.773   4.238   4.239
 1962SOL     OW 6784   1.811   6.063   3.922
 1962SOL    HW1 6785   1.745   6.021   3.985
 1962SOL    HW2 6786   1.863   5.991   3.877
 1963SOL     OW 6787   0.971   1.716   1.239
 1963SOL    HW1 6788   0.991   1.733   1.335
 1963SOL    HW2 6789   0.872   1.723   1.224
 1964SOL     OW 6790   4.596   4.339   0.630
 1964SOL    HW1 6791   4.634   4.415   0.576
 1964SOL    HW2 6792   4.671   4.291   0.676
 1965SOL     OW 6793   1.527   2.989   4.538
 1965SOL    HW1 6794   1.469   2.970   4.618
 1965SOL    HW2 6795   1.517   3.085   4.512
 1966SOL     OW 6796   6.889   6.497   0.624
 1966SOL    HW1 6797   6.798   6.489   0.584
 1966SOL    HW2 6798   6.911   6.414   0.675
 1967SOL     OW 6799   5.245   2.352   5.685
 1967SOL    HW1 6800   5.171   2.328   5.748
 1967SOL    HW2 6801   5.255   2.451   5.682
 1968SOL     OW 6802   2.178   6.784   6.378
 1968SOL    HW1 6803   2.200   6.826   6.290
 1968SOL    HW2 6804   2.200   6.847   6.452
 1969SOL     OW 6805   0.836   1.484   2.059
 1969SOL    HW1 6806   0.917   1.471   2.117
 1969SOL    HW2 6807   0.812   1.581   2.056
 1970SOL     OW 6808   2.349   6.312   6.298
 1970SOL    HW1 6809   2.412   6.374   6.252
 1970SOL    HW2 6810   2.291   6.364   6.361
 1971SOL     OW 6811   0.134   0.343   5.756
 1971SOL    HW1 6812   0.170   0.351   5.663
 1971SOL    HW2 6813   0.203   0.302   5.815
 1972SOL     OW 6814   5.399   2.207   2.081
 1972SOL    HW1 6815   5.315   2.187   2.030
 1972SOL    HW2 6816   5.445   2.285   2.039
 1973SOL     OW 6817   3.240   2.061   0.064
 1973SOL    HW1 6818   3.288   2.148   0.058
 1973SOL    HW2 6819   3.307   1.986   0.063
 1974SOL     OW 6820   6.053   6.665   4.959
 1974SOL    HW1 6821   6.053   6.730   4.884
 1974SOL    HW2 6822   5.985   6.693   5.027
 1975SOL     OW 6823   2.137   1.613   3.702
 1975SOL    HW1 6824   2.113   1.547   3.774
 1975SOL    HW2 6825   2.228   1.649   3.719
 1976SOL     OW 6826   0.482   6.656   0.371
 1976SOL    HW1 6827   0.404   6.697   0.418
 1976SOL    HW2 6828   0.478   6.678   0.274
 1977SOL     OW 6829   0.688   2.967   4.793
 1977SOL    HW1 6830   0.676   2.976   4.892
 1977SOL    HW2 6831   0.608   2.922   4.754
 1978SOL     OW 6832   2.027   6.853   2.886
 1978SOL    HW1 6833   1.974   6.926   2.930
 1978SOL    HW2 6834   2.120   6.853   2.921
 1979SOL     OW 6835   6.555   4.524   6.153
 1979SOL    HW1 6836   6.494   4.540   6.076
 1979SOL    HW2 6837   6.648   4.513   6.120
 1980SOL     OW 6838   3.110   0.110   4.690
 1980SOL    HW1 6839   3.012   0.092   4.678
 1980SOL    HW2 6840   3.161   0.070   4.614
 1981SOL     OW 6841   7.004   2.118   2.425
 1981SOL    HW1 6842   6.991   2.104   2.523
 1981SOL    HW2 6843   6.992   2.031   2.377
 1982SOL     OW 6844   0.182   4.146   5.056
 1982SOL    HW1 6845   0.169   4.216   4.986
 1982SOL    HW2 6846   0.134   4.062   5.030
 1983SOL     OW 6847   1.280   1.072   2.606
 1983SOL    HW1 6848   1.314   1.096   2.515
 1983SOL    HW2 6849   1.269   1.155   2.660
 1984SOL     OW 6850   5.523   1.578   5.454
 1984SOL    HW1 6851   5.535   1.529   5.367
 1984SOL    HW2 6852   5.431   1.617   5.458
 1985SOL     OW 6853   1.190   6.142   2.466
 1985SOL    HW1 6854   1.136   6.124   2.384
 1985SOL    HW2 6855   1.128   6.151   2.544
 1986SOL     OW 6856   2.060   1.679   6.953
 1986SOL    HW1 6857   2.032   1.594   6.908
 1986SOL    HW2 6858   2.129   1.724   6.897
 1987SOL     OW 6859   1.725   2.509   2.412
 1987SOL    HW1 6860   1.630   2.538   2.409
 1987SOL    HW2 6861   1.770   2.529   2.325
 1988SOL     OW 6862   6.106   4.062   1.084
 1988SOL    HW1 6863   6.021   4.110   1.063
 1988SOL    HW2 6864   6.139   4.089   1.174
 1989SOL     OW 6865   2.364   5.386   5.213
 1989SOL    HW1 6866   2.382   5.406   5.117
 1989SOL    HW2 6867   2.273   5.347   5.223
 1990SOL     OW 6868   3.529   6.376   0.398
 1990SOL    HW1 6869   3.607   6.329   0.439
 1990SOL    HW2 6870   3.459   6.392   0.468
 1991SOL     OW 6871   3.441   5.132   6.822
 1991SOL    HW1 6872   3.352   5.146   6.864
 1991SOL    HW2 6873   3.469   5.037   6.834
 1992SOL     OW 6874   0.920   0.735   0.268
 1992SOL    HW1 6875   1.014   0.718   0.239
 1992SOL    HW2 6876   0.880   0.807   0.211
 1993SOL     OW 6877   3.782   2.703   5.286
 1993SOL    HW1 6878   3.701   2.697   5.344
 1993SOL    HW2 6879   3.757   2.746   5.199
 1994SOL     OW 6880   0.664   1.066   0.672
 1994SOL    HW1 6881   0.705   0.985   0.715
 1994SOL    HW2 6882   0.727   1.143   0.677
 1995SOL     OW 6883   5.272   2.473   3.583
 1995SOL    HW1 6884   5.253   2.393   3.527
 1995SOL    HW2 6885   5.367   2.471   3.615
 1996SOL     OW 6886   2.139   3.577   0.903
 1996SOL    HW1 6887   2.163   3.490   0.859
 1996SOL    HW2 6888   2.063   3.563   0.966
 1997SOL     OW 6889   3.319   1.500   4.545
 1997SOL    HW1 6890   3.402   1.451   4.571
 1997SOL    HW2 6891   3.343   1.591   4.511
 1998SOL     OW 6892   1.957   4.547   6.234
 1998SOL    HW1 6893   1.885   4.479   6.244
 1998SOL    HW2 6894   2.006   4.557   6.321
 1999SOL     OW 6895   2.530   6.633   0.119
 1999SOL    HW1 6896   2.487   6.723   0.131
 1999SOL    HW2 6897   2.475   6.579   0.056
 2000SOL     OW 6898   4.255   2.244   5.474
 2000SOL    HW1 6899   4.306   2.218   5.556
 2000SOL    HW2 6900   4.158   2.221   5.487
 2001SOL     OW 6901   3.378   0.715   1.940
 2001SOL    HW1 6902   3.278   0.709   1.944
 2001SOL    HW2 6903   3.405   0.771   1.862
 2002SOL     OW 6904   0.700   4.741   6.845
 2002SOL    HW1 6905   0.750   4.803   6.905
 2002SOL    HW2 6906   0.765   4.694   6.785
 2003SOL     OW 6907   6.159   5.752   2.644
 2003SOL    HW1 6908   6.194   5.667   2.604
 2003SOL    HW2 6909   6.231   5.821   2.643
 2004SOL     OW 6910   5.226   1.309   5.703
 2004SOL    HW1 6911   5.282   1.291   5.622
 2004SOL    HW2 6912   5.171   1.228   5.724
 2005SOL     OW 6913   0.625   5.086   0.499
 2005SOL    HW1 6914   0.646   5.124   0.588
 2005SOL    HW2 6915   0.586   5.156   0.440
 2006SOL     OW 6916   5.055   6.643   4.007
 2006SOL    HW1 6917   5.077   6.609   3.915
 2006SOL    HW2 6918   5.117   6.717   4.031
 2007SOL     OW 6919   4.997   4.673   0.975
 2007SOL    HW1 6920   5.013   4.621   1.059
 2007SOL    HW2 6921   5.017   4.615   0.896
 2008SOL     OW 6922   2.947   5.096   3.997
 2008SOL    HW1 6923   2.986   5.181   3.962
 2008SOL    HW2 6924   2.970   5.085   4.094
 2009SOL     OW 6925   5.975   1.041   2.158
 2009SOL    HW1 6926   6.074   1.027   2.148
 2009SOL    HW2 6927   5.936   1.068   2.070
 2010SOL     OW 6928   1.956   1.993   0.651
 2010SOL    HW1 6929   1.903   1.916   0.616
 2010SOL    HW2 6930   1.912   2.079   0.624
 2011SOL     OW 6931   6.839   6.280   4.676
 2011SOL    HW1 6932   6.781   6.263   4.756
 2011SOL    HW2 6933   6.914   6.340   4.701
 2012SOL     OW 6934   1.684   3.899   2.268
 2012SOL    HW1 6935   1.671   3.994   2.239
 2012SOL    HW2 6936   1.752   3.856   2.209
 2013SOL     OW 6937   6.205   2.490   3.279
 2013SOL    HW1 6938   6.115   2.482   3.237
 2013SOL    HW2 6939   6.269   2.429   3.232
 2014SOL     OW 6940   2.581   5.399   3.565
 2014SOL    HW1 6941   2.532   5.315   3.542
 2014SOL    HW2 6942   2.524   5.455   3.625
 2015SOL     OW 6943   1.971   0.663   6.532
 2015SOL    HW1 6944   1.907   0.709   6.471
 2015SOL    HW2 6945   1.920   0.613   6.602
 2016SOL     OW 6946   1.209   6.274   5.779
 2016SOL    HW1 6947   1.214   6.178   5.806
 2016SOL    HW2 6948   1.226   6.282   5.681
 2017SOL     OW 6949   3.462   6.727   4.765
 2017SOL    HW1 6950   3.383   6.674   4.733
 2017SOL    HW2 6951   3.447   6.824   4.749
 2018SOL     OW 6952   5.444   0.555   5.831
 2018SOL    HW1 6953   5.448   0.643   5.785
 2018SOL    HW2 6954   5.504   0.490   5.785
 2019SOL     OW 6955   5.319   2.854   6.478
 2019SOL    HW1 6956   5.293   2.769   6.524
 2019SOL    HW2 6957   5.339   2.924   6.547
 2020SOL     OW 6958   1.789   6.623   5.482
 2020SOL    HW1 6959   1.720   6.652   5.548
 2020SOL    HW2 6960   1.760   6.537   5.439
 2021SOL     OW 6961   0.570   5.812   4.545
 2021SOL    HW1 6962   0.550   5.773   4.456
 2021SOL    HW2 6963   0.486   5.820   4.599
 2022SOL     OW 6964   1.664   3.513   3.381
 2022SOL    HW1 6965   1.713   3.600   3.377
 2022SOL    HW2 6966   1.726   3.442   3.415
 2023SOL     OW 6967   6.608   1.006   6.630
 2023SOL    HW1 6968   6.610   1.075   6.703
 2023SOL    HW2 6969   6.686   0.944   6.642
 2024SOL     OW 6970   0.365   6.889   3.305
 2024SOL    HW1 6971   0.399   6.950   3.232
 2024SOL    HW2 6972   0.332   6.804   3.264
 2025SOL     OW 6973   2.684   1.798   3.038
 2025SOL    HW1 6974   2.592   1.789   2.998
 2025SOL    HW2 6975   2.742   1.852   2.977
 2026SOL     OW 6976   0.063   2.984   5.836
 2026SOL    HW1 6977   0.114   2.900   5.819
 2026SOL    HW2 6978   0.128   3.059   5.852
 2027SOL     OW 6979   1.080   6.813   0.053
 2027SOL    HW1 6980   1.057   6.795   0.148
 2027SOL    HW2 6981   1.044   6.902   0.026
 2028SOL     OW 6982   3.022   6.164   5.027
 2028SOL    HW1 6983   3.008   6.252   4.982
 2028SOL    HW2 6984   2.959   6.096   4.989
 2029SOL     OW 6985   6.717   0.989   0.515
 2029SOL    HW1 6986   6.694   0.935   0.596
 2029SOL    HW2 6987   6.816   0.986   0.500
 2030SOL     OW 6988   2.618   0.955   3.004
 2030SOL    HW1 6989   2.581   1.046   3.024
 2030SOL    HW2 6990   2.713   0.963   2.977
 2031SOL     OW 6991   6.211   5.752   1.044
 2031SOL    HW1 6992   6.167   5.686   1.105
 2031SOL    HW2 6993   6.285   5.798   1.093
 2032SOL     OW 6994   4.573   0.487   2.223
 2032SOL    HW1 6995   4.624   0.444   2.297
 2032SOL    HW2 6996   4.631   0.556   2.179
 2033SOL     OW 6997   3.069   3.994   5.990
 2033SOL    HW1 6998   3.144   4.049   6.028
 2033SOL    HW2 6999   3.100   3.950   5.905
 2034SOL     OW 7000   2.682   5.503   5.577
 2034SOL    HW1 7001   2.618   5.527   5.503
 2034SOL    HW2 7002   2.683   5.404   5.589
 2035SOL     OW 7003   0.091   6.940   3.443
 2035SOL    HW1 7004   0.081   6.877   3.520
 2035SOL    HW2 7005   0.177   6.990   3.450
 2036SOL     OW 7006   1.350   4.040   2.671
 2036SOL    HW1 7007   1.417   4.065   2.741
 2036SOL    HW2 7008   1.396   4.030   2.583
 2037SOL     OW 7009   6.857   3.333   5.674
 2037SOL    HW1 7010   6.854   3.411   5.611
 2037SOL    HW2 7011   6.846   3.248   5.623
 2038SOL     OW 7012   1.611   2.618   0.152
 2038SOL    HW1 7013   1.607   2.706   0.104
 2038SOL    HW2 7014   1.608   2.543   0.086
 2039SOL     OW 7015   0.038   5.077   3.645
 2039SOL    HW1 7016   0.056   5.073   3.743
 2039SOL    HW2 7017   0.063   4.990   3.603
 2040SOL     OW 7018   3.188   3.122   5.581
 2040SOL    HW1 7019   3.230   3.135   5.670
 2040SOL    HW2 7020   3.089   3.112   5.592
 2041SOL     OW 7021   0.817   6.166   5.973
 2041SOL    HW1 7022   0.717   6.172   5.979
 2041SOL    HW2 7023   0.855   6.150   6.063
 2042SOL     OW 7024   4.737   5.980   0.053
 2042SOL    HW1 7025   4.792   5.898   0.034
 2042SOL    HW2 7026   4.699   6.015   6.990
 2043SOL     OW 7027   6.876   3.422   3.417
 2043SOL    HW1 7028   6.922   3.444   3.502
 2043SOL    HW2 7029   6.850   3.507   3.370
 2044SOL     OW 7030   6.486   6.891   1.922
 2044SOL    HW1 7031   6.451   6.979   1.890
 2044SOL    HW2 7032   6.414   6.822   1.914
 2045SOL     OW 7033   1.972   5.168   3.765
 2045SOL    HW1 7034   1.981   5.267   3.768
 2045SOL    HW2 7035   2.062   5.126   3.780
 2046SOL     OW 7036   6.850   2.224   3.713
 2046SOL    HW1 7037   6.907   2.204   3.633
 2046SOL    HW2 7038   6.907   2.262   3.786
 2047SOL     OW 7039   6.920   2.683   6.909
 2047SOL    HW1 7040   6.900   2.603   6.966
 2047SOL    HW2 7041   6.854   2.686   6.833
 2048SOL     OW 7042   1.501   6.328   6.405
 2048SOL    HW1 7043   1.426   6.337   6.339
 2048SOL    HW2 7044   1.551   6.414   6.410
 2049SOL     OW 7045   6.137   1.482   5.137
 2049SOL    HW1 7046   6.174   1.460   5.228
 2049SOL    HW2 7047   6.210   1.516   5.078
 2050SOL     OW 7048   6.642   2.075   3.829
 2050SOL    HW1 7049   6.590   2.131   3.894
 2050SOL    HW2 7050   6.717   2.129   3.791
 2051SOL     OW 7051   1.246   5.727   0.373
 2051SOL    HW1 7052   1.191   5.667   0.431
 2051SOL    HW2 7053   1.185   5.780   0.314
 2052SOL     OW 7054   1.450   3.692   1.332
 2052SOL    HW1 7055   1.546   3.698   1.308
 2052SOL    HW2 7056   1.398   3.660   1.252
 2053SOL     OW 7057   6.222   6.429   4.079
 2053SOL    HW1 7058   6.234   6.330   4.086
 2053SOL    HW2 7059   6.238   6.471   4.169
 2054SOL     OW 7060   3.345   4.145   2.949
 2054SOL    HW1 7061   3.436   4.183   2.967
 2054SOL    HW2 7062   3.328   4.145   2.851
 2055SOL     OW 7063   6.200   3.439   3.740
 2055SOL    HW1 7064   6.125   3.462   3.677
 2055SOL    HW2 7065   6.188   3.489   3.825
 2056SOL     OW 7066   4.133   5.910   2.450
 2056SOL    HW1 7067   4.035   5.890   2.447
 2056SOL    HW2 7068   4.147   6.007   2.427
 2057SOL     OW 7069   5.316   4.337   5.742
 2057SOL    HW1 7070   5.273   4.344   5.832
 2057SOL    HW2 7071   5.402   4.287   5.750
 2058SOL     OW 7072   0.328   1.495   3.283
 2058SOL    HW1 7073   0.300   1.522   3.191
 2058SOL    HW2 7074   0.424   1.467   3.282
 2059SOL     OW 7075   1.860   5.895   6.850
 2059SOL    HW1 7076   1.925   5.962   6.814
 2059SOL    HW2 7077   1.823   5.841   6.775
 2060SOL     OW 7078   0.569   4.551   1.868
 2060SOL    HW1 7079   0.583   4.512   1.959
 2060SOL    HW2 7080   0.624   4.502   1.801
 2061SOL     OW 7081   1.227   2.105   2.787
 2061SOL    HW1 7082   1.211   2.045   2.865
 2061SOL    HW2 7083   1.149   2.102   2.725
 2062SOL     OW 7084   6.123   5.817   4.311
 2062SOL    HW1 7085   6.108   5.830   4.213
 2062SOL    HW2 7086   6.091   5.726   4.338
 2063SOL     OW 7087   1.753   6.593   6.451
 2063SOL    HW1 7088   1.763   6.612   6.354
 2063SOL    HW2 7089   1.681   6.650   6.490
 2064SOL     OW 7090   0.736   2.797   5.454
 2064SOL    HW1 7091   0.783   2.748   5.527
 2064SOL    HW2 7092   0.750   2.748   5.367
 2065SOL     OW 7093   6.231   2.495   5.293
 2065SOL    HW1 7094   6.251   2.588   5.323
 2065SOL    HW2 7095   6.314   2.440   5.298
 2066SOL     OW 7096   0.512   4.415   4.499
 2066SOL    HW1 7097   0.505   4.411   4.599
 2066SOL    HW2 7098   0.603   4.446   4.473
 2067SOL     OW 7099   6.329   5.322   1.212
 2067SOL    HW1 7100   6.372   5.233   1.229
 2067SOL    HW2 7101   6.365   5.388   1.278
 2068SOL     OW 7102   2.458   0.049   4.564
 2068SOL    HW1 7103   2.379   0.076   4.618
 2068SOL    HW2 7104   2.428   0.004   4.480
 2069SOL     OW 7105   0.028   1.741   3.900
 2069SOL    HW1 7106   0.068   1.747   3.808
 2069SOL    HW2 7107   0.100   1.726   3.967
 2070SOL     OW 7108   0.620   1.283   1.232
 2070SOL    HW1 7109   0.658   1.205   1.282
 2070SOL    HW2 7110   0.638   1.367   1.284
 2071SOL     OW 7111   6.653   0.567   6.214
 2071SOL    HW1 7112   6.614   0.486   6.170
 2071SOL    HW2 7113   6.690   0.629   6.144
 2072SOL     OW 7114   4.816   5.678   4.269
 2072SOL    HW1 7115   4.732   5.717   4.232
 2072SOL    HW2 7116   4.885   5.672   4.197
 2073SOL     OW 7117   4.391   0.311   5.141
 2073SOL    HW1 7118   4.325   0.376   5.178
 2073SOL    HW2 7119   4.345   0.223   5.125
 2074SOL     OW 7120   2.125   2.749   6.446
 2074SOL    HW1 7121   2.208   2.722   6.495
 2074SOL    HW2 7122   2.086   2.831   6.487
 2075SOL     OW 7123   6.828   2.695   3.179
 2075SOL    HW1 7124   6.880   2.653   3.105
 2075SOL    HW2 7125   6.880   2.688   3.264
 2076SOL     OW 7126   5.971   0.125   6.460
 2076SOL    HW1 7127   6.030   0.064   6.407
 2076SOL    HW2 7128   5.929   0.192   6.399
 2077SOL     OW 7129   5.609   2.022   3.522
 2077SOL    HW1 7130   5.694   2.075   3.531
 2077SOL    HW2 7131   5.559   2.025   3.609
 2078SOL     OW 7132   1.103   5.786   5.721
 2078SOL    HW1 7133   1.048   5.711   5.758
 2078SOL    HW2 7134   1.188   5.750   5.684
 2079SOL     OW 7135   5.713   2.006   3.234
 2079SOL    HW1 7136   5.715   2.012   3.334
 2079SOL    HW2 7137   5.640   1.943   3.206
 2080SOL     OW 7138   1.868   0.110   5.138
 2080SOL    HW1 7139   1.952   0.123   5.086
 2080SOL    HW2 7140   1.798   0.070   5.078
 2081SOL     OW 7141   1.373   5.636   4.785
 2081SOL    HW1 7142   1.282   5.655   4.748
 2081SOL    HW2 7143   1.439   5.630   4.710
 2082SOL     OW 7144   0.700   6.617   3.176
 2082SOL    HW1 7145   0.791   6.608   3.217
 2082SOL    HW2 7146   0.693   6.705   3.130
 2083SOL     OW 7147   6.918   4.800   5.761
 2083SOL    HW1 7148   6.915   4.885   5.814
 2083SOL    HW2 7149   6.824   4.768   5.744
 2084SOL     OW 7150   0.337   4.543   3.501
 2084SOL    HW1 7151   0.364   4.639   3.495
 2084SOL    HW2 7152   0.270   4.531   3.574
 2085SOL     OW 7153   4.763   0.735   0.194
 2085SOL    HW1 7154   4.719   0.646   0.200
 2085SOL    HW2 7155   4.844   0.736   0.253
 2086SOL     OW 7156   3.849   6.526   6.180
 2086SOL    HW1 7157   3.947   6.536   6.195
 2086SOL    HW2 7158   3.831   6.517   6.082
 2087SOL     OW 7159   4.726   0.882   1.354
 2087SOL    HW1 7160   4.631   0.876   1.324
 2087SOL    HW2 7161   4.772   0.956   1.306
 2088SOL     OW 7162   1.534   5.455   0.108
 2088SOL    HW1 7163   1.497   5.545   0.087
 2088SOL    HW2 7164   1.484   5.386   0.056
 2089SOL     OW 7165   5.267   3.203   6.095
 2089SOL    HW1 7166   5.219   3.218   6.008
 2089SOL    HW2 7167   5.366   3.199   6.078
 2090SOL     OW 7168   4.469   3.966   5.944
 2090SOL    HW1 7169   4.446   3.973   5.847
 2090SOL    HW2 7170   4.426   4.042   5.993
 2091SOL     OW 7171   0.583   5.185   0.770
 2091SOL    HW1 7172   0.596   5.166   0.868
 2091SOL    HW2 7173   0.509   5.251   0.759
 2092SOL     OW 7174   5.284   4.270   0.330
 2092SOL    HW1 7175   5.374   4.274   0.288
 2092SOL    HW2 7176   5.242   4.182   0.308
 2093SOL     OW 7177   2.562   2.143   1.195
 2093SOL    HW1 7178   2.578   2.209   1.121
 2093SOL    HW2 7179   2.530   2.057   1.157
 2094SOL     OW 7180   6.296   1.679   2.679
 2094SOL    HW1 7181   6.349   1.697   2.596
 2094SOL    HW2 7182   6.200   1.664   2.654
 2095SOL     OW 7183   6.090   6.975   5.407
 2095SOL    HW1 7184   6.156   7.001   5.478
 2095SOL    HW2 7185   6.042   0.034   5.374
 2096SOL     OW 7186   4.772   3.996   3.097
 2096SOL    HW1 7187   4.744   4.065   3.029
 2096SOL    HW2 7188   4.797   3.911   3.050
 2097SOL     OW 7189   2.718   3.672   6.381
 2097SOL    HW1 7190   2.717   3.594   6.443
 2097SOL    HW2 7191   2.745   3.755   6.431
 2098SOL     OW 7192   4.176   6.274   2.026
 2098SOL    HW1 7193   4.167   6.294   1.929
 2098SOL    HW2 7194   4.140   6.351   2.079
 2099SOL     OW 7195   3.426   2.036   6.457
 2099SOL    HW1 7196   3.487   2.115   6.462
 2099SOL    HW2 7197   3.351   2.055   6.393
 2100SOL     OW 7198   5.391   2.319   6.760
 2100SOL    HW1 7199   5.307   2.302   6.708
 2100SOL    HW2 7200   5.397   2.416   6.783
 2101SOL     OW 7201   0.830   6.794   1.349
 2101SOL    HW1 7202   0.807   6.765   1.442
 2101SOL    HW2 7203   0.780   6.738   1.284
 2102SOL     OW 7204   5.286   4.713   2.446
 2102SOL    HW1 7205   5.292   4.614   2.457
 2102SOL    HW2 7206   5.296   4.757   2.535
 2103SOL     OW 7207   3.128   3.904   6.703
 2103SOL    HW1 7208   3.135   3.807   6.723
 2103SOL    HW2 7209   3.213   3.935   6.660
 2104SOL     OW 7210   1.553   4.528   1.789
 2104SOL    HW1 7211   1.635   4.576   1.758
 2104SOL    HW2 7212   1.476   4.551   1.730
 2105SOL     OW 7213   5.558   4.988   6.056
 2105SOL    HW1 7214   5.502   4.978   5.974
 2105SOL    HW2 7215   5.654   4.973   6.032
 2106SOL     OW 7216   5.034   3.751   1.097
 2106SOL    HW1 7217   5.062   3.661   1.064
 2106SOL    HW2 7218   5.083   3.822   1.046
 2107SOL     OW 7219   6.437   2.284   5.256
 2107SOL    HW1 7220   6.475   2.259   5.167
 2107SOL    HW2 7221   6.497   2.251   5.328
 2108SOL     OW 7222   6.114   5.281   5.301
 2108SOL    HW1 7223   6.107   5.314   5.207
 2108SOL    HW2 7224   6.051   5.205   5.315
 2109SOL     OW 7225   4.456   5.687   2.056
 2109SOL    HW1 7226   4.473   5.764   2.117
 2109SOL    HW2 7227   4.504   5.701   1.969
 2110SOL     OW 7228   2.619   0.871   0.163
 2110SOL    HW1 7229   2.616   0.810   0.243
 2110SOL    HW2 7230   2.651   0.819   0.084
 2111SOL     OW 7231   2.095   3.068   0.159
 2111SOL    HW1 7232   2.190   3.093   0.138
 2111SOL    HW2 7233   2.046   3.048   0.074
 2112SOL     OW 7234   5.120   2.668   0.726
 2112SOL    HW1 7235   5.173   2.749   0.750
 2112SOL    HW2 7236   5.177   2.586   0.738
 2113SOL     OW 7237   3.013   1.769   4.182
 2113SOL    HW1 7238   2.916   1.788   4.194
 2113SOL    HW2 7239   3.036   1.683   4.229
 2114SOL     OW 7240   2.308   1.975   6.675
 2114SOL    HW1 7241   2.257   2.005   6.595
 2114SOL    HW2 7242   2.400   1.947   6.648
 2115SOL     OW 7243   0.878   4.566   3.260
 2115SOL    HW1 7244   0.851   4.611   3.175
 2115SOL    HW2 7245   0.818   4.596   3.334
 2116SOL     OW 7246   0.510   4.124   2.771
 2116SOL    HW1 7247   0.559   4.088   2.851
 2116SOL    HW2 7248   0.461   4.207   2.797
 2117SOL     OW 7249   6.857   4.738   1.702
 2117SOL    HW1 7250   6.867   4.761   1.799
 2117SOL    HW2 7251   6.946   4.742   1.657
 2118SOL     OW 7252   6.195   2.958   2.972
 2118SOL    HW1 7253   6.269   2.969   3.038
 2118SOL    HW2 7254   6.184   2.861   2.949
 2119SOL     OW 7255   1.435   0.100   0.977
 2119SOL    HW1 7256   1.363   0.162   1.009
 2119SOL    HW2 7257   1.401   0.007   0.974
 2120SOL     OW 7258   0.416   4.073   3.617
 2120SOL    HW1 7259   0.417   4.153   3.557
 2120SOL    HW2 7260   0.385   4.100   3.708
 2121SOL     OW 7261   1.169   2.975   5.861
 2121SOL    HW1 7262   1.220   2.907   5.913
 2121SOL    HW2 7263   1.208   2.982   5.769
 2122SOL     OW 7264   5.812   4.878   5.991
 2122SOL    HW1 7265   5.771   4.873   5.900
 2122SOL    HW2 7266   5.891   4.939   5.988
 2123SOL     OW 7267   6.476   4.938   2.170
 2123SOL    HW1 7268   6.544   4.980   2.229
 2123SOL    HW2 7269   6.415   5.008   2.133
 2124SOL     OW 7270   3.078   2.093   1.187
 2124SOL    HW1 7271   3.133   2.130   1.261
 2124SOL    HW2 7272   2.981   2.113   1.203
 2125SOL     OW 7273   2.073   0.304   2.572
 2125SOL    HW1 7274   2.062   0.375   2.642
 2125SOL    HW2 7275   2.157   0.253   2.589
 2126SOL     OW 7276   3.745   2.436   6.711
 2126SOL    HW1 7277   3.662   2.429   6.656
 2126SOL    HW2 7278   3.809   2.500   6.668
 2127SOL     OW 7279   1.108   2.163   5.459
 2127SOL    HW1 7280   1.180   2.178   5.527
 2127SOL    HW2 7281   1.058   2.079   5.482
 2128SOL     OW 7282   6.485   2.907   3.603
 2128SOL    HW1 7283   6.476   2.846   3.525
 2128SOL    HW2 7284   6.483   2.855   3.688
 2129SOL     OW 7285   5.027   3.441   5.281
 2129SOL    HW1 7286   5.029   3.417   5.378
 2129SOL    HW2 7287   5.038   3.539   5.270
 2130SOL     OW 7288   3.280   0.093   2.744
 2130SOL    HW1 7289   3.256   0.175   2.796
 2130SOL    HW2 7290   3.199   0.035   2.734
 2131SOL     OW 7291   4.604   1.673   0.215
 2131SOL    HW1 7292   4.594   1.698   0.311
 2131SOL    HW2 7293   4.514   1.672   0.171
 2132SOL     OW 7294   3.585   1.278   0.953
 2132SOL    HW1 7295   3.527   1.240   0.881
 2132SOL    HW2 7296   3.559   1.374   0.969
 2133SOL     OW 7297   3.232   2.981   1.152
 2133SOL    HW1 7298   3.247   2.949   1.245
 2133SOL    HW2 7299   3.137   2.964   1.125
 2134SOL     OW 7300   1.169   0.752   5.283
 2134SOL    HW1 7301   1.128   0.838   5.254
 2134SOL    HW2 7302   1.116   0.675   5.246
 2135SOL     OW 7303   1.609   2.784   4.827
 2135SOL    HW1 7304   1.678   2.846   4.789
 2135SOL    HW2 7305   1.569   2.730   4.753
 2136SOL     OW 7306   0.719   3.915   4.587
 2136SOL    HW1 7307   0.737   3.931   4.684
 2136SOL    HW2 7308   0.803   3.885   4.541
 2137SOL     OW 7309   0.238   6.075   4.155
 2137SOL    HW1 7310   0.147   6.035   4.158
 2137SOL    HW2 7311   0.240   6.157   4.214
 2138SOL     OW 7312   0.225   0.893   2.037
 2138SOL    HW1 7313   0.234   0.824   1.966
 2138SOL    HW2 7314   0.284   0.971   2.016
 2139SOL     OW 7315   3.363   1.109   2.550
 2139SOL    HW1 7316   3.287   1.120   2.614
 2139SOL    HW2 7317   3.360   1.017   2.511
 2140SOL     OW 7318   3.580   5.956   3.775
 2140SOL    HW1 7319   3.539   6.024   3.835
 2140SOL    HW2 7320   3.620   5.883   3.830
 2141SOL     OW 7321   6.628   4.731   1.378
 2141SOL    HW1 7322   6.606   4.689   1.466
 2141SOL    HW2 7323   6.547   4.777   1.341
 2142SOL     OW 7324   1.166   1.903   2.957
 2142SOL    HW1 7325   1.244   1.900   3.018
 2142SOL    HW2 7326   1.126   1.811   2.950
 2143SOL     OW 7327   2.871   4.202   1.347
 2143SOL    HW1 7328   2.777   4.217   1.377
 2143SOL    HW2 7329   2.905   4.116   1.386
 2144SOL     OW 7330   1.431   5.523   3.530
 2144SOL    HW1 7331   1.369   5.462   3.580
 2144SOL    HW2 7332   1.513   5.471   3.503
 2145SOL     OW 7333   3.863   6.180   4.186
 2145SOL    HW1 7334   3.816   6.216   4.105
 2145SOL    HW2 7335   3.795   6.147   4.252
 2146SOL     OW 7336   2.663   3.736   1.160
 2146SOL    HW1 7337   2.700   3.654   1.117
 2146SOL    HW2 7338   2.659   3.723   1.259
 2147SOL     OW 7339   0.024   1.315   6.682
 2147SOL    HW1 7340   6.994   1.348   6.760
 2147SOL    HW2 7341   7.014   1.358   6.598
 2148SOL     OW 7342   5.248   2.723   4.511
 2148SOL    HW1 7343   5.306   2.653   4.469
 2148SOL    HW2 7344   5.299   2.771   4.582
 2149SOL     OW 7345   4.087   1.698   1.451
 2149SOL    HW1 7346   4.062   1.791   1.422
 2149SOL    HW2 7347   4.014   1.635   1.426
 2150SOL     OW 7348   2.548   2.219   2.268
 2150SOL    HW1 7349   2.625   2.239   2.328
 2150SOL    HW2 7350   2.462   2.237   2.317
 2151SOL     OW 7351   1.851   1.098   4.362
 2151SOL    HW1 7352   1.890   1.186   4.335
 2151SOL    HW2 7353   1.836   1.042   4.281
 2152SOL     OW 7354   3.635   6.489   1.682
 2152SOL    HW1 7355   3.552   6.477   1.735
 2152SOL    HW2 7356   3.657   6.587   1.677
 2153SOL     OW 7357   3.670   0.899   3.216
 2153SOL    HW1 7358   3.600   0.909   3.145
 2153SOL    HW2 7359   3.759   0.925   3.179
 2154SOL     OW 7360   4.910   0.610   4.764
 2154SOL    HW1 7361   5.009   0.616   4.770
 2154SOL    HW2 7362   4.872   0.701   4.749
 2155SOL     OW 7363   1.770   6.043   0.273
 2155SOL    HW1 7364   1.780   6.075   0.179
 2155SOL    HW2 7365   1.749   5.945   0.273
 2156SOL     OW 7366   2.267   0.835   3.215
 2156SOL    HW1 7367   2.177   0.849   3.175
 2156SOL    HW2 7368   2.305   0.922   3.246
 2157SOL     OW 7369   6.144   1.048   3.355
 2157SOL    HW1 7370   6.221   1.109   3.339
 2157SOL    HW2 7371   6.156   0.999   3.441
 2158SOL     OW 7372   3.460   6.309   0.920
 2158SOL    HW1 7373   3.550   6.346   0.897
 2158SOL    HW2 7374   3.415   6.277   0.836
 2159SOL     OW 7375   2.091   6.148   5.270
 2159SOL    HW1 7376   2.094   6.211   5.348
 2159SOL    HW2 7377   2.046   6.192   5.193
 2160SOL     OW 7378   4.915   3.515   0.733
 2160SOL    HW1 7379   4.902   3.418   0.714
 2160SOL    HW2 7380   4.874   3.538   0.821
 2161SOL     OW 7381   5.118   4.093   3.144
 2161SOL    HW1 7382   5.144   4.181   3.105
 2161SOL    HW2 7383   5.053   4.107   3.219
 2162SOL     OW 7384   2.526   0.715   0.584
 2162SOL    HW1 7385   2.557   0.691   0.676
 2162SOL    HW2 7386   2.605   0.746   0.530
 2163SOL     OW 7387   6.930   4.047   6.412
 2163SOL    HW1 7388   6.856   3.995   6.456
 2163SOL    HW2 7389   6.967   3.993   6.335
 2164SOL     OW 7390   1.949   2.986   0.395
 2164SOL    HW1 7391   1.937   3.060   0.461
 2164SOL    HW2 7392   1.879   2.993   0.324
 2165SOL     OW 7393   0.910   1.391   2.952
 2165SOL    HW1 7394   0.836   1.437   2.903
 2165SOL    HW2 7395   0.895   1.399   3.051
 2166SOL     OW 7396   1.884   2.610   5.400
 2166SOL    HW1 7397   1.906   2.693   5.453
 2166SOL    HW2 7398   1.918   2.530   5.449
 2167SOL     OW 7399   1.278   1.123   3.667
 2167SOL    HW1 7400   1.361   1.162   3.627
 2167SOL    HW2 7401   1.245   1.183   3.740
 2168SOL     OW 7402   0.990   1.683   3.582
 2168SOL    HW1 7403   1.062   1.735   3.628
 2168SOL    HW2 7404   0.901   1.709   3.620
 2169SOL     OW 7405   5.426   2.273   5.401
 2169SOL    HW1 7406   5.392   2.329   5.476
 2169SOL    HW2 7407   5.526   2.271   5.403
 2170SOL     OW 7408   6.373   5.706   5.418
 2170SOL    HW1 7409   6.399   5.611   5.403
 2170SOL    HW2 7410   6.273   5.714   5.416
 2171SOL     OW 7411   6.893   3.570   1.697
 2171SOL    HW1 7412   6.894   3.666   1.670
 2171SOL    HW2 7413   6.851   3.515   1.625
 2172SOL     OW 7414   2.353   2.374   0.250
 2172SOL    HW1 7415   2.326   2.442   0.318
 2172SOL    HW2 7416   2.306   2.287   0.269
 2173SOL     OW 7417   4.183   0.549   5.046
 2173SOL    HW1 7418   4.140   0.465   5.079
 2173SOL    HW2 7419   4.197   0.611   5.123
 2174SOL     OW 7420   5.484   5.209   5.276
 2174SOL    HW1 7421   5.443   5.132   5.226
 2174SOL    HW2 7422   5.582   5.214   5.254
 2175SOL     OW 7423   2.728   2.105   4.198
 2175SOL    HW1 7424   2.733   2.096   4.298
 2175SOL    HW2 7425   2.662   2.040   4.161
 2176SOL     OW 7426   0.607   3.205   0.022
 2176SOL    HW1 7427   0.683   3.251   0.068
 2176SOL    HW2 7428   0.638   3.118   7.009
 2177SOL     OW 7429   6.659   1.229   3.818
 2177SOL    HW1 7430   6.654   1.322   3.855
 2177SOL    HW2 7431   6.747   1.188   3.842
 2178SOL     OW 7432   0.939   3.900   0.159
 2178SOL    HW1 7433   0.858   3.904   0.101
 2178SOL    HW2 7434   1.017   3.870   0.106
 2179SOL     OW 7435   1.670   5.361   4.801
 2179SOL    HW1 7436   1.709   5.383   4.890
 2179SOL    HW2 7437   1.576   5.330   4.812
 2180SOL     OW 7438   2.088   3.123   1.847
 2180SOL    HW1 7439   2.128   3.198   1.794
 2180SOL    HW2 7440   2.080   3.150   1.943
 2181SOL     OW 7441   4.840   4.376   5.507
 2181SOL    HW1 7442   4.857   4.471   5.532
 2181SOL    HW2 7443   4.927   4.327   5.499
 2182SOL     OW 7444   0.535   3.386   5.353
 2182SOL    HW1 7445   0.591   3.458   5.313
 2182SOL    HW2 7446   0.565   3.368   5.447
 2183SOL     OW 7447   3.274   4.061   5.634
 2183SOL    HW1 7448   3.233   4.088   5.547
 2183SOL    HW2 7449   3.212   3.999   5.682
 2184SOL     OW 7450   4.535   1.305   6.051
 2184SOL    HW1 7451   4.579   1.394   6.067
 2184SOL    HW2 7452   4.517   1.293   5.954
 2185SOL     OW 7453   1.487   1.516   1.081
 2185SOL    HW1 7454   1.466   1.475   1.170
 2185SOL    HW2 7455   1.408   1.570   1.050
 2186SOL     OW 7456   6.735   5.282   1.881
 2186SOL    HW1 7457   6.790   5.364   1.864
 2186SOL    HW2 7458   6.776   5.230   1.956
 2187SOL     OW 7459   6.758   1.372   1.886
 2187SOL    HW1 7460   6.667   1.358   1.847
 2187SOL    HW2 7461   6.765   1.320   1.972
 2188SOL     OW 7462   5.605   5.786   4.234
 2188SOL    HW1 7463   5.656   5.740   4.162
 2188SOL    HW2 7464   5.669   5.830   4.298
 2189SOL     OW 7465   1.741   6.439   0.163
 2189SOL    HW1 7466   1.666   6.441   0.228
 2189SOL    HW2 7467   1.753   6.530   0.124
 2190SOL     OW 7468   0.676   2.585   1.805
 2190SOL    HW1 7469   0.630   2.593   1.894
 2190SOL    HW2 7470   0.612   2.547   1.738
 2191SOL     OW 7471   2.721   2.014   6.249
 2191SOL    HW1 7472   2.768   1.954   6.184
 2191SOL    HW2 7473   2.651   1.962   6.298
 2192SOL     OW 7474   3.622   0.278   3.425
 2192SOL    HW1 7475   3.690   0.263   3.352
 2192SOL    HW2 7476   3.617   0.375   3.446
 2193SOL     OW 7477   6.817   5.728   6.190
 2193SOL    HW1 7478   6.896   5.717   6.251
 2193SOL    HW2 7479   6.741   5.673   6.223
 2194SOL     OW 7480   2.052   4.929   6.514
 2194SOL    HW1 7481   2.082   5.017   6.550
 2194SOL    HW2 7482   1.955   4.933   6.491
 2195SOL     OW 7483   0.051   0.202   3.799
 2195SOL    HW1 7484   0.131   0.143   3.784
 2195SOL    HW2 7485   6.999   0.171   3.741
 2196SOL     OW 7486   3.297   6.977   4.912
 2196SOL    HW1 7487   3.208   7.015   4.937
 2196SOL    HW2 7488   3.323   7.010   4.821
 2197SOL     OW 7489   3.500   3.312   1.551
 2197SOL    HW1 7490   3.413   3.357   1.528
 2197SOL    HW2 7491   3.483   3.217   1.574
 2198SOL     OW 7492   6.907   1.439   0.136
 2198SOL    HW1 7493   6.902   1.357   0.192
 2198SOL    HW2 7494   6.906   1.520   0.195
 2199SOL     OW 7495   4.776   1.109   3.246
 2199SOL    HW1 7496   4.691   1.059   3.232
 2199SOL    HW2 7497   4.768   1.168   3.326
 2200SOL     OW 7498   3.366   0.249   4.747
 2200SOL    HW1 7499   3.329   0.324   4.691
 2200SOL    HW2 7500   3.464   0.243   4.733
 2201SOL     OW 7501   6.279   2.353   3.051
 2201SOL    HW1 7502   6.186   2.387   3.060
 2201SOL    HW2 7503   6.288   2.301   2.965
 2202SOL     OW 7504   2.867   4.802   2.947
 2202SOL    HW1 7505   2.812   4.731   2.902
 2202SOL    HW2 7506   2.883   4.877   2.884
 2203SOL     OW 7507   2.781   2.897   1.329
 2203SOL    HW1 7508   2.719   2.976   1.329
 2203SOL    HW2 7509   2.839   2.899   1.410
 2204SOL     OW 7510   3.786   1.600   6.645
 2204SOL    HW1 7511   3.872   1.648   6.662
 2204SOL    HW2 7512   3.754   1.621   6.553
 2205SOL     OW 7513   2.044   6.815   6.077
 2205SOL    HW1 7514   1.975   6.838   6.008
 2205SOL    HW2 7515   2.003   6.756   6.146
 2206SOL     OW 7516   2.336   4.158   5.734
 2206SOL    HW1 7517   2.384   4.074   5.758
 2206SOL    HW2 7518   2.358   4.229   5.800
 2207SOL     OW 7519   2.108   3.360   6.995
 2207SOL    HW1 7520   2.129   3.400   0.061
 2207SOL    HW2 7521   2.009   3.345   6.987
 2208SOL     OW 7522   1.719   5.994   2.470
 2208SOL    HW1 7523   1.624   6.024   2.458
 2208SOL    HW2 7524   1.722   5.915   2.531
 2209SOL     OW 7525   0.941   5.579   5.795
 2209SOL    HW1 7526   0.926   5.488   5.834
 2209SOL    HW2 7527   0.857   5.612   5.751
 2210SOL     OW 7528   0.121   4.696   4.567
 2210SOL    HW1 7529   0.037   4.725   4.613
 2210SOL    HW2 7530   0.129   4.596   4.574
 2211SOL     OW 7531   5.576   0.833   0.332
 2211SOL    HW1 7532   5.484   0.862   0.305
 2211SOL    HW2 7533   5.585   0.734   0.321
 2212SOL     OW 7534   2.610   6.386   6.731
 2212SOL    HW1 7535   2.567   6.322   6.667
 2212SOL    HW2 7536   2.557   6.389   6.815
 2213SOL     OW 7537   4.053   2.733   5.343
 2213SOL    HW1 7538   4.104   2.662   5.295
 2213SOL    HW2 7539   3.955   2.721   5.324
 2214SOL     OW 7540   4.438   3.056   6.028
 2214SOL    HW1 7541   4.361   3.091   5.974
 2214SOL    HW2 7542   4.524   3.090   5.990
 2215SOL     OW 7543   6.192   1.825   6.722
 2215SOL    HW1 7544   6.263   1.840   6.653
 2215SOL    HW2 7545   6.198   1.897   6.792
 2216SOL     OW 7546   1.800   0.414   6.093
 2216SOL    HW1 7547   1.857   0.332   6.100
 2216SOL    HW2 7548   1.704   0.387   6.082
 2217SOL     OW 7549   3.605   0.153   1.231
 2217SOL    HW1 7550   3.660   0.194   1.303
 2217SOL    HW2 7551   3.598   0.055   1.245
 2218SOL     OW 7552   0.742   6.707   0.615
 2218SOL    HW1 7553   0.725   6.770   0.691
 2218SOL    HW2 7554   0.665   6.644   0.606
 2219SOL     OW 7555   0.516   2.560   2.023
 2219SOL    HW1 7556   0.490   2.556   2.119
 2219SOL    HW2 7557   0.434   2.553   1.966
 2220SOL     OW 7558   0.868   0.944   4.410
 2220SOL    HW1 7559   0.787   0.916   4.462
 2220SOL    HW2 7560   0.900   1.032   4.443
 2221SOL     OW 7561   6.461   0.345   5.606
 2221SOL    HW1 7562   6.534   0.278   5.591
 2221SOL    HW2 7563   6.497   0.421   5.661
 2222SOL     OW 7564   4.036   0.473   0.436
 2222SOL    HW1 7565   4.123   0.472   0.387
 2222SOL    HW2 7566   3.967   0.517   0.379
 2223SOL     OW 7567   6.377   0.222   3.869
 2223SOL    HW1 7568   6.389   0.288   3.943
 2223SOL    HW2 7569   6.337   0.138   3.905
 2224SOL     OW 7570   1.738   4.693   1.664
 2224SOL    HW1 7571   1.791   4.737   1.591
 2224SOL    HW2 7572   1.720   4.760   1.737
 2225SOL     OW 7573   6.310   5.641   3.072
 2225SOL    HW1 7574   6.310   5.678   3.165
 2225SOL    HW2 7575   6.365   5.699   3.013
 2226SOL     OW 7576   4.071   5.122   0.872
 2226SOL    HW1 7577   4.122   5.208   0.867
 2226SOL    HW2 7578   4.097   5.072   0.955
 2227SOL     OW 7579   5.450   3.731   0.809
 2227SOL    HW1 7580   5.517   3.697   0.875
 2227SOL    HW2 7581   5.371   3.671   0.808
 2228SOL     OW 7582   2.679   5.258   1.516
 2228SOL    HW1 7583   2.597   5.255   1.573
 2228SOL    HW2 7584   2.688   5.171   1.466
 2229SOL     OW 7585   4.088   1.630   4.469
 2229SOL    HW1 7586   4.092   1.697   4.543
 2229SOL    HW2 7587   4.163   1.648   4.404
 2230SOL     OW 7588   6.263   5.568   5.667
 2230SOL    HW1 7589   6.220   5.490   5.623
 2230SOL    HW2 7590   6.195   5.640   5.682
 2231SOL     OW 7591   0.386   0.964   1.365
 2231SOL    HW1 7592   0.399   1.020   1.446
 2231SOL    HW2 7593   0.397   1.020   1.283
 2232SOL     OW 7594   1.268   2.510   4.290
 2232SOL    HW1 7595   1.240   2.587   4.234
 2232SOL    HW2 7596   1.279   2.429   4.232
 2233SOL     OW 7597   2.366   4.524   1.510
 2233SOL    HW1 7598   2.461   4.498   1.491
 2233SOL    HW2 7599   2.324   4.560   1.426
 2234SOL     OW 7600   4.577   2.218   1.833
 2234SOL    HW1 7601   4.516   2.150   1.792
 2234SOL    HW2 7602   4.523   2.292   1.873
 2235SOL     OW 7603   1.927   0.551   1.216
 2235SOL    HW1 7604   1.971   0.556   1.307
 2235SOL    HW2 7605   1.927   0.456   1.185
 2236SOL     OW 7606   0.742   4.281   6.723
 2236SOL    HW1 7607   0.651   4.244   6.743
 2236SOL    HW2 7608   0.811   4.231   6.776
 2237SOL     OW 7609   5.578   4.396   4.003
 2237SOL    HW1 7610   5.675   4.417   4.005
 2237SOL    HW2 7611   5.526   4.475   4.038
 2238SOL     OW 7612   5.694   5.255   1.856
 2238SOL    HW1 7613   5.663   5.172   1.810
 2238SOL    HW2 7614   5.625   5.285   1.921
 2239SOL     OW 7615   3.645   5.257   3.341
 2239SOL    HW1 7616   3.548   5.276   3.328
 2239SOL    HW2 7617   3.688   5.241   3.252
 2240SOL     OW 7618   5.663   5.877   3.815
 2240SOL    HW1 7619   5.585   5.840   3.764
 2240SOL    HW2 7620   5.714   5.802   3.858
 2241SOL     OW 7621   0.241   0.173   2.016
 2241SOL    HW1 7622   0.226   0.181   2.114
 2241SOL    HW2 7623   0.153   0.177   1.968
 2242SOL     OW 7624   5.115   2.707   3.129
 2242SOL    HW1 7625   5.158   2.617   3.124
 2242SOL    HW2 7626   5.019   2.697   3.155
 2243SOL     OW 7627   2.793   6.170   5.256
 2243SOL    HW1 7628   2.769   6.103   5.327
 2243SOL    HW2 7629   2.886   6.202   5.271
 2244SOL     OW 7630   2.868   0.487   2.404
 2244SOL    HW1 7631   2.923   0.478   2.487
 2244SOL    HW2 7632   2.810   0.568   2.410
 2245SOL     OW 7633   0.565   1.643   1.895
 2245SOL    HW1 7634   0.591   1.589   1.975
 2245SOL    HW2 7635   0.612   1.732   1.899
 2246SOL     OW 7636   1.218   1.107   5.729
 2246SOL    HW1 7637   1.205   1.017   5.687
 2246SOL    HW2 7638   1.234   1.096   5.827
 2247SOL     OW 7639   2.673   2.895   5.520
 2247SOL    HW1 7640   2.648   2.799   5.529
 2247SOL    HW2 7641   2.592   2.952   5.533
 2248SOL     OW 7642   3.907   3.778   6.554
 2248SOL    HW1 7643   3.885   3.696   6.502
 2248SOL    HW2 7644   3.974   3.833   6.503
 2249SOL     OW 7645   6.151   6.111   2.438
 2249SOL    HW1 7646   6.232   6.148   2.392
 2249SOL    HW2 7647   6.149   6.142   2.533
 2250SOL     OW 7648   4.626   3.694   0.613
 2250SOL    HW1 7649   4.646   3.687   0.515
 2250SOL    HW2 7650   4.600   3.789   0.635
 2251SOL     OW 7651   5.365   1.435   0.024
 2251SOL    HW1 7652   5.359   1.402   0.118
 2251SOL    HW2 7653   5.459   1.463   0.004
 2252SOL     OW 7654   6.099   2.091   3.421
 2252SOL    HW1 7655   6.037   2.044   3.358
 2252SOL    HW2 7656   6.157   2.023   3.467
 2253SOL     OW 7657   1.078   3.758   6.761
 2253SOL    HW1 7658   1.175   3.736   6.768
 2253SOL    HW2 7659   1.024   3.680   6.793
 2254SOL     OW 7660   2.277   3.415   5.550
 2254SOL    HW1 7661   2.188   3.450   5.521
 2254SOL    HW2 7662   2.264   3.334   5.608
 2255SOL     OW 7663   4.579   2.349   0.121
 2255SOL    HW1 7664   4.482   2.371   0.118
 2255SOL    HW2 7665   4.628   2.421   0.171
 2256SOL     OW 7666   4.030   6.362   1.500
 2256SOL    HW1 7667   3.984   6.281   1.538
 2256SOL    HW2 7668   4.060   6.420   1.575
 2257SOL     OW 7669   6.930   2.166   4.008
 2257SOL    HW1 7670   0.003   2.183   3.986
 2257SOL    HW2 7671   6.902   2.079   3.966
 2258SOL     OW 7672   1.171   4.974   5.390
 2258SOL    HW1 7673   1.232   4.906   5.350
 2258SOL    HW2 7674   1.221   5.060   5.401
 2259SOL     OW 7675   4.868   4.497   6.707
 2259SOL    HW1 7676   4.830   4.568   6.648
 2259SOL    HW2 7677   4.917   4.430   6.650
 2260SOL     OW 7678   6.017   4.632   2.977
 2260SOL    HW1 7679   6.090   4.689   2.938
 2260SOL    HW2 7680   6.047   4.594   3.064
 2261SOL     OW 7681   6.266   6.751   0.970
 2261SOL    HW1 7682   6.214   6.767   0.886
 2261SOL    HW2 7683   6.301   6.838   1.005
 2262SOL     OW 7684   4.967   2.199   2.167
 2262SOL    HW1 7685   4.994   2.205   2.263
 2262SOL    HW2 7686   4.889   2.259   2.151
 2263SOL     OW 7687   2.479   6.074   6.197
 2263SOL    HW1 7688   2.419   6.150   6.222
 2263SOL    HW2 7689   2.569   6.110   6.172
 2264SOL     OW 7690   2.975   2.998   1.064
 2264SOL    HW1 7691   2.925   3.066   1.117
 2264SOL    HW2 7692   2.955   2.907   1.100
 2265SOL     OW 7693   0.717   0.235   3.499
 2265SOL    HW1 7694   0.672   0.211   3.413
 2265SOL    HW2 7695   0.768   0.320   3.487
 2266SOL     OW 7696   6.293   1.717   1.356
 2266SOL    HW1 7697   6.270   1.800   1.305
 2266SOL    HW2 7698   6.211   1.659   1.365
 2267SOL     OW 7699   4.784   2.542   5.212
 2267SOL    HW1 7700   4.723   2.617   5.234
 2267SOL    HW2 7701   4.819   2.553   5.118
 2268SOL     OW 7702   6.392   4.142   6.282
 2268SOL    HW1 7703   6.413   4.207   6.354
 2268SOL    HW2 7704   6.297   4.111   6.291
 2269SOL     OW 7705   5.741   5.828   4.926
 2269SOL    HW1 7706   5.675   5.762   4.890
 2269SOL    HW2 7707   5.800   5.860   4.852
 2270SOL     OW 7708   3.287   2.336   6.142
 2270SOL    HW1 7709   3.321   2.390   6.064
 2270SOL    HW2 7710   3.244   2.397   6.208
 2271SOL     OW 7711   6.303   3.895   0.461
 2271SOL    HW1 7712   6.395   3.929   0.440
 2271SOL    HW2 7713   6.294   3.885   0.560
 2272SOL     OW 7714   5.612   1.465   5.228
 2272SOL    HW1 7715   5.681   1.527   5.192
 2272SOL    HW2 7716   5.654   1.377   5.250
 2273SOL     OW 7717   1.651   0.815   1.994
 2273SOL    HW1 7718   1.638   0.722   2.026
 2273SOL    HW2 7719   1.749   0.835   1.988
 2274SOL     OW 7720   1.870   2.587   6.112
 2274SOL    HW1 7721   1.962   2.626   6.111
 2274SOL    HW2 7722   1.811   2.642   6.171
 2275SOL     OW 7723   5.683   0.453   4.575
 2275SOL    HW1 7724   5.733   0.538   4.591
 2275SOL    HW2 7725   5.626   0.433   4.655
 2276SOL     OW 7726   2.747   4.839   1.184
 2276SOL    HW1 7727   2.756   4.850   1.283
 2276SOL    HW2 7728   2.817   4.776   1.151
 2277SOL     OW 7729   3.645   3.476   5.011
 2277SOL    HW1 7730   3.645   3.540   5.087
 2277SOL    HW2 7731   3.638   3.382   5.046
 2278SOL     OW 7732   6.244   5.849   3.838
 2278SOL    HW1 7733   6.205   5.802   3.759
 2278SOL    HW2 7734   6.335   5.813   3.858
 2279SOL     OW 7735   4.857   5.570   4.515
 2279SOL    HW1 7736   4.775   5.529   4.554
 2279SOL    HW2 7737   4.837   5.604   4.423
 2280SOL     OW 7738   6.912   6.568   4.968
 2280SOL    HW1 7739   6.972   6.648   4.973
 2280SOL    HW2 7740   6.820   6.597   4.943
 2281SOL     OW 7741   3.543   1.149   1.860
 2281SOL    HW1 7742   3.551   1.134   1.959
 2281SOL    HW2 7743   3.469   1.212   1.842
 2282SOL     OW 7744   5.338   6.821   4.784
 2282SOL    HW1 7745   5.258   6.869   4.820
 2282SOL    HW2 7746   5.419   6.876   4.800
 2283SOL     OW 7747   6.647   4.585   1.645
 2283SOL    HW1 7748   6.729   4.642   1.650
 2283SOL    HW2 7749   6.674   4.489   1.634
 2284SOL     OW 7750   2.265   1.319   0.475
 2284SOL    HW1 7751   2.365   1.313   0.476
 2284SOL    HW2 7752   2.232   1.337   0.568
 2285SOL     OW 7753   1.437   2.474   0.528
 2285SOL    HW1 7754   1.368   2.415   0.486
 2285SOL    HW2 7755   1.395   2.532   0.598
 2286SOL     OW 7756   0.471   6.876   4.649
 2286SOL    HW1 7757   0.503   6.825   4.729
 2286SOL    HW2 7758   0.530   6.956   4.635
 2287SOL     OW 7759   2.052   2.466   2.047
 2287SOL    HW1 7760   2.103   2.482   1.963
 2287SOL    HW2 7761   2.008   2.376   2.044
 2288SOL     OW 7762   6.627   4.613   4.600
 2288SOL    HW1 7763   6.710   4.565   4.572
 2288SOL    HW2 7764   6.546   4.560   4.573
 2289SOL     OW 7765   6.209   4.486   2.711
 2289SOL    HW1 7766   6.296   4.441   2.733
 2289SOL    HW2 7767   6.137   4.448   2.769
 2290SOL     OW 7768   1.629   3.541   2.045
 2290SOL    HW1 7769   1.698   3.558   1.974
 2290SOL    HW2 7770   1.553   3.604   2.033
 2291SOL     OW 7771   1.996   2.300   0.367
 2291SOL    HW1 7772   2.056   2.223   0.344
 2291SOL    HW2 7773   1.914   2.265   0.412
 2292SOL     OW 7774   5.868   2.514   3.830
 2292SOL    HW1 7775   5.922   2.433   3.806
 2292SOL    HW2 7776   5.877   2.582   3.757
 2293SOL     OW 7777   6.428   6.557   1.116
 2293SOL    HW1 7778   6.414   6.625   1.188
 2293SOL    HW2 7779   6.351   6.560   1.052
 2294SOL     OW 7780   3.462   1.418   6.423
 2294SOL    HW1 7781   3.462   1.321   6.400
 2294SOL    HW2 7782   3.383   1.438   6.482
 2295SOL     OW 7783   0.459   1.648   2.835
 2295SOL    HW1 7784   0.384   1.604   2.886
 2295SOL    HW2 7785   0.455   1.747   2.847
 2296SOL     OW 7786   3.771   5.680   2.399
 2296SOL    HW1 7787   3.835   5.621   2.449
 2296SOL    HW2 7788   3.693   5.625   2.368
 2297SOL     OW 7789   4.944   4.478   5.903
 2297SOL    HW1 7790   4.933   4.487   5.804
 2297SOL    HW2 7791   4.987   4.390   5.925
 2298SOL     OW 7792   3.994   3.632   2.098
 2298SOL    HW1 7793   3.936   3.686   2.160
 2298SOL    HW2 7794   3.952   3.543   2.082
 2299SOL     OW 7795   4.738   4.850   5.355
 2299SOL    HW1 7796   4.644   4.848   5.389
 2299SOL    HW2 7797   4.795   4.901   5.420
 2300SOL     OW 7798   2.077   6.263   3.267
 2300SOL    HW1 7799   2.072   6.288   3.364
 2300SOL    HW2 7800   1.989   6.281   3.223
 2301SOL     OW 7801   3.881   3.043   3.364
 2301SOL    HW1 7802   3.920   3.135   3.356
 2301SOL    HW2 7803   3.888   3.011   3.458
 2302SOL     OW 7804   3.914   0.548   1.083
 2302SOL    HW1 7805   3.896   0.451   1.068
 2302SOL    HW2 7806   3.831   0.600   1.065
 2303SOL     OW 7807   2.648   3.323   0.423
 2303SOL    HW1 7808   2.742   3.299   0.400
 2303SOL    HW2 7809   2.596   3.239   0.442
 2304SOL     OW 7810   5.859   6.814   4.397
 2304SOL    HW1 7811   5.788   6.759   4.440
 2304SOL    HW2 7812   5.825   6.852   4.311
 2305SOL     OW 7813   1.961   0.371   3.025
 2305SOL    HW1 7814   2.046   0.344   3.070
 2305SOL    HW2 7815   1.890   0.303   3.044
 2306SOL     OW 7816   2.222   5.449   1.988
 2306SOL    HW1 7817   2.216   5.466   2.086
 2306SOL    HW2 7818   2.189   5.530   1.938
 2307SOL     OW 7819   0.136   2.876   4.401
 2307SOL    HW1 7820   0.078   2.938   4.454
 2307SOL    HW2 7821   0.186   2.928   4.333
 2308SOL     OW 7822   2.779   4.841   1.475
 2308SOL    HW1 7823   2.756   4.795   1.561
 2308SOL    HW2 7824   2.879   4.842   1.464
 2309SOL     OW 7825   1.869   0.672   5.324
 2309SOL    HW1 7826   1.887   0.734   5.401
 2309SOL    HW2 7827   1.930   0.696   5.247
 2310SOL     OW 7828   5.645   5.663   1.386
 2310SOL    HW1 7829   5.677   5.593   1.451
 2310SOL    HW2 7830   5.552   5.643   1.358
 2311SOL     OW 7831   2.255   6.572   1.094
 2311SOL    HW1 7832   2.266   6.628   1.176
 2311SOL    HW2 7833   2.346   6.552   1.056
 2312SOL     OW 7834   4.878   5.761   3.119
 2312SOL    HW1 7835   4.860   5.731   3.213
 2312SOL    HW2 7836   4.867   5.860   3.113
 2313SOL     OW 7837   4.828   5.862   1.955
 2313SOL    HW1 7838   4.839   5.889   1.859
 2313SOL    HW2 7839   4.864   5.935   2.013
 2314SOL     OW 7840   5.230   5.685   3.367
 2314SOL    HW1 7841   5.155   5.727   3.418
 2314SOL    HW2 7842   5.211   5.692   3.269
 2315SOL     OW 7843   5.154   2.780   6.220
 2315SOL    HW1 7844   5.072   2.815   6.266
 2315SOL    HW2 7845   5.234   2.796   6.278
 2316SOL     OW 7846   3.748   1.874   3.794
 2316SOL    HW1 7847   3.846   1.870   3.812
 2316SOL    HW2 7848   3.724   1.812   3.720
 2317SOL     OW 7849   0.626   5.812   3.182
 2317SOL    HW1 7850   0.625   5.870   3.101
 2317SOL    HW2 7851   0.541   5.758   3.186
 2318SOL     OW 7852   0.984   2.790   3.626
 2318SOL    HW1 7853   0.970   2.692   3.611
 2318SOL    HW2 7854   0.925   2.842   3.564
 2319SOL     OW 7855   2.049   4.972   3.518
 2319SOL    HW1 7856   1.961   4.944   3.482
 2319SOL    HW2 7857   2.042   4.987   3.617
 2320SOL     OW 7858   0.844   2.197   3.985
 2320SOL    HW1 7859   0.936   2.215   4.021
 2320SOL    HW2 7860   0.808   2.280   3.943
 2321SOL     OW 7861   3.123   0.362   5.640
 2321SOL    HW1 7862   3.050   0.294   5.644
 2321SOL    HW2 7863   3.084   0.453   5.656
 2322SOL     OW 7864   2.444   1.642   4.719
 2322SOL    HW1 7865   2.457   1.738   4.745
 2322SOL    HW2 7866   2.498   1.623   4.637
 2323SOL     OW 7867   2.639   5.023   2.087
 2323SOL    HW1 7868   2.637   4.923   2.086
 2323SOL    HW2 7869   2.722   5.055   2.132
 2324SOL     OW 7870   6.852   6.334   2.544
 2324SOL    HW1 7871   6.836   6.412   2.603
 2324SOL    HW2 7872   6.928   6.280   2.580
 2325SOL     OW 7873   0.676   4.529   1.001
 2325SOL    HW1 7874   0.650   4.576   1.085
 2325SOL    HW2 7875   0.760   4.567   0.965
 2326SOL     OW 7876   3.374   4.925   5.347
 2326SOL    HW1 7877   3.354   4.979   5.428
 2326SOL    HW2 7878   3.295   4.866   5.326
 2327SOL     OW 7879   5.908   3.577   4.612
 2327SOL    HW1 7880   6.003   3.604   4.625
 2327SOL    HW2 7881   5.897   3.535   4.522
 2328SOL     OW 7882   3.710   1.935   3.446
 2328SOL    HW1 7883   3.681   1.999   3.374
 2328SOL    HW2 7884   3.778   1.980   3.504
 2329SOL     OW 7885   1.502   4.811   5.313
 2329SOL    HW1 7886   1.587   4.799   5.364
 2329SOL    HW2 7887   1.522   4.854   5.224
 2330SOL     OW 7888   0.196   4.312   2.187
 2330SOL    HW1 7889   0.160   4.326   2.279
 2330SOL    HW2 7890   0.145   4.238   2.143
 2331SOL     OW 7891   6.459   4.102   0.135
 2331SOL    HW1 7892   6.451   4.154   0.050
 2331SOL    HW2 7893   6.518   4.023   0.120
 2332SOL     OW 7894   4.124   1.886   5.678
 2332SOL    HW1 7895   4.103   1.803   5.625
 2332SOL    HW2 7896   4.219   1.913   5.660
 2333SOL     OW 7897   6.780   5.385   2.926
 2333SOL    HW1 7898   6.727   5.430   2.998
 2333SOL    HW2 7899   6.873   5.369   2.958
 2334SOL     OW 7900   2.321   0.169   0.024
 2334SOL    HW1 7901   2.253   0.143   0.094
 2334SOL    HW2 7902   2.412   0.168   0.065
 2335SOL     OW 7903   5.769   1.094   3.009
 2335SOL    HW1 7904   5.859   1.080   3.051
 2335SOL    HW2 7905   5.778   1.087   2.909
 2336SOL     OW 7906   4.074   1.869   5.331
 2336SOL    HW1 7907   4.165   1.860   5.373
 2336SOL    HW2 7908   4.060   1.963   5.301
 2337SOL     OW 7909   4.386   1.306   3.437
 2337SOL    HW1 7910   4.346   1.349   3.517
 2337SOL    HW2 7911   4.453   1.368   3.396
 2338SOL     OW 7912   1.332   0.911   6.945
 2338SOL    HW1 7913   1.425   0.875   6.946
 2338SOL    HW2 7914   1.335   1.010   6.959
 2339SOL     OW 7915   3.816   3.375   4.799
 2339SOL    HW1 7916   3.754   3.426   4.860
 2339SOL    HW2 7917   3.791   3.278   4.800
 2340SOL     OW 7918   5.176   6.330   6.083
 2340SOL    HW1 7919   5.177   6.240   6.126
 2340SOL    HW2 7920   5.084   6.369   6.091
 2341SOL     OW 7921   4.811   3.472   1.150
 2341SOL    HW1 7922   4.793   3.374   1.148
 2341SOL    HW2 7923   4.786   3.512   1.062
 2342SOL     OW 7924   0.557   5.904   5.628
 2342SOL    HW1 7925   0.515   5.876   5.715
 2342SOL    HW2 7926   0.486   5.945   5.570
 2343SOL     OW 7927   1.983   6.352   2.133
 2343SOL    HW1 7928   2.018   6.396   2.050
 2343SOL    HW2 7929   1.981   6.253   2.119
 2344SOL     OW 7930   1.611   1.204   1.168
 2344SOL    HW1 7931   1.567   1.243   1.087
 2344SOL    HW2 7932   1.703   1.172   1.144
 2345SOL     OW 7933   2.107   5.739   5.345
 2345SOL    HW1 7934   2.113   5.665   5.413
 2345SOL    HW2 7935   2.163   5.816   5.376
 2346SOL     OW 7936   4.911   3.679   4.738
 2346SOL    HW1 7937   4.882   3.650   4.829
 2346SOL    HW2 7938   4.917   3.599   4.678
 2347SOL     OW 7939   2.089   4.131   1.386
 2347SOL    HW1 7940   2.116   4.225   1.404
 2347SOL    HW2 7941   2.016   4.104   1.449
 2348SOL     OW 7942   3.543   5.919   3.182
 2348SOL    HW1 7943   3.475   5.855   3.218
 2348SOL    HW2 7944   3.595   5.959   3.258
 2349SOL     OW 7945   0.626   5.750   6.870
 2349SOL    HW1 7946   0.577   5.695   6.803
 2349SOL    HW2 7947   0.717   5.772   6.835
 2350SOL     OW 7948   4.902   0.016   6.372
 2350SOL    HW1 7949   5.002   0.012   6.361
 2350SOL    HW2 7950   4.874   6.973   6.442
 2351SOL     OW 7951   3.247   5.003   2.709
 2351SOL    HW1 7952   3.271   5.100   2.708
 2351SOL    HW2 7953   3.248   4.969   2.803
 2352SOL     OW 7954   0.666   4.237   2.371
 2352SOL    HW1 7955   0.667   4.250   2.470
 2352SOL    HW2 7956   0.759   4.236   2.336
 2353SOL     OW 7957   3.067   4.866   4.484
 2353SOL    HW1 7958   3.118   4.848   4.569
 2353SOL    HW2 7959   2.973   4.833   4.494
 2354SOL     OW 7960   3.410   2.608   6.411
 2354SOL    HW1 7961   3.344   2.592   6.337
 2354SOL    HW2 7962   3.455   2.521   6.433
 2355SOL     OW 7963   0.903   5.023   6.640
 2355SOL    HW1 7964   0.960   4.957   6.592
 2355SOL    HW2 7965   0.807   5.010   6.614
 2356SOL     OW 7966   2.743   4.110   0.537
 2356SOL    HW1 7967   2.653   4.146   0.510
 2356SOL    HW2 7968   2.783   4.060   0.461
 2357SOL     OW 7969   3.663   5.175   4.025
 2357SOL    HW1 7970   3.747   5.170   4.079
 2357SOL    HW2 7971   3.644   5.085   3.985
 2358SOL     OW 7972   2.953   5.395   4.648
 2358SOL    HW1 7973   2.941   5.440   4.559
 2358SOL    HW2 7974   2.909   5.449   4.719
 2359SOL     OW 7975   0.973   1.644   5.804
 2359SOL    HW1 7976   1.056   1.694   5.778
 2359SOL    HW2 7977   0.893   1.698   5.781
 2360SOL     OW 7978   4.573   5.949   5.187
 2360SOL    HW1 7979   4.640   6.014   5.223
 2360SOL    HW2 7980   4.563   5.872   5.250
 2361SOL     OW 7981   2.597   0.350   4.322
 2361SOL    HW1 7982   2.503   0.323   4.344
 2361SOL    HW2 7983   2.606   0.449   4.333
 2362SOL     OW 7984   4.312   6.980   5.286
 2362SOL    HW1 7985   4.371   6.903   5.261
 2362SOL    HW2 7986   4.267   6.961   5.374
 2363SOL     OW 7987   4.690   2.248   5.130
 2363SOL    HW1 7988   4.672   2.238   5.032
 2363SOL    HW2 7989   4.709   2.344   5.151
 2364SOL     OW 7990   6.520   1.789   2.855
 2364SOL    HW1 7991   6.491   1.884   2.840
 2364SOL    HW2 7992   6.481   1.730   2.785
 2365SOL     OW 7993   5.877   3.675   5.485
 2365SOL    HW1 7994   5.795   3.622   5.464
 2365SOL    HW2 7995   5.941   3.618   5.538
 2366SOL     OW 7996   1.270   3.322   5.826
 2366SOL    HW1 7997   1.357   3.280   5.852
 2366SOL    HW2 7998   1.269   3.340   5.728
 2367SOL     OW 7999   1.708   3.921   6.595
 2367SOL    HW1 8000   1.755   3.833   6.585
 2367SOL    HW2 8001   1.610   3.905   6.598
 2368SOL     OW 8002   4.997   1.280   4.531
 2368SOL    HW1 8003   5.066   1.352   4.537
 2368SOL    HW2 8004   4.951   1.286   4.442
 2369SOL     OW 8005   2.320   2.871   3.819
 2369SOL    HW1 8006   2.398   2.816   3.851
 2369SOL    HW2 8007   2.235   2.829   3.851
 2370SOL     OW 8008   4.610   4.471   6.855
 2370SOL    HW1 8009   4.518   4.500   6.882
 2370SOL    HW2 8010   4.641   4.526   6.777
 2371SOL     OW 8011   1.766   5.962   2.203
 2371SOL    HW1 8012   1.859   5.933   2.182
 2371SOL    HW2 8013   1.757   5.979   2.301
 2372SOL     OW 8014   0.608   1.820   0.467
 2372SOL    HW1 8015   0.666   1.876   0.408
 2372SOL    HW2 8016   0.665   1.755   0.517
 2373SOL     OW 8017   6.319   1.450   6.624
 2373SOL    HW1 8018   6.276   1.390   6.691
 2373SOL    HW2 8019   6.294   1.420   6.532
 2374SOL     OW 8020   6.515   5.758   3.541
 2374SOL    HW1 8021   6.443   5.768   3.472
 2374SOL    HW2 8022   6.551   5.849   3.565
 2375SOL     OW 8023   1.117   6.382   4.462
 2375SOL    HW1 8024   1.187   6.405   4.395
 2375SOL    HW2 8025   1.027   6.406   4.427
 2376SOL     OW 8026   6.373   2.852   3.884
 2376SOL    HW1 8027   6.314   2.865   3.964
 2376SOL    HW2 8028   6.469   2.860   3.911
 2377SOL     OW 8029   3.230   3.413   4.117
 2377SOL    HW1 8030   3.230   3.485   4.048
 2377SOL    HW2 8031   3.280   3.444   4.198
 2378SOL     OW 8032   4.976   1.986   6.405
 2378SOL    HW1 8033   4.922   1.902   6.415
 2378SOL    HW2 8034   4.947   2.053   6.473
 2379SOL     OW 8035   6.823   2.461   0.017
 2379SOL    HW1 8036   6.882   2.398   6.989
 2379SOL    HW2 8037   6.742   2.411   0.049
 2380SOL     OW 8038   6.830   0.562   5.749
 2380SOL    HW1 8039   6.848   0.526   5.840
 2380SOL    HW2 8040   6.846   0.491   5.681
 2381SOL     OW 8041   1.946   4.183   4.398
 2381SOL    HW1 8042   1.896   4.266   4.376
 2381SOL    HW2 8043   1.923   4.111   4.331
 2382SOL     OW 8044   2.304   5.788   2.693
 2382SOL    HW1 8045   2.270   5.844   2.768
 2382SOL    HW2 8046   2.398   5.815   2.671
 2383SOL     OW 8047   5.690   6.465   6.928
 2383SOL    HW1 8048   5.602   6.450   6.884
 2383SOL    HW2 8049   5.721   6.559   6.912
 2384SOL     OW 8050   1.639   1.475   1.799
 2384SOL    HW1 8051   1.618   1.519   1.887
 2384SOL    HW2 8052   1.710   1.406   1.812
 2385SOL     OW 8053   6.277   0.016   1.064
 2385SOL    HW1 8054   6.266   0.008   1.163
 2385SOL    HW2 8055   6.231   0.099   1.032
 2386SOL     OW 8056   3.882   5.113   4.400
 2386SOL    HW1 8057   3.792   5.148   4.426
 2386SOL    HW2 8058   3.910   5.042   4.465
 2387SOL     OW 8059   6.732   2.439   4.736
 2387SOL    HW1 8060   6.782   2.498   4.672
 2387SOL    HW2 8061   6.694   2.361   4.687
 2388SOL     OW 8062   1.321   2.000   5.372
 2388SOL    HW1 8063   1.396   2.061   5.349
 2388SOL    HW2 8064   1.252   2.002   5.300
 2389SOL     OW 8065   4.759   4.607   3.864
 2389SOL    HW1 8066   4.793   4.521   3.901
 2389SOL    HW2 8067   4.663   4.619   3.891
 2390SOL     OW 8068   3.990   4.051   4.897
 2390SOL    HW1 8069   4.073   4.099   4.869
 2390SOL    HW2 8070   3.968   3.980   4.830
 2391SOL     OW 8071   3.429   4.636   5.811
 2391SOL    HW1 8072   3.370   4.697   5.758
 2391SOL    HW2 8073   3.523   4.645   5.780
 2392SOL     OW 8074   3.315   5.160   5.975
 2392SOL    HW1 8075   3.262   5.179   6.058
 2392SOL    HW2 8076   3.397   5.108   5.999
 2393SOL     OW 8077   3.990   5.379   1.309
 2393SOL    HW1 8078   3.959   5.369   1.403
 2393SOL    HW2 8079   4.058   5.309   1.288
 2394SOL     OW 8080   1.376   3.898   4.870
 2394SOL    HW1 8081   1.300   3.848   4.910
 2394SOL    HW2 8082   1.394   3.981   4.924
 2395SOL     OW 8083   6.844   2.440   6.546
 2395SOL    HW1 8084   6.780   2.363   6.544
 2395SOL    HW2 8085   6.885   2.452   6.455
 2396SOL     OW 8086   5.672   6.302   1.035
 2396SOL    HW1 8087   5.687   6.204   1.041
 2396SOL    HW2 8088   5.757   6.351   1.057
 2397SOL     OW 8089   6.577   5.021   0.329
 2397SOL    HW1 8090   6.584   5.121   0.336
 2397SOL    HW2 8091   6.542   4.984   0.415
 2398SOL     OW 8092   2.125   4.649   5.143
 2398SOL    HW1 8093   2.035   4.692   5.139
 2398SOL    HW2 8094   2.122   4.571   5.205
 2399SOL     OW 8095   4.453   1.706   2.580
 2399SOL    HW1 8096   4.375   1.721   2.519
 2399SOL    HW2 8097   4.434   1.745   2.670
 2400SOL     OW 8098   3.456   3.755   0.678
 2400SOL    HW1 8099   3.438   3.751   0.776
 2400SOL    HW2 8100   3.536   3.700   0.656
 2401SOL     OW 8101   3.272   0.760   5.378
 2401SOL    HW1 8102   3.327   0.771   5.296
 2401SOL    HW2 8103   3.316   0.694   5.439
 2402SOL     OW 8104   6.964   2.029   4.631
 2402SOL    HW1 8105   6.990   2.078   4.715
 2402SOL    HW2 8106   7.008   2.071   4.552
 2403SOL     OW 8107   3.187   3.220   0.434
 2403SOL    HW1 8108   3.214   3.218   0.530
 2403SOL    HW2 8109   3.207   3.131   0.392
 2404SOL     OW 8110   5.590   1.591   2.444
 2404SOL    HW1 8111   5.517   1.530   2.477
 2404SOL    HW2 8112   5.678   1.556   2.475
 2405SOL     OW 8113   3.904   3.426   5.252
 2405SOL    HW1 8114   3.975   3.383   5.196
 2405SOL    HW2 8115   3.946   3.471   5.331
 2406SOL     OW 8116   2.041   0.900   3.090
 2406SOL    HW1 8117   2.039   0.895   2.990
 2406SOL    HW2 8118   1.966   0.957   3.122
 2407SOL     OW 8119   4.450   2.139   3.081
 2407SOL    HW1 8120   4.463   2.069   3.151
 2407SOL    HW2 8121   4.372   2.196   3.106
 2408SOL     OW 8122   3.445   5.338   2.434
 2408SOL    HW1 8123   3.350   5.346   2.464
 2408SOL    HW2 8124   3.503   5.312   2.511
 2409SOL     OW 8125   2.379   2.622   1.905
 2409SOL    HW1 8126   2.327   2.653   1.986
 2409SOL    HW2 8127   2.421   2.701   1.860
 2410SOL     OW 8128   6.560   3.029   5.782
 2410SOL    HW1 8129   6.530   3.124   5.785
 2410SOL    HW2 8130   6.658   3.024   5.801
 2411SOL     OW 8131   3.674   4.646   5.685
 2411SOL    HW1 8132   3.627   4.704   5.619
 2411SOL    HW2 8133   3.765   4.622   5.651
 2412SOL     OW 8134   2.636   3.546   0.212
 2412SOL    HW1 8135   2.551   3.556   0.162
 2412SOL    HW2 8136   2.627   3.475   0.281
 2413SOL     OW 8137   6.364   3.390   6.831
 2413SOL    HW1 8138   6.350   3.300   6.871
 2413SOL    HW2 8139   6.283   3.446   6.845
 2414SOL     OW 8140   5.937   3.428   3.114
 2414SOL    HW1 8141   5.926   3.524   3.137
 2414SOL    HW2 8142   5.993   3.419   3.032
 2415SOL     OW 8143   1.651   0.134   1.162
 2415SOL    HW1 8144   1.637   0.120   1.260
 2415SOL    HW2 8145   1.563   0.124   1.114
 2416SOL     OW 8146   2.314   1.506   4.927
 2416SOL    HW1 8147   2.355   1.546   4.844
 2416SOL    HW2 8148   2.215   1.523   4.926
 2417SOL     OW 8149   5.058   2.428   6.900
 2417SOL    HW1 8150   4.993   2.474   6.839
 2417SOL    HW2 8151   5.115   2.366   6.846
 2418SOL     OW 8152   3.398   3.753   5.060
 2418SOL    HW1 8153   3.368   3.768   4.966
 2418SOL    HW2 8154   3.493   3.781   5.069
 2419SOL     OW 8155   0.489   6.664   4.832
 2419SOL    HW1 8156   0.403   6.624   4.864
 2419SOL    HW2 8157   0.554   6.591   4.811
 2420SOL     OW 8158   4.214   0.080   2.642
 2420SOL    HW1 8159   4.241   0.082   2.545
 2420SOL    HW2 8160   4.295   0.063   2.698
 2421SOL     OW 8161   2.989   0.955   4.285
 2421SOL    HW1 8162   2.908   1.010   4.306
 2421SOL    HW2 8163   3.056   0.964   4.359
 2422SOL     OW 8164   5.403   0.371   1.167
 2422SOL    HW1 8165   5.471   0.415   1.226
 2422SOL    HW2 8166   5.360   0.295   1.217
 2423SOL     OW 8167   1.458   6.055   2.489
 2423SOL    HW1 8168   1.370   6.100   2.475
 2423SOL    HW2 8169   1.456   6.002   2.574
 2424SOL     OW 8170   5.182   6.061   6.195
 2424SOL    HW1 8171   5.150   5.990   6.132
 2424SOL    HW2 8172   5.217   6.018   6.278
 2425SOL     OW 8173   6.333   6.790   4.622
 2425SOL    HW1 8174   6.407   6.783   4.688
 2425SOL    HW2 8175   6.312   6.887   4.606
 2426SOL     OW 8176   1.242   4.740   4.338
 2426SOL    HW1 8177   1.236   4.642   4.319
 2426SOL    HW2 8178   1.256   4.754   4.436
 2427SOL     OW 8179   6.025   5.609   6.691
 2427SOL    HW1 8180   5.936   5.585   6.653
 2427SOL    HW2 8181   6.014   5.683   6.758
 2428SOL     OW 8182   1.176   0.120   4.163
 2428SOL    HW1 8183   1.096   0.172   4.133
 2428SOL    HW2 8184   1.152   0.023   4.171
 2429SOL     OW 8185   6.223   5.231   3.394
 2429SOL    HW1 8186   6.246   5.134   3.405
 2429SOL    HW2 8187   6.183   5.245   3.304
 2430SOL     OW 8188   5.456   2.685   0.684
 2430SOL    HW1 8189   5.506   2.599   0.695
 2430SOL    HW2 8190   5.379   2.686   0.747
 2431SOL     OW 8191   4.058   0.390   1.956
 2431SOL    HW1 8192   4.123   0.418   1.886
 2431SOL    HW2 8193   4.078   0.438   2.041
 2432SOL     OW 8194   4.571   6.380   2.762
 2432SOL    HW1 8195   4.664   6.409   2.784
 2432SOL    HW2 8196   4.522   6.457   2.720
 2433SOL     OW 8197   2.491   6.909   0.169
 2433SOL    HW1 8198   2.524   6.957   0.087
 2433SOL    HW2 8199   2.508   6.966   0.249
 2434SOL     OW 8200   4.543   1.513   3.373
 2434SOL    HW1 8201   4.609   1.544   3.305
 2434SOL    HW2 8202   4.494   1.592   3.410
 2435SOL     OW 8203   4.516   5.281   0.088
 2435SOL    HW1 8204   4.441   5.315   0.032
 2435SOL    HW2 8205   4.521   5.181   0.081
 2436SOL     OW 8206   2.084   6.826   0.964
 2436SOL    HW1 8207   1.994   6.814   1.005
 2436SOL    HW2 8208   2.154   6.806   1.032
 2437SOL     OW 8209   5.151   5.849   1.178
 2437SOL    HW1 8210   5.117   5.840   1.272
 2437SOL    HW2 8211   5.176   5.944   1.161
 2438SOL     OW 8212   3.802   0.867   5.030
 2438SOL    HW1 8213   3.872   0.796   5.018
 2438SOL    HW2 8214   3.821   0.918   5.114
 2439SOL     OW 8215   1.099   4.115   6.993
 2439SOL    HW1 8216   1.196   4.112   7.019
 2439SOL    HW2 8217   1.045   4.148   0.047
 2440SOL     OW 8218   3.608   6.810   5.161
 2440SOL    HW1 8219   3.510   6.796   5.145
 2440SOL    HW2 8220   3.622   6.895   5.212
 2441SOL     OW 8221   6.291   1.174   0.590
 2441SOL    HW1 8222   6.236   1.248   0.629
 2441SOL    HW2 8223   6.298   1.188   0.491
 2442SOL     OW 8224   5.641   5.502   3.333
 2442SOL    HW1 8225   5.645   5.590   3.287
 2442SOL    HW2 8226   5.556   5.496   3.387
 2443SOL     OW 8227   3.341   0.592   6.179
 2443SOL    HW1 8228   3.394   0.624   6.258
 2443SOL    HW2 8229   3.244   0.601   6.198
 2444SOL     OW 8230   4.297   4.158   6.847
 2444SOL    HW1 8231   4.318   4.134   6.942
 2444SOL    HW2 8232   4.199   4.155   6.833
 2445SOL     OW 8233   6.787   0.943   2.252
 2445SOL    HW1 8234   6.751   0.853   2.225
 2445SOL    HW2 8235   6.860   0.970   2.188
 2446SOL     OW 8236   0.321   2.983   4.214
 2446SOL    HW1 8237   0.421   2.977   4.221
 2446SOL    HW2 8238   0.293   3.079   4.215
 2447SOL     OW 8239   2.731   0.973   0.822
 2447SOL    HW1 8240   2.754   1.018   0.736
 2447SOL    HW2 8241   2.804   0.910   0.848
 2448SOL     OW 8242   6.636   1.237   4.478
 2448SOL    HW1 8243   6.536   1.232   4.476
 2448SOL    HW2 8244   6.674   1.169   4.416
 2449SOL     OW 8245   0.051   3.865   3.133
 2449SOL    HW1 8246   7.010   3.912   3.194
 2449SOL    HW2 8247   0.139   3.854   3.179
 2450SOL     OW 8248   3.520   5.606   5.639
 2450SOL    HW1 8249   3.508   5.523   5.694
 2450SOL    HW2 8250   3.433   5.630   5.596
 2451SOL     OW 8251   1.420   0.460   3.577
 2451SOL    HW1 8252   1.446   0.376   3.529
 2451SOL    HW2 8253   1.494   0.485   3.641
 2452SOL     OW 8254   3.083   1.882   3.471
 2452SOL    HW1 8255   3.084   1.813   3.398
 2452SOL    HW2 8256   3.131   1.964   3.441
 2453SOL     OW 8257   6.934   3.735   0.727
 2453SOL    HW1 8258   6.911   3.810   0.789
 2453SOL    HW2 8259   6.856   3.716   0.668
 2454SOL     OW 8260   3.955   0.587   6.781
 2454SOL    HW1 8261   3.961   0.639   6.866
 2454SOL    HW2 8262   3.986   0.643   6.705
 2455SOL     OW 8263   4.162   0.191   0.532
 2455SOL    HW1 8264   4.080   0.240   0.562
 2455SOL    HW2 8265   4.243   0.232   0.573
 2456SOL     OW 8266   5.806   2.144   0.126
 2456SOL    HW1 8267   5.797   2.051   0.160
 2456SOL    HW2 8268   5.717   2.189   0.126
 2457SOL     OW 8269   6.712   0.201   6.587
 2457SOL    HW1 8270   6.621   0.166   6.562
 2457SOL    HW2 8271   6.747   0.258   6.513
 2458SOL     OW 8272   2.400   6.113   4.031
 2458SOL    HW1 8273   2.310   6.071   4.017
 2458SOL    HW2 8274   2.429   6.099   4.125
 2459SOL     OW 8275   2.469   5.915   5.937
 2459SOL    HW1 8276   2.426   5.957   5.857
 2459SOL    HW2 8277   2.438   5.961   6.020
 2460SOL     OW 8278   2.079   1.589   1.690
 2460SOL    HW1 8279   2.034   1.627   1.610
 2460SOL    HW2 8280   2.094   1.491   1.676
 2461SOL     OW 8281   4.711   1.305   3.098
 2461SOL    HW1 8282   4.736   1.231   3.161
 2461SOL    HW2 8283   4.626   1.280   3.051
 2462SOL     OW 8284   1.799   5.424   0.143
 2462SOL    HW1 8285   1.699   5.430   0.143
 2462SOL    HW2 8286   1.835   5.463   0.058
 2463SOL     OW 8287   6.496   2.215   5.921
 2463SOL    HW1 8288   6.501   2.218   5.821
 2463SOL    HW2 8289   6.458   2.301   5.955
 2464SOL     OW 8290   2.107   3.799   2.377
 2464SOL    HW1 8291   2.036   3.842   2.320
 2464SOL    HW2 8292   2.182   3.768   2.319
 2465SOL     OW 8293   0.918   0.178   0.827
 2465SOL    HW1 8294   0.936   0.277   0.825
 2465SOL    HW2 8295   0.938   0.138   0.738
 2466SOL     OW 8296   1.962   1.745   2.550
 2466SOL    HW1 8297   1.970   1.649   2.526
 2466SOL    HW2 8298   1.951   1.799   2.466
 2467SOL     OW 8299   4.891   1.364   5.390
 2467SOL    HW1 8300   4.855   1.335   5.478
 2467SOL    HW2 8301   4.816   1.370   5.324
 2468SOL     OW 8302   4.805   6.570   1.874
 2468SOL    HW1 8303   4.719   6.520   1.862
 2468SOL    HW2 8304   4.819   6.591   1.970
 2469SOL     OW 8305   3.976   4.281   5.753
 2469SOL    HW1 8306   4.032   4.235   5.822
 2469SOL    HW2 8307   3.931   4.212   5.696
 2470SOL     OW 8308   3.942   4.367   6.439
 2470SOL    HW1 8309   4.026   4.316   6.420
 2470SOL    HW2 8310   3.874   4.344   6.370
 2471SOL     OW 8311   2.475   6.468   0.571
 2471SOL    HW1 8312   2.541   6.529   0.614
 2471SOL    HW2 8313   2.491   6.374   0.601
 2472SOL     OW 8314   4.838   2.556   4.457
 2472SOL    HW1 8315   4.859   2.479   4.516
 2472SOL    HW2 8316   4.896   2.553   4.375
 2473SOL     OW 8317   2.061   3.908   4.987
 2473SOL    HW1 8318   2.010   3.983   4.945
 2473SOL    HW2 8319   2.150   3.942   5.018
 2474SOL     OW 8320   0.351   6.166   0.501
 2474SOL    HW1 8321   0.400   6.109   0.435
 2474SOL    HW2 8322   0.416   6.227   0.547
 2475SOL     OW 8323   4.596   1.082   2.576
 2475SOL    HW1 8324   4.636   1.158   2.524
 2475SOL    HW2 8325   4.559   1.014   2.513
 2476SOL     OW 8326   6.682   1.734   3.317
 2476SOL    HW1 8327   6.587   1.718   3.342
 2476SOL    HW2 8328   6.688   1.758   3.220
 2477SOL     OW 8329   4.616   1.459   2.000
 2477SOL    HW1 8330   4.676   1.385   1.974
 2477SOL    HW2 8331   4.560   1.486   1.922
 2478SOL     OW 8332   6.491   1.340   2.283
 2478SOL    HW1 8333   6.457   1.398   2.210
 2478SOL    HW2 8334   6.472   1.244   2.263
 2479SOL     OW 8335   1.287   3.991   1.394
 2479SOL    HW1 8336   1.355   3.946   1.452
 2479SOL    HW2 8337   1.227   4.048   1.451
 2480SOL     OW 8338   5.141   4.469   0.766
 2480SOL    HW1 8339   5.173   4.429   0.680
 2480SOL    HW2 8340   5.214   4.464   0.834
 2481SOL     OW 8341   2.289   0.870   6.977
 2481SOL    HW1 8342   2.358   0.834   6.915
 2481SOL    HW2 8343   2.198   0.841   6.948
 2482SOL     OW 8344   4.747   3.669   5.627
 2482SOL    HW1 8345   4.799   3.754   5.637
 2482SOL    HW2 8346   4.649   3.689   5.634
 2483SOL     OW 8347   1.715   2.055   6.785
 2483SOL    HW1 8348   1.761   2.102   6.710
 2483SOL    HW2 8349   1.739   2.099   6.871
 2484SOL     OW 8350   3.574   0.729   0.220
 2484SOL    HW1 8351   3.658   0.766   0.180
 2484SOL    HW2 8352   3.496   0.785   0.192
 2485SOL     OW 8353   5.939   4.037   1.429
 2485SOL    HW1 8354   5.915   4.011   1.336
 2485SOL    HW2 8355   5.856   4.044   1.484
 2486SOL     OW 8356   1.987   5.037   4.506
 2486SOL    HW1 8357   1.994   4.941   4.478
 2486SOL    HW2 8358   2.057   5.058   4.573
 2487SOL     OW 8359   3.626   6.176   0.019
 2487SOL    HW1 8360   3.592   6.236   6.969
 2487SOL    HW2 8361   3.622   6.081   7.010
 2488SOL     OW 8362   2.113   4.364   2.279
 2488SOL    HW1 8363   2.131   4.450   2.231
 2488SOL    HW2 8364   2.029   4.374   2.334
 2489SOL     OW 8365   1.038   5.816   3.043
 2489SOL    HW1 8366   0.983   5.773   2.972
 2489SOL    HW2 8367   1.092   5.891   3.004
 2490SOL     OW 8368   6.839   4.933   1.468
 2490SOL    HW1 8369   6.890   4.885   1.539
 2490SOL    HW2 8370   6.752   4.887   1.453
 2491SOL     OW 8371   2.804   5.407   1.009
 2491SOL    HW1 8372   2.882   5.458   1.044
 2491SOL    HW2 8373   2.811   5.398   0.910
 2492SOL     OW 8374   4.366   2.077   0.486
 2492SOL    HW1 8375   4.281   2.045   0.527
 2492SOL    HW2 8376   4.430   2.104   0.557
 2493SOL     OW 8377   6.218   0.913   2.372
 2493SOL    HW1 8378   6.249   0.830   2.419
 2493SOL    HW2 8379   6.250   0.912   2.278
 2494SOL     OW 8380   5.819   3.654   2.121
 2494SOL    HW1 8381   5.889   3.678   2.188
 2494SOL    HW2 8382   5.772   3.570   2.150
 2495SOL     OW 8383   5.289   0.401   4.184
 2495SOL    HW1 8384   5.387   0.393   4.201
 2495SOL    HW2 8385   5.268   0.494   4.154
 2496SOL     OW 8386   0.724   4.015   5.582
 2496SOL    HW1 8387   0.724   3.919   5.554
 2496SOL    HW2 8388   0.646   4.062   5.539
 2497SOL     OW 8389   0.197   0.362   1.037
 2497SOL    HW1 8390   0.196   0.366   0.937
 2497SOL    HW2 8391   0.217   0.268   1.066
 2498SOL     OW 8392   3.070   1.429   4.665
 2498SOL    HW1 8393   3.145   1.489   4.638
 2498SOL    HW2 8394   2.984   1.462   4.626
 2499SOL     OW 8395   5.761   2.153   4.313
 2499SOL    HW1 8396   5.795   2.060   4.322
 2499SOL    HW2 8397   5.675   2.162   4.364
 2500SOL     OW 8398   4.191   2.957   0.051
 2500SOL    HW1 8399   4.176   3.033   7.011
 2500SOL    HW2 8400   4.286   2.956   0.081
 2501SOL     OW 8401   6.017   5.575   0.004
 2501SOL    HW1 8402   5.994   5.632   6.948
 2501SOL    HW2 8403   6.049   5.486   6.996
 2502SOL     OW 8404   1.950   5.874   2.779
 2502SOL    HW1 8405   1.975   5.889   2.683
 2502SOL    HW2 8406   2.030   5.840   2.829
 2503SOL     OW 8407   3.234   5.490   4.672
 2503SOL    HW1 8408   3.141   5.452   4.671
 2503SOL    HW2 8409   3.257   5.524   4.580
 2504SOL     OW 8410   2.999   5.138   4.725
 2504SOL    HW1 8411   2.907   5.107   4.701
 2504SOL    HW2 8412   3.019   5.223   4.676
 2505SOL     OW 8413   1.312   5.850   3.816
 2505SOL    HW1 8414   1.249   5.803   3.879
 2505SOL    HW2 8415   1.271   5.937   3.788
 2506SOL     OW 8416   6.262   3.161   6.200
 2506SOL    HW1 8417   6.221   3.229   6.261
 2506SOL    HW2 8418   6.353   3.193   6.172
 2507SOL     OW 8419   1.144   4.657   0.651
 2507SOL    HW1 8420   1.130   4.746   0.695
 2507SOL    HW2 8421   1.064   4.635   0.595
 2508SOL     OW 8422   2.296   1.606   1.992
 2508SOL    HW1 8423   2.341   1.553   1.920
 2508SOL    HW2 8424   2.331   1.578   2.081
 2509SOL     OW 8425   6.473   2.636   2.350
 2509SOL    HW1 8426   6.412   2.636   2.429
 2509SOL    HW2 8427   6.519   2.547   2.342
 2510SOL     OW 8428   3.293   4.288   1.390
 2510SOL    HW1 8429   3.303   4.189   1.403
 2510SOL    HW2 8430   3.341   4.317   1.307
 2511SOL     OW 8431   3.153   1.493   3.446
 2511SOL    HW1 8432   3.249   1.509   3.467
 2511SOL    HW2 8433   3.113   1.576   3.407
 2512SOL     OW 8434   4.875   4.797   4.770
 2512SOL    HW1 8435   4.798   4.738   4.745
 2512SOL    HW2 8436   4.923   4.757   4.848
 2513SOL     OW 8437   1.283   3.397   4.845
 2513SOL    HW1 8438   1.246   3.354   4.928
 2513SOL    HW2 8439   1.380   3.415   4.858
 2514SOL     OW 8440   6.684   3.164   3.944
 2514SOL    HW1 8441   6.673   3.137   4.040
 2514SOL    HW2 8442   6.595   3.187   3.905
 2515SOL     OW 8443   1.402   6.505   0.549
 2515SOL    HW1 8444   1.483   6.447   0.547
 2515SOL    HW2 8445   1.325   6.453   0.586
 2516SOL     OW 8446   5.967   0.962   3.165
 2516SOL    HW1 8447   6.022   1.004   3.238
 2516SOL    HW2 8448   5.928   0.876   3.199
 2517SOL     OW 8449   0.625   4.918   5.967
 2517SOL    HW1 8450   0.697   4.982   5.995
 2517SOL    HW2 8451   0.551   4.968   5.922
 2518SOL     OW 8452   1.465   3.750   6.918
 2518SOL    HW1 8453   1.527   3.815   6.962
 2518SOL    HW2 8454   1.461   3.769   6.820
 2519SOL     OW 8455   5.405   6.470   3.836
 2519SOL    HW1 8456   5.417   6.494   3.932
 2519SOL    HW2 8457   5.367   6.548   3.787
 2520SOL     OW 8458   1.336   2.839   6.939
 2520SOL    HW1 8459   1.241   2.868   6.928
 2520SOL    HW2 8460   1.389   2.912   6.982
 2521SOL     OW 8461   1.497   6.601   5.333
 2521SOL    HW1 8462   1.449   6.668   5.277
 2521SOL    HW2 8463   1.448   6.589   5.420
 2522SOL     OW 8464   0.051   3.574   5.887
 2522SOL    HW1 8465   7.002   3.534   5.830
 2522SOL    HW2 8466   0.020   3.662   5.922
 2523SOL     OW 8467   0.633   2.879   2.056
 2523SOL    HW1 8468   0.632   2.791   2.103
 2523SOL    HW2 8469   0.631   2.865   1.957
 2524SOL     OW 8470   0.722   5.677   5.652
 2524SOL    HW1 8471   0.627   5.645   5.648
 2524SOL    HW2 8472   0.726   5.771   5.617
 2525SOL     OW 8473   0.903   2.564   4.213
 2525SOL    HW1 8474   0.848   2.496   4.261
 2525SOL    HW2 8475   0.846   2.644   4.192
 2526SOL     OW 8476   1.872   4.277   5.390
 2526SOL    HW1 8477   1.799   4.343   5.372
 2526SOL    HW2 8478   1.926   4.308   5.469
 2527SOL     OW 8479   5.440   6.041   4.755
 2527SOL    HW1 8480   5.475   5.983   4.682
 2527SOL    HW2 8481   5.418   6.132   4.718
 2528SOL     OW 8482   5.746   4.542   1.330
 2528SOL    HW1 8483   5.732   4.481   1.408
 2528SOL    HW2 8484   5.695   4.626   1.344
 2529SOL     OW 8485   6.911   6.331   6.938
 2529SOL    HW1 8486   6.819   6.334   6.898
 2529SOL    HW2 8487   6.906   6.355   0.011
 2530SOL     OW 8488   1.997   6.851   4.941
 2530SOL    HW1 8489   1.902   6.824   4.953
 2530SOL    HW2 8490   2.007   6.898   4.853
 2531SOL     OW 8491   4.928   6.030   4.289
 2531SOL    HW1 8492   4.985   5.966   4.237
 2531SOL    HW2 8493   4.974   6.052   4.376
 2532SOL     OW 8494   0.794   5.961   0.613
 2532SOL    HW1 8495   0.867   5.947   0.545
 2532SOL    HW2 8496   0.706   5.937   0.573
 2533SOL     OW 8497   3.252   6.809   2.989
 2533SOL    HW1 8498   3.349   6.831   2.980
 2533SOL    HW2 8499   3.238   6.712   2.970
 2534SOL     OW 8500   3.164   1.092   2.760
 2534SOL    HW1 8501   3.136   1.178   2.802
 2534SOL    HW2 8502   3.234   1.049   2.817
 2535SOL     OW 8503   3.157   2.875   6.346
 2535SOL    HW1 8504   3.135   2.808   6.276
 2535SOL    HW2 8505   3.176   2.963   6.303
 2536SOL     OW 8506   6.509   1.830   3.826
 2536SOL    HW1 8507   6.543   1.923   3.829
 2536SOL    HW2 8508   6.559   1.773   3.891
 2537SOL     OW 8509   4.727   6.549   6.767
 2537SOL    HW1 8510   4.689   6.500   6.845
 2537SOL    HW2 8511   4.747   6.643   6.793
 2538SOL     OW 8512   1.657   4.526   4.585
 2538SOL    HW1 8513   1.588   4.456   4.565
 2538SOL    HW2 8514   1.660   4.542   4.684
 2539SOL     OW 8515   5.635   0.758   5.953
 2539SOL    HW1 8516   5.569   0.763   5.879
 2539SOL    HW2 8517   5.702   0.832   5.943
 2540SOL     OW 8518   4.273   1.171   2.764
 2540SOL    HW1 8519   4.348   1.237   2.767
 2540SOL    HW2 8520   4.289   1.106   2.689
 2541SOL     OW 8521   1.949   6.342   5.493
 2541SOL    HW1 8522   1.970   6.429   5.448
 2541SOL    HW2 8523   1.855   6.316   5.474
 2542SOL     OW 8524   4.741   1.218   6.343
 2542SOL    HW1 8525   4.649   1.251   6.364
 2542SOL    HW2 8526   4.749   1.122   6.369
 2543SOL     OW 8527   2.262   2.181   2.651
 2543SOL    HW1 8528   2.243   2.227   2.738
 2543SOL    HW2 8529   2.202   2.101   2.642
 2544SOL     OW 8530   0.035   5.412   1.251
 2544SOL    HW1 8531   0.087   5.355   1.314
 2544SOL    HW2 8532   6.969   5.371   1.232
 2545SOL     OW 8533   2.300   0.539   1.296
 2545SOL    HW1 8534   2.285   0.554   1.199
 2545SOL    HW2 8535   2.220   0.569   1.348
 2546SOL     OW 8536   0.332   2.680   1.463
 2546SOL    HW1 8537   0.324   2.763   1.518
 2546SOL    HW2 8538   0.245   2.661   1.419
 2547SOL     OW 8539   5.991   4.351   0.123
 2547SOL    HW1 8540   5.996   4.255   0.150
 2547SOL    HW2 8541   6.083   4.390   0.122
 2548SOL     OW 8542   2.990   6.813   6.096
 2548SOL    HW1 8543   3.042   6.768   6.023
 2548SOL    HW2 8544   2.897   6.831   6.063
 2549SOL     OW 8545   1.914   0.855   1.248
 2549SOL    HW1 8546   1.978   0.838   1.322
 2549SOL    HW2 8547   1.905   0.772   1.192
 2550SOL     OW 8548   6.865   0.505   6.393
 2550SOL    HW1 8549   6.772   0.519   6.361
 2550SOL    HW2 8550   6.890   0.577   6.458
 2551SOL     OW 8551   3.159   5.712   0.315
 2551SOL    HW1 8552   3.210   5.640   0.269
 2551SOL    HW2 8553   3.221   5.788   0.338
 2552SOL     OW 8554   1.134   5.722   6.220
 2552SOL    HW1 8555   1.198   5.647   6.202
 2552SOL    HW2 8556   1.184   5.807   6.233
 2553SOL     OW 8557   3.715   3.583   6.892
 2553SOL    HW1 8558   3.744   3.487   6.891
 2553SOL    HW2 8559   3.796   3.642   6.891
 2554SOL     OW 8560   1.933   6.525   6.842
 2554SOL    HW1 8561   1.950   6.536   6.744
 2554SOL    HW2 8562   1.999   6.460   6.880
 2555SOL     OW 8563   6.327   6.509   6.596
 2555SOL    HW1 8564   6.288   6.497   6.505
 2555SOL    HW2 8565   6.347   6.420   6.636
 2556SOL     OW 8566   4.367   5.348   6.835
 2556SOL    HW1 8567   4.311   5.265   6.837
 2556SOL    HW2 8568   4.315   5.422   6.793
 2557SOL     OW 8569   2.501   2.546   6.344
 2557SOL    HW1 8570   2.595   2.515   6.331
 2557SOL    HW2 8571   2.445   2.514   6.267
 2558SOL     OW 8572   3.995   3.463   6.087
 2558SOL    HW1 8573   4.048   3.393   6.135
 2558SOL    HW2 8574   3.978   3.432   5.994
 2559SOL     OW 8575   6.386   3.393   4.747
 2559SOL    HW1 8576   6.334   3.369   4.830
 2559SOL    HW2 8577   6.428   3.483   4.759
 2560SOL     OW 8578   5.783   3.283   4.316
 2560SOL    HW1 8579   5.827   3.372   4.322
 2560SOL    HW2 8580   5.685   3.295   4.301
 2561SOL     OW 8581   3.120   0.120   3.724
 2561SOL    HW1 8582   3.027   0.154   3.734
 2561SOL    HW2 8583   3.168   0.174   3.655
 2562SOL     OW 8584   2.063   6.071   2.085
 2562SOL    HW1 8585   2.072   5.975   2.113
 2562SOL    HW2 8586   2.144   6.122   2.116
 2563SOL     OW 8587   4.493   1.867   6.939
 2563SOL    HW1 8588   4.556   1.817   6.880
 2563SOL    HW2 8589   4.428   1.803   6.980
 2564SOL     OW 8590   1.208   6.695   6.506
 2564SOL    HW1 8591   1.181   6.786   6.472
 2564SOL    HW2 8592   1.170   6.625   6.446
 2565SOL     OW 8593   0.433   1.139   0.500
 2565SOL    HW1 8594   0.432   1.239   0.495
 2565SOL    HW2 8595   0.494   1.110   0.573
 2566SOL     OW 8596   1.512   6.774   1.195
 2566SOL    HW1 8597   1.568   6.727   1.127
 2566SOL    HW2 8598   1.547   6.753   1.286
 2567SOL     OW 8599   1.388   1.339   1.777
 2567SOL    HW1 8600   1.401   1.271   1.705
 2567SOL    HW2 8601   1.462   1.406   1.774
 2568SOL     OW 8602   3.491   6.946   6.798
 2568SOL    HW1 8603   3.588   6.927   6.793
 2568SOL    HW2 8604   3.451   6.901   6.877
 2569SOL     OW 8605   3.115   0.762   1.998
 2569SOL    HW1 8606   3.117   0.752   2.098
 2569SOL    HW2 8607   3.062   0.687   1.959
 2570SOL     OW 8608   6.499   0.663   0.047
 2570SOL    HW1 8609   6.596   0.649   0.070
 2570SOL    HW2 8610   6.491   0.734   7.000
 2571SOL     OW 8611   2.355   3.717   5.619
 2571SOL    HW1 8612   2.393   3.769   5.542
 2571SOL    HW2 8613   2.326   3.627   5.587
 2572SOL     OW 8614   2.011   6.118   0.748
 2572SOL    HW1 8615   2.097   6.169   0.747
 2572SOL    HW2 8616   1.954   6.148   0.671
 2573SOL     OW 8617   6.602   1.709   2.002
 2573SOL    HW1 8618   6.599   1.699   2.102
 2573SOL    HW2 8619   6.675   1.773   1.977
 2574SOL     OW 8620   6.205   3.106   0.121
 2574SOL    HW1 8621   6.179   3.182   0.180
 2574SOL    HW2 8622   6.175   3.020   0.163
 2575SOL     OW 8623   4.747   5.363   0.225
 2575SOL    HW1 8624   4.714   5.392   0.315
 2575SOL    HW2 8625   4.670   5.337   0.168
 2576SOL     OW 8626   4.122   6.890   4.602
 2576SOL    HW1 8627   4.052   6.819   4.606
 2576SOL    HW2 8628   4.161   6.894   4.510
 2577SOL     OW 8629   4.071   6.458   2.217
 2577SOL    HW1 8630   3.999   6.392   2.243
 2577SOL    HW2 8631   4.029   6.546   2.196
 2578SOL     OW 8632   4.712   1.971   4.242
 2578SOL    HW1 8633   4.702   2.070   4.240
 2578SOL    HW2 8634   4.807   1.947   4.224
 2579SOL     OW 8635   1.056   0.281   2.983
 2579SOL    HW1 8636   1.144   0.288   2.936
 2579SOL    HW2 8637   0.982   0.295   2.918
 2580SOL     OW 8638   2.666   2.724   6.639
 2580SOL    HW1 8639   2.716   2.788   6.696
 2580SOL    HW2 8640   2.572   2.757   6.626
 2581SOL     OW 8641   6.886   4.096   1.195
 2581SOL    HW1 8642   6.906   4.030   1.121
 2581SOL    HW2 8643   6.787   4.098   1.211
 2582SOL     OW 8644   0.648   4.002   2.082
 2582SOL    HW1 8645   0.581   4.037   2.147
 2582SOL    HW2 8646   0.646   3.902   2.082
 2583SOL     OW 8647   0.680   1.740   1.244
 2583SOL    HW1 8648   0.645   1.663   1.297
 2583SOL    HW2 8649   0.642   1.825   1.280
 2584SOL     OW 8650   4.078   5.674   6.896
 2584SOL    HW1 8651   4.028   5.590   6.915
 2584SOL    HW2 8652   4.021   5.753   6.918
 2585SOL     OW 8653   4.220   2.663   0.915
 2585SOL    HW1 8654   4.178   2.753   0.901
 2585SOL    HW2 8655   4.227   2.615   0.827
 2586SOL     OW 8656   3.494   1.563   3.859
 2586SOL    HW1 8657   3.426   1.492   3.878
 2586SOL    HW2 8658   3.449   1.652   3.855
 2587SOL     OW 8659   0.499   0.409   3.702
 2587SOL    HW1 8660   0.456   0.352   3.633
 2587SOL    HW2 8661   0.517   0.500   3.664
 2588SOL     OW 8662   4.662   6.989   0.050
 2588SOL    HW1 8663   4.577   0.001   0.090
 2588SOL    HW2 8664   4.740   0.010   0.095
 2589SOL     OW 8665   6.988   6.158   6.603
 2589SOL    HW1 8666   7.012   6.240   6.551
 2589SOL    HW2 8667   0.049   6.109   6.626
 2590SOL     OW 8668   3.244   6.245   1.743
 2590SOL    HW1 8669   3.273   6.169   1.801
 2590SOL    HW2 8670   3.166   6.217   1.687
 2591SOL     OW 8671   0.012   5.995   2.309
 2591SOL    HW1 8672   0.072   6.016   2.387
 2591SOL    HW2 8673   6.991   5.907   2.324
 2592SOL     OW 8674   3.646   6.466   1.197
 2592SOL    HW1 8675   3.596   6.445   1.281
 2592SOL    HW2 8676   3.727   6.409   1.191
 2593SOL     OW 8677   2.937   5.698   0.826
 2593SOL    HW1 8678   2.985   5.646   0.755
 2593SOL    HW2 8679   2.957   5.658   0.916
 2594SOL     OW 8680   0.615   5.479   6.008
 2594SOL    HW1 8681   0.622   5.451   5.912
 2594SOL    HW2 8682   0.669   5.417   6.065
 2595SOL     OW 8683   6.373   2.017   4.616
 2595SOL    HW1 8684   6.298   1.954   4.632
 2595SOL    HW2 8685   6.376   2.043   4.519
 2596SOL     OW 8686   3.967   1.939   1.732
 2596SOL    HW1 8687   4.012   1.948   1.643
 2596SOL    HW2 8688   4.015   1.872   1.787
 2597SOL     OW 8689   1.182   3.703   6.086
 2597SOL    HW1 8690   1.278   3.680   6.106
 2597SOL    HW2 8691   1.179   3.781   6.024
 2598SOL     OW 8692   6.040   1.267   4.265
 2598SOL    HW1 8693   6.088   1.184   4.240
 2598SOL    HW2 8694   6.062   1.340   4.199
 2599SOL     OW 8695   2.448   6.700   0.821
 2599SOL    HW1 8696   2.505   6.637   0.875
 2599SOL    HW2 8697   2.361   6.656   0.800
 2600SOL     OW 8698   5.220   3.430   4.135
 2600SOL    HW1 8699   5.247   3.510   4.081
 2600SOL    HW2 8700   5.272   3.351   4.104
 2601SOL     OW 8701   1.864   1.926   0.337
 2601SOL    HW1 8702   1.910   1.858   0.281
 2601SOL    HW2 8703   1.802   1.980   0.280
 2602SOL     OW 8704   6.589   4.680   4.234
 2602SOL    HW1 8705   6.680   4.718   4.217
 2602SOL    HW2 8706   6.591   4.581   4.218
 2603SOL     OW 8707   2.334   2.003   1.779
 2603SOL    HW1 8708   2.263   1.945   1.819
 2603SOL    HW2 8709   2.353   1.974   1.686
 2604SOL     OW 8710   5.003   1.494   2.792
 2604SOL    HW1 8711   5.007   1.589   2.760
 2604SOL    HW2 8712   5.047   1.488   2.882
 2605SOL     OW 8713   2.136   4.506   2.669
 2605SOL    HW1 8714   2.121   4.596   2.710
 2605SOL    HW2 8715   2.060   4.484   2.608
 2606SOL     OW 8716   6.937   4.477   1.381
 2606SOL    HW1 8717   6.988   4.546   1.432
 2606SOL    HW2 8718   6.923   4.508   1.287
 2607SOL     OW 8719   0.416   1.143   6.864
 2607SOL    HW1 8720   0.351   1.099   6.925
 2607SOL    HW2 8721   0.483   1.075   6.832
 2608SOL     OW 8722   4.876   4.632   1.425
 2608SOL    HW1 8723   4.793   4.686   1.440
 2608SOL    HW2 8724   4.860   4.537   1.451
 2609SOL     OW 8725   6.978   1.800   1.542
 2609SOL    HW1 8726   6.927   1.875   1.500
 2609SOL    HW2 8727   6.921   1.718   1.544
 2610SOL     OW 8728   0.399   4.802   4.838
 2610SOL    HW1 8729   0.496   4.812   4.816
 2610SOL    HW2 8730   0.344   4.840   4.765
 2611SOL     OW 8731   4.483   6.422   1.098
 2611SOL    HW1 8732   4.409   6.415   1.031
 2611SOL    HW2 8733   4.489   6.336   1.149
 2612SOL     OW 8734   6.965   6.972   5.856
 2612SOL    HW1 8735   0.031   6.937   5.882
 2612SOL    HW2 8736   6.962   6.988   5.757
 2613SOL     OW 8737   2.598   6.910   6.828
 2613SOL    HW1 8738   2.644   6.997   6.847
 2613SOL    HW2 8739   2.639   6.838   6.884
 2614SOL     OW 8740   0.083   0.856   6.295
 2614SOL    HW1 8741   0.083   0.759   6.269
 2614SOL    HW2 8742   7.017   0.880   6.333
 2615SOL     OW 8743   0.146   2.421   3.077
 2615SOL    HW1 8744   0.096   2.357   3.135
 2615SOL    HW2 8745   0.216   2.372   3.026
 2616SOL     OW 8746   3.624   2.869   5.085
 2616SOL    HW1 8747   3.575   2.946   5.127
 2616SOL    HW2 8748   3.607   2.869   4.986
 2617SOL     OW 8749   3.342   6.167   0.697
 2617SOL    HW1 8750   3.361   6.240   0.631
 2617SOL    HW2 8751   3.247   6.137   0.687
 2618SOL     OW 8752   6.979   0.273   4.184
 2618SOL    HW1 8753   6.926   0.277   4.100
 2618SOL    HW2 8754   6.918   0.280   4.263
 2619SOL     OW 8755   4.221   1.941   3.527
 2619SOL    HW1 8756   4.138   1.899   3.561
 2619SOL    HW2 8757   4.199   2.002   3.450
 2620SOL     OW 8758   0.200   0.089   2.916
 2620SOL    HW1 8759   0.125   0.043   2.963
 2620SOL    HW2 8760   0.165   0.169   2.867
 2621SOL     OW 8761   1.578   5.925   3.002
 2621SOL    HW1 8762   1.677   5.933   3.016
 2621SOL    HW2 8763   1.554   5.829   2.990
 2622SOL     OW 8764   2.003   3.171   5.517
 2622SOL    HW1 8765   2.061   3.225   5.579
 2622SOL    HW2 8766   1.980   3.226   5.437
 2623SOL     OW 8767   1.993   1.681   5.289
 2623SOL    HW1 8768   1.987   1.585   5.262
 2623SOL    HW2 8769   1.902   1.723   5.284
 2624SOL     OW 8770   6.928   2.211   5.901
 2624SOL    HW1 8771   6.886   2.133   5.854
 2624SOL    HW2 8772   6.861   2.250   5.965
 2625SOL     OW 8773   2.174   2.734   5.203
 2625SOL    HW1 8774   2.147   2.803   5.137
 2625SOL    HW2 8775   2.272   2.742   5.222
 2626SOL     OW 8776   0.426   0.163   5.859
 2626SOL    HW1 8777   0.429   0.167   5.759
 2626SOL    HW2 8778   0.506   0.115   5.894
 2627SOL     OW 8779   1.738   1.329   5.616
 2627SOL    HW1 8780   1.684   1.294   5.539
 2627SOL    HW2 8781   1.835   1.325   5.594
 2628SOL     OW 8782   1.954   4.416   5.609
 2628SOL    HW1 8783   1.903   4.362   5.676
 2628SOL    HW2 8784   2.028   4.464   5.655
 2629SOL     OW 8785   2.860   3.266   1.422
 2629SOL    HW1 8786   2.842   3.327   1.500
 2629SOL    HW2 8787   2.958   3.248   1.416
 2630SOL     OW 8788   2.989   2.135   2.412
 2630SOL    HW1 8789   3.069   2.165   2.464
 2630SOL    HW2 8790   2.921   2.208   2.412
 2631SOL     OW 8791   5.307   1.033   5.578
 2631SOL    HW1 8792   5.374   0.980   5.527
 2631SOL    HW2 8793   5.258   1.094   5.515
 2632SOL     OW 8794   4.095   2.992   6.631
 2632SOL    HW1 8795   4.134   2.902   6.650
 2632SOL    HW2 8796   3.997   2.991   6.649
 2633SOL     OW 8797   0.482   1.166   4.580
 2633SOL    HW1 8798   0.420   1.148   4.656
 2633SOL    HW2 8799   0.563   1.108   4.589
 2634SOL     OW 8800   0.583   4.688   3.500
 2634SOL    HW1 8801   0.679   4.715   3.496
 2634SOL    HW2 8802   0.570   4.621   3.573
 2635SOL     OW 8803   6.542   6.374   5.264
 2635SOL    HW1 8804   6.522   6.469   5.289
 2635SOL    HW2 8805   6.499   6.312   5.330
 2636SOL     OW 8806   4.809   0.833   5.422
 2636SOL    HW1 8807   4.863   0.914   5.398
 2636SOL    HW2 8808   4.869   0.753   5.423
 2637SOL     OW 8809   4.647   1.834   3.532
 2637SOL    HW1 8810   4.643   1.735   3.543
 2637SOL    HW2 8811   4.676   1.856   3.439
 2638SOL     OW 8812   6.853   0.046   3.653
 2638SOL    HW1 8813   6.754   0.028   3.655
 2638SOL    HW2 8814   6.899   6.998   3.600
 2639SOL     OW 8815   0.155   5.909   0.728
 2639SOL    HW1 8816   0.149   6.009   0.732
 2639SOL    HW2 8817   0.069   5.872   0.694
 2640SOL     OW 8818   0.467   6.007   5.288
 2640SOL    HW1 8819   0.404   5.951   5.342
 2640SOL    HW2 8820   0.561   5.974   5.301
 2641SOL     OW 8821   5.096   3.314   2.681
 2641SOL    HW1 8822   5.090   3.315   2.581
 2641SOL    HW2 8823   5.188   3.343   2.709
 2642SOL     OW 8824   4.356   6.572   3.884
 2642SOL    HW1 8825   4.265   6.593   3.918
 2642SOL    HW2 8826   4.411   6.531   3.957
 2643SOL     OW 8827   0.480   4.079   3.276
 2643SOL    HW1 8828   0.449   3.989   3.308
 2643SOL    HW2 8829   0.429   4.150   3.324
 2644SOL     OW 8830   5.780   6.273   5.594
 2644SOL    HW1 8831   5.854   6.338   5.609
 2644SOL    HW2 8832   5.721   6.271   5.675
 2645SOL     OW 8833   4.612   5.838   4.513
 2645SOL    HW1 8834   4.646   5.827   4.419
 2645SOL    HW2 8835   4.515   5.863   4.511
 2646SOL     OW 8836   6.117   0.838   6.943
 2646SOL    HW1 8837   6.170   0.841   0.005
 2646SOL    HW2 8838   6.123   0.746   6.903
 2647SOL     OW 8839   6.639   0.082   2.433
 2647SOL    HW1 8840   6.735   0.111   2.422
 2647SOL    HW2 8841   6.603   0.052   2.345
 2648SOL     OW 8842   0.740   0.144   4.195
 2648SOL    HW1 8843   0.732   0.051   4.231
 2648SOL    HW2 8844   0.700   0.148   4.103
 2649SOL     OW 8845   5.657   2.919   6.921
 2649SOL    HW1 8846   5.743   2.902   6.874
 2649SOL    HW2 8847   5.588   2.949   6.855
 2650SOL     OW 8848   0.968   4.233   4.445
 2650SOL    HW1 8849   1.004   4.172   4.516
 2650SOL    HW2 8850   0.978   4.328   4.474
 2651SOL     OW 8851   1.197   1.158   0.328
 2651SOL    HW1 8852   1.260   1.227   0.293
 2651SOL    HW2 8853   1.173   1.179   0.423
 2652SOL     OW 8854   4.102   3.394   4.346
 2652SOL    HW1 8855   4.095   3.351   4.256
 2652SOL    HW2 8856   4.060   3.335   4.415
 2653SOL     OW 8857   4.858   0.149   4.970
 2653SOL    HW1 8858   4.764   0.117   4.979
 2653SOL    HW2 8859   4.859   0.248   4.957
 2654SOL     OW 8860   4.545   5.938   2.174
 2654SOL    HW1 8861   4.510   5.980   2.258
 2654SOL    HW2 8862   4.619   5.994   2.137
 2655SOL     OW 8863   4.468   6.095   4.289
 2655SOL    HW1 8864   4.431   6.185   4.310
 2655SOL    HW2 8865   4.424   6.026   4.345
 2656SOL     OW 8866   3.953   4.923   4.568
 2656SOL    HW1 8867   3.928   4.827   4.563
 2656SOL    HW2 8868   3.921   4.962   4.655
 2657SOL     OW 8869   0.965   4.021   6.125
 2657SOL    HW1 8870   0.893   3.952   6.136
 2657SOL    HW2 8871   1.028   3.992   6.053
 2658SOL     OW 8872   4.873   4.498   0.745
 2658SOL    HW1 8873   4.968   4.466   0.752
 2658SOL    HW2 8874   4.864   4.556   0.664
 2659SOL     OW 8875   5.402   2.956   4.405
 2659SOL    HW1 8876   5.344   2.998   4.336
 2659SOL    HW2 8877   5.362   2.868   4.433
 2660SOL     OW 8878   1.820   0.237   1.570
 2660SOL    HW1 8879   1.759   0.305   1.610
 2660SOL    HW2 8880   1.767   0.171   1.517
 2661SOL     OW 8881   2.496   6.832   1.112
 2661SOL    HW1 8882   2.504   6.924   1.151
 2661SOL    HW2 8883   2.476   6.839   1.014
 2662SOL     OW 8884   5.138   6.717   4.434
 2662SOL    HW1 8885   5.159   6.622   4.411
 2662SOL    HW2 8886   5.215   6.775   4.409
 2663SOL     OW 8887   2.909   4.109   6.680
 2663SOL    HW1 8888   2.975   4.036   6.695
 2663SOL    HW2 8889   2.872   4.139   6.768
 2664SOL     OW 8890   4.741   4.050   5.347
 2664SOL    HW1 8891   4.683   4.107   5.406
 2664SOL    HW2 8892   4.746   4.090   5.256
 2665SOL     OW 8893   2.454   2.749   5.279
 2665SOL    HW1 8894   2.457   2.746   5.379
 2665SOL    HW2 8895   2.492   2.836   5.247
 2666SOL     OW 8896   6.049   4.633   1.307
 2666SOL    HW1 8897   5.959   4.618   1.265
 2666SOL    HW2 8898   6.121   4.613   1.241
 2667SOL     OW 8899   0.421   6.492   3.867
 2667SOL    HW1 8900   0.509   6.456   3.896
 2667SOL    HW2 8901   0.432   6.586   3.834
 2668SOL     OW 8902   0.365   3.288   4.733
 2668SOL    HW1 8903   0.411   3.243   4.809
 2668SOL    HW2 8904   0.424   3.288   4.652
 2669SOL     OW 8905   2.749   4.564   5.394
 2669SOL    HW1 8906   2.816   4.582   5.322
 2669SOL    HW2 8907   2.792   4.578   5.483
 2670SOL     OW 8908   5.947   3.645   6.518
 2670SOL    HW1 8909   5.904   3.588   6.448
 2670SOL    HW2 8910   5.889   3.648   6.599
 2671SOL     OW 8911   4.555   5.570   5.736
 2671SOL    HW1 8912   4.630   5.633   5.757
 2671SOL    HW2 8913   4.539   5.511   5.815
 2672SOL     OW 8914   1.641   5.000   0.883
 2672SOL    HW1 8915   1.670   4.973   0.791
 2672SOL    HW2 8916   1.721   5.002   0.943
 2673SOL     OW 8917   5.708   0.817   2.970
 2673SOL    HW1 8918   5.733   0.899   3.022
 2673SOL    HW2 8919   5.791   0.765   2.948
 2674SOL     OW 8920   1.379   4.132   3.989
 2674SOL    HW1 8921   1.422   4.070   3.923
 2674SOL    HW2 8922   1.295   4.090   4.024
 2675SOL     OW 8923   6.455   5.520   3.686
 2675SOL    HW1 8924   6.474   5.587   3.614
 2675SOL    HW2 8925   6.459   5.428   3.649
 2676SOL     OW 8926   3.997   2.576   0.705
 2676SOL    HW1 8927   3.912   2.524   0.718
 2676SOL    HW2 8928   3.975   2.669   0.677
 2677SOL     OW 8929   2.897   3.812   0.519
 2677SOL    HW1 8930   2.989   3.847   0.503
 2677SOL    HW2 8931   2.882   3.729   0.465
 2678SOL     OW 8932   0.366   2.962   1.522
 2678SOL    HW1 8933   0.413   3.041   1.561
 2678SOL    HW2 8934   0.304   2.992   1.450
 2679SOL     OW 8935   3.289   4.328   0.441
 2679SOL    HW1 8936   3.208   4.274   0.464
 2679SOL    HW2 8937   3.262   4.423   0.427
 2680SOL     OW 8938   0.880   1.748   0.801
 2680SOL    HW1 8939   0.822   1.786   0.873
 2680SOL    HW2 8940   0.951   1.691   0.842
 2681SOL     OW 8941   1.242   2.729   4.076
 2681SOL    HW1 8942   1.318   2.777   4.031
 2681SOL    HW2 8943   1.205   2.661   4.013
 2682SOL     OW 8944   4.681   4.215   2.935
 2682SOL    HW1 8945   4.643   4.298   2.975
 2682SOL    HW2 8946   4.742   4.239   2.860
 2683SOL     OW 8947   2.591   5.003   1.410
 2683SOL    HW1 8948   2.499   5.002   1.451
 2683SOL    HW2 8949   2.637   4.916   1.429
 2684SOL     OW 8950   4.192   5.553   1.971
 2684SOL    HW1 8951   4.281   5.547   1.927
 2684SOL    HW2 8952   4.158   5.461   1.989
 2685SOL     OW 8953   6.053   6.522   6.658
 2685SOL    HW1 8954   6.042   6.429   6.692
 2685SOL    HW2 8955   6.150   6.542   6.644
 2686SOL     OW 8956   1.765   2.258   5.917
 2686SOL    HW1 8957   1.858   2.284   5.943
 2686SOL    HW2 8958   1.729   2.192   5.982
 2687SOL     OW 8959   5.080   4.687   1.870
 2687SOL    HW1 8960   5.040   4.749   1.803
 2687SOL    HW2 8961   5.158   4.639   1.829
 2688SOL     OW 8962   3.872   3.881   0.082
 2688SOL    HW1 8963   3.903   3.835   7.022
 2688SOL    HW2 8964   3.859   3.978   0.063
 2689SOL     OW 8965   1.475   3.917   3.792
 2689SOL    HW1 8966   1.397   3.858   3.813
 2689SOL    HW2 8967   1.446   3.989   3.728
 2690SOL     OW 8968   3.373   3.251   3.967
 2690SOL    HW1 8969   3.331   3.161   3.977
 2690SOL    HW2 8970   3.330   3.315   4.031
 2691SOL     OW 8971   1.825   5.575   2.465
 2691SOL    HW1 8972   1.921   5.605   2.459
 2691SOL    HW2 8973   1.781   5.585   2.376
 2692SOL     OW 8974   3.184   5.448   2.529
 2692SOL    HW1 8975   3.237   5.477   2.609
 2692SOL    HW2 8976   3.155   5.529   2.477
 2693SOL     OW 8977   2.386   5.562   3.116
 2693SOL    HW1 8978   2.320   5.617   3.064
 2693SOL    HW2 8979   2.446   5.622   3.168
 2694SOL     OW 8980   3.888   5.751   2.832
 2694SOL    HW1 8981   3.838   5.762   2.918
 2694SOL    HW2 8982   3.947   5.830   2.818
 2695SOL     OW 8983   5.829   0.261   2.606
 2695SOL    HW1 8984   5.743   0.255   2.657
 2695SOL    HW2 8985   5.822   0.332   2.537
 2696SOL     OW 8986   3.710   3.248   5.162
 2696SOL    HW1 8987   3.746   3.156   5.172
 2696SOL    HW2 8988   3.784   3.314   5.170
 2697SOL     OW 8989   3.212   1.808   2.498
 2697SOL    HW1 8990   3.245   1.717   2.470
 2697SOL    HW2 8991   3.118   1.820   2.466
 2698SOL     OW 8992   2.028   6.417   0.153
 2698SOL    HW1 8993   1.928   6.419   0.153
 2698SOL    HW2 8994   2.064   6.509   0.167
 2699SOL     OW 8995   2.795   6.691   0.433
 2699SOL    HW1 8996   2.760   6.746   0.357
 2699SOL    HW2 8997   2.814   6.751   0.511
 2700SOL     OW 8998   2.267   3.647   0.053
 2700SOL    HW1 8999   2.299   3.576   0.115
 2700SOL    HW2 9000   2.217   3.605   7.000
 2701SOL     OW 9001   5.818   1.784   5.934
 2701SOL    HW1 9002   5.746   1.843   5.898
 2701SOL    HW2 9003   5.818   1.787   6.034
 2702SOL     OW 9004   0.322   2.750   3.472
 2702SOL    HW1 9005   0.231   2.783   3.444
 2702SOL    HW2 9006   0.341   2.781   3.565
 2703SOL     OW 9007   1.150   0.003   1.219
 2703SOL    HW1 9008   1.079   0.001   1.290
 2703SOL    HW2 9009   1.191   6.935   1.210
 2704SOL     OW 9010   6.977   5.667   1.303
 2704SOL    HW1 9011   6.880   5.645   1.313
 2704SOL    HW2 9012   0.008   5.583   1.301
 2705SOL     OW 9013   0.095   5.692   4.705
 2705SOL    HW1 9014   0.017   5.736   4.751
 2705SOL    HW2 9015   0.080   5.693   4.606
 2706SOL     OW 9016   6.952   5.986   1.450
 2706SOL    HW1 9017   6.880   6.024   1.393
 2706SOL    HW2 9018   0.014   5.981   1.397
 2707SOL     OW 9019   3.860   6.906   4.232
 2707SOL    HW1 9020   3.798   6.901   4.311
 2707SOL    HW2 9021   3.938   6.963   4.256
 2708SOL     OW 9022   0.455   2.403   0.092
 2708SOL    HW1 9023   0.448   2.351   0.177
 2708SOL    HW2 9024   0.493   2.344   0.020
 2709SOL     OW 9025   5.517   0.196   6.886
 2709SOL    HW1 9026   5.497   0.259   6.962
 2709SOL    HW2 9027   5.603   0.149   6.905
 2710SOL     OW 9028   0.484   3.749   3.609
 2710SOL    HW1 9029   0.567   3.703   3.579
 2710SOL    HW2 9030   0.491   3.847   3.590
 2711SOL     OW 9031   2.851   0.339   3.188
 2711SOL    HW1 9032   2.912   0.404   3.143
 2711SOL    HW2 9033   2.868   0.339   3.287
 2712SOL     OW 9034   2.958   4.416   1.228
 2712SOL    HW1 9035   2.922   4.344   1.287
 2712SOL    HW2 9036   2.882   4.461   1.181
 2713SOL     OW 9037   2.486   2.420   4.564
 2713SOL    HW1 9038   2.411   2.354   4.575
 2713SOL    HW2 9039   2.492   2.477   4.646
 2714SOL     OW 9040   3.527   2.106   0.563
 2714SOL    HW1 9041   3.489   2.197   0.548
 2714SOL    HW2 9042   3.606   2.093   0.503
 2715SOL     OW 9043   5.031   1.880   0.596
 2715SOL    HW1 9044   5.054   1.826   0.515
 2715SOL    HW2 9045   5.111   1.932   0.625
 2716SOL     OW 9046   5.004   4.224   2.276
 2716SOL    HW1 9047   4.941   4.181   2.211
 2716SOL    HW2 9048   5.098   4.207   2.246
 2717SOL     OW 9049   0.726   6.383   2.442
 2717SOL    HW1 9050   0.712   6.315   2.370
 2717SOL    HW2 9051   0.684   6.469   2.416
 2718SOL     OW 9052   1.634   2.138   5.019
 2718SOL    HW1 9053   1.709   2.081   5.054
 2718SOL    HW2 9054   1.618   2.117   4.923
 2719SOL     OW 9055   6.980   5.249   0.908
 2719SOL    HW1 9056   6.926   5.232   0.826
 2719SOL    HW2 9057   6.925   5.230   0.989
 2720SOL     OW 9058   2.242   5.936   1.867
 2720SOL    HW1 9059   2.321   5.905   1.920
 2720SOL    HW2 9060   2.224   6.032   1.887
 2721SOL     OW 9061   2.794   6.778   3.183
 2721SOL    HW1 9062   2.805   6.735   3.273
 2721SOL    HW2 9063   2.843   6.724   3.114
 2722SOL     OW 9064   6.784   5.288   0.665
 2722SOL    HW1 9065   6.717   5.314   0.734
 2722SOL    HW2 9066   6.851   5.362   0.654
 2723SOL     OW 9067   0.696   6.981   6.407
 2723SOL    HW1 9068   0.693   0.027   6.335
 2723SOL    HW2 9069   0.788   6.977   6.446
 2724SOL     OW 9070   1.731   6.645   6.993
 2724SOL    HW1 9071   1.729   6.745   6.988
 2724SOL    HW2 9072   1.804   6.611   6.934
 2725SOL     OW 9073   5.335   5.069   4.467
 2725SOL    HW1 9074   5.254   5.123   4.491
 2725SOL    HW2 9075   5.379   5.037   4.550
 2726SOL     OW 9076   6.977   2.485   0.857
 2726SOL    HW1 9077   6.959   2.500   0.954
 2726SOL    HW2 9078   0.044   2.442   0.846
 2727SOL     OW 9079   0.635   5.327   3.243
 2727SOL    HW1 9080   0.686   5.253   3.196
 2727SOL    HW2 9081   0.558   5.288   3.293
 2728SOL     OW 9082   4.717   6.895   5.594
 2728SOL    HW1 9083   4.787   6.833   5.630
 2728SOL    HW2 9084   4.687   6.863   5.505
 2729SOL     OW 9085   6.791   5.672   0.903
 2729SOL    HW1 9086   6.870   5.620   0.935
 2729SOL    HW2 9087   6.803   5.695   0.806
 2730SOL     OW 9088   1.404   5.780   1.486
 2730SOL    HW1 9089   1.343   5.701   1.478
 2730SOL    HW2 9090   1.433   5.810   1.395
 2731SOL     OW 9091   3.744   3.966   2.985
 2731SOL    HW1 9092   3.717   3.967   3.081
 2731SOL    HW2 9093   3.835   3.926   2.977
 2732SOL     OW 9094   5.581   2.027   1.805
 2732SOL    HW1 9095   5.640   1.958   1.764
 2732SOL    HW2 9096   5.491   2.026   1.761
 2733SOL     OW 9097   6.586   1.280   4.857
 2733SOL    HW1 9098   6.600   1.378   4.844
 2733SOL    HW2 9099   6.577   1.260   4.954
 2734SOL     OW 9100   2.596   6.098   1.257
 2734SOL    HW1 9101   2.511   6.140   1.289
 2734SOL    HW2 9102   2.623   6.026   1.321
 2735SOL     OW 9103   1.350   3.522   2.339
 2735SOL    HW1 9104   1.373   3.484   2.428
 2735SOL    HW2 9105   1.347   3.622   2.345
 2736SOL     OW 9106   5.080   6.986   5.274
 2736SOL    HW1 9107   5.163   7.016   5.228
 2736SOL    HW2 9108   5.064   6.889   5.256
 2737SOL     OW 9109   3.122   3.380   6.234
 2737SOL    HW1 9110   3.204   3.422   6.273
 2737SOL    HW2 9111   3.043   3.438   6.252
 2738SOL     OW 9112   4.950   6.099   2.039
 2738SOL    HW1 9113   4.891   6.145   1.972
 2738SOL    HW2 9114   5.033   6.154   2.053
 2739SOL     OW 9115   0.170   5.231   1.438
 2739SOL    HW1 9116   0.088   5.236   1.495
 2739SOL    HW2 9117   0.247   5.197   1.493
 2740SOL     OW 9118   0.146   4.034   2.318
 2740SOL    HW1 9119   0.115   4.121   2.357
 2740SOL    HW2 9120   0.140   4.039   2.218
 2741SOL     OW 9121   6.022   0.498   4.699
 2741SOL    HW1 9122   6.104   0.522   4.647
 2741SOL    HW2 9123   5.958   0.449   4.639
 2742SOL     OW 9124   2.125   5.443   6.593
 2742SOL    HW1 9125   2.199   5.429   6.659
 2742SOL    HW2 9126   2.086   5.535   6.605
 2743SOL     OW 9127   6.387   4.712   2.296
 2743SOL    HW1 9128   6.441   4.678   2.373
 2743SOL    HW2 9129   6.441   4.777   2.243
 2744SOL     OW 9130   5.217   1.909   6.382
 2744SOL    HW1 9131   5.281   1.972   6.339
 2744SOL    HW2 9132   5.127   1.952   6.389
 2745SOL     OW 9133   6.628   0.233   6.283
 2745SOL    HW1 9134   6.693   0.171   6.238
 2745SOL    HW2 9135   6.543   0.185   6.302
 2746SOL     OW 9136   2.774   1.919   3.836
 2746SOL    HW1 9137   2.798   2.013   3.812
 2746SOL    HW2 9138   2.811   1.856   3.768
 2747SOL     OW 9139   6.240   3.925   6.578
 2747SOL    HW1 9140   6.266   4.018   6.605
 2747SOL    HW2 9141   6.311   3.887   6.519
 2748SOL     OW 9142   5.097   1.521   0.969
 2748SOL    HW1 9143   5.001   1.494   0.972
 2748SOL    HW2 9144   5.149   1.469   1.036
 2749SOL     OW 9145   0.171   5.076   2.392
 2749SOL    HW1 9146   0.097   5.068   2.460
 2749SOL    HW2 9147   0.259   5.063   2.438
 2750SOL     OW 9148   0.606   5.129   1.025
 2750SOL    HW1 9149   0.674   5.086   1.084
 2750SOL    HW2 9150   0.566   5.208   1.073
 2751SOL     OW 9151   1.107   4.960   1.448
 2751SOL    HW1 9152   1.191   4.960   1.395
 2751SOL    HW2 9153   1.111   4.888   1.518
 2752SOL     OW 9154   4.230   5.596   5.685
 2752SOL    HW1 9155   4.241   5.514   5.742
 2752SOL    HW2 9156   4.314   5.649   5.686
 2753SOL     OW 9157   0.613   6.283   5.572
 2753SOL    HW1 9158   0.651   6.315   5.485
 2753SOL    HW2 9159   0.686   6.242   5.626
 2754SOL     OW 9160   0.447   0.422   2.439
 2754SOL    HW1 9161   0.395   0.505   2.419
 2754SOL    HW2 9162   0.390   0.358   2.490
 2755SOL     OW 9163   2.321   6.765   3.236
 2755SOL    HW1 9164   2.264   6.698   3.283
 2755SOL    HW2 9165   2.302   6.762   3.138
 2756SOL     OW 9166   5.967   4.743   6.905
 2756SOL    HW1 9167   5.912   4.691   6.970
 2756SOL    HW2 9168   5.951   4.710   6.812
 2757SOL     OW 9169   2.704   0.394   6.800
 2757SOL    HW1 9170   2.621   0.390   6.744
 2757SOL    HW2 9171   2.683   0.364   6.893
 2758SOL     OW 9172   4.025   6.572   4.445
 2758SOL    HW1 9173   3.967   6.603   4.520
 2758SOL    HW2 9174   3.971   6.567   4.360
 2759SOL     OW 9175   5.327   6.078   5.445
 2759SOL    HW1 9176   5.353   6.159   5.393
 2759SOL    HW2 9177   5.252   6.031   5.397
 2760SOL     OW 9178   1.000   5.591   2.587
 2760SOL    HW1 9179   0.935   5.542   2.530
 2760SOL    HW2 9180   1.052   5.655   2.531
 2761SOL     OW 9181   1.859   4.779   5.116
 2761SOL    HW1 9182   1.783   4.823   5.070
 2761SOL    HW2 9183   1.831   4.752   5.209
 2762SOL     OW 9184   1.846   0.406   5.411
 2762SOL    HW1 9185   1.757   0.384   5.371
 2762SOL    HW2 9186   1.853   0.505   5.423
 2763SOL     OW 9187   4.848   2.307   3.758
 2763SOL    HW1 9188   4.826   2.213   3.730
 2763SOL    HW2 9189   4.785   2.371   3.714
 2764SOL     OW 9190   6.582   0.934   1.323
 2764SOL    HW1 9191   6.657   0.941   1.389
 2764SOL    HW2 9192   6.527   1.017   1.327
 2765SOL     OW 9193   6.717   0.050   0.142
 2765SOL    HW1 9194   6.809   0.062   0.103
 2765SOL    HW2 9195   6.649   0.089   0.079
 2766SOL     OW 9196   5.017   2.637   0.451
 2766SOL    HW1 9197   5.034   2.649   0.549
 2766SOL    HW2 9198   5.105   2.633   0.403
 2767SOL     OW 9199   6.540   4.959   0.074
 2767SOL    HW1 9200   6.449   4.987   0.046
 2767SOL    HW2 9201   6.553   4.980   0.171
 2768SOL     OW 9202   4.212   0.764   0.927
 2768SOL    HW1 9203   4.252   0.778   1.018
 2768SOL    HW2 9204   4.272   0.804   0.858
 2769SOL     OW 9205   2.007   4.694   5.502
 2769SOL    HW1 9206   2.055   4.624   5.449
 2769SOL    HW2 9207   2.070   4.769   5.524
 2770SOL     OW 9208   3.950   5.881   5.985
 2770SOL    HW1 9209   3.978   5.896   6.080
 2770SOL    HW2 9210   3.902   5.962   5.952
 2771SOL     OW 9211   6.297   0.834   3.840
 2771SOL    HW1 9212   6.315   0.932   3.840
 2771SOL    HW2 9213   6.319   0.796   3.930
 2772SOL     OW 9214   4.094   2.015   0.568
 2772SOL    HW1 9215   4.055   1.945   0.509
 2772SOL    HW2 9216   4.028   2.041   0.638
 2773SOL     OW 9217   6.159   1.859   4.758
 2773SOL    HW1 9218   6.214   1.859   4.841
 2773SOL    HW2 9219   6.126   1.766   4.740
 2774SOL     OW 9220   5.167   2.952   3.035
 2774SOL    HW1 9221   5.224   2.960   2.952
 2774SOL    HW2 9222   5.169   2.858   3.068
 2775SOL     OW 9223   0.028   4.716   5.532
 2775SOL    HW1 9224   7.007   4.754   5.613
 2775SOL    HW2 9225   7.008   4.629   5.509
 2776SOL     OW 9226   4.800   4.819   6.088
 2776SOL    HW1 9227   4.735   4.744   6.073
 2776SOL    HW2 9228   4.815   4.830   6.187
 2777SOL     OW 9229   2.793   1.797   1.211
 2777SOL    HW1 9230   2.841   1.736   1.274
 2777SOL    HW2 9231   2.762   1.878   1.261
 2778SOL     OW 9232   1.650   6.986   5.524
 2778SOL    HW1 9233   1.745   6.970   5.497
 2778SOL    HW2 9234   1.622   6.915   5.589
 2779SOL     OW 9235   5.243   6.919   2.198
 2779SOL    HW1 9236   5.294   7.000   2.171
 2779SOL    HW2 9237   5.306   6.849   2.232
 2780SOL     OW 9238   0.685   6.698   0.096
 2780SOL    HW1 9239   0.718   6.607   0.073
 2780SOL    HW2 9240   0.585   6.699   0.094
 2781SOL     OW 9241   6.087   0.294   1.755
 2781SOL    HW1 9242   6.142   0.292   1.672
 2781SOL    HW2 9243   6.140   0.257   1.831
 2782SOL     OW 9244   4.857   1.630   5.483
 2782SOL    HW1 9245   4.934   1.625   5.547
 2782SOL    HW2 9246   4.866   1.557   5.415
 2783SOL     OW 9247   5.273   4.079   2.793
 2783SOL    HW1 9248   5.346   4.023   2.753
 2783SOL    HW2 9249   5.213   4.021   2.847
 2784SOL     OW 9250   3.310   1.578   2.399
 2784SOL    HW1 9251   3.398   1.596   2.442
 2784SOL    HW2 9252   3.314   1.491   2.351
 2785SOL     OW 9253   5.293   2.471   0.825
 2785SOL    HW1 9254   5.358   2.395   0.818
 2785SOL    HW2 9255   5.318   2.530   0.902
 2786SOL     OW 9256   4.952   0.264   2.564
 2786SOL    HW1 9257   4.926   0.170   2.542
 2786SOL    HW2 9258   5.025   0.264   2.632
 2787SOL     OW 9259   5.489   0.519   6.343
 2787SOL    HW1 9260   5.390   0.504   6.340
 2787SOL    HW2 9261   5.530   0.459   6.413
 2788SOL     OW 9262   1.719   5.675   5.834
 2788SOL    HW1 9263   1.785   5.711   5.768
 2788SOL    HW2 9264   1.666   5.602   5.791
 2789SOL     OW 9265   1.452   2.390   4.095
 2789SOL    HW1 9266   1.545   2.355   4.087
 2789SOL    HW2 9267   1.410   2.395   4.004
 2790SOL     OW 9268   3.813   6.140   1.982
 2790SOL    HW1 9269   3.857   6.087   2.054
 2790SOL    HW2 9270   3.862   6.227   1.971
 2791SOL     OW 9271   0.589   2.663   2.945
 2791SOL    HW1 9272   0.594   2.683   3.043
 2791SOL    HW2 9273   0.500   2.623   2.924
 2792SOL     OW 9274   1.853   0.324   4.156
 2792SOL    HW1 9275   1.949   0.297   4.154
 2792SOL    HW2 9276   1.847   0.424   4.149
 2793SOL     OW 9277   5.321   4.196   1.615
 2793SOL    HW1 9278   5.390   4.126   1.594
 2793SOL    HW2 9279   5.249   4.194   1.546
 2794SOL     OW 9280   0.091   2.136   6.276
 2794SOL    HW1 9281   0.149   2.055   6.286
 2794SOL    HW2 9282   0.042   2.153   6.361
 2795SOL     OW 9283   0.894   3.114   0.720
 2795SOL    HW1 9284   0.897   3.209   0.753
 2795SOL    HW2 9285   0.956   3.058   0.774
 2796SOL     OW 9286   0.517   6.385   3.211
 2796SOL    HW1 9287   0.588   6.456   3.213
 2796SOL    HW2 9288   0.526   6.327   3.293
 2797SOL     OW 9289   5.081   5.499   4.627
 2797SOL    HW1 9290   5.010   5.533   4.566
 2797SOL    HW2 9291   5.054   5.410   4.663
 2798SOL     OW 9292   0.187   5.330   2.239
 2798SOL    HW1 9293   0.248   5.371   2.307
 2798SOL    HW2 9294   0.171   5.234   2.262
 2799SOL     OW 9295   5.951   5.743   6.100
 2799SOL    HW1 9296   5.914   5.833   6.124
 2799SOL    HW2 9297   5.976   5.743   6.003
 2800SOL     OW 9298   4.750   6.245   6.705
 2800SOL    HW1 9299   4.828   6.301   6.734
 2800SOL    HW2 9300   4.734   6.259   6.607
 2801SOL     OW 9301   0.026   5.752   5.890
 2801SOL    HW1 9302   6.961   5.728   5.849
 2801SOL    HW2 9303   0.014   5.830   5.951
 2802SOL     OW 9304   5.667   6.296   5.337
 2802SOL    HW1 9305   5.739   6.332   5.278
 2802SOL    HW2 9306   5.707   6.264   5.423
 2803SOL     OW 9307   4.284   5.794   6.107
 2803SOL    HW1 9308   4.330   5.852   6.174
 2803SOL    HW2 9309   4.309   5.822   6.015
 2804SOL     OW 9310   0.109   4.365   5.500
 2804SOL    HW1 9311   0.130   4.396   5.408
 2804SOL    HW2 9312   0.182   4.393   5.562
 2805SOL     OW 9313   6.079   3.631   2.285
 2805SOL    HW1 9314   6.090   3.729   2.268
 2805SOL    HW2 9315   6.169   3.587   2.282
 2806SOL     OW 9316   0.397   4.112   5.714
 2806SOL    HW1 9317   0.442   4.111   5.803
 2806SOL    HW2 9318   0.333   4.035   5.709
 2807SOL     OW 9319   3.660   6.911   4.415
 2807SOL    HW1 9320   3.600   6.923   4.336
 2807SOL    HW2 9321   3.663   6.996   4.467
 2808SOL     OW 9322   6.595   4.870   1.949
 2808SOL    HW1 9323   6.553   4.872   2.040
 2808SOL    HW2 9324   6.690   4.839   1.956
 2809SOL     OW 9325   5.387   2.638   1.010
 2809SOL    HW1 9326   5.332   2.699   1.067
 2809SOL    HW2 9327   5.483   2.646   1.036
 2810SOL     OW 9328   2.893   5.601   3.183
 2810SOL    HW1 9329   2.970   5.541   3.162
 2810SOL    HW2 9330   2.853   5.575   3.271
 2811SOL     OW 9331   1.200   2.239   4.228
 2811SOL    HW1 9332   1.296   2.226   4.201
 2811SOL    HW2 9333   1.196   2.264   4.325
 2812SOL     OW 9334   5.130   2.716   6.706
 2812SOL    HW1 9335   5.192   2.656   6.656
 2812SOL    HW2 9336   5.152   2.714   6.803
 2813SOL     OW 9337   0.973   0.472   6.417
 2813SOL    HW1 9338   1.008   0.555   6.373
 2813SOL    HW2 9339   0.873   0.473   6.416
 2814SOL     OW 9340   3.812   3.706   5.931
 2814SOL    HW1 9341   3.795   3.672   5.838
 2814SOL    HW2 9342   3.768   3.645   5.997
 2815SOL     OW 9343   6.544   6.159   6.501
 2815SOL    HW1 9344   6.570   6.239   6.446
 2815SOL    HW2 9345   6.455   6.126   6.470
 2816SOL     OW 9346   6.164   5.493   3.481
 2816SOL    HW1 9347   6.067   5.515   3.483
 2816SOL    HW2 9348   6.178   5.407   3.432
 2817SOL     OW 9349   2.848   0.129   1.719
 2817SOL    HW1 9350   2.812   0.044   1.758
 2817SOL    HW2 9351   2.946   0.134   1.736
 2818SOL     OW 9352   0.600   0.300   2.217
 2818SOL    HW1 9353   0.567   0.281   2.309
 2818SOL    HW2 9354   0.577   0.394   2.192
 2819SOL     OW 9355   1.855   0.562   1.820
 2819SOL    HW1 9356   1.931   0.563   1.755
 2819SOL    HW2 9357   1.806   0.648   1.816
 2820SOL     OW 9358   0.839   2.306   3.431
 2820SOL    HW1 9359   0.797   2.350   3.352
 2820SOL    HW2 9360   0.779   2.316   3.511
 2821SOL     OW 9361   3.688   4.048   6.073
 2821SOL    HW1 9362   3.609   4.059   6.013
 2821SOL    HW2 9363   3.657   4.045   6.168
 2822SOL     OW 9364   3.940   2.291   0.556
 2822SOL    HW1 9365   4.031   2.293   0.596
 2822SOL    HW2 9366   3.877   2.342   0.616
 2823SOL     OW 9367   4.929   0.885   0.968
 2823SOL    HW1 9368   4.949   0.883   1.066
 2823SOL    HW2 9369   4.995   0.944   0.921
 2824SOL     OW 9370   2.542   1.080   3.892
 2824SOL    HW1 9371   2.531   1.024   3.810
 2824SOL    HW2 9372   2.470   1.150   3.894
 2825SOL     OW 9373   5.009   6.357   6.750
 2825SOL    HW1 9374   5.068   6.314   6.819
 2825SOL    HW2 9375   5.065   6.385   6.672
 2826SOL     OW 9376   4.636   1.244   6.668
 2826SOL    HW1 9377   4.725   1.290   6.674
 2826SOL    HW2 9378   4.650   1.145   6.662
 2827SOL     OW 9379   0.942   1.630   6.616
 2827SOL    HW1 9380   0.927   1.600   6.522
 2827SOL    HW2 9381   0.998   1.562   6.664
 2828SOL     OW 9382   2.666   1.786   0.522
 2828SOL    HW1 9383   2.754   1.740   0.531
 2828SOL    HW2 9384   2.621   1.757   0.437
 2829SOL     OW 9385   2.900   3.359   4.667
 2829SOL    HW1 9386   2.947   3.273   4.644
 2829SOL    HW2 9387   2.807   3.339   4.697
 2830SOL     OW 9388   3.060   3.878   5.747
 2830SOL    HW1 9389   2.974   3.928   5.739
 2830SOL    HW2 9390   3.073   3.822   5.665
 2831SOL     OW 9391   1.040   4.338   3.153
 2831SOL    HW1 9392   1.043   4.352   3.054
 2831SOL    HW2 9393   0.994   4.415   3.196
 2832SOL     OW 9394   1.230   3.119   1.855
 2832SOL    HW1 9395   1.328   3.117   1.833
 2832SOL    HW2 9396   1.187   3.037   1.818
 2833SOL     OW 9397   2.708   1.566   2.077
 2833SOL    HW1 9398   2.667   1.578   1.986
 2833SOL    HW2 9399   2.705   1.653   2.126
 2834SOL     OW 9400   4.486   6.395   5.964
 2834SOL    HW1 9401   4.447   6.367   5.876
 2834SOL    HW2 9402   4.466   6.492   5.980
 2835SOL     OW 9403   0.440   5.765   1.175
 2835SOL    HW1 9404   0.373   5.804   1.111
 2835SOL    HW2 9405   0.532   5.793   1.149
 2836SOL     OW 9406   0.401   6.518   1.967
 2836SOL    HW1 9407   0.320   6.509   1.908
 2836SOL    HW2 9408   0.482   6.531   1.910
 2837SOL     OW 9409   4.516   4.449   2.230
 2837SOL    HW1 9410   4.471   4.419   2.147
 2837SOL    HW2 9411   4.596   4.391   2.247
 2838SOL     OW 9412   3.782   4.021   0.873
 2838SOL    HW1 9413   3.821   3.953   0.811
 2838SOL    HW2 9414   3.799   4.113   0.836
 2839SOL     OW 9415   6.721   1.857   2.653
 2839SOL    HW1 9416   6.709   1.956   2.645
 2839SOL    HW2 9417   6.666   1.822   2.729
 2840SOL     OW 9418   1.554   0.288   2.093
 2840SOL    HW1 9419   1.459   0.264   2.114
 2840SOL    HW2 9420   1.580   0.249   2.005
 2841SOL     OW 9421   0.139   1.298   6.130
 2841SOL    HW1 9422   0.228   1.320   6.169
 2841SOL    HW2 9423   0.144   1.306   6.030
 2842SOL     OW 9424   6.905   4.562   4.003
 2842SOL    HW1 9425   6.869   4.641   4.052
 2842SOL    HW2 9426   6.947   4.592   3.917
 2843SOL     OW 9427   2.029   1.919   2.981
 2843SOL    HW1 9428   2.051   1.894   3.076
 2843SOL    HW2 9429   2.105   1.972   2.943
 2844SOL     OW 9430   6.457   5.324   0.034
 2844SOL    HW1 9431   6.369   5.353   7.020
 2844SOL    HW2 9432   6.495   5.251   7.000
 2845SOL     OW 9433   5.703   3.446   2.265
 2845SOL    HW1 9434   5.787   3.446   2.318
 2845SOL    HW2 9435   5.674   3.352   2.248
 2846SOL     OW 9436   4.209   0.714   0.069
 2846SOL    HW1 9437   4.204   0.758   7.002
 2846SOL    HW2 9438   4.225   0.784   0.139
 2847SOL     OW 9439   5.427   4.159   3.241
 2847SOL    HW1 9440   5.365   4.103   3.186
 2847SOL    HW2 9441   5.514   4.112   3.252
 2848SOL     OW 9442   2.174   2.707   5.498
 2848SOL    HW1 9443   2.156   2.756   5.412
 2848SOL    HW2 9444   2.114   2.744   5.569
 2849SOL     OW 9445   4.555   0.284   0.914
 2849SOL    HW1 9446   4.654   0.297   0.920
 2849SOL    HW2 9447   4.524   0.224   0.987
 2850SOL     OW 9448   1.800   6.845   2.533
 2850SOL    HW1 9449   1.802   6.786   2.452
 2850SOL    HW2 9450   1.884   6.898   2.537
 2851SOL     OW 9451   5.784   2.178   5.838
 2851SOL    HW1 9452   5.845   2.169   5.916
 2851SOL    HW2 9453   5.744   2.089   5.816
 2852SOL     OW 9454   6.756   4.111   6.813
 2852SOL    HW1 9455   6.675   4.122   6.756
 2852SOL    HW2 9456   6.780   4.199   6.855
 2853SOL     OW 9457   2.021   1.907   6.235
 2853SOL    HW1 9458   1.933   1.914   6.282
 2853SOL    HW2 9459   2.009   1.858   6.149
 2854SOL     OW 9460   4.596   0.941   5.586
 2854SOL    HW1 9461   4.676   0.899   5.542
 2854SOL    HW2 9462   4.611   0.944   5.685
 2855SOL     OW 9463   1.821   1.980   5.709
 2855SOL    HW1 9464   1.806   2.055   5.774
 2855SOL    HW2 9465   1.886   2.010   5.639
 2856SOL     OW 9466   0.530   3.818   5.822
 2856SOL    HW1 9467   0.557   3.781   5.733
 2856SOL    HW2 9468   0.589   3.779   5.893
 2857SOL     OW 9469   1.879   2.789   1.778
 2857SOL    HW1 9470   1.928   2.847   1.843
 2857SOL    HW2 9471   1.790   2.831   1.758
 2858SOL     OW 9472   4.882   4.518   1.846
 2858SOL    HW1 9473   4.954   4.575   1.885
 2858SOL    HW2 9474   4.815   4.575   1.799
 2859SOL     OW 9475   5.817   6.973   0.094
 2859SOL    HW1 9476   5.833   0.017   0.167
 2859SOL    HW2 9477   5.722   6.941   0.098
 2860SOL     OW 9478   2.165   1.800   1.808
 2860SOL    HW1 9479   2.123   1.720   1.766
 2860SOL    HW2 9480   2.220   1.771   1.887
 2861SOL     OW 9481   3.422   4.999   6.190
 2861SOL    HW1 9482   3.424   4.901   6.167
 2861SOL    HW2 9483   3.410   5.009   6.289
 2862SOL     OW 9484   4.375   1.673   2.187
 2862SOL    HW1 9485   4.428   1.734   2.129
 2862SOL    HW2 9486   4.373   1.582   2.146
 2863SOL     OW 9487   4.834   1.876   6.659
 2863SOL    HW1 9488   4.924   1.890   6.700
 2863SOL    HW2 9489   4.781   1.813   6.715
 2864SOL     OW 9490   4.939   1.838   1.724
 2864SOL    HW1 9491   4.886   1.771   1.776
 2864SOL    HW2 9492   5.033   1.841   1.759
 2865SOL     OW 9493   4.105   6.592   5.106
 2865SOL    HW1 9494   4.046   6.519   5.073
 2865SOL    HW2 9495   4.108   6.665   5.037
 2866SOL     OW 9496   6.065   5.154   6.544
 2866SOL    HW1 9497   6.001   5.108   6.605
 2866SOL    HW2 9498   6.113   5.226   6.595
 2867SOL     OW 9499   6.138   6.467   3.219
 2867SOL    HW1 9500   6.131   6.463   3.119
 2867SOL    HW2 9501   6.047   6.467   3.259
 2868SOL     OW 9502   1.818   1.391   4.943
 2868SOL    HW1 9503   1.747   1.445   4.898
 2868SOL    HW2 9504   1.776   1.311   4.986
 2869SOL     OW 9505   6.874   0.855   3.041
 2869SOL    HW1 9506   6.915   0.797   3.111
 2869SOL    HW2 9507   6.790   0.813   3.007
 2870SOL     OW 9508   0.228   1.884   5.575
 2870SOL    HW1 9509   0.229   1.810   5.508
 2870SOL    HW2 9510   0.154   1.868   5.641
 2871SOL     OW 9511   6.757   1.618   6.682
 2871SOL    HW1 9512   6.819   1.694   6.701
 2871SOL    HW2 9513   6.663   1.646   6.702
 2872SOL     OW 9514   2.848   2.077   1.896
 2872SOL    HW1 9515   2.890   2.153   1.946
 2872SOL    HW2 9516   2.815   2.110   1.808
 2873SOL     OW 9517   7.017   5.669   2.750
 2873SOL    HW1 9518   0.001   5.769   2.761
 2873SOL    HW2 9519   0.031   5.625   2.832
 2874SOL     OW 9520   4.993   7.002   3.166
 2874SOL    HW1 9521   5.059   7.010   3.241
 2874SOL    HW2 9522   4.958   0.069   3.142
 2875SOL     OW 9523   5.178   0.211   1.702
 2875SOL    HW1 9524   5.085   0.175   1.709
 2875SOL    HW2 9525   5.178   0.293   1.646
 2876SOL     OW 9526   1.923   0.277   2.341
 2876SOL    HW1 9527   1.976   0.276   2.426
 2876SOL    HW2 9528   1.966   0.340   2.276
 2877SOL     OW 9529   1.983   1.412   5.239
 2877SOL    HW1 9530   2.073   1.396   5.200
 2877SOL    HW2 9531   1.913   1.371   5.180
 2878SOL     OW 9532   4.146   4.103   5.292
 2878SOL    HW1 9533   4.077   4.088   5.362
 2878SOL    HW2 9534   4.209   4.175   5.322
 2879SOL     OW 9535   5.239   4.538   6.620
 2879SOL    HW1 9536   5.337   4.520   6.619
 2879SOL    HW2 9537   5.218   4.609   6.686
 2880SOL     OW 9538   0.242   1.455   2.964
 2880SOL    HW1 9539   0.304   1.384   2.930
 2880SOL    HW2 9540   0.154   1.414   2.987
 2881SOL     OW 9541   4.332   6.034   6.535
 2881SOL    HW1 9542   4.376   6.122   6.555
 2881SOL    HW2 9543   4.234   6.042   6.550
 2882SOL     OW 9544   6.998   5.420   2.084
 2882SOL    HW1 9545   0.029   5.400   2.165
 2882SOL    HW2 9546   6.908   5.453   2.113
 2883SOL     OW 9547   6.146   0.716   3.356
 2883SOL    HW1 9548   6.190   0.750   3.439
 2883SOL    HW2 9549   6.216   0.680   3.293
 2884SOL     OW 9550   1.085   6.731   3.557
 2884SOL    HW1 9551   1.013   6.788   3.518
 2884SOL    HW2 9552   1.130   6.679   3.484
 2885SOL     OW 9553   1.826   4.064   3.803
 2885SOL    HW1 9554   1.898   4.122   3.764
 2885SOL    HW2 9555   1.771   4.118   3.866
 2886SOL     OW 9556   1.255   3.117   6.100
 2886SOL    HW1 9557   1.208   3.123   6.012
 2886SOL    HW2 9558   1.326   3.047   6.095
 2887SOL     OW 9559   0.386   0.746   5.705
 2887SOL    HW1 9560   0.430   0.705   5.785
 2887SOL    HW2 9561   0.300   0.698   5.687
 2888SOL     OW 9562   0.047   4.297   6.502
 2888SOL    HW1 9563   0.022   4.238   6.426
 2888SOL    HW2 9564   6.988   4.340   6.540
 2889SOL     OW 9565   2.659   6.523   2.496
 2889SOL    HW1 9566   2.702   6.551   2.582
 2889SOL    HW2 9567   2.684   6.589   2.425
 2890SOL     OW 9568   1.444   5.897   0.427
 2890SOL    HW1 9569   1.362   5.842   0.409
 2890SOL    HW2 9570   1.471   5.945   0.344
 2891SOL     OW 9571   0.631   4.809   3.209
 2891SOL    HW1 9572   0.684   4.755   3.144
 2891SOL    HW2 9573   0.625   4.760   3.296
 2892SOL     OW 9574   6.425   3.369   0.845
 2892SOL    HW1 9575   6.386   3.299   0.785
 2892SOL    HW2 9576   6.358   3.397   0.913
 2893SOL     OW 9577   0.237   5.249   4.061
 2893SOL    HW1 9578   0.328   5.209   4.071
 2893SOL    HW2 9579   0.224   5.281   3.967
 2894SOL     OW 9580   0.792   3.091   1.998
 2894SOL    HW1 9581   0.736   3.174   2.004
 2894SOL    HW2 9582   0.737   3.012   2.024
 2895SOL     OW 9583   5.239   1.643   5.484
 2895SOL    HW1 9584   5.202   1.638   5.391
 2895SOL    HW2 9585   5.169   1.612   5.549
 2896SOL     OW 9586   4.640   6.416   5.407
 2896SOL    HW1 9587   4.704   6.449   5.476
 2896SOL    HW2 9588   4.655   6.465   5.321
 2897SOL     OW 9589   3.825   4.853   2.826
 2897SOL    HW1 9590   3.922   4.830   2.816
 2897SOL    HW2 9591   3.802   4.859   2.923
 2898SOL     OW 9592   4.467   4.528   4.083
 2898SOL    HW1 9593   4.432   4.551   4.174
 2898SOL    HW2 9594   4.441   4.600   4.019
 2899SOL     OW 9595   0.801   1.943   0.311
 2899SOL    HW1 9596   0.897   1.956   0.288
 2899SOL    HW2 9597   0.750   1.922   0.227
 2900SOL     OW 9598   2.113   3.884   5.967
 2900SOL    HW1 9599   2.124   3.785   5.961
 2900SOL    HW2 9600   2.107   3.922   5.875
 2901SOL     OW 9601   2.307   4.858   3.229
 2901SOL    HW1 9602   2.279   4.823   3.319
 2901SOL    HW2 9603   2.402   4.833   3.211
 2902SOL     OW 9604   5.783   5.289   3.199
 2902SOL    HW1 9605   5.756   5.364   3.261
 2902SOL    HW2 9606   5.742   5.204   3.231
 2903SOL     OW 9607   3.825   0.297   0.515
 2903SOL    HW1 9608   3.888   0.374   0.518
 2903SOL    HW2 9609   3.761   0.309   0.440
 2904SOL     OW 9610   2.642   4.964   4.051
 2904SOL    HW1 9611   2.630   4.970   3.951
 2904SOL    HW2 9612   2.719   4.904   4.072
 2905SOL     OW 9613   1.296   2.966   4.712
 2905SOL    HW1 9614   1.283   2.872   4.679
 2905SOL    HW2 9615   1.207   3.006   4.732
 2906SOL     OW 9616   5.163   5.314   2.329
 2906SOL    HW1 9617   5.189   5.388   2.391
 2906SOL    HW2 9618   5.065   5.295   2.338
 2907SOL     OW 9619   0.370   1.160   3.787
 2907SOL    HW1 9620   0.407   1.214   3.862
 2907SOL    HW2 9621   0.270   1.167   3.786
 2908SOL     OW 9622   5.086   6.524   3.773
 2908SOL    HW1 9623   4.997   6.479   3.758
 2908SOL    HW2 9624   5.132   6.537   3.685
 2909SOL     OW 9625   1.596   5.419   4.214
 2909SOL    HW1 9626   1.675   5.464   4.256
 2909SOL    HW2 9627   1.625   5.333   4.172
 2910SOL     OW 9628   5.400   0.938   4.495
 2910SOL    HW1 9629   5.337   0.861   4.489
 2910SOL    HW2 9630   5.409   0.981   4.405
 2911SOL     OW 9631   1.033   5.544   3.563
 2911SOL    HW1 9632   1.079   5.631   3.578
 2911SOL    HW2 9633   0.967   5.527   3.636
 2912SOL     OW 9634   5.334   0.091   0.141
 2912SOL    HW1 9635   5.330   0.191   0.132
 2912SOL    HW2 9636   5.358   0.051   0.053
 2913SOL     OW 9637   3.315   5.027   1.996
 2913SOL    HW1 9638   3.248   5.082   1.946
 2913SOL    HW2 9639   3.268   4.978   2.070
 2914SOL     OW 9640   6.292   6.555   6.117
 2914SOL    HW1 9641   6.321   6.520   6.207
 2914SOL    HW2 9642   6.355   6.523   6.047
 2915SOL     OW 9643   3.365   2.147   4.068
 2915SOL    HW1 9644   3.405   2.236   4.046
 2915SOL    HW2 9645   3.291   2.127   4.005
 2916SOL     OW 9646   0.905   5.442   0.533
 2916SOL    HW1 9647   0.874   5.361   0.582
 2916SOL    HW2 9648   0.864   5.524   0.573
 2917SOL     OW 9649   2.594   0.392   3.102
 2917SOL    HW1 9650   2.690   0.373   3.126
 2917SOL    HW2 9651   2.546   0.429   3.181
 2918SOL     OW 9652   5.846   4.333   5.191
 2918SOL    HW1 9653   5.934   4.380   5.189
 2918SOL    HW2 9654   5.803   4.339   5.101
 2919SOL     OW 9655   5.424   0.908   2.321
 2919SOL    HW1 9656   5.419   0.972   2.397
 2919SOL    HW2 9657   5.471   0.825   2.350
 2920SOL     OW 9658   3.039   1.076   1.644
 2920SOL    HW1 9659   3.061   1.160   1.594
 2920SOL    HW2 9660   2.956   1.035   1.606
 2921SOL     OW 9661   0.832   6.857   4.658
 2921SOL    HW1 9662   0.861   6.763   4.644
 2921SOL    HW2 9663   0.865   6.889   4.747
 2922SOL     OW 9664   4.572   0.463   1.234
 2922SOL    HW1 9665   4.488   0.410   1.228
 2922SOL    HW2 9666   4.553   0.553   1.273
 2923SOL     OW 9667   6.180   5.225   2.797
 2923SOL    HW1 9668   6.165   5.177   2.884
 2923SOL    HW2 9669   6.275   5.257   2.793
 2924SOL     OW 9670   6.185   2.004   5.724
 2924SOL    HW1 9671   6.148   1.995   5.816
 2924SOL    HW2 9672   6.115   1.982   5.656
 2925SOL     OW 9673   4.597   1.566   2.346
 2925SOL    HW1 9674   4.531   1.635   2.314
 2925SOL    HW2 9675   4.548   1.486   2.379
 2926SOL     OW 9676   6.086   1.270   4.945
 2926SOL    HW1 9677   6.126   1.260   5.037
 2926SOL    HW2 9678   6.048   1.362   4.936
 2927SOL     OW 9679   1.669   4.043   1.254
 2927SOL    HW1 9680   1.684   4.100   1.173
 2927SOL    HW2 9681   1.599   4.084   1.312
 2928SOL     OW 9682   0.475   0.582   6.973
 2928SOL    HW1 9683   0.548   0.643   7.006
 2928SOL    HW2 9684   0.514   0.492   6.952
 2929SOL     OW 9685   1.400   2.116   6.705
 2929SOL    HW1 9686   1.395   2.056   6.785
 2929SOL    HW2 9687   1.321   2.100   6.646
 2930SOL     OW 9688   5.498   6.723   5.374
 2930SOL    HW1 9689   5.405   6.686   5.375
 2930SOL    HW2 9690   5.511   6.777   5.291
 2931SOL     OW 9691   5.629   4.477   6.879
 2931SOL    HW1 9692   5.557   4.423   6.836
 2931SOL    HW2 9693   5.715   4.463   6.829
 2932SOL     OW 9694   0.585   5.605   1.995
 2932SOL    HW1 9695   0.633   5.641   2.075
 2932SOL    HW2 9696   0.548   5.514   2.016
 2933SOL     OW 9697   1.011   5.345   2.931
 2933SOL    HW1 9698   0.940   5.416   2.937
 2933SOL    HW2 9699   1.055   5.335   3.020
 2934SOL     OW 9700   5.208   1.710   0.007
 2934SOL    HW1 9701   5.215   1.611   0.017
 2934SOL    HW2 9702   5.114   1.739   0.025
 2935SOL     OW 9703   0.150   2.757   6.813
 2935SOL    HW1 9704   0.170   2.855   6.819
 2935SOL    HW2 9705   0.069   2.736   6.867
 2936SOL     OW 9706   4.023   0.110   0.897
 2936SOL    HW1 9707   4.101   0.054   0.866
 2936SOL    HW2 9708   4.041   0.206   0.875
 2937SOL     OW 9709   5.405   4.455   1.320
 2937SOL    HW1 9710   5.353   4.522   1.372
 2937SOL    HW2 9711   5.491   4.436   1.368
 2938SOL     OW 9712   4.844   5.394   6.574
 2938SOL    HW1 9713   4.918   5.339   6.612
 2938SOL    HW2 9714   4.795   5.440   6.648
 2939SOL     OW 9715   2.256   0.546   2.746
 2939SOL    HW1 9716   2.322   0.512   2.813
 2939SOL    HW2 9717   2.293   0.533   2.654
 2940SOL     OW 9718   5.670   4.720   5.376
 2940SOL    HW1 9719   5.662   4.620   5.381
 2940SOL    HW2 9720   5.579   4.761   5.382
 2941SOL     OW 9721   1.101   2.255   4.493
 2941SOL    HW1 9722   1.003   2.263   4.474
 2941SOL    HW2 9723   1.131   2.336   4.543
 2942SOL     OW 9724   2.948   2.425   0.359
 2942SOL    HW1 9725   3.000   2.362   0.302
 2942SOL    HW2 9726   3.009   2.496   0.394
 2943SOL     OW 9727   5.315   4.116   3.482
 2943SOL    HW1 9728   5.339   4.021   3.500
 2943SOL    HW2 9729   5.354   4.144   3.394
 2944SOL     OW 9730   3.016   6.172   4.166
 2944SOL    HW1 9731   2.919   6.154   4.145
 2944SOL    HW2 9732   3.053   6.235   4.099
 2945SOL     OW 9733   3.055   3.693   3.149
 2945SOL    HW1 9734   3.033   3.641   3.231
 2945SOL    HW2 9735   3.092   3.782   3.175
 2946SOL     OW 9736   1.246   4.869   5.650
 2946SOL    HW1 9737   1.217   4.903   5.561
 2946SOL    HW2 9738   1.242   4.943   5.717
 2947SOL     OW 9739   0.632   4.314   1.169
 2947SOL    HW1 9740   0.644   4.226   1.123
 2947SOL    HW2 9741   0.646   4.388   1.104
 2948SOL     OW 9742   0.653   3.519   4.866
 2948SOL    HW1 9743   0.610   3.491   4.780
 2948SOL    HW2 9744   0.647   3.444   4.932
 2949SOL     OW 9745   2.510   5.741   0.438
 2949SOL    HW1 9746   2.459   5.685   0.373
 2949SOL    HW2 9747   2.595   5.771   0.395
 2950SOL     OW 9748   5.323   5.055   4.208
 2950SOL    HW1 9749   5.325   5.039   4.307
 2950SOL    HW2 9750   5.263   5.132   4.188
 2951SOL     OW 9751   5.269   1.432   1.902
 2951SOL    HW1 9752   5.191   1.468   1.954
 2951SOL    HW2 9753   5.310   1.505   1.848
 2952SOL     OW 9754   0.146   4.354   4.897
 2952SOL    HW1 9755   0.064   4.406   4.873
 2952SOL    HW2 9756   0.222   4.417   4.913
 2953SOL     OW 9757   5.467   3.760   2.365
 2953SOL    HW1 9758   5.545   3.812   2.399
 2953SOL    HW2 9759   5.384   3.816   2.371
 2954SOL     OW 9760   1.038   4.908   2.137
 2954SOL    HW1 9761   1.071   4.819   2.104
 2954SOL    HW2 9762   1.114   4.958   2.178
 2955SOL     OW 9763   0.572   3.708   2.086
 2955SOL    HW1 9764   0.542   3.693   2.181
 2955SOL    HW2 9765   0.634   3.635   2.060
 2956SOL     OW 9766   5.491   6.019   2.861
 2956SOL    HW1 9767   5.396   6.051   2.865
 2956SOL    HW2 9768   5.551   6.097   2.842
 2957SOL     OW 9769   5.611   4.142   1.891
 2957SOL    HW1 9770   5.558   4.057   1.891
 2957SOL    HW2 9771   5.705   4.122   1.916
 2958SOL     OW 9772   2.540   4.689   3.243
 2958SOL    HW1 9773   2.510   4.595   3.259
 2958SOL    HW2 9774   2.621   4.689   3.184
 2959SOL     OW 9775   5.412   3.449   0.577
 2959SOL    HW1 9776   5.381   3.392   0.501
 2959SOL    HW2 9777   5.338   3.510   0.606
 2960SOL     OW 9778   3.240   0.930   0.487
 2960SOL    HW1 9779   3.229   1.028   0.467
 2960SOL    HW2 9780   3.317   0.917   0.549
 2961SOL     OW 9781   5.546   3.897   3.022
 2961SOL    HW1 9782   5.498   3.950   2.952
 2961SOL    HW2 9783   5.494   3.814   3.042
 2962SOL     OW 9784   4.263   6.344   3.148
 2962SOL    HW1 9785   4.356   6.381   3.157
 2962SOL    HW2 9786   4.230   6.314   3.238
 2963SOL     OW 9787   1.955   1.015   5.983
 2963SOL    HW1 9788   1.996   1.103   5.958
 2963SOL    HW2 9789   1.891   0.987   5.911
 2964SOL     OW 9790   0.665   0.493   3.993
 2964SOL    HW1 9791   0.696   0.557   4.062
 2964SOL    HW2 9792   0.743   0.465   3.937
 2965SOL     OW 9793   0.069   0.457   4.402
 2965SOL    HW1 9794   0.134   0.424   4.334
 2965SOL    HW2 9795   0.049   0.383   4.468
 2966SOL     OW 9796   4.552   5.589   3.251
 2966SOL    HW1 9797   4.584   5.554   3.164
 2966SOL    HW2 9798   4.630   5.603   3.312
 2967SOL     OW 9799   6.660   0.611   5.306
 2967SOL    HW1 9800   6.643   0.654   5.217
 2967SOL    HW2 9801   6.724   0.667   5.358
 2968SOL     OW 9802   1.089   2.648   0.059
 2968SOL    HW1 9803   1.118   2.705   0.136
 2968SOL    HW2 9804   1.055   2.706   7.008
 2969SOL     OW 9805   5.159   2.075   4.153
 2969SOL    HW1 9806   5.187   1.996   4.208
 2969SOL    HW2 9807   5.066   2.060   4.119
 2970SOL     OW 9808   2.068   3.758   5.648
 2970SOL    HW1 9809   2.162   3.728   5.639
 2970SOL    HW2 9810   2.066   3.857   5.662
 2971SOL     OW 9811   5.346   4.633   0.118
 2971SOL    HW1 9812   5.275   4.674   0.175
 2971SOL    HW2 9813   5.415   4.590   0.177
 2972SOL     OW 9814   6.451   4.812   6.699
 2972SOL    HW1 9815   6.534   4.855   6.733
 2972SOL    HW2 9816   6.466   4.778   6.606
 2973SOL     OW 9817   5.339   6.540   2.078
 2973SOL    HW1 9818   5.383   6.588   2.154
 2973SOL    HW2 9819   5.408   6.513   2.011
 2974SOL     OW 9820   1.108   4.788   3.317
 2974SOL    HW1 9821   1.149   4.730   3.387
 2974SOL    HW2 9822   1.012   4.762   3.304
 2975SOL     OW 9823   5.345   3.411   3.770
 2975SOL    HW1 9824   5.430   3.365   3.796
 2975SOL    HW2 9825   5.268   3.368   3.817
 2976SOL     OW 9826   3.846   1.811   2.648
 2976SOL    HW1 9827   3.929   1.828   2.595
 2976SOL    HW2 9828   3.867   1.749   2.724
 2977SOL     OW 9829   2.345   6.771   2.313
 2977SOL    HW1 9830   2.366   6.698   2.377
 2977SOL    HW2 9831   2.414   6.843   2.321
 2978SOL     OW 9832   4.572   4.755   0.138
 2978SOL    HW1 9833   4.496   4.758   0.074
 2978SOL    HW2 9834   4.549   4.695   0.215
 2979SOL     OW 9835   3.229   0.653   4.166
 2979SOL    HW1 9836   3.306   0.591   4.180
 2979SOL    HW2 9837   3.241   0.734   4.222
 2980SOL     OW 9838   1.399   5.665   4.364
 2980SOL    HW1 9839   1.478   5.660   4.303
 2980SOL    HW2 9840   1.426   5.641   4.456
 2981SOL     OW 9841   2.747   1.218   5.624
 2981SOL    HW1 9842   2.805   1.139   5.644
 2981SOL    HW2 9843   2.652   1.188   5.616
 2982SOL     OW 9844   3.204   5.630   1.926
 2982SOL    HW1 9845   3.174   5.599   2.017
 2982SOL    HW2 9846   3.124   5.647   1.869
 2983SOL     OW 9847   0.588   1.365   2.572
 2983SOL    HW1 9848   0.628   1.456   2.559
 2983SOL    HW2 9849   0.536   1.363   2.657
 2984SOL     OW 9850   5.576   5.054   0.684
 2984SOL    HW1 9851   5.562   4.981   0.617
 2984SOL    HW2 9852   5.589   5.013   0.774
 2985SOL     OW 9853   1.749   2.920   5.359
 2985SOL    HW1 9854   1.742   2.982   5.280
 2985SOL    HW2 9855   1.846   2.910   5.384
 2986SOL     OW 9856   3.608   3.904   3.269
 2986SOL    HW1 9857   3.544   3.980   3.276
 2986SOL    HW2 9858   3.637   3.876   3.361
 2987SOL     OW 9859   0.716   1.422   4.094
 2987SOL    HW1 9860   0.726   1.323   4.087
 2987SOL    HW2 9861   0.800   1.466   4.060
 2988SOL     OW 9862   1.672   5.526   3.087
 2988SOL    HW1 9863   1.619   5.560   3.009
 2988SOL    HW2 9864   1.770   5.527   3.063
 2989SOL     OW 9865   5.379   5.884   5.951
 2989SOL    HW1 9866   5.355   5.930   5.866
 2989SOL    HW2 9867   5.408   5.790   5.931
 2990SOL     OW 9868   3.755   2.145   4.844
 2990SOL    HW1 9869   3.675   2.171   4.790
 2990SOL    HW2 9870   3.732   2.143   4.941
 2991SOL     OW 9871   6.832   3.768   5.438
 2991SOL    HW1 9872   6.770   3.846   5.447
 2991SOL    HW2 9873   6.913   3.783   5.495
 2992SOL     OW 9874   2.431   6.292   4.727
 2992SOL    HW1 9875   2.359   6.223   4.721
 2992SOL    HW2 9876   2.477   6.301   4.639
 2993SOL     OW 9877   0.638   4.715   1.230
 2993SOL    HW1 9878   0.583   4.776   1.173
 2993SOL    HW2 9879   0.692   4.769   1.294
 2994SOL     OW 9880   4.008   6.768   6.665
 2994SOL    HW1 9881   3.938   6.712   6.621
 2994SOL    HW2 9882   4.095   6.719   6.667
 2995SOL     OW 9883   2.909   1.649   5.700
 2995SOL    HW1 9884   2.966   1.728   5.679
 2995SOL    HW2 9885   2.815   1.666   5.670
 2996SOL     OW 9886   1.452   1.333   4.213
 2996SOL    HW1 9887   1.453   1.366   4.307
 2996SOL    HW2 9888   1.448   1.412   4.151
 2997SOL     OW 9889   5.852   0.327   3.210
 2997SOL    HW1 9890   5.762   0.317   3.166
 2997SOL    HW2 9891   5.881   0.238   3.246
 2998SOL     OW 9892   4.146   0.092   3.861
 2998SOL    HW1 9893   4.157   0.175   3.807
 2998SOL    HW2 9894   4.178   0.014   3.807
 2999SOL     OW 9895   2.369   5.479   4.908
 2999SOL    HW1 9896   2.436   5.530   4.854
 2999SOL    HW2 9897   2.308   5.544   4.954
 3000SOL     OW 9898   3.251   3.653   6.146
 3000SOL    HW1 9899   3.218   3.740   6.184
 3000SOL    HW2 9900   3.253   3.659   6.047
 3001SOL     OW 9901   0.042   0.598   6.253
 3001SOL    HW1 9902   6.987   0.568   6.308
 3001SOL    HW2 9903   0.085   0.518   6.210
 3002SOL     OW 9904   3.286   1.736   0.324
 3002SOL    HW1 9905   3.227   1.702   0.251
 3002SOL    HW2 9906   3.278   1.677   0.404
 3003SOL     OW 9907   1.516   6.776   0.741
 3003SOL    HW1 9908   1.440   6.792   0.679
 3003SOL    HW2 9909   1.599   6.818   0.704
 3004SOL     OW 9910   0.597   4.306   3.611
 3004SOL    HW1 9911   0.563   4.313   3.517
 3004SOL    HW2 9912   0.565   4.385   3.664
 3005SOL     OW 9913   1.803   1.804   0.580
 3005SOL    HW1 9914   1.802   1.840   0.487
 3005SOL    HW2 9915   1.787   1.705   0.577
 3006SOL     OW 9916   5.413   1.470   4.862
 3006SOL    HW1 9917   5.501   1.516   4.874
 3006SOL    HW2 9918   5.340   1.538   4.854
 3007SOL     OW 9919   5.342   4.350   0.588
 3007SOL    HW1 9920   5.419   4.316   0.643
 3007SOL    HW2 9921   5.331   4.292   0.508
 3008SOL     OW 9922   3.686   2.478   5.812
 3008SOL    HW1 9923   3.680   2.471   5.712
 3008SOL    HW2 9924   3.740   2.402   5.847
 3009SOL     OW 9925   6.665   1.889   3.064
 3009SOL    HW1 9926   6.633   1.849   2.978
 3009SOL    HW2 9927   6.613   1.972   3.084
 3010SOL     OW 9928   3.781   5.572   3.427
 3010SOL    HW1 9929   3.856   5.507   3.417
 3010SOL    HW2 9930   3.697   5.531   3.393
 3011SOL     OW 9931   6.199   1.370   2.473
 3011SOL    HW1 9932   6.129   1.367   2.402
 3011SOL    HW2 9933   6.266   1.297   2.458
 3012SOL     OW 9934   1.900   3.395   5.952
 3012SOL    HW1 9935   1.903   3.301   5.917
 3012SOL    HW2 9936   1.893   3.394   6.051
 3013SOL     OW 9937   4.927   5.426   3.763
 3013SOL    HW1 9938   4.979   5.505   3.796
 3013SOL    HW2 9939   4.983   5.344   3.773
 3014SOL     OW 9940   4.430   2.449   4.204
 3014SOL    HW1 9941   4.493   2.511   4.252
 3014SOL    HW2 9942   4.336   2.478   4.220
 3015SOL     OW 9943   2.994   1.764   0.498
 3015SOL    HW1 9944   3.063   1.815   0.551
 3015SOL    HW2 9945   3.018   1.667   0.496
 3016SOL     OW 9946   2.583   6.282   3.943
 3016SOL    HW1 9947   2.509   6.217   3.956
 3016SOL    HW2 9948   2.577   6.322   3.852
 3017SOL     OW 9949   6.359   4.887   2.576
 3017SOL    HW1 9950   6.367   4.798   2.529
 3017SOL    HW2 9951   6.436   4.945   2.549
 3018SOL     OW 9952   3.123   6.587   5.927
 3018SOL    HW1 9953   3.039   6.544   5.894
 3018SOL    HW2 9954   3.179   6.520   5.976
 3019SOL     OW 9955   1.002   6.619   0.690
 3019SOL    HW1 9956   0.917   6.663   0.663
 3019SOL    HW2 9957   1.051   6.679   0.754
 3020SOL     OW 9958   3.858   2.570   1.372
 3020SOL    HW1 9959   3.882   2.580   1.468
 3020SOL    HW2 9960   3.904   2.489   1.334
 3021SOL     OW 9961   2.873   0.420   5.827
 3021SOL    HW1 9962   2.870   0.410   5.927
 3021SOL    HW2 9963   2.786   0.390   5.789
 3022SOL     OW 9964   4.179   5.154   4.816
 3022SOL    HW1 9965   4.148   5.239   4.858
 3022SOL    HW2 9966   4.235   5.103   4.881
 3023SOL     OW 9967   4.006   6.617   2.744
 3023SOL    HW1 9968   3.966   6.696   2.789
 3023SOL    HW2 9969   4.050   6.558   2.812
 3024SOL     OW 9970   4.979   0.369   4.630
 3024SOL    HW1 9971   4.948   0.458   4.665
 3024SOL    HW2 9972   4.945   0.297   4.690
 3025SOL     OW 9973   3.471   6.906   0.657
 3025SOL    HW1 9974   3.510   6.824   0.698
 3025SOL    HW2 9975   3.493   6.985   0.713
 3026SOL     OW 9976   1.270   0.500   6.573
 3026SOL    HW1 9977   1.278   0.545   6.661
 3026SOL    HW2 9978   1.176   0.504   6.541
 3027SOL     OW 9979   4.098   1.136   2.990
 3027SOL    HW1 9980   4.161   1.142   2.913
 3027SOL    HW2 9981   4.146   1.164   3.074
 3028SOL     OW 9982   1.399   3.356   6.155
 3028SOL    HW1 9983   1.338   3.284   6.122
 3028SOL    HW2 9984   1.487   3.316   6.181
 3029SOL     OW 9985   0.162   2.706   5.376
 3029SOL    HW1 9986   0.160   2.677   5.471
 3029SOL    HW2 9987   0.202   2.798   5.369
 3030SOL     OW 9988   0.415   3.300   0.204
 3030SOL    HW1 9989   0.481   3.273   0.135
 3030SOL    HW2 9990   0.370   3.385   0.177
 3031SOL     OW 9991   0.234   4.327   1.601
 3031SOL    HW1 9992   0.266   4.347   1.694
 3031SOL    HW2 9993   0.175   4.246   1.603
 3032SOL     OW 9994   2.801   6.316   1.303
 3032SOL    HW1 9995   2.785   6.367   1.387
 3032SOL    HW2 9996   2.762   6.224   1.311
 3033SOL     OW 9997   5.857   1.960   1.117
 3033SOL    HW1 9998   5.848   1.987   1.021
 3033SOL    HW2 9999   5.918   2.023   1.164
 3034SOL     OW10000   1.770   6.221   2.758
 3034SOL    HW110001   1.822   6.253   2.679
 3034SOL    HW210002   1.674   6.207   2.732
 3035SOL     OW10003   0.277   2.996   6.847
 3035SOL    HW110004   0.321   3.082   6.874
 3035SOL    HW210005   0.316   2.964   6.761
 3036SOL     OW10006   2.222   1.978   6.421
 3036SOL    HW110007   2.210   2.069   6.460
 3036SOL    HW210008   2.163   1.968   6.341
 3037SOL     OW10009   5.906   5.998   6.041
 3037SOL    HW110010   5.885   6.083   6.090
 3037SOL    HW210011   5.957   6.019   5.957
 3038SOL     OW10012   5.065   5.892   5.648
 3038SOL    HW110013   5.091   5.835   5.571
 3038SOL    HW210014   4.972   5.927   5.634
 3039SOL     OW10015   6.965   3.341   0.508
 3039SOL    HW110016   6.924   3.260   0.464
 3039SOL    HW210017   6.999   3.316   0.598
 3040SOL     OW10018   3.535   3.770   6.192
 3040SOL    HW110019   3.611   3.705   6.201
 3040SOL    HW210020   3.461   3.726   6.141
 3041SOL     OW10021   2.222   3.130   4.555
 3041SOL    HW110022   2.281   3.126   4.635
 3041SOL    HW210023   2.126   3.136   4.584
 3042SOL     OW10024   5.028   5.706   2.519
 3042SOL    HW110025   4.995   5.765   2.593
 3042SOL    HW210026   4.953   5.687   2.456
 3043SOL     OW10027   2.250   3.914   1.832
 3043SOL    HW110028   2.332   3.964   1.805
 3043SOL    HW210029   2.260   3.818   1.807
 3044SOL     OW10030   3.851   4.864   5.887
 3044SOL    HW110031   3.871   4.817   5.974
 3044SOL    HW210032   3.912   4.943   5.877
 3045SOL     OW10033   4.670   0.033   3.370
 3045SOL    HW110034   4.700   6.969   3.408
 3045SOL    HW210035   4.621   0.017   3.284
 3046SOL     OW10036   2.265   0.934   5.854
 3046SOL    HW110037   2.277   1.033   5.865
 3046SOL    HW210038   2.224   0.916   5.764
 3047SOL     OW10039   5.607   0.434   1.754
 3047SOL    HW110040   5.697   0.460   1.789
 3047SOL    HW210041   5.607   0.336   1.733
 3048SOL     OW10042   3.862   2.339   1.721
 3048SOL    HW110043   3.767   2.334   1.752
 3048SOL    HW210044   3.921   2.293   1.788
 3049SOL     OW10045   1.326   6.893   2.585
 3049SOL    HW110046   1.418   6.893   2.625
 3049SOL    HW210047   1.286   6.802   2.593
 3050SOL     OW10048   3.278   1.242   1.873
 3050SOL    HW110049   3.229   1.324   1.901
 3050SOL    HW210050   3.221   1.161   1.889
 3051SOL     OW10051   1.463   5.379   6.194
 3051SOL    HW110052   1.544   5.432   6.218
 3051SOL    HW210053   1.492   5.293   6.151
 3052SOL     OW10054   5.247   5.621   1.959
 3052SOL    HW110055   5.204   5.691   2.016
 3052SOL    HW210056   5.181   5.589   1.890
 3053SOL     OW10057   6.673   2.293   0.568
 3053SOL    HW110058   6.765   2.290   0.530
 3053SOL    HW210059   6.671   2.359   0.643
 3054SOL     OW10060   6.588   2.749   0.775
 3054SOL    HW110061   6.612   2.755   0.872
 3054SOL    HW210062   6.505   2.694   0.765
 3055SOL     OW10063   4.684   0.661   4.990
 3055SOL    HW110064   4.702   0.759   4.979
 3055SOL    HW210065   4.603   0.648   5.047
 3056SOL     OW10066   6.692   0.172   5.355
 3056SOL    HW110067   6.708   0.264   5.322
 3056SOL    HW210068   6.610   0.134   5.312
 3057SOL     OW10069   4.531   5.863   2.677
 3057SOL    HW110070   4.458   5.866   2.746
 3057SOL    HW210071   4.496   5.818   2.595
 3058SOL     OW10072   0.048   4.831   1.102
 3058SOL    HW110073   0.142   4.797   1.109
 3058SOL    HW210074   0.028   4.890   1.180
 3059SOL     OW10075   2.708   2.383   4.382
 3059SOL    HW110076   2.628   2.387   4.441
 3059SOL    HW210077   2.680   2.391   4.287
 3060SOL     OW10078   1.515   5.127   0.191
 3060SOL    HW110079   1.444   5.189   0.158
 3060SOL    HW210080   1.598   5.178   0.211
 3061SOL     OW10081   0.186   6.732   5.508
 3061SOL    HW110082   0.270   6.779   5.534
 3061SOL    HW210083   0.168   6.746   5.410
 3062SOL     OW10084   1.823   0.105   0.404
 3062SOL    HW110085   1.878   0.023   0.387
 3062SOL    HW210086   1.878   0.173   0.453
 3063SOL     OW10087   2.335   4.784   1.909
 3063SOL    HW110088   2.264   4.718   1.883
 3063SOL    HW210089   2.424   4.739   1.907
 3064SOL     OW10090   4.840   3.819   2.031
 3064SOL    HW110091   4.930   3.835   1.991
 3064SOL    HW210092   4.841   3.734   2.084
 3065SOL     OW10093   1.870   1.389   0.113
 3065SOL    HW110094   1.869   1.299   0.156
 3065SOL    HW210095   1.924   1.386   0.029
 3066SOL     OW10096   4.567   5.001   0.501
 3066SOL    HW110097   4.557   4.922   0.560
 3066SOL    HW210098   4.627   4.978   0.424
 3067SOL     OW10099   3.864   1.416   5.769
 3067SOL    HW110100   3.769   1.446   5.761
 3067SOL    HW210101   3.867   1.319   5.793
 3068SOL     OW10102   6.608   0.208   0.434
 3068SOL    HW110103   6.564   0.169   0.353
 3068SOL    HW210104   6.540   0.257   0.489
 3069SOL     OW10105   6.513   5.865   1.782
 3069SOL    HW110106   6.561   5.849   1.696
 3069SOL    HW210107   6.436   5.926   1.767
 3070SOL     OW10108   2.727   1.127   6.587
 3070SOL    HW110109   2.741   1.078   6.673
 3070SOL    HW210110   2.813   1.171   6.559
 3071SOL     OW10111   6.617   6.306   3.245
 3071SOL    HW110112   6.658   6.383   3.293
 3071SOL    HW210113   6.616   6.225   3.304
 3072SOL     OW10114   2.787   6.154   6.507
 3072SOL    HW110115   2.844   6.108   6.438
 3072SOL    HW210116   2.845   6.204   6.571
 3073SOL     OW10117   6.054   3.183   4.658
 3073SOL    HW110118   6.095   3.159   4.746
 3073SOL    HW210119   5.955   3.171   4.662
 3074SOL     OW10120   6.288   3.492   1.043
 3074SOL    HW110121   6.302   3.579   0.997
 3074SOL    HW210122   6.190   3.472   1.050
 3075SOL     OW10123   2.463   5.308   1.668
 3075SOL    HW110124   2.369   5.274   1.667
 3075SOL    HW210125   2.485   5.342   1.759
 3076SOL     OW10126   6.594   0.329   4.053
 3076SOL    HW110127   6.680   0.300   4.013
 3076SOL    HW210128   6.568   0.418   4.015
 3077SOL     OW10129   5.987   4.739   1.046
 3077SOL    HW110130   5.987   4.648   1.003
 3077SOL    HW210131   6.073   4.785   1.026
 3078SOL     OW10132   0.358   2.567   2.785
 3078SOL    HW110133   0.305   2.651   2.791
 3078SOL    HW210134   0.299   2.493   2.751
 3079SOL     OW10135   2.393   2.616   2.695
 3079SOL    HW110136   2.300   2.590   2.668
 3079SOL    HW210137   2.459   2.569   2.636
 3080SOL     OW10138   5.424   5.408   2.142
 3080SOL    HW110139   5.376   5.450   2.065
 3080SOL    HW210140   5.358   5.361   2.201
 3081SOL     OW10141   0.539   2.505   5.403
 3081SOL    HW110142   0.528   2.601   5.377
 3081SOL    HW210143   0.600   2.499   5.482
 3082SOL     OW10144   2.630   5.728   3.672
 3082SOL    HW110145   2.578   5.718   3.588
 3082SOL    HW210146   2.710   5.785   3.656
 3083SOL     OW10147   2.967   6.511   4.047
 3083SOL    HW110148   2.896   6.534   4.113
 3083SOL    HW210149   3.044   6.575   4.057
 3084SOL     OW10150   6.153   3.635   4.757
 3084SOL    HW110151   6.173   3.707   4.824
 3084SOL    HW210152   6.114   3.556   4.804
 3085SOL     OW10153   5.889   4.512   0.409
 3085SOL    HW110154   5.908   4.549   0.500
 3085SOL    HW210155   5.904   4.584   0.341
 3086SOL     OW10156   4.841   1.495   1.201
 3086SOL    HW110157   4.845   1.465   1.296
 3086SOL    HW210158   4.755   1.463   1.160
 3087SOL     OW10159   1.630   5.949   4.106
 3087SOL    HW110160   1.533   5.927   4.097
 3087SOL    HW210161   1.662   5.925   4.197
 3088SOL     OW10162   2.426   4.882   4.667
 3088SOL    HW110163   2.431   4.901   4.569
 3088SOL    HW210164   2.401   4.787   4.682
 3089SOL     OW10165   1.878   2.990   5.665
 3089SOL    HW110166   1.915   3.054   5.598
 3089SOL    HW210167   1.930   2.904   5.660
 3090SOL     OW10168   2.503   2.336   1.616
 3090SOL    HW110169   2.462   2.332   1.707
 3090SOL    HW210170   2.602   2.346   1.624
 3091SOL     OW10171   1.879   6.873   1.488
 3091SOL    HW110172   1.954   6.902   1.428
 3091SOL    HW210173   1.869   6.774   1.482
 3092SOL     OW10174   5.297   1.530   0.423
 3092SOL    HW110175   5.242   1.551   0.504
 3092SOL    HW210176   5.300   1.431   0.409
 3093SOL     OW10177   5.178   6.440   6.556
 3093SOL    HW110178   5.197   6.538   6.559
 3093SOL    HW210179   5.234   6.398   6.485
 3094SOL     OW10180   2.083   6.876   4.121
 3094SOL    HW110181   2.102   6.779   4.107
 3094SOL    HW210182   2.163   6.929   4.096
 3095SOL     OW10183   2.307   5.051   5.173
 3095SOL    HW110184   2.317   4.992   5.254
 3095SOL    HW210185   2.378   5.028   5.107
 3096SOL     OW10186   0.585   5.305   5.516
 3096SOL    HW110187   0.674   5.341   5.488
 3096SOL    HW210188   0.578   5.208   5.490
 3097SOL     OW10189   5.550   2.215   0.098
 3097SOL    HW110190   5.497   2.289   0.056
 3097SOL    HW210191   5.487   2.144   0.130
 3098SOL     OW10192   2.276   2.934   1.821
 3098SOL    HW110193   2.183   2.968   1.806
 3098SOL    HW210194   2.289   2.913   1.918
 3099SOL     OW10195   0.763   6.991   3.600
 3099SOL    HW110196   0.806   6.945   3.522
 3099SOL    HW210197   0.711   0.047   3.568
 3100SOL     OW10198   6.944   6.094   3.468
 3100SOL    HW110199   0.002   6.117   3.414
 3100SOL    HW210200   6.935   5.994   3.473
 3101SOL     OW10201   5.938   6.094   0.256
 3101SOL    HW110202   5.968   6.164   0.191
 3101SOL    HW210203   5.974   6.116   0.347
 3102SOL     OW10204   6.511   5.506   2.667
 3102SOL    HW110205   6.489   5.442   2.741
 3102SOL    HW210206   6.577   5.573   2.698
 3103SOL     OW10207   4.336   0.900   2.151
 3103SOL    HW110208   4.239   0.878   2.144
 3103SOL    HW210209   4.387   0.846   2.084
 3104SOL     OW10210   5.171   1.240   5.414
 3104SOL    HW110211   5.224   1.257   5.331
 3104SOL    HW210212   5.083   1.286   5.407
 3105SOL     OW10213   5.335   4.377   0.979
 3105SOL    HW110214   5.261   4.314   1.003
 3105SOL    HW210215   5.409   4.327   0.935
 3106SOL     OW10216   4.576   0.748   3.718
 3106SOL    HW110217   4.621   0.822   3.667
 3106SOL    HW210218   4.560   0.671   3.657
 3107SOL     OW10219   4.561   1.872   4.944
 3107SOL    HW110220   4.652   1.868   4.985
 3107SOL    HW210221   4.568   1.900   4.848
 3108SOL     OW10222   2.084   6.214   4.146
 3108SOL    HW110223   2.068   6.163   4.230
 3108SOL    HW210224   2.098   6.150   4.070
 3109SOL     OW10225   5.553   6.115   3.873
 3109SOL    HW110226   5.578   6.174   3.796
 3109SOL    HW210227   5.597   6.026   3.862
 3110SOL     OW10228   0.698   2.876   2.831
 3110SOL    HW110229   0.703   2.782   2.867
 3110SOL    HW210230   0.681   2.939   2.907
 3111SOL     OW10231   0.270   5.032   3.383
 3111SOL    HW110232   0.224   4.954   3.341
 3111SOL    HW210233   0.272   5.020   3.482
 3112SOL     OW10234   4.177   3.154   6.886
 3112SOL    HW110235   4.165   3.253   6.891
 3112SOL    HW210236   4.204   3.128   6.793
 3113SOL     OW10237   2.537   4.892   3.433
 3113SOL    HW110238   2.576   4.973   3.389
 3113SOL    HW210239   2.545   4.814   3.371
 3114SOL     OW10240   4.074   2.124   0.285
 3114SOL    HW110241   4.000   2.137   0.218
 3114SOL    HW210242   4.049   2.049   0.347
 3115SOL     OW10243   4.191   4.406   6.133
 3115SOL    HW110244   4.098   4.388   6.102
 3115SOL    HW210245   4.239   4.319   6.148
 3116SOL     OW10246   0.115   2.997   0.548
 3116SOL    HW110247   0.085   2.927   0.613
 3116SOL    HW210248   0.203   3.034   0.577
 3117SOL     OW10249   4.575   3.822   5.296
 3117SOL    HW110250   4.623   3.758   5.235
 3117SOL    HW210251   4.631   3.903   5.311
 3118SOL     OW10252   0.690   5.262   2.313
 3118SOL    HW110253   0.740   5.309   2.386
 3118SOL    HW210254   0.659   5.173   2.347
 3119SOL     OW10255   2.511   3.199   6.353
 3119SOL    HW110256   2.454   3.272   6.389
 3119SOL    HW210257   2.601   3.235   6.328
 3120SOL     OW10258   3.312   0.447   5.276
 3120SOL    HW110259   3.308   0.364   5.331
 3120SOL    HW210260   3.366   0.516   5.323
 3121SOL     OW10261   0.352   0.895   3.672
 3121SOL    HW110262   0.379   0.977   3.724
 3121SOL    HW210263   0.260   0.868   3.698
 3122SOL     OW10264   3.931   5.599   6.027
 3122SOL    HW110265   3.941   5.697   6.041
 3122SOL    HW210266   3.865   5.582   5.954
 3123SOL     OW10267   1.764   1.556   2.989
 3123SOL    HW110268   1.676   1.598   2.969
 3123SOL    HW210269   1.833   1.592   2.925
 3124SOL     OW10270   5.209   0.096   4.369
 3124SOL    HW110271   5.151   0.130   4.295
 3124SOL    HW210272   5.262   0.172   4.407
 3125SOL     OW10273   0.588   2.651   4.480
 3125SOL    HW110274   0.509   2.711   4.468
 3125SOL    HW210275   0.632   2.672   4.567
 3126SOL     OW10276   5.609   4.146   5.511
 3126SOL    HW110277   5.674   4.126   5.438
 3126SOL    HW210278   5.659   4.179   5.591
 3127SOL     OW10279   0.997   3.126   5.545
 3127SOL    HW110280   1.004   3.177   5.631
 3127SOL    HW210281   1.037   3.035   5.558
 3128SOL     OW10282   2.967   0.309   6.389
 3128SOL    HW110283   2.990   0.385   6.449
 3128SOL    HW210284   3.029   0.308   6.310
 3129SOL     OW10285   6.494   3.526   0.219
 3129SOL    HW110286   6.537   3.533   0.309
 3129SOL    HW210287   6.525   3.602   0.162
 3130SOL     OW10288   1.599   4.304   1.390
 3130SOL    HW110289   1.683   4.311   1.337
 3130SOL    HW210290   1.617   4.250   1.472
 3131SOL     OW10291   0.700   3.465   2.288
 3131SOL    HW110292   0.662   3.406   2.216
 3131SOL    HW210293   0.633   3.475   2.361
 3132SOL     OW10294   3.703   5.954   6.167
 3132SOL    HW110295   3.646   5.893   6.113
 3132SOL    HW210296   3.744   6.023   6.107
 3133SOL     OW10297   3.144   1.291   3.297
 3133SOL    HW110298   3.131   1.382   3.334
 3133SOL    HW210299   3.235   1.257   3.321
 3134SOL     OW10300   4.669   4.145   1.748
 3134SOL    HW110301   4.574   4.165   1.772
 3134SOL    HW210302   4.685   4.046   1.754
 3135SOL     OW10303   4.393   1.255   4.763
 3135SOL    HW110304   4.343   1.317   4.703
 3135SOL    HW210305   4.338   1.172   4.777
 3136SOL     OW10306   5.384   0.723   1.889
 3136SOL    HW110307   5.402   0.682   1.800
 3136SOL    HW210308   5.319   0.799   1.879
 3137SOL     OW10309   6.659   0.798   2.480
 3137SOL    HW110310   6.716   0.838   2.408
 3137SOL    HW210311   6.717   0.748   2.545
 3138SOL     OW10312   6.349   4.654   3.622
 3138SOL    HW110313   6.290   4.581   3.588
 3138SOL    HW210314   6.399   4.694   3.546
 3139SOL     OW10315   4.792   6.323   1.031
 3139SOL    HW110316   4.701   6.354   1.059
 3139SOL    HW210317   4.790   6.292   0.936
 3140SOL     OW10318   6.271   0.049   0.186
 3140SOL    HW110319   6.205   6.998   0.168
 3140SOL    HW210320   6.362   0.010   0.196
 3141SOL     OW10321   0.500   6.874   6.554
 3141SOL    HW110322   0.540   6.875   6.645
 3141SOL    HW210323   0.568   6.902   6.486
 3142SOL     OW10324   3.562   0.025   2.257
 3142SOL    HW110325   3.584   0.098   2.194
 3142SOL    HW210326   3.586   6.960   2.217
 3143SOL     OW10327   6.588   2.338   0.060
 3143SOL    HW110328   6.510   2.307   0.114
 3143SOL    HW210329   6.567   2.329   6.986
 3144SOL     OW10330   3.608   3.853   1.697
 3144SOL    HW110331   3.584   3.935   1.645
 3144SOL    HW210332   3.702   3.826   1.677
 3145SOL     OW10333   2.048   6.016   1.305
 3145SOL    HW110334   1.992   6.081   1.254
 3145SOL    HW210335   2.056   6.047   1.400
 3146SOL     OW10336   1.273   0.696   3.842
 3146SOL    HW110337   1.298   0.599   3.835
 3146SOL    HW210338   1.229   0.712   3.930
 3147SOL     OW10339   3.434   5.671   1.437
 3147SOL    HW110340   3.476   5.759   1.414
 3147SOL    HW210341   3.502   5.599   1.431
 3148SOL     OW10342   6.434   6.043   3.898
 3148SOL    HW110343   6.449   6.117   3.963
 3148SOL    HW210344   6.335   6.031   3.883
 3149SOL     OW10345   2.602   1.234   5.121
 3149SOL    HW110346   2.597   1.212   5.024
 3149SOL    HW210347   2.655   1.318   5.134
 3150SOL     OW10348   6.044   5.268   4.157
 3150SOL    HW110349   6.115   5.248   4.090
 3150SOL    HW210350   6.015   5.363   4.148
 3151SOL     OW10351   6.662   1.324   5.339
 3151SOL    HW110352   6.696   1.364   5.424
 3151SOL    HW210353   6.733   1.329   5.269
 3152SOL     OW10354   1.256   5.473   0.944
 3152SOL    HW110355   1.263   5.395   0.882
 3152SOL    HW210356   1.285   5.556   0.897
 3153SOL     OW10357   5.956   5.009   0.713
 3153SOL    HW110358   5.910   4.947   0.649
 3153SOL    HW210359   5.933   5.103   0.690
 3154SOL     OW10360   6.397   1.922   6.553
 3154SOL    HW110361   6.412   1.873   6.467
 3154SOL    HW210362   6.474   1.908   6.614
 3155SOL     OW10363   6.694   4.348   0.596
 3155SOL    HW110364   6.712   4.256   0.562
 3155SOL    HW210365   6.663   4.344   0.691
 3156SOL     OW10366   3.382   3.093   3.352
 3156SOL    HW110367   3.421   3.028   3.418
 3156SOL    HW210368   3.288   3.068   3.332
 3157SOL     OW10369   2.723   2.071   5.225
 3157SOL    HW110370   2.682   2.159   5.250
 3157SOL    HW210371   2.811   2.087   5.180
 3158SOL     OW10372   3.639   1.277   3.617
 3158SOL    HW110373   3.691   1.262   3.533
 3158SOL    HW210374   3.632   1.375   3.635
 3159SOL     OW10375   6.297   1.725   0.090
 3159SOL    HW110376   6.318   1.636   0.049
 3159SOL    HW210377   6.367   1.747   0.158
 3160SOL     OW10378   0.129   6.112   5.348
 3160SOL    HW110379   0.121   6.207   5.316
 3160SOL    HW210380   0.039   6.081   5.380
 3161SOL     OW10381   2.125   2.664   3.294
 3161SOL    HW110382   2.166   2.648   3.204
 3161SOL    HW210383   2.192   2.708   3.354
 3162SOL     OW10384   1.145   6.542   2.165
 3162SOL    HW110385   1.233   6.500   2.147
 3162SOL    HW210386   1.087   6.479   2.216
 3163SOL     OW10387   4.789   3.161   6.189
 3163SOL    HW110388   4.774   3.202   6.099
 3163SOL    HW210389   4.884   3.173   6.216
 3164SOL     OW10390   4.314   5.145   1.034
 3164SOL    HW110391   4.329   5.071   0.968
 3164SOL    HW210392   4.303   5.231   0.985
 3165SOL     OW10393   0.340   6.437   0.976
 3165SOL    HW110394   0.418   6.498   0.986
 3165SOL    HW210395   0.355   6.376   0.899
 3166SOL     OW10396   4.241   1.976   4.208
 3166SOL    HW110397   4.312   2.020   4.152
 3166SOL    HW210398   4.163   2.038   4.217
 3167SOL     OW10399   6.693   4.672   0.979
 3167SOL    HW110400   6.784   4.660   1.020
 3167SOL    HW210401   6.669   4.769   0.979
 3168SOL     OW10402   4.454   2.865   6.491
 3168SOL    HW110403   4.519   2.794   6.462
 3168SOL    HW210404   4.427   2.848   6.585
 3169SOL     OW10405   2.139   3.389   4.260
 3169SOL    HW110406   2.150   3.391   4.161
 3169SOL    HW210407   2.150   3.296   4.293
 3170SOL     OW10408   4.357   6.834   1.395
 3170SOL    HW110409   4.336   6.745   1.357
 3170SOL    HW210410   4.455   6.854   1.384
 3171SOL     OW10411   0.280   0.681   1.866
 3171SOL    HW110412   0.303   0.585   1.885
 3171SOL    HW210413   0.303   0.702   1.771
 3172SOL     OW10414   6.458   5.341   0.562
 3172SOL    HW110415   6.529   5.289   0.609
 3172SOL    HW210416   6.472   5.439   0.579
 3173SOL     OW10417   2.441   1.665   0.694
 3173SOL    HW110418   2.346   1.682   0.720
 3173SOL    HW210419   2.469   1.734   0.627
 3174SOL     OW10420   2.589   2.399   0.401
 3174SOL    HW110421   2.495   2.414   0.369
 3174SOL    HW210422   2.605   2.301   0.413
 3175SOL     OW10423   6.626   0.896   1.701
 3175SOL    HW110424   6.559   0.869   1.631
 3175SOL    HW210425   6.687   0.819   1.719
 3176SOL     OW10426   1.775   3.675   5.228
 3176SOL    HW110427   1.858   3.668   5.173
 3176SOL    HW210428   1.796   3.719   5.315
 3177SOL     OW10429   4.870   3.702   4.127
 3177SOL    HW110430   4.933   3.697   4.204
 3177SOL    HW210431   4.866   3.796   4.093
 3178SOL     OW10432   6.445   2.106   0.828
 3178SOL    HW110433   6.432   2.155   0.915
 3178SOL    HW210434   6.447   2.008   0.845
 3179SOL     OW10435   0.916   2.945   2.221
 3179SOL    HW110436   0.848   2.872   2.221
 3179SOL    HW210437   0.873   3.031   2.250
 3180SOL     OW10438   4.389   1.075   0.141
 3180SOL    HW110439   4.412   1.066   0.044
 3180SOL    HW210440   4.456   1.024   0.196
 3181SOL     OW10441   6.920   1.605   3.424
 3181SOL    HW110442   6.974   1.675   3.472
 3181SOL    HW210443   6.846   1.650   3.374
 3182SOL     OW10444   3.407   0.308   5.798
 3182SOL    HW110445   3.422   0.285   5.894
 3182SOL    HW210446   3.324   0.363   5.790
 3183SOL     OW10447   4.081   3.910   1.687
 3183SOL    HW110448   4.078   3.846   1.764
 3183SOL    HW210449   4.176   3.928   1.663
 3184SOL     OW10450   0.770   3.209   2.748
 3184SOL    HW110451   0.722   3.213   2.836
 3184SOL    HW210452   0.835   3.285   2.742
 3185SOL     OW10453   5.943   5.820   6.840
 3185SOL    HW110454   5.870   5.872   6.795
 3185SOL    HW210455   5.946   5.842   6.937
 3186SOL     OW10456   3.821   1.517   1.721
 3186SOL    HW110457   3.778   1.606   1.702
 3186SOL    HW210458   3.757   1.444   1.699
 3187SOL     OW10459   4.777   4.417   0.076
 3187SOL    HW110460   4.865   4.424   0.029
 3187SOL    HW210461   4.704   4.439   0.012
 3188SOL     OW10462   2.316   0.494   4.302
 3188SOL    HW110463   2.244   0.428   4.324
 3188SOL    HW210464   2.333   0.553   4.381
 3189SOL     OW10465   1.480   1.043   1.356
 3189SOL    HW110466   1.531   1.100   1.291
 3189SOL    HW210467   1.458   0.956   1.313
 3190SOL     OW10468   6.746   6.218   0.449
 3190SOL    HW110469   6.797   6.204   0.364
 3190SOL    HW210470   6.808   6.206   0.527
 3191SOL     OW10471   5.289   6.568   0.937
 3191SOL    HW110472   5.308   6.657   0.896
 3191SOL    HW210473   5.274   6.500   0.864
 3192SOL     OW10474   0.020   2.287   1.597
 3192SOL    HW110475   0.091   2.248   1.538
 3192SOL    HW210476   0.003   2.382   1.570
 3193SOL     OW10477   3.224   1.472   6.590
 3193SOL    HW110478   3.188   1.489   6.681
 3193SOL    HW210479   3.166   1.516   6.522
 3194SOL     OW10480   1.514   2.499   6.220
 3194SOL    HW110481   1.555   2.413   6.250
 3194SOL    HW210482   1.586   2.565   6.199
 3195SOL     OW10483   2.702   2.225   3.308
 3195SOL    HW110484   2.757   2.236   3.226
 3195SOL    HW210485   2.737   2.148   3.362
 3196SOL     OW10486   0.379   1.352   6.230
 3196SOL    HW110487   0.442   1.292   6.182
 3196SOL    HW210488   0.386   1.336   6.329
 3197SOL     OW10489   2.669   6.316   3.464
 3197SOL    HW110490   2.742   6.290   3.402
 3197SOL    HW210491   2.602   6.372   3.416
 3198SOL     OW10492   5.660   2.735   4.990
 3198SOL    HW110493   5.659   2.693   4.899
 3198SOL    HW210494   5.705   2.675   5.055
 3199SOL     OW10495   4.990   3.102   2.462
 3199SOL    HW110496   4.996   3.201   2.474
 3199SOL    HW210497   4.943   3.081   2.376
 3200SOL     OW10498   6.238   3.052   1.980
 3200SOL    HW110499   6.283   3.117   1.918
 3200SOL    HW210500   6.153   3.092   2.014
 3201SOL     OW10501   5.507   4.751   4.465
 3201SOL    HW110502   5.451   4.775   4.544
 3201SOL    HW210503   5.568   4.827   4.444
 3202SOL     OW10504   0.069   4.801   1.580
 3202SOL    HW110505   0.116   4.727   1.533
 3202SOL    HW210506   0.132   4.845   1.644
 3203SOL     OW10507   6.201   2.531   0.263
 3203SOL    HW110508   6.263   2.560   0.190
 3203SOL    HW210509   6.254   2.498   0.341
 3204SOL     OW10510   4.994   6.897   2.078
 3204SOL    HW110511   5.082   6.897   2.125
 3204SOL    HW210512   4.965   6.991   2.062
 3205SOL     OW10513   6.494   3.379   6.325
 3205SOL    HW110514   6.430   3.349   6.396
 3205SOL    HW210515   6.576   3.418   6.368
 3206SOL     OW10516   0.992   6.361   5.898
 3206SOL    HW110517   0.933   6.282   5.912
 3206SOL    HW210518   1.073   6.334   5.846
 3207SOL     OW10519   0.755   0.678   5.680
 3207SOL    HW110520   0.780   0.770   5.650
 3207SOL    HW210521   0.668   0.682   5.731
 3208SOL     OW10522   5.255   6.563   5.414
 3208SOL    HW110523   5.207   6.477   5.396
 3208SOL    HW210524   5.233   6.595   5.506
 3209SOL     OW10525   4.096   6.112   3.115
 3209SOL    HW110526   4.107   6.019   3.150
 3209SOL    HW210527   4.158   6.173   3.163
 3210SOL     OW10528   1.222   4.377   1.234
 3210SOL    HW110529   1.270   4.380   1.321
 3210SOL    HW210530   1.233   4.287   1.193
 3211SOL     OW10531   1.330   3.962   0.883
 3211SOL    HW110532   1.316   3.926   0.791
 3211SOL    HW210533   1.414   4.016   0.886
 3212SOL     OW10534   3.169   0.879   1.057
 3212SOL    HW110535   3.243   0.833   1.009
 3212SOL    HW210536   3.184   0.978   1.056
 3213SOL     OW10537   0.509   5.888   1.937
 3213SOL    HW110538   0.547   5.797   1.956
 3213SOL    HW210539   0.458   5.886   1.852
 3214SOL     OW10540   4.707   5.480   0.455
 3214SOL    HW110541   4.767   5.509   0.530
 3214SOL    HW210542   4.612   5.489   0.484
 3215SOL     OW10543   6.621   3.540   0.934
 3215SOL    HW110544   6.693   3.476   0.960
 3215SOL    HW210545   6.534   3.491   0.926
 3216SOL     OW10546   6.203   5.055   0.862
 3216SOL    HW110547   6.129   5.041   0.796
 3216SOL    HW210548   6.223   4.969   0.908
 3217SOL     OW10549   0.294   5.435   2.493
 3217SOL    HW110550   0.346   5.356   2.523
 3217SOL    HW210551   0.286   5.501   2.568
 3218SOL     OW10552   4.106   1.055   3.439
 3218SOL    HW110553   4.069   1.009   3.520
 3218SOL    HW210554   4.073   1.150   3.438
 3219SOL     OW10555   0.052   1.394   3.379
 3219SOL    HW110556   7.014   1.472   3.396
 3219SOL    HW210557   0.141   1.427   3.349
 3220SOL     OW10558   6.170   6.173   6.217
 3220SOL    HW110559   6.118   6.247   6.174
 3220SOL    HW210560   6.207   6.112   6.146
 3221SOL     OW10561   3.826   0.594   1.406
 3221SOL    HW110562   3.816   0.553   1.315
 3221SOL    HW210563   3.819   0.522   1.475
 3222SOL     OW10564   4.075   1.898   2.509
 3222SOL    HW110565   4.139   1.848   2.451
 3222SOL    HW210566   4.059   1.989   2.470
 3223SOL     OW10567   1.777   5.394   6.356
 3223SOL    HW110568   1.776   5.360   6.450
 3223SOL    HW210569   1.863   5.369   6.312
 3224SOL     OW10570   4.446   3.752   6.898
 3224SOL    HW110571   4.447   3.665   6.946
 3224SOL    HW210572   4.504   3.746   6.816
 3225SOL     OW10573   4.624   3.739   6.705
 3225SOL    HW110574   4.711   3.786   6.690
 3225SOL    HW210575   4.579   3.722   6.617
 3226SOL     OW10576   2.075   1.433   3.885
 3226SOL    HW110577   2.030   1.354   3.844
 3226SOL    HW210578   2.168   1.410   3.911
 3227SOL     OW10579   3.857   2.403   0.191
 3227SOL    HW110580   3.837   2.316   0.236
 3227SOL    HW210581   3.908   2.462   0.253
 3228SOL     OW10582   6.424   4.301   2.751
 3228SOL    HW110583   6.390   4.251   2.831
 3228SOL    HW210584   6.464   4.236   2.687
 3229SOL     OW10585   3.713   0.656   5.407
 3229SOL    HW110586   3.767   0.595   5.348
 3229SOL    HW210587   3.770   0.734   5.434
 3230SOL     OW10588   1.723   3.410   4.518
 3230SOL    HW110589   1.710   3.508   4.532
 3230SOL    HW210590   1.640   3.371   4.478
 3231SOL     OW10591   2.388   0.633   1.558
 3231SOL    HW110592   2.478   0.597   1.582
 3231SOL    HW210593   2.372   0.620   1.460
 3232SOL     OW10594   4.681   5.212   5.211
 3232SOL    HW110595   4.597   5.157   5.206
 3232SOL    HW210596   4.687   5.271   5.131
 3233SOL     OW10597   1.171   2.870   1.720
 3233SOL    HW110598   1.229   2.803   1.675
 3233SOL    HW210599   1.075   2.841   1.714
 3234SOL     OW10600   0.017   1.858   6.771
 3234SOL    HW110601   7.002   1.950   6.771
 3234SOL    HW210602   0.109   1.860   6.732
 3235SOL     OW10603   5.505   0.914   1.301
 3235SOL    HW110604   5.493   1.013   1.305
 3235SOL    HW210605   5.451   0.877   1.226
 3236SOL     OW10606   0.837   3.605   1.047
 3236SOL    HW110607   0.922   3.556   1.027
 3236SOL    HW210608   0.838   3.637   1.141
 3237SOL     OW10609   4.529   1.494   3.977
 3237SOL    HW110610   4.593   1.426   4.012
 3237SOL    HW210611   4.556   1.585   4.007
 3238SOL     OW10612   0.046   4.951   0.696
 3238SOL    HW110613   0.137   4.933   0.658
 3238SOL    HW210614   7.010   4.990   0.626
 3239SOL     OW10615   6.397   1.551   1.841
 3239SOL    HW110616   6.464   1.616   1.877
 3239SOL    HW210617   6.305   1.591   1.847
 3240SOL     OW10618   1.289   0.075   6.047
 3240SOL    HW110619   1.197   0.036   6.042
 3240SOL    HW210620   1.304   0.137   5.970
 3241SOL     OW10621   4.583   1.972   5.423
 3241SOL    HW110622   4.573   2.010   5.331
 3241SOL    HW210623   4.679   1.968   5.448
 3242SOL     OW10624   3.772   4.442   0.024
 3242SOL    HW110625   3.717   4.464   0.105
 3242SOL    HW210626   3.756   4.347   7.021
 3243SOL     OW10627   4.445   4.548   0.312
 3243SOL    HW110628   4.425   4.461   0.266
 3243SOL    HW210629   4.525   4.538   0.370
 3244SOL     OW10630   5.368   5.995   0.137
 3244SOL    HW110631   5.374   5.906   0.091
 3244SOL    HW210632   5.417   6.064   0.083
 3245SOL     OW10633   4.938   3.242   4.815
 3245SOL    HW110634   4.880   3.160   4.819
 3245SOL    HW210635   4.916   3.303   4.890
 3246SOL     OW10636   5.577   0.705   2.400
 3246SOL    HW110637   5.535   0.634   2.457
 3246SOL    HW210638   5.660   0.737   2.445
 3247SOL     OW10639   5.809   4.358   2.623
 3247SOL    HW110640   5.738   4.355   2.552
 3247SOL    HW210641   5.812   4.450   2.663
 3248SOL     OW10642   6.776   3.491   0.628
 3248SOL    HW110643   6.851   3.449   0.577
 3248SOL    HW210644   6.752   3.434   0.706
 3249SOL     OW10645   4.015   3.112   4.044
 3249SOL    HW110646   4.033   3.210   4.048
 3249SOL    HW210647   4.008   3.083   3.948
 3250SOL     OW10648   6.150   6.556   2.329
 3250SOL    HW110649   6.099   6.529   2.410
 3250SOL    HW210650   6.207   6.480   2.298
 3251SOL     OW10651   2.941   1.035   2.581
 3251SOL    HW110652   2.932   1.128   2.543
 3251SOL    HW210653   3.013   1.034   2.650
 3252SOL     OW10654   2.537   2.122   2.650
 3252SOL    HW110655   2.524   2.023   2.646
 3252SOL    HW210656   2.449   2.168   2.644
 3253SOL     OW10657   5.285   3.083   1.824
 3253SOL    HW110658   5.195   3.071   1.781
 3253SOL    HW210659   5.295   3.015   1.897
 3254SOL     OW10660   5.033   5.531   5.284
 3254SOL    HW110661   4.981   5.485   5.356
 3254SOL    HW210662   4.970   5.560   5.211
 3255SOL     OW10663   5.265   5.412   0.357
 3255SOL    HW110664   5.180   5.461   0.377
 3255SOL    HW210665   5.259   5.369   0.267
 3256SOL     OW10666   3.909   0.585   0.083
 3256SOL    HW110667   3.883   0.503   0.032
 3256SOL    HW210668   3.873   0.578   0.177
 3257SOL     OW10669   1.765   1.552   1.287
 3257SOL    HW110670   1.710   1.517   1.362
 3257SOL    HW210671   1.780   1.650   1.299
 3258SOL     OW10672   4.086   4.685   1.777
 3258SOL    HW110673   4.120   4.623   1.848
 3258SOL    HW210674   4.052   4.631   1.700
 3259SOL     OW10675   4.491   5.352   3.595
 3259SOL    HW110676   4.548   5.383   3.519
 3259SOL    HW210677   4.549   5.309   3.665
 3260SOL     OW10678   1.580   2.186   0.808
 3260SOL    HW110679   1.587   2.087   0.808
 3260SOL    HW210680   1.664   2.226   0.771
 3261SOL     OW10681   4.944   7.013   0.882
 3261SOL    HW110682   4.893   6.940   0.928
 3261SOL    HW210683   4.884   0.069   0.867
 3262SOL     OW10684   3.295   2.086   2.255
 3262SOL    HW110685   3.300   2.114   2.351
 3262SOL    HW210686   3.199   2.068   2.231
 3263SOL     OW10687   2.819   0.841   3.299
 3263SOL    HW110688   2.816   0.823   3.397
 3263SOL    HW210689   2.867   0.927   3.282
 3264SOL     OW10690   1.538   4.577   0.735
 3264SOL    HW110691   1.584   4.615   0.655
 3264SOL    HW210692   1.491   4.493   0.710
 3265SOL     OW10693   4.691   0.971   6.429
 3265SOL    HW110694   4.744   0.931   6.504
 3265SOL    HW210695   4.663   0.899   6.366
 3266SOL     OW10696   0.792   3.628   0.461
 3266SOL    HW110697   0.766   3.531   0.458
 3266SOL    HW210698   0.739   3.675   0.531
 3267SOL     OW10699   3.422   1.196   0.744
 3267SOL    HW110700   3.393   1.260   0.673
 3267SOL    HW210701   3.446   1.109   0.701
 3268SOL     OW10702   1.336   4.151   0.163
 3268SOL    HW110703   1.411   4.191   0.215
 3268SOL    HW210704   1.301   4.071   0.212
 3269SOL     OW10705   4.355   4.937   2.386
 3269SOL    HW110706   4.442   4.950   2.434
 3269SOL    HW210707   4.286   4.907   2.451
 3270SOL     OW10708   0.859   4.187   5.205
 3270SOL    HW110709   0.830   4.092   5.196
 3270SOL    HW210710   0.814   4.242   5.134
 3271SOL     OW10711   5.932   3.426   2.396
 3271SOL    HW110712   5.997   3.354   2.421
 3271SOL    HW210713   5.982   3.502   2.354
 3272SOL     OW10714   3.248   3.940   6.321
 3272SOL    HW110715   3.291   4.003   6.257
 3272SOL    HW210716   3.149   3.957   6.323
 3273SOL     OW10717   0.707   6.039   1.387
 3273SOL    HW110718   0.705   6.138   1.377
 3273SOL    HW210719   0.642   6.011   1.458
 3274SOL     OW10720   4.549   1.706   1.489
 3274SOL    HW110721   4.616   1.634   1.471
 3274SOL    HW210722   4.472   1.697   1.426
 3275SOL     OW10723   6.913   1.347   6.273
 3275SOL    HW110724   6.927   1.405   6.353
 3275SOL    HW210725   6.998   1.339   6.221
 3276SOL     OW10726   2.352   5.927   0.230
 3276SOL    HW110727   2.301   5.910   0.315
 3276SOL    HW210728   2.442   5.964   0.252
 3277SOL     OW10729   4.400   6.706   0.715
 3277SOL    HW110730   4.364   6.740   0.802
 3277SOL    HW210731   4.389   6.776   0.645
 3278SOL     OW10732   0.845   0.850   6.404
 3278SOL    HW110733   0.796   0.773   6.445
 3278SOL    HW210734   0.780   0.910   6.358
 3279SOL     OW10735   6.022   1.075   0.193
 3279SOL    HW110736   5.988   1.168   0.182
 3279SOL    HW210737   5.945   1.012   0.203
 3280SOL     OW10738   3.640   5.273   5.068
 3280SOL    HW110739   3.689   5.253   4.983
 3280SOL    HW210740   3.551   5.313   5.046
 3281SOL     OW10741   2.088   5.769   1.526
 3281SOL    HW110742   2.072   5.748   1.430
 3281SOL    HW210743   2.179   5.736   1.553
 3282SOL     OW10744   0.495   5.045   5.498
 3282SOL    HW110745   0.561   5.031   5.571
 3282SOL    HW210746   0.404   5.018   5.530
 3283SOL     OW10747   4.574   1.118   1.140
 3283SOL    HW110748   4.581   1.158   1.231
 3283SOL    HW210749   4.665   1.088   1.109
 3284SOL     OW10750   6.652   5.521   6.912
 3284SOL    HW110751   6.589   5.465   6.965
 3284SOL    HW210752   6.692   5.592   6.970
 3285SOL     OW10753   5.056   2.791   3.934
 3285SOL    HW110754   4.964   2.773   3.899
 3285SOL    HW210755   5.107   2.846   3.868
 3286SOL     OW10756   4.062   3.396   2.581
 3286SOL    HW110757   4.017   3.466   2.526
 3286SOL    HW210758   4.087   3.319   2.522
 3287SOL     OW10759   1.328   6.441   0.041
 3287SOL    HW110760   1.292   6.362   7.013
 3287SOL    HW210761   1.388   6.494   7.004
 3288SOL     OW10762   0.413   5.481   6.173
 3288SOL    HW110763   0.387   5.537   6.252
 3288SOL    HW210764   0.494   5.521   6.129
 3289SOL     OW10765   2.414   6.260   5.490
 3289SOL    HW110766   2.415   6.343   5.545
 3289SOL    HW210767   2.459   6.186   5.540
 3290SOL     OW10768   0.674   0.038   1.815
 3290SOL    HW110769   0.596   0.064   1.871
 3290SOL    HW210770   0.663   6.966   1.784
 3291SOL     OW10771   1.614   6.193   1.059
 3291SOL    HW110772   1.651   6.283   1.039
 3291SOL    HW210773   1.581   6.190   1.153
 3292SOL     OW10774   0.696   0.584   1.139
 3292SOL    HW110775   0.667   0.585   1.044
 3292SOL    HW210776   0.628   0.632   1.195
 3293SOL     OW10777   0.720   3.673   3.153
 3293SOL    HW110778   0.683   3.586   3.118
 3293SOL    HW210779   0.671   3.749   3.110
 3294SOL     OW10780   6.667   1.734   5.662
 3294SOL    HW110781   6.610   1.730   5.744
 3294SOL    HW210782   6.725   1.815   5.666
 3295SOL     OW10783   1.511   3.083   1.795
 3295SOL    HW110784   1.566   3.106   1.715
 3295SOL    HW210785   1.530   2.989   1.824
 3296SOL     OW10786   1.733   6.450   2.247
 3296SOL    HW110787   1.802   6.390   2.205
 3296SOL    HW210788   1.676   6.396   2.309
 3297SOL     OW10789   3.373   0.740   4.474
 3297SOL    HW110790   3.304   0.747   4.546
 3297SOL    HW210791   3.338   0.784   4.391
 3298SOL     OW10792   5.780   1.842   4.478
 3298SOL    HW110793   5.812   1.749   4.494
 3298SOL    HW210794   5.757   1.885   4.566
 3299SOL     OW10795   2.810   5.632   3.933
 3299SOL    HW110796   2.742   5.704   3.919
 3299SOL    HW210797   2.789   5.582   4.017
 3300SOL     OW10798   7.017   1.006   5.568
 3300SOL    HW110799   0.053   0.979   5.492
 3300SOL    HW210800   6.971   0.925   5.605
 3301SOL     OW10801   2.072   3.214   3.516
 3301SOL    HW110802   2.021   3.143   3.467
 3301SOL    HW210803   2.102   3.284   3.452
 3302SOL     OW10804   0.311   5.320   5.332
 3302SOL    HW110805   0.377   5.395   5.340
 3302SOL    HW210806   0.265   5.307   5.420
 3303SOL     OW10807   3.300   3.044   2.016
 3303SOL    HW110808   3.334   3.129   2.056
 3303SOL    HW210809   3.360   3.017   1.940
 3304SOL     OW10810   1.346   5.368   4.401
 3304SOL    HW110811   1.414   5.413   4.343
 3304SOL    HW210812   1.283   5.436   4.438
 3305SOL     OW10813   1.867   1.701   3.217
 3305SOL    HW110814   1.827   1.660   3.299
 3305SOL    HW210815   1.827   1.659   3.135
 3306SOL     OW10816   1.890   5.778   4.818
 3306SOL    HW110817   1.853   5.731   4.898
 3306SOL    HW210818   1.934   5.863   4.847
 3307SOL     OW10819   6.763   5.659   0.082
 3307SOL    HW110820   6.814   5.730   0.034
 3307SOL    HW210821   6.685   5.700   0.129
 3308SOL     OW10822   3.865   6.290   0.098
 3308SOL    HW110823   3.781   6.238   0.081
 3308SOL    HW210824   3.925   6.285   0.019
 3309SOL     OW10825   6.951   5.545   2.516
 3309SOL    HW110826   6.888   5.474   2.546
 3309SOL    HW210827   6.979   5.601   2.594
 3310SOL     OW10828   0.526   4.166   5.465
 3310SOL    HW110829   0.473   4.158   5.549
 3310SOL    HW210830   0.469   4.144   5.387
 3311SOL     OW10831   2.329   3.667   1.348
 3311SOL    HW110832   2.238   3.707   1.350
 3311SOL    HW210833   2.392   3.729   1.302
 3312SOL     OW10834   4.507   4.331   6.004
 3312SOL    HW110835   4.435   4.266   6.029
 3312SOL    HW210836   4.466   4.410   5.958
 3313SOL     OW10837   0.650   5.146   3.567
 3313SOL    HW110838   0.614   5.144   3.474
 3313SOL    HW210839   0.579   5.114   3.630
 3314SOL     OW10840   2.361   1.752   3.730
 3314SOL    HW110841   2.356   1.809   3.648
 3314SOL    HW210842   2.455   1.721   3.744
 3315SOL     OW10843   6.396   3.026   4.816
 3315SOL    HW110844   6.463   2.964   4.775
 3315SOL    HW210845   6.441   3.082   4.885
 3316SOL     OW10846   4.660   2.132   5.977
 3316SOL    HW110847   4.629   2.213   5.927
 3316SOL    HW210848   4.631   2.050   5.928
 3317SOL     OW10849   4.656   3.212   1.681
 3317SOL    HW110850   4.752   3.235   1.696
 3317SOL    HW210851   4.624   3.154   1.756
 3318SOL     OW10852   3.187   0.638   0.282
 3318SOL    HW110853   3.119   0.667   0.348
 3318SOL    HW210854   3.265   0.702   0.284
 3319SOL     OW10855   6.072   0.784   4.036
 3319SOL    HW110856   6.167   0.776   4.068
 3319SOL    HW210857   6.071   0.816   3.942
 3320SOL     OW10858   5.792   0.503   5.157
 3320SOL    HW110859   5.857   0.494   5.081
 3320SOL    HW210860   5.742   0.417   5.168
 3321SOL     OW10861   4.195   2.350   0.751
 3321SOL    HW110862   4.258   2.375   0.677
 3321SOL    HW210863   4.134   2.427   0.770
 3322SOL     OW10864   5.617   3.663   1.019
 3322SOL    HW110865   5.709   3.692   0.995
 3322SOL    HW210866   5.617   3.565   1.038
 3323SOL     OW10867   3.094   3.105   0.132
 3323SOL    HW110868   3.110   3.078   0.227
 3323SOL    HW210869   3.022   3.048   0.093
 3324SOL     OW10870   1.580   4.232   6.071
 3324SOL    HW110871   1.677   4.255   6.076
 3324SOL    HW210872   1.570   4.132   6.063
 3325SOL     OW10873   2.137   3.443   6.389
 3325SOL    HW110874   2.150   3.399   6.300
 3325SOL    HW210875   2.187   3.392   6.459
 3326SOL     OW10876   5.347   1.956   2.722
 3326SOL    HW110877   5.372   1.861   2.704
 3326SOL    HW210878   5.294   1.960   2.806
 3327SOL     OW10879   2.908   5.676   1.955
 3327SOL    HW110880   2.847   5.596   1.951
 3327SOL    HW210881   2.918   5.714   1.863
 3328SOL     OW10882   4.501   1.628   1.192
 3328SOL    HW110883   4.503   1.726   1.212
 3328SOL    HW210884   4.413   1.604   1.151
 3329SOL     OW10885   5.239   0.132   4.894
 3329SOL    HW110886   5.155   0.077   4.896
 3329SOL    HW210887   5.248   0.175   4.805
 3330SOL     OW10888   6.386   5.586   1.371
 3330SOL    HW110889   6.434   5.597   1.458
 3330SOL    HW210890   6.368   5.676   1.331
 3331SOL     OW10891   1.094   3.783   1.321
 3331SOL    HW110892   1.148   3.842   1.381
 3331SOL    HW210893   1.125   3.795   1.227
 3332SOL     OW10894   6.887   4.499   0.252
 3332SOL    HW110895   6.788   4.486   0.242
 3332SOL    HW210896   6.916   4.465   0.342
 3333SOL     OW10897   3.027   4.240   6.442
 3333SOL    HW110898   3.124   4.264   6.445
 3333SOL    HW210899   3.000   4.197   6.528
 3334SOL     OW10900   2.389   4.084   1.377
 3334SOL    HW110901   2.290   4.080   1.387
 3334SOL    HW210902   2.418   4.024   1.302
 3335SOL     OW10903   4.804   0.229   5.928
 3335SOL    HW110904   4.889   0.176   5.922
 3335SOL    HW210905   4.783   0.268   5.838
 3336SOL     OW10906   1.987   6.541   4.444
 3336SOL    HW110907   1.910   6.488   4.479
 3336SOL    HW210908   2.043   6.484   4.384
 3337SOL     OW10909   2.795   4.099   1.633
 3337SOL    HW110910   2.711   4.129   1.589
 3337SOL    HW210911   2.811   4.152   1.716
 3338SOL     OW10912   6.038   2.699   2.318
 3338SOL    HW110913   6.056   2.777   2.259
 3338SOL    HW210914   6.027   2.616   2.262
 3339SOL     OW10915   1.229   6.939   6.409
 3339SOL    HW110916   1.284   7.023   6.406
 3339SOL    HW210917   1.202   6.914   6.316
 3340SOL     OW10918   3.448   2.096   3.239
 3340SOL    HW110919   3.542   2.090   3.205
 3340SOL    HW210920   3.435   2.030   3.313
 3341SOL     OW10921   0.514   4.275   4.139
 3341SOL    HW110922   0.461   4.191   4.145
 3341SOL    HW210923   0.603   4.256   4.098
 3342SOL     OW10924   1.217   6.292   3.935
 3342SOL    HW110925   1.224   6.193   3.920
 3342SOL    HW210926   1.259   6.340   3.858
 3343SOL     OW10927   5.046   3.819   6.852
 3343SOL    HW110928   5.110   3.893   6.871
 3343SOL    HW210929   5.091   3.748   6.799
 3344SOL     OW10930   5.785   3.304   3.425
 3344SOL    HW110931   5.783   3.205   3.436
 3344SOL    HW210932   5.740   3.347   3.503
 3345SOL     OW10933   1.447   3.121   6.422
 3345SOL    HW110934   1.500   3.112   6.338
 3345SOL    HW210935   1.370   3.183   6.406
 3346SOL     OW10936   0.694   0.915   0.038
 3346SOL    HW110937   0.709   1.012   0.059
 3346SOL    HW210938   0.599   0.891   0.057
 3347SOL     OW10939   1.284   2.721   5.067
 3347SOL    HW110940   1.325   2.735   5.157
 3347SOL    HW210941   1.332   2.647   5.020
 3348SOL     OW10942   4.124   3.639   4.506
 3348SOL    HW110943   4.176   3.635   4.591
 3348SOL    HW210944   4.135   3.552   4.457
 3349SOL     OW10945   1.971   5.475   3.063
 3349SOL    HW110946   1.963   5.419   2.981
 3349SOL    HW210947   2.020   5.560   3.041
 3350SOL     OW10948   0.068   2.350   5.736
 3350SOL    HW110949   0.099   2.280   5.671
 3350SOL    HW210950   0.000   2.310   5.797
 3351SOL     OW10951   4.997   1.104   2.842
 3351SOL    HW110952   4.924   1.062   2.895
 3351SOL    HW210953   5.048   1.034   2.793
 3352SOL     OW10954   6.749   3.309   0.820
 3352SOL    HW110955   6.653   3.282   0.815
 3352SOL    HW210956   6.805   3.228   0.838
 3353SOL     OW10957   3.145   5.887   2.016
 3353SOL    HW110958   3.234   5.918   1.982
 3353SOL    HW210959   3.127   5.794   1.983
 3354SOL     OW10960   4.589   2.367   5.806
 3354SOL    HW110961   4.682   2.403   5.805
 3354SOL    HW210962   4.524   2.443   5.805
 3355SOL     OW10963   2.182   2.181   6.178
 3355SOL    HW110964   2.278   2.186   6.206
 3355SOL    HW210965   2.170   2.103   6.116
 3356SOL     OW10966   0.593   5.295   5.787
 3356SOL    HW110967   0.605   5.264   5.693
 3356SOL    HW210968   0.512   5.354   5.793
 3357SOL     OW10969   2.096   3.643   1.822
 3357SOL    HW110970   2.164   3.654   1.749
 3357SOL    HW210971   2.128   3.575   1.887
 3358SOL     OW10972   4.476   1.925   1.289
 3358SOL    HW110973   4.559   1.978   1.306
 3358SOL    HW210974   4.446   1.939   1.195
 3359SOL     OW10975   0.827   6.420   2.977
 3359SOL    HW110976   0.879   6.478   2.915
 3359SOL    HW210977   0.839   6.452   3.071
 3360SOL     OW10978   1.826   0.884   6.981
 3360SOL    HW110979   1.864   0.931   6.901
 3360SOL    HW210980   1.879   0.908   0.039
 3361SOL     OW10981   0.056   5.273   4.535
 3361SOL    HW110982   7.020   5.353   4.550
 3361SOL    HW210983   0.063   5.220   4.620
 3362SOL     OW10984   3.543   1.611   2.531
 3362SOL    HW110985   3.567   1.546   2.603
 3362SOL    HW210986   3.556   1.705   2.565
 3363SOL     OW10987   0.031   1.228   2.227
 3363SOL    HW110988   0.123   1.264   2.209
 3363SOL    HW210989   0.027   1.132   2.200
 3364SOL     OW10990   1.810   4.835   3.628
 3364SOL    HW110991   1.752   4.863   3.705
 3364SOL    HW210992   1.752   4.798   3.555
 3365SOL     OW10993   0.485   2.114   4.697
 3365SOL    HW110994   0.506   2.130   4.793
 3365SOL    HW210995   0.458   2.200   4.653
 3366SOL     OW10996   5.722   5.391   4.297
 3366SOL    HW110997   5.718   5.377   4.198
 3366SOL    HW210998   5.645   5.344   4.340
 3367SOL     OW10999   3.919   3.105   2.539
 3367SOL    HW111000   3.994   3.153   2.493
 3367SOL    HW211001   3.950   3.074   2.629
 3368SOL     OW11002   0.204   6.076   6.743
 3368SOL    HW111003   0.227   6.083   6.840
 3368SOL    HW211004   0.155   5.991   6.726
 3369SOL     OW11005   3.864   1.742   0.661
 3369SOL    HW111006   3.788   1.753   0.724
 3369SOL    HW211007   3.866   1.647   0.628
 3370SOL     OW11008   6.931   6.220   0.734
 3370SOL    HW111009   6.899   6.172   0.815
 3370SOL    HW211010   0.008   6.228   0.737
 3371SOL     OW11011   2.079   2.704   1.539
 3371SOL    HW111012   1.985   2.736   1.528
 3371SOL    HW211013   2.082   2.630   1.606
 3372SOL     OW11014   6.706   2.010   0.151
 3372SOL    HW111015   6.643   2.026   0.227
 3372SOL    HW211016   6.735   1.914   0.152
 3373SOL     OW11017   0.977   1.539   4.020
 3373SOL    HW111018   0.981   1.638   4.007
 3373SOL    HW211019   1.041   1.495   3.957
 3374SOL     OW11020   1.220   6.916   4.799
 3374SOL    HW111021   1.319   6.924   4.783
 3374SOL    HW211022   1.171   6.933   4.714
 3375SOL     OW11023   0.282   4.864   0.090
 3375SOL    HW111024   0.229   4.934   0.041
 3375SOL    HW211025   0.356   4.909   0.141
 3376SOL     OW11026   4.034   3.395   4.032
 3376SOL    HW111027   4.061   3.481   3.988
 3376SOL    HW211028   3.937   3.377   4.013
 3377SOL     OW11029   6.298   5.966   6.016
 3377SOL    HW111030   6.251   5.926   6.094
 3377SOL    HW211031   6.387   5.922   6.003
 3378SOL     OW11032   0.999   0.824   0.774
 3378SOL    HW111033   1.061   0.745   0.771
 3378SOL    HW211034   1.053   0.908   0.784
 3379SOL     OW11035   0.906   1.204   5.677
 3379SOL    HW111036   0.867   1.296   5.672
 3379SOL    HW211037   0.992   1.208   5.728
 3380SOL     OW11038   5.933   6.474   4.476
 3380SOL    HW111039   6.015   6.529   4.493
 3380SOL    HW211040   5.903   6.488   4.382
 3381SOL     OW11041   0.769   2.839   1.160
 3381SOL    HW111042   0.832   2.844   1.237
 3381SOL    HW211043   0.678   2.815   1.193
 3382SOL     OW11044   0.583   2.695   0.007
 3382SOL    HW111045   0.613   2.643   0.087
 3382SOL    HW211046   0.498   2.743   0.028
 3383SOL     OW11047   3.848   6.056   1.270
 3383SOL    HW111048   3.858   6.045   1.171
 3383SOL    HW211049   3.765   6.010   1.301
 3384SOL     OW11050   2.783   3.232   0.123
 3384SOL    HW111051   2.831   3.307   0.168
 3384SOL    HW211052   2.734   3.178   0.191
 3385SOL     OW11053   0.008   3.347   4.874
 3385SOL    HW111054   6.960   3.298   4.925
 3385SOL    HW211055   0.092   3.347   4.928
 3386SOL     OW11056   5.561   4.854   0.487
 3386SOL    HW111057   5.523   4.769   0.524
 3386SOL    HW211058   5.535   4.864   0.391
 3387SOL     OW11059   2.980   0.791   2.842
 3387SOL    HW111060   2.976   0.884   2.880
 3387SOL    HW211061   2.954   0.726   2.913
 3388SOL     OW11062   5.392   3.330   2.443
 3388SOL    HW111063   5.431   3.301   2.530
 3388SOL    HW211064   5.360   3.424   2.450
 3389SOL     OW11065   6.028   5.878   6.468
 3389SOL    HW111066   5.937   5.920   6.473
 3389SOL    HW211067   6.032   5.801   6.531
 3390SOL     OW11068   5.661   0.028   6.283
 3390SOL    HW111069   5.611   0.038   6.198
 3390SOL    HW211070   5.602   7.009   6.352
 3391SOL     OW11071   4.683   2.176   4.440
 3391SOL    HW111072   4.592   2.166   4.479
 3391SOL    HW211073   4.676   2.214   4.347
 3392SOL     OW11074   2.412   0.138   3.490
 3392SOL    HW111075   2.328   0.193   3.496
 3392SOL    HW211076   2.486   0.185   3.539
 3393SOL     OW11077   6.637   5.986   1.273
 3393SOL    HW111078   6.635   6.085   1.256
 3393SOL    HW211079   6.692   5.941   1.202
 3394SOL     OW11080   5.397   3.363   1.540
 3394SOL    HW111081   5.347   3.414   1.610
 3394SOL    HW211082   5.432   3.278   1.580
 3395SOL     OW11083   5.571   3.156   3.534
 3395SOL    HW111084   5.652   3.114   3.493
 3395SOL    HW211085   5.508   3.085   3.564
 3396SOL     OW11086   4.856   1.551   3.429
 3396SOL    HW111087   4.911   1.560   3.346
 3396SOL    HW211088   4.804   1.467   3.426
 3397SOL     OW11089   3.014   5.997   5.784
 3397SOL    HW111090   2.980   5.930   5.850
 3397SOL    HW211091   3.049   5.949   5.703
 3398SOL     OW11092   0.755   6.960   5.212
 3398SOL    HW111093   0.828   6.922   5.154
 3398SOL    HW211094   0.700   7.023   5.158
 3399SOL     OW11095   5.715   4.411   3.580
 3399SOL    HW111096   5.789   4.387   3.643
 3399SOL    HW211097   5.737   4.375   3.489
 3400SOL     OW11098   4.937   3.173   6.932
 3400SOL    HW111099   4.961   3.271   6.930
 3400SOL    HW211100   5.018   3.119   6.909
 3401SOL     OW11101   0.066   3.257   6.915
 3401SOL    HW111102   0.140   3.294   6.859
 3401SOL    HW211103   0.101   3.237   7.007
 3402SOL     OW11104   4.182   5.448   6.557
 3402SOL    HW111105   4.221   5.511   6.625
 3402SOL    HW211106   4.148   5.500   6.479
 3403SOL     OW11107   3.566   5.574   6.155
 3403SOL    HW111108   3.585   5.482   6.123
 3403SOL    HW211109   3.588   5.640   6.083
 3404SOL     OW11110   5.487   2.280   0.775
 3404SOL    HW111111   5.469   2.185   0.802
 3404SOL    HW211112   5.511   2.283   0.678
 3405SOL     OW11113   6.463   4.134   5.985
 3405SOL    HW111114   6.438   4.185   5.902
 3405SOL    HW211115   6.480   4.198   6.059
 3406SOL     OW11116   0.997   3.219   2.092
 3406SOL    HW111117   0.925   3.161   2.052
 3406SOL    HW211118   1.078   3.217   2.033
 3407SOL     OW11119   1.200   4.505   6.374
 3407SOL    HW111120   1.114   4.535   6.332
 3407SOL    HW211121   1.241   4.433   6.318
 3408SOL     OW11122   5.162   3.829   4.680
 3408SOL    HW111123   5.135   3.921   4.652
 3408SOL    HW211124   5.081   3.769   4.681
 3409SOL     OW11125   3.567   6.339   6.822
 3409SOL    HW111126   3.645   6.314   6.765
 3409SOL    HW211127   3.482   6.320   6.773
 3410SOL     OW11128   6.713   6.764   1.361
 3410SOL    HW111129   6.678   6.779   1.268
 3410SOL    HW211130   6.657   6.814   1.426
 3411SOL     OW11131   0.334   3.163   0.844
 3411SOL    HW111132   0.289   3.118   0.922
 3411SOL    HW211133   0.403   3.226   0.878
 3412SOL     OW11134   4.852   2.994   1.140
 3412SOL    HW111135   4.916   3.015   1.215
 3412SOL    HW211136   4.879   2.909   1.096
 3413SOL     OW11137   6.064   1.973   0.772
 3413SOL    HW111138   6.133   2.043   0.789
 3413SOL    HW211139   5.974   2.010   0.796
 3414SOL     OW11140   3.718   1.869   5.971
 3414SOL    HW111141   3.729   1.948   6.031
 3414SOL    HW211142   3.740   1.895   5.877
 3415SOL     OW11143   1.854   3.384   4.058
 3415SOL    HW111144   1.943   3.413   4.093
 3415SOL    HW211145   1.784   3.451   4.084
 3416SOL     OW11146   5.773   6.758   0.797
 3416SOL    HW111147   5.738   6.852   0.800
 3416SOL    HW211148   5.846   6.751   0.729
 3417SOL     OW11149   0.002   5.847   3.593
 3417SOL    HW111150   0.101   5.858   3.583
 3417SOL    HW211151   7.003   5.826   3.688
 3418SOL     OW11152   3.037   6.019   3.179
 3418SOL    HW111153   3.011   5.953   3.109
 3418SOL    HW211154   3.098   5.975   3.245
 3419SOL     OW11155   2.879   5.872   6.168
 3419SOL    HW111156   2.941   5.794   6.177
 3419SOL    HW211157   2.786   5.843   6.191
 3420SOL     OW11158   6.216   2.616   3.810
 3420SOL    HW111159   6.183   2.621   3.715
 3420SOL    HW211160   6.312   2.642   3.813
 3421SOL     OW11161   4.629   1.606   4.414
 3421SOL    HW111162   4.571   1.671   4.364
 3421SOL    HW211163   4.571   1.534   4.454
 3422SOL     OW11164   2.208   0.246   0.402
 3422SOL    HW111165   2.259   0.185   0.462
 3422SOL    HW211166   2.218   0.340   0.434
 3423SOL     OW11167   0.074   4.410   6.822
 3423SOL    HW111168   0.082   4.399   6.723
 3423SOL    HW211169   7.006   4.382   6.852
 3424SOL     OW11170   2.014   6.441   0.989
 3424SOL    HW111171   2.100   6.489   1.004
 3424SOL    HW211172   1.990   6.445   0.892
 3425SOL     OW11173   5.026   5.011   2.507
 3425SOL    HW111174   4.964   5.054   2.441
 3425SOL    HW211175   5.109   4.980   2.460
 3426SOL     OW11176   4.345   2.379   0.495
 3426SOL    HW111177   4.415   2.307   0.496
 3426SOL    HW211178   4.308   2.387   0.402
 3427SOL     OW11179   0.235   1.362   0.902
 3427SOL    HW111180   0.251   1.454   0.868
 3427SOL    HW211181   0.195   1.366   0.994
 3428SOL     OW11182   2.417   5.050   0.053
 3428SOL    HW111183   2.427   5.029   6.979
 3428SOL    HW211184   2.431   4.967   0.107
 3429SOL     OW11185   0.396   1.812   0.711
 3429SOL    HW111186   0.381   1.854   0.801
 3429SOL    HW211187   0.483   1.843   0.675
 3430SOL     OW11188   1.509   6.403   5.816
 3430SOL    HW111189   1.600   6.444   5.820
 3430SOL    HW211190   1.439   6.473   5.831
 3431SOL     OW11191   1.382   6.993   1.436
 3431SOL    HW111192   1.355   0.066   1.441
 3431SOL    HW211193   1.326   6.947   1.367
 3432SOL     OW11194   1.637   3.019   5.783
 3432SOL    HW111195   1.724   2.989   5.744
 3432SOL    HW211196   1.621   2.971   5.870
 3433SOL     OW11197   1.488   6.673   4.849
 3433SOL    HW111198   1.445   6.683   4.939
 3433SOL    HW211199   1.453   6.591   4.804
 3434SOL     OW11200   4.327   1.164   2.267
 3434SOL    HW111201   4.235   1.161   2.307
 3434SOL    HW211202   4.342   1.082   2.212
 3435SOL     OW11203   1.944   0.681   0.982
 3435SOL    HW111204   1.936   0.627   1.065
 3435SOL    HW211205   1.918   0.626   0.903
 3436SOL     OW11206   4.061   6.322   0.281
 3436SOL    HW111207   3.974   6.313   0.233
 3436SOL    HW211208   4.059   6.404   0.338
 3437SOL     OW11209   2.439   0.241   5.827
 3437SOL    HW111210   2.414   0.144   5.830
 3437SOL    HW211211   2.463   0.273   5.918
 3438SOL     OW11212   0.922   2.977   0.227
 3438SOL    HW111213   0.862   2.983   0.307
 3438SOL    HW211214   1.017   2.974   0.257
 3439SOL     OW11215   2.498   6.490   4.886
 3439SOL    HW111216   2.471   6.463   4.978
 3439SOL    HW211217   2.471   6.418   4.821
 3440SOL     OW11218   2.787   3.126   1.811
 3440SOL    HW111219   2.869   3.168   1.773
 3440SOL    HW211220   2.775   3.157   1.905
 3441SOL     OW11221   6.660   5.415   5.833
 3441SOL    HW111222   6.601   5.386   5.908
 3441SOL    HW211223   6.630   5.504   5.799
 3442SOL     OW11224   2.148   4.378   1.450
 3442SOL    HW111225   2.094   4.455   1.416
 3442SOL    HW211226   2.240   4.408   1.474
 3443SOL     OW11227   3.590   6.330   2.027
 3443SOL    HW111228   3.511   6.304   1.971
 3443SOL    HW211229   3.662   6.262   2.016
 3444SOL     OW11230   5.063   5.676   6.510
 3444SOL    HW111231   5.135   5.622   6.466
 3444SOL    HW211232   5.054   5.648   6.606
 3445SOL     OW11233   5.615   5.284   2.796
 3445SOL    HW111234   5.710   5.308   2.774
 3445SOL    HW211235   5.556   5.308   2.719
 3446SOL     OW11236   6.221   1.180   1.823
 3446SOL    HW111237   6.165   1.261   1.806
 3446SOL    HW211238   6.288   1.201   1.895
 3447SOL     OW11239   4.938   5.630   0.587
 3447SOL    HW111240   4.871   5.666   0.652
 3447SOL    HW211241   5.031   5.648   0.621
 3448SOL     OW11242   3.782   0.875   6.518
 3448SOL    HW111243   3.778   0.851   6.421
 3448SOL    HW211244   3.735   0.962   6.532
 3449SOL     OW11245   5.723   5.626   4.453
 3449SOL    HW111246   5.730   5.557   4.381
 3449SOL    HW211247   5.657   5.696   4.426
 3450SOL     OW11248   0.568   2.256   6.923
 3450SOL    HW111249   0.490   2.211   6.879
 3450SOL    HW211250   0.617   2.310   6.855
 3451SOL     OW11251   2.416   6.451   6.942
 3451SOL    HW111252   2.382   6.358   6.960
 3451SOL    HW211253   2.338   6.513   6.930
 3452SOL     OW11254   5.726   0.906   6.794
 3452SOL    HW111255   5.725   0.921   6.695
 3452SOL    HW211256   5.640   0.940   6.833
 3453SOL     OW11257   6.409   5.868   6.352
 3453SOL    HW111258   6.417   5.951   6.406
 3453SOL    HW211259   6.314   5.855   6.323
 3454SOL     OW11260   1.019   3.122   4.836
 3454SOL    HW111261   0.926   3.086   4.828
 3454SOL    HW211262   1.015   3.220   4.856
 3455SOL     OW11263   2.548   1.913   4.160
 3455SOL    HW111264   2.493   1.941   4.239
 3455SOL    HW211265   2.495   1.925   4.077
 3456SOL     OW11266   5.564   5.192   1.529
 3456SOL    HW111267   5.619   5.143   1.461
 3456SOL    HW211268   5.567   5.143   1.616
 3457SOL     OW11269   2.985   5.333   3.492
 3457SOL    HW111270   2.899   5.384   3.492
 3457SOL    HW211271   2.965   5.235   3.485
 3458SOL     OW11272   4.723   0.905   2.031
 3458SOL    HW111273   4.643   0.958   2.059
 3458SOL    HW211274   4.747   0.929   1.936
 3459SOL     OW11275   5.319   3.006   2.812
 3459SOL    HW111276   5.387   2.964   2.872
 3459SOL    HW211277   5.364   3.073   2.752
 3460SOL     OW11278   2.242   2.142   6.902
 3460SOL    HW111279   2.317   2.154   6.967
 3460SOL    HW211280   2.272   2.084   6.826
 3461SOL     OW11281   5.248   4.320   6.009
 3461SOL    HW111282   5.307   4.394   6.039
 3461SOL    HW211283   5.299   4.235   6.006
 3462SOL     OW11284   0.290   3.920   4.785
 3462SOL    HW111285   0.311   3.850   4.853
 3462SOL    HW211286   0.365   3.928   4.720
 3463SOL     OW11287   1.105   4.327   1.955
 3463SOL    HW111288   1.150   4.351   1.869
 3463SOL    HW211289   1.008   4.310   1.938
 3464SOL     OW11290   6.808   4.715   5.117
 3464SOL    HW111291   6.765   4.688   5.031
 3464SOL    HW211292   6.907   4.705   5.110
 3465SOL     OW11293   1.527   2.064   2.439
 3465SOL    HW111294   1.484   2.152   2.459
 3465SOL    HW211295   1.509   2.000   2.513
 3466SOL     OW11296   6.399   5.197   6.492
 3466SOL    HW111297   6.378   5.246   6.407
 3466SOL    HW211298   6.493   5.164   6.489
 3467SOL     OW11299   1.970   3.026   6.932
 3467SOL    HW111300   2.050   3.044   6.875
 3467SOL    HW211301   1.901   3.095   6.915
 3468SOL     OW11302   4.651   6.521   3.249
 3468SOL    HW111303   4.615   6.485   3.163
 3468SOL    HW211304   4.613   6.612   3.266
 3469SOL     OW11305   5.181   0.071   3.359
 3469SOL    HW111306   5.277   0.097   3.352
 3469SOL    HW211307   5.125   0.151   3.377
 3470SOL     OW11308   6.458   3.738   1.272
 3470SOL    HW111309   6.404   3.669   1.321
 3470SOL    HW211310   6.405   3.774   1.195
 3471SOL     OW11311   4.113   5.498   4.154
 3471SOL    HW111312   4.212   5.506   4.154
 3471SOL    HW211313   4.073   5.570   4.097
 3472SOL     OW11314   2.221   0.690   2.421
 3472SOL    HW111315   2.235   0.701   2.323
 3472SOL    HW211316   2.294   0.632   2.459
 3473SOL     OW11317   0.210   2.381   0.814
 3473SOL    HW111318   0.245   2.317   0.745
 3473SOL    HW211319   0.283   2.443   0.842
 3474SOL     OW11320   1.979   4.825   2.137
 3474SOL    HW111321   2.060   4.846   2.193
 3474SOL    HW211322   1.977   4.885   2.057
 3475SOL     OW11323   1.017   5.352   4.690
 3475SOL    HW111324   1.028   5.440   4.645
 3475SOL    HW211325   0.920   5.337   4.711
 3476SOL     OW11326   3.307   2.154   2.975
 3476SOL    HW111327   3.227   2.099   2.998
 3476SOL    HW211328   3.362   2.171   3.057
 3477SOL     OW11329   3.286   5.089   1.085
 3477SOL    HW111330   3.255   5.182   1.068
 3477SOL    HW211331   3.337   5.056   1.005
 3478SOL     OW11332   2.355   5.902   4.602
 3478SOL    HW111333   2.296   5.824   4.578
 3478SOL    HW211334   2.302   5.986   4.598
 3479SOL     OW11335   1.593   0.727   2.823
 3479SOL    HW111336   1.601   0.730   2.922
 3479SOL    HW211337   1.643   0.648   2.787
 3480SOL     OW11338   0.151   0.095   5.267
 3480SOL    HW111339   0.180   0.070   5.175
 3480SOL    HW211340   0.051   0.089   5.273
 3481SOL     OW11341   4.575   0.135   0.693
 3481SOL    HW111342   4.669   0.130   0.660
 3481SOL    HW211343   4.572   0.187   0.778
 3482SOL     OW11344   5.992   1.855   1.351
 3482SOL    HW111345   6.026   1.761   1.361
 3482SOL    HW211346   5.943   1.863   1.264
 3483SOL     OW11347   4.617   1.385   1.663
 3483SOL    HW111348   4.679   1.375   1.585
 3483SOL    HW211349   4.545   1.450   1.640
 3484SOL     OW11350   2.719   3.501   1.052
 3484SOL    HW111351   2.661   3.444   1.110
 3484SOL    HW211352   2.682   3.501   0.959
 3485SOL     OW11353   1.626   0.413   3.795
 3485SOL    HW111354   1.623   0.315   3.812
 3485SOL    HW211355   1.718   0.448   3.814
 3486SOL     OW11356   2.693   1.662   2.468
 3486SOL    HW111357   2.646   1.749   2.459
 3486SOL    HW211358   2.792   1.676   2.459
 3487SOL     OW11359   5.488   2.739   6.033
 3487SOL    HW111360   5.418   2.798   5.993
 3487SOL    HW211361   5.579   2.776   6.012
 3488SOL     OW11362   6.010   1.967   5.040
 3488SOL    HW111363   6.096   1.917   5.049
 3488SOL    HW211364   6.029   2.064   5.025
 3489SOL     OW11365   3.300   0.053   0.518
 3489SOL    HW111366   3.368   7.014   0.558
 3489SOL    HW211367   3.267   0.015   0.432
 3490SOL     OW11368   4.076   4.762   6.884
 3490SOL    HW111369   4.032   4.673   6.882
 3490SOL    HW211370   4.007   4.834   6.890
 3491SOL     OW11371   5.700   2.313   5.444
 3491SOL    HW111372   5.774   2.375   5.418
 3491SOL    HW211373   5.652   2.350   5.524
 3492SOL     OW11374   1.054   5.666   1.026
 3492SOL    HW111375   1.068   5.639   0.931
 3492SOL    HW211376   1.052   5.584   1.083
 3493SOL     OW11377   5.968   4.710   6.405
 3493SOL    HW111378   6.023   4.794   6.401
 3493SOL    HW211379   5.876   4.728   6.370
 3494SOL     OW11380   3.871   0.683   1.887
 3494SOL    HW111381   3.836   0.620   1.956
 3494SOL    HW211382   3.797   0.742   1.855
 3495SOL     OW11383   4.697   5.629   1.879
 3495SOL    HW111384   4.716   5.552   1.939
 3495SOL    HW211385   4.713   5.715   1.928
 3496SOL     OW11386   0.005   4.157   0.872
 3496SOL    HW111387   0.085   4.212   0.898
 3496SOL    HW211388   7.019   4.157   0.772
 3497SOL     OW11389   3.799   6.905   3.724
 3497SOL    HW111390   3.814   6.978   3.657
 3497SOL    HW211391   3.752   6.828   3.680
 3498SOL     OW11392   1.905   2.358   0.877
 3498SOL    HW111393   1.887   2.351   0.778
 3498SOL    HW211394   1.968   2.433   0.893
 3499SOL     OW11395   4.583   2.587   4.384
 3499SOL    HW111396   4.522   2.562   4.459
 3499SOL    HW211397   4.678   2.572   4.412
 3500SOL     OW11398   1.358   3.693   5.160
 3500SOL    HW111399   1.372   3.652   5.069
 3500SOL    HW211400   1.411   3.777   5.167
 3501SOL     OW11401   2.114   5.147   4.116
 3501SOL    HW111402   2.045   5.078   4.093
 3501SOL    HW211403   2.190   5.104   4.163
 3502SOL     OW11404   6.173   2.457   2.053
 3502SOL    HW111405   6.256   2.400   2.053
 3502SOL    HW211406   6.117   2.434   2.132
 3503SOL     OW11407   6.436   6.025   5.063
 3503SOL    HW111408   6.496   5.946   5.076
 3503SOL    HW211409   6.472   6.082   4.989
 3504SOL     OW11410   2.334   1.388   1.022
 3504SOL    HW111411   2.269   1.318   0.992
 3504SOL    HW211412   2.291   1.445   1.092
 3505SOL     OW11413   5.218   4.971   4.849
 3505SOL    HW111414   5.176   5.030   4.919
 3505SOL    HW211415   5.224   4.877   4.883
 3506SOL     OW11416   4.839   6.294   5.834
 3506SOL    HW111417   4.865   6.211   5.884
 3506SOL    HW211418   4.799   6.360   5.897
 3507SOL     OW11419   2.503   0.424   7.000
 3507SOL    HW111420   2.422   0.438   0.034
 3507SOL    HW211421   2.475   0.413   6.905
 3508SOL     OW11422   3.130   2.451   5.917
 3508SOL    HW111423   3.079   2.463   5.832
 3508SOL    HW211424   3.134   2.354   5.940
 3509SOL     OW11425   5.807   0.268   6.296
 3509SOL    HW111426   5.840   0.293   6.205
 3509SOL    HW211427   5.735   0.200   6.288
 3510SOL     OW11428   1.942   2.416   1.304
 3510SOL    HW111429   1.884   2.340   1.275
 3510SOL    HW211430   2.036   2.384   1.312
 3511SOL     OW11431   2.482   4.820   0.172
 3511SOL    HW111432   2.460   4.773   0.257
 3511SOL    HW211433   2.545   4.765   0.118
 3512SOL     OW11434   6.914   4.451   0.520
 3512SOL    HW111435   6.922   4.549   0.537
 3512SOL    HW211436   6.830   4.417   0.562
 3513SOL     OW11437   6.087   3.947   0.303
 3513SOL    HW111438   6.018   3.897   0.355
 3513SOL    HW211439   6.178   3.919   0.334
 3514SOL     OW11440   6.807   0.947   1.918
 3514SOL    HW111441   6.713   0.954   1.887
 3514SOL    HW211442   6.869   0.955   1.840
 3515SOL     OW11443   4.711   6.258   3.362
 3515SOL    HW111444   4.678   6.326   3.297
 3515SOL    HW211445   4.722   6.170   3.316
 3516SOL     OW11446   4.431   0.148   1.123
 3516SOL    HW111447   4.403   0.207   1.198
 3516SOL    HW211448   4.405   0.053   1.143
 3517SOL     OW11449   0.855   2.232   0.645
 3517SOL    HW111450   0.883   2.162   0.711
 3517SOL    HW211451   0.934   2.263   0.593
 3518SOL     OW11452   5.812   4.370   4.672
 3518SOL    HW111453   5.868   4.435   4.621
 3518SOL    HW211454   5.757   4.316   4.609
 3519SOL     OW11455   1.812   1.039   6.437
 3519SOL    HW111456   1.865   1.021   6.520
 3519SOL    HW211457   1.843   0.980   6.364
 3520SOL     OW11458   2.911   4.570   6.510
 3520SOL    HW111459   3.006   4.559   6.538
 3520SOL    HW211460   2.851   4.563   6.590
 3521SOL     OW11461   5.579   3.386   1.035
 3521SOL    HW111462   5.500   3.347   1.082
 3521SOL    HW211463   5.627   3.313   0.985
 3522SOL     OW11464   5.541   5.018   2.222
 3522SOL    HW111465   5.622   4.962   2.200
 3522SOL    HW211466   5.474   4.962   2.271
 3523SOL     OW11467   3.144   4.801   5.812
 3523SOL    HW111468   3.100   4.720   5.851
 3523SOL    HW211469   3.084   4.840   5.742
 3524SOL     OW11470   3.006   1.176   0.816
 3524SOL    HW111471   3.073   1.151   0.887
 3524SOL    HW211472   2.937   1.236   0.856
 3525SOL     OW11473   0.404   4.136   1.961
 3525SOL    HW111474   0.416   4.130   2.060
 3525SOL    HW211475   0.483   4.096   1.915
 3526SOL     OW11476   2.638   6.081   3.615
 3526SOL    HW111477   2.654   6.177   3.591
 3526SOL    HW211478   2.591   6.036   3.539
 3527SOL     OW11479   6.231   3.814   5.890
 3527SOL    HW111480   6.153   3.857   5.935
 3527SOL    HW211481   6.315   3.861   5.917
 3528SOL     OW11482   1.284   4.980   3.927
 3528SOL    HW111483   1.273   5.018   4.019
 3528SOL    HW211484   1.350   5.034   3.876
 3529SOL     OW11485   4.895   0.081   5.600
 3529SOL    HW111486   4.842   0.007   5.559
 3529SOL    HW211487   4.840   0.128   5.668
 3530SOL     OW11488   2.181   4.516   3.269
 3530SOL    HW111489   2.163   4.591   3.333
 3530SOL    HW211490   2.100   4.457   3.264
 3531SOL     OW11491   5.069   4.217   1.020
 3531SOL    HW111492   4.972   4.230   1.001
 3531SOL    HW211493   5.093   4.259   1.108
 3532SOL     OW11494   2.076   0.130   0.199
 3532SOL    HW111495   2.028   0.045   0.222
 3532SOL    HW211496   2.105   0.176   0.283
 3533SOL     OW11497   1.012   2.112   2.621
 3533SOL    HW111498   0.968   2.160   2.545
 3533SOL    HW211499   0.952   2.039   2.653
 3534SOL     OW11500   6.484   0.983   5.197
 3534SOL    HW111501   6.408   0.972   5.260
 3534SOL    HW211502   6.530   0.895   5.185
 3535SOL     OW11503   6.791   5.717   0.636
 3535SOL    HW111504   6.795   5.791   0.568
 3535SOL    HW211505   6.830   5.634   0.598
 3536SOL     OW11506   2.228   2.549   3.705
 3536SOL    HW111507   2.210   2.580   3.798
 3536SOL    HW211508   2.308   2.597   3.669
 3537SOL     OW11509   2.683   5.139   0.034
 3537SOL    HW111510   2.601   5.086   0.056
 3537SOL    HW211511   2.703   5.130   6.960
 3538SOL     OW11512   2.816   0.264   4.452
 3538SOL    HW111513   2.727   0.281   4.410
 3538SOL    HW211514   2.854   0.351   4.483
 3539SOL     OW11515   5.802   3.626   6.739
 3539SOL    HW111516   5.826   3.567   6.816
 3539SOL    HW211517   5.704   3.621   6.722
 3540SOL     OW11518   1.825   1.848   4.839
 3540SOL    HW111519   1.851   1.913   4.768
 3540SOL    HW211520   1.795   1.898   4.920
 3541SOL     OW11521   3.076   2.483   6.639
 3541SOL    HW111522   3.016   2.428   6.698
 3541SOL    HW211523   3.121   2.424   6.572
 3542SOL     OW11524   0.285   3.319   1.556
 3542SOL    HW111525   0.237   3.326   1.469
 3542SOL    HW211526   0.320   3.409   1.582
 3543SOL     OW11527   1.023   3.410   5.174
 3543SOL    HW111528   0.995   3.397   5.269
 3543SOL    HW211529   1.096   3.345   5.152
 3544SOL     OW11530   2.156   4.381   6.082
 3544SOL    HW111531   2.184   4.419   6.170
 3544SOL    HW211532   2.091   4.306   6.097
 3545SOL     OW11533   3.857   5.325   6.340
 3545SOL    HW111534   3.776   5.294   6.290
 3545SOL    HW211535   3.847   5.301   6.437
 3546SOL     OW11536   6.776   4.413   3.176
 3546SOL    HW111537   6.676   4.410   3.175
 3546SOL    HW211538   6.808   4.485   3.115
 3547SOL     OW11539   6.347   3.673   4.138
 3547SOL    HW111540   6.397   3.758   4.122
 3547SOL    HW211541   6.338   3.658   4.237
 3548SOL     OW11542   5.332   0.196   5.796
 3548SOL    HW111543   5.346   0.268   5.864
 3548SOL    HW211544   5.326   0.237   5.705
 3549SOL     OW11545   0.960   4.857   6.022
 3549SOL    HW111546   1.055   4.842   6.050
 3549SOL    HW211547   0.904   4.870   6.104
 3550SOL     OW11548   5.796   2.417   4.997
 3550SOL    HW111549   5.856   2.344   5.029
 3550SOL    HW211550   5.845   2.473   4.929
 3551SOL     OW11551   3.727   1.523   4.358
 3551SOL    HW111552   3.795   1.555   4.292
 3551SOL    HW211553   3.664   1.597   4.380
 3552SOL     OW11554   6.025   6.776   2.207
 3552SOL    HW111555   6.022   6.755   2.109
 3552SOL    HW211556   6.064   6.698   2.256
 3553SOL     OW11557   3.656   5.878   6.950
 3553SOL    HW111558   3.683   5.785   6.923
 3553SOL    HW211559   3.566   5.899   6.911
 3554SOL     OW11560   4.103   2.754   0.475
 3554SOL    HW111561   4.012   2.779   0.508
 3554SOL    HW211562   4.172   2.804   0.527
 3555SOL     OW11563   0.630   3.470   4.188
 3555SOL    HW111564   0.699   3.539   4.169
 3555SOL    HW211565   0.548   3.490   4.135
 3556SOL     OW11566   3.833   0.874   4.348
 3556SOL    HW111567   3.926   0.841   4.331
 3556SOL    HW211568   3.832   0.930   4.431
 3557SOL     OW11569   1.447   0.279   4.170
 3557SOL    HW111570   1.515   0.219   4.210
 3557SOL    HW211571   1.356   0.237   4.178
 3558SOL     OW11572   1.810   5.235   1.981
 3558SOL    HW111573   1.840   5.225   2.076
 3558SOL    HW211574   1.799   5.331   1.960
 3559SOL     OW11575   0.716   5.947   5.160
 3559SOL    HW111576   0.810   5.956   5.127
 3559SOL    HW211577   0.698   5.851   5.182
 3560SOL     OW11578   2.285   5.264   2.423
 3560SOL    HW111579   2.288   5.252   2.522
 3560SOL    HW211580   2.355   5.208   2.380
 3561SOL     OW11581   5.102   4.286   5.469
 3561SOL    HW111582   5.144   4.319   5.554
 3561SOL    HW211583   5.166   4.298   5.394
 3562SOL     OW11584   2.948   1.489   3.201
 3562SOL    HW111585   2.877   1.529   3.144
 3562SOL    HW211586   2.928   1.392   3.217
 3563SOL     OW11587   6.529   2.257   6.760
 3563SOL    HW111588   6.531   2.355   6.740
 3563SOL    HW211589   6.448   2.235   6.813
 3564SOL     OW11590   0.722   4.521   2.809
 3564SOL    HW111591   0.697   4.449   2.743
 3564SOL    HW211592   0.750   4.603   2.759
 3565SOL     OW11593   3.343   6.293   4.165
 3565SOL    HW111594   3.274   6.353   4.206
 3565SOL    HW211595   3.434   6.320   4.198
 3566SOL     OW11596   6.029   2.942   6.566
 3566SOL    HW111597   6.084   2.926   6.483
 3566SOL    HW211598   6.080   3.002   6.628
 3567SOL     OW11599   0.751   2.368   6.716
 3567SOL    HW111600   0.823   2.432   6.747
 3567SOL    HW211601   0.785   2.275   6.722
 3568SOL     OW11602   5.605   4.569   4.775
 3568SOL    HW111603   5.607   4.614   4.686
 3568SOL    HW211604   5.679   4.502   4.781
 3569SOL     OW11605   2.806   2.812   6.256
 3569SOL    HW111606   2.847   2.724   6.234
 3569SOL    HW211607   2.832   2.839   6.349
 3570SOL     OW11608   5.348   0.385   6.041
 3570SOL    HW111609   5.280   0.428   6.099
 3570SOL    HW211610   5.377   0.450   5.970
 3571SOL     OW11611   0.463   5.190   6.072
 3571SOL    HW111612   0.475   5.288   6.059
 3571SOL    HW211613   0.553   5.146   6.076
 3572SOL     OW11614   5.852   4.284   3.175
 3572SOL    HW111615   5.794   4.311   3.098
 3572SOL    HW211616   5.811   4.206   3.221
 3573SOL     OW11617   0.506   4.831   4.175
 3573SOL    HW111618   0.508   4.848   4.274
 3573SOL    HW211619   0.479   4.736   4.159
 3574SOL     OW11620   0.251   4.204   0.966
 3574SOL    HW111621   0.276   4.236   0.874
 3574SOL    HW211622   0.310   4.127   0.992
 3575SOL     OW11623   5.442   4.608   2.965
 3575SOL    HW111624   5.432   4.704   2.993
 3575SOL    HW211625   5.461   4.551   3.045
 3576SOL     OW11626   0.659   1.776   6.041
 3576SOL    HW111627   0.754   1.798   6.059
 3576SOL    HW211628   0.654   1.699   5.977
 3577SOL     OW11629   1.724   2.683   6.329
 3577SOL    HW111630   1.631   2.709   6.355
 3577SOL    HW211631   1.765   2.630   6.403
 3578SOL     OW11632   2.602   2.380   0.972
 3578SOL    HW111633   2.689   2.402   0.928
 3578SOL    HW211634   2.529   2.383   0.904
 3579SOL     OW11635   5.857   3.231   5.196
 3579SOL    HW111636   5.783   3.177   5.237
 3579SOL    HW211637   5.826   3.270   5.109
 3580SOL     OW11638   5.676   2.892   1.620
 3580SOL    HW111639   5.647   2.913   1.526
 3580SOL    HW211640   5.718   2.802   1.623
 3581SOL     OW11641   0.703   5.979   3.767
 3581SOL    HW111642   0.746   5.911   3.708
 3581SOL    HW211643   0.774   6.022   3.824
 3582SOL     OW11644   0.744   2.436   5.606
 3582SOL    HW111645   0.798   2.412   5.525
 3582SOL    HW211646   0.798   2.497   5.664
 3583SOL     OW11647   1.364   3.468   6.858
 3583SOL    HW111648   1.403   3.476   6.766
 3583SOL    HW211649   1.393   3.546   6.913
 3584SOL     OW11650   5.860   5.026   6.658
 3584SOL    HW111651   5.778   5.074   6.691
 3584SOL    HW211652   5.869   4.939   6.706
 3585SOL     OW11653   4.199   0.087   5.074
 3585SOL    HW111654   4.217   0.019   5.145
 3585SOL    HW211655   4.190   0.041   4.986
 3586SOL     OW11656   0.378   2.280   5.015
 3586SOL    HW111657   0.469   2.241   5.004
 3586SOL    HW211658   0.347   2.318   4.928
 3587SOL     OW11659   3.186   5.324   6.367
 3587SOL    HW111660   3.153   5.391   6.301
 3587SOL    HW211661   3.283   5.340   6.385
 3588SOL     OW11662   1.049   2.505   5.605
 3588SOL    HW111663   1.076   2.601   5.598
 3588SOL    HW211664   1.000   2.478   5.522
 3589SOL     OW11665   3.812   1.548   5.091
 3589SOL    HW111666   3.715   1.566   5.071
 3589SOL    HW211667   3.818   1.479   5.164
 3590SOL     OW11668   1.327   2.464   0.016
 3590SOL    HW111669   1.391   2.527   0.059
 3590SOL    HW211670   1.236   2.507   0.011
 3591SOL     OW11671   5.065   3.606   6.575
 3591SOL    HW111672   5.020   3.692   6.552
 3591SOL    HW211673   5.012   3.530   6.538
 3592SOL     OW11674   6.711   4.309   1.605
 3592SOL    HW111675   6.756   4.315   1.516
 3592SOL    HW211676   6.780   4.296   1.677
 3593SOL     OW11677   1.518   5.927   5.111
 3593SOL    HW111678   1.556   5.851   5.164
 3593SOL    HW211679   1.439   5.895   5.058
 3594SOL     OW11680   4.807   0.427   3.291
 3594SOL    HW111681   4.773   0.521   3.280
 3594SOL    HW211682   4.732   0.363   3.277
 3595SOL     OW11683   2.431   5.776   7.022
 3595SOL    HW111684   2.529   5.782   0.018
 3595SOL    HW211685   2.380   5.814   0.077
 3596SOL     OW11686   6.993   2.263   3.258
 3596SOL    HW111687   6.934   2.333   3.300
 3596SOL    HW211688   6.942   2.214   3.188
 3597SOL     OW11689   1.912   1.855   4.013
 3597SOL    HW111690   1.821   1.848   3.974
 3597SOL    HW211691   1.978   1.875   3.940
 3598SOL     OW11692   0.776   5.363   6.248
 3598SOL    HW111693   0.864   5.382   6.293
 3598SOL    HW211694   0.703   5.413   6.295
 3599SOL     OW11695   0.403   1.811   6.081
 3599SOL    HW111696   0.502   1.798   6.074
 3599SOL    HW211697   0.382   1.908   6.075
 3600SOL     OW11698   0.626   3.962   0.393
 3600SOL    HW111699   0.703   3.959   0.458
 3600SOL    HW211700   0.649   3.905   0.314
 3601SOL     OW11701   5.452   4.730   6.225
 3601SOL    HW111702   5.386   4.736   6.299
 3601SOL    HW211703   5.452   4.817   6.174
 3602SOL     OW11704   1.464   2.480   0.863
 3602SOL    HW111705   1.483   2.390   0.824
 3602SOL    HW211706   1.448   2.545   0.788
 3603SOL     OW11707   3.374   0.168   3.343
 3603SOL    HW111708   3.394   0.185   3.247
 3603SOL    HW211709   3.453   0.192   3.399
 3604SOL     OW11710   6.868   4.643   3.041
 3604SOL    HW111711   6.845   4.735   3.074
 3604SOL    HW211712   6.967   4.637   3.026
 3605SOL     OW11713   6.362   4.136   5.316
 3605SOL    HW111714   6.295   4.142   5.243
 3605SOL    HW211715   6.409   4.048   5.313
 3606SOL     OW11716   6.657   6.846   5.587
 3606SOL    HW111717   6.610   6.861   5.500
 3606SOL    HW211718   6.675   6.749   5.599
 3607SOL     OW11719   5.428   6.133   1.969
 3607SOL    HW111720   5.373   6.192   1.910
 3607SOL    HW211721   5.444   6.045   1.924
 3608SOL     OW11722   5.728   1.732   3.363
 3608SOL    HW111723   5.733   1.657   3.298
 3608SOL    HW211724   5.648   1.789   3.342
 3609SOL     OW11725   1.084   6.893   4.257
 3609SOL    HW111726   1.120   6.804   4.229
 3609SOL    HW211727   1.117   6.914   4.349
 3610SOL     OW11728   1.518   6.850   6.027
 3610SOL    HW111729   1.585   6.899   5.971
 3610SOL    HW211730   1.427   6.888   6.011
 3611SOL     OW11731   4.807   5.981   5.550
 3611SOL    HW111732   4.803   6.065   5.495
 3611SOL    HW211733   4.787   5.902   5.492
 3612SOL     OW11734   6.591   0.115   6.946
 3612SOL    HW111735   6.664   0.156   6.892
 3612SOL    HW211736   6.506   0.112   6.893
 3613SOL     OW11737   4.756   5.289   1.787
 3613SOL    HW111738   4.720   5.325   1.872
 3613SOL    HW211739   4.824   5.218   1.807
 3614SOL     OW11740   3.882   3.289   1.571
 3614SOL    HW111741   3.956   3.318   1.631
 3614SOL    HW211742   3.825   3.367   1.546
 3615SOL     OW11743   4.942   5.325   7.020
 3615SOL    HW111744   4.880   5.248   7.001
 3615SOL    HW211745   4.894   5.394   0.050
 3616SOL     OW11746   1.002   2.534   6.719
 3616SOL    HW111747   1.099   2.509   6.707
 3616SOL    HW211748   0.996   2.625   6.758
 3617SOL     OW11749   4.044   2.044   6.808
 3617SOL    HW111750   4.086   2.116   6.863
 3617SOL    HW211751   3.950   2.030   6.838
 3618SOL     OW11752   2.479   2.062   5.668
 3618SOL    HW111753   2.555   2.014   5.624
 3618SOL    HW211754   2.407   2.079   5.601
 3619SOL     OW11755   5.910   2.565   4.345
 3619SOL    HW111756   5.944   2.653   4.378
 3619SOL    HW211757   5.810   2.567   4.342
 3620SOL     OW11758   6.025   6.420   5.986
 3620SOL    HW111759   6.080   6.454   5.909
 3620SOL    HW211760   5.962   6.491   6.016
 3621SOL     OW11761   3.468   2.675   5.296
 3621SOL    HW111762   3.479   2.713   5.204
 3621SOL    HW211763   3.469   2.749   5.363
 3622SOL     OW11764   2.046   1.462   4.797
 3622SOL    HW111765   2.069   1.556   4.772
 3622SOL    HW211766   1.968   1.463   4.859
 3623SOL     OW11767   6.073   5.746   4.040
 3623SOL    HW111768   6.149   5.783   3.986
 3623SOL    HW211769   5.987   5.785   4.008
 3624SOL     OW11770   1.884   6.505   1.763
 3624SOL    HW111771   1.832   6.424   1.739
 3624SOL    HW211772   1.959   6.480   1.825
 3625SOL     OW11773   6.216   2.785   0.102
 3625SOL    HW111774   6.309   2.807   0.076
 3625SOL    HW211775   6.215   2.748   0.195
 3626SOL     OW11776   1.157   2.893   6.365
 3626SOL    HW111777   1.126   2.803   6.335
 3626SOL    HW211778   1.089   2.962   6.342
 3627SOL     OW11779   3.636   2.994   3.269
 3627SOL    HW111780   3.586   2.928   3.325
 3627SOL    HW211781   3.728   3.005   3.305
 3628SOL     OW11782   1.437   1.372   1.326
 3628SOL    HW111783   1.444   1.415   1.416
 3628SOL    HW211784   1.513   1.308   1.313
 3629SOL     OW11785   6.796   1.870   5.293
 3629SOL    HW111786   6.797   1.902   5.198
 3629SOL    HW211787   6.874   1.809   5.308
 3630SOL     OW11788   5.233   2.595   4.122
 3630SOL    HW111789   5.314   2.551   4.084
 3630SOL    HW211790   5.204   2.671   4.063
 3631SOL     OW11791   2.105   6.970   3.718
 3631SOL    HW111792   2.020   7.005   3.758
 3631SOL    HW211793   2.120   6.876   3.749
 3632SOL     OW11794   5.066   5.840   1.441
 3632SOL    HW111795   4.975   5.880   1.435
 3632SOL    HW211796   5.107   5.865   1.529
 3633SOL     OW11797   4.244   1.604   5.967
 3633SOL    HW111798   4.317   1.648   5.915
 3633SOL    HW211799   4.268   1.602   6.064
 3634SOL     OW11800   0.998   4.740   4.629
 3634SOL    HW111801   0.984   4.821   4.573
 3634SOL    HW211802   0.990   4.764   4.725
 3635SOL     OW11803   3.357   0.001   6.141
 3635SOL    HW111804   3.415   6.993   6.216
 3635SOL    HW211805   3.262   0.008   6.172
 3636SOL     OW11806   0.277   5.627   0.300
 3636SOL    HW111807   0.274   5.629   0.200
 3636SOL    HW211808   0.214   5.557   0.334
 3637SOL     OW11809   6.828   1.239   2.102
 3637SOL    HW111810   6.915   1.239   2.151
 3637SOL    HW211811   6.797   1.145   2.087
 3638SOL     OW11812   0.107   3.820   3.779
 3638SOL    HW111813   0.178   3.756   3.748
 3638SOL    HW211814   0.041   3.771   3.836
 3639SOL     OW11815   3.527   4.219   0.935
 3639SOL    HW111816   3.557   4.297   0.880
 3639SOL    HW211817   3.560   4.134   0.895
 3640SOL     OW11818   3.825   1.310   0.770
 3640SOL    HW111819   3.851   1.241   0.702
 3640SOL    HW211820   3.748   1.278   0.824
 3641SOL     OW11821   5.408   3.646   3.157
 3641SOL    HW111822   5.466   3.663   3.237
 3641SOL    HW211823   5.375   3.552   3.160
 3642SOL     OW11824   5.366   1.193   6.860
 3642SOL    HW111825   5.464   1.196   6.841
 3642SOL    HW211826   5.338   1.280   6.902
 3643SOL     OW11827   3.013   5.610   4.835
 3643SOL    HW111828   3.026   5.650   4.744
 3643SOL    HW211829   3.101   5.576   4.868
 3644SOL     OW11830   6.859   1.104   1.543
 3644SOL    HW111831   6.904   1.039   1.604
 3644SOL    HW211832   6.890   1.196   1.564
 3645SOL     OW11833   0.684   2.623   3.482
 3645SOL    HW111834   0.674   2.688   3.558
 3645SOL    HW211835   0.676   2.529   3.517
 3646SOL     OW11836   0.755   3.920   6.528
 3646SOL    HW111837   0.831   3.978   6.498
 3646SOL    HW211838   0.757   3.911   6.628
 3647SOL     OW11839   2.524   4.876   6.159
 3647SOL    HW111840   2.529   4.839   6.252
 3647SOL    HW211841   2.616   4.882   6.120
 3648SOL     OW11842   3.774   4.927   1.835
 3648SOL    HW111843   3.746   5.023   1.827
 3648SOL    HW211844   3.711   4.878   1.895
 3649SOL     OW11845   5.073   2.424   1.945
 3649SOL    HW111846   5.092   2.331   1.976
 3649SOL    HW211847   4.974   2.438   1.940
 3650SOL     OW11848   7.006   5.532   0.947
 3650SOL    HW111849   6.988   5.435   0.926
 3650SOL    HW211850   0.062   5.538   1.009
 3651SOL     OW11851   0.739   6.191   4.807
 3651SOL    HW111852   0.661   6.212   4.748
 3651SOL    HW211853   0.706   6.153   4.894
 3652SOL     OW11854   5.336   6.422   3.420
 3652SOL    HW111855   5.305   6.332   3.390
 3652SOL    HW211856   5.403   6.458   3.355
 3653SOL     OW11857   0.457   0.728   3.961
 3653SOL    HW111858   0.365   0.737   3.924
 3653SOL    HW211859   0.474   0.633   3.986
 3654SOL     OW11860   2.991   4.085   1.143
 3654SOL    HW111861   2.933   4.148   1.194
 3654SOL    HW211862   2.958   3.991   1.157
 3655SOL     OW11863   1.373   5.917   4.083
 3655SOL    HW111864   1.386   5.946   3.988
 3655SOL    HW211865   1.293   5.857   4.088
 3656SOL     OW11866   0.566   4.093   1.768
 3656SOL    HW111867   0.517   4.044   1.695
 3656SOL    HW211868   0.658   4.116   1.737
 3657SOL     OW11869   4.979   5.400   5.557
 3657SOL    HW111870   4.888   5.375   5.525
 3657SOL    HW211871   4.996   5.358   5.646
 3658SOL     OW11872   1.756   4.742   5.433
 3658SOL    HW111873   1.849   4.719   5.464
 3658SOL    HW211874   1.705   4.783   5.509
 3659SOL     OW11875   1.665   3.409   5.254
 3659SOL    HW111876   1.676   3.407   5.353
 3659SOL    HW211877   1.664   3.503   5.222
 3660SOL     OW11878   6.116   6.448   3.826
 3660SOL    HW111879   6.155   6.441   3.918
 3660SOL    HW211880   6.189   6.467   3.760
 3661SOL     OW11881   5.600   0.964   5.286
 3661SOL    HW111882   5.659   0.884   5.271
 3661SOL    HW211883   5.534   0.972   5.212
 3662SOL     OW11884   3.761   6.995   4.007
 3662SOL    HW111885   3.766   6.940   3.924
 3662SOL    HW211886   3.818   6.953   4.078
 3663SOL     OW11887   2.115   1.558   0.398
 3663SOL    HW111888   2.016   1.559   0.413
 3663SOL    HW211889   2.152   1.469   0.425
 3664SOL     OW11890   4.804   2.740   1.550
 3664SOL    HW111891   4.899   2.708   1.543
 3664SOL    HW211892   4.799   2.836   1.522
 3665SOL     OW11893   1.680   6.322   5.464
 3665SOL    HW111894   1.641   6.269   5.540
 3665SOL    HW211895   1.643   6.288   5.377
 3666SOL     OW11896   1.072   3.884   3.065
 3666SOL    HW111897   1.122   3.943   3.002
 3666SOL    HW211898   1.117   3.886   3.155
 3667SOL     OW11899   1.010   0.965   2.785
 3667SOL    HW111900   0.948   0.887   2.794
 3667SOL    HW211901   1.075   0.948   2.711
 3668SOL     OW11902   1.554   0.789   1.197
 3668SOL    HW111903   1.640   0.758   1.157
 3668SOL    HW211904   1.494   0.825   1.125
 3669SOL     OW11905   4.688   0.954   3.593
 3669SOL    HW111906   4.602   0.933   3.546
 3669SOL    HW211907   4.760   0.968   3.525
 3670SOL     OW11908   2.208   4.874   6.960
 3670SOL    HW111909   2.170   4.938   0.003
 3670SOL    HW211910   2.241   4.924   6.879
 3671SOL     OW11911   6.280   1.092   4.268
 3671SOL    HW111912   6.316   1.026   4.202
 3671SOL    HW211913   6.299   1.185   4.237
 3672SOL     OW11914   5.326   1.807   0.916
 3672SOL    HW111915   5.355   1.759   0.833
 3672SOL    HW211916   5.320   1.743   0.992
 3673SOL     OW11917   4.061   6.029   6.618
 3673SOL    HW111918   4.001   5.978   6.680
 3673SOL    HW211919   4.017   6.038   6.529
 3674SOL     OW11920   1.113   5.996   5.907
 3674SOL    HW111921   1.048   5.967   5.976
 3674SOL    HW211922   1.099   5.943   5.823
 3675SOL     OW11923   2.107   3.221   3.784
 3675SOL    HW111924   2.085   3.233   3.687
 3675SOL    HW211925   2.023   3.205   3.836
 3676SOL     OW11926   5.122   4.377   3.078
 3676SOL    HW111927   5.122   4.334   2.988
 3676SOL    HW211928   5.028   4.382   3.112
 3677SOL     OW11929   2.301   5.836   3.620
 3677SOL    HW111930   2.246   5.920   3.623
 3677SOL    HW211931   2.262   5.773   3.552
 3678SOL     OW11932   0.582   2.134   4.941
 3678SOL    HW111933   0.568   2.056   5.002
 3678SOL    HW211934   0.672   2.127   4.898
 3679SOL     OW11935   1.098   0.560   3.385
 3679SOL    HW111936   1.128   0.652   3.410
 3679SOL    HW211937   1.097   0.551   3.285
 3680SOL     OW11938   5.688   3.397   4.035
 3680SOL    HW111939   5.782   3.429   4.025
 3680SOL    HW211940   5.656   3.359   3.948
 3681SOL     OW11941   0.889   6.842   6.760
 3681SOL    HW111942   0.922   6.879   6.674
 3681SOL    HW211943   0.922   6.899   6.836
 3682SOL     OW11944   5.264   2.100   0.479
 3682SOL    HW111945   5.178   2.088   0.429
 3682SOL    HW211946   5.269   2.193   0.514
 3683SOL     OW11947   6.537   0.604   3.194
 3683SOL    HW111948   6.488   0.598   3.107
 3683SOL    HW211949   6.625   0.556   3.187
 3684SOL     OW11950   1.964   4.984   0.516
 3684SOL    HW111951   1.950   5.082   0.535
 3684SOL    HW211952   1.893   4.932   0.564
 3685SOL     OW11953   0.439   6.225   7.001
 3685SOL    HW111954   0.447   6.147   6.940
 3685SOL    HW211955   0.343   6.241   0.000
 3686SOL     OW11956   5.045   5.797   3.574
 3686SOL    HW111957   4.951   5.825   3.591
 3686SOL    HW211958   5.098   5.803   3.659
 3687SOL     OW11959   3.484   5.807   5.003
 3687SOL    HW111960   3.525   5.870   4.938
 3687SOL    HW211961   3.464   5.855   5.088
 3688SOL     OW11962   6.865   3.855   6.625
 3688SOL    HW111963   6.880   3.931   6.689
 3688SOL    HW211964   6.806   3.787   6.668
 3689SOL     OW11965   2.003   6.650   5.725
 3689SOL    HW111966   2.087   6.598   5.741
 3689SOL    HW211967   2.005   6.690   5.633
 3690SOL     OW11968   4.298   5.852   0.696
 3690SOL    HW111969   4.395   5.840   0.676
 3690SOL    HW211970   4.250   5.766   0.681
 3691SOL     OW11971   2.639   1.733   6.795
 3691SOL    HW111972   2.552   1.684   6.802
 3691SOL    HW211973   2.666   1.739   6.699
 3692SOL     OW11974   6.543   5.766   5.190
 3692SOL    HW111975   6.527   5.690   5.126
 3692SOL    HW211976   6.470   5.767   5.259
 3693SOL     OW11977   2.128   3.770   3.175
 3693SOL    HW111978   2.137   3.806   3.082
 3693SOL    HW211979   2.122   3.846   3.240
 3694SOL     OW11980   1.811   6.368   3.179
 3694SOL    HW111981   1.822   6.454   3.229
 3694SOL    HW211982   1.715   6.339   3.183
 3695SOL     OW11983   6.421   3.107   1.534
 3695SOL    HW111984   6.410   3.164   1.616
 3695SOL    HW211985   6.345   3.125   1.471
 3696SOL     OW11986   3.222   6.230   5.211
 3696SOL    HW111987   3.153   6.192   5.150
 3696SOL    HW211988   3.179   6.256   5.298
 3697SOL     OW11989   0.443   6.032   2.801
 3697SOL    HW111990   0.369   5.966   2.791
 3697SOL    HW211991   0.478   6.057   2.711
 3698SOL     OW11992   2.640   0.258   4.062
 3698SOL    HW111993   2.674   0.285   4.152
 3698SOL    HW211994   2.681   0.316   3.991
 3699SOL     OW11995   1.254   2.145   3.697
 3699SOL    HW111996   1.165   2.115   3.662
 3699SOL    HW211997   1.318   2.155   3.621
 3700SOL     OW11998   0.341   5.821   4.715
 3700SOL    HW111999   0.259   5.765   4.714
 3700SOL    HW212000   0.375   5.829   4.809
 3701SOL     OW12001   1.397   0.888   3.724
 3701SOL    HW112002   1.346   0.812   3.763
 3701SOL    HW212003   1.342   0.972   3.731
 3702SOL     OW12004   5.428   6.613   3.248
 3702SOL    HW112005   5.442   6.706   3.215
 3702SOL    HW212006   5.336   6.583   3.224
 3703SOL     OW12007   5.690   1.352   5.604
 3703SOL    HW112008   5.658   1.263   5.638
 3703SOL    HW212009   5.724   1.342   5.510
 3704SOL     OW12010   3.541   1.780   1.506
 3704SOL    HW112011   3.533   1.857   1.442
 3704SOL    HW212012   3.618   1.795   1.567
 3705SOL     OW12013   4.261   4.800   3.952
 3705SOL    HW112014   4.253   4.729   4.022
 3705SOL    HW212015   4.341   4.781   3.895
 3706SOL     OW12016   1.843   3.476   0.044
 3706SOL    HW112017   1.912   3.476   0.116
 3706SOL    HW212018   1.846   3.562   7.017
 3707SOL     OW12019   5.241   4.583   3.691
 3707SOL    HW112020   5.317   4.524   3.665
 3707SOL    HW212021   5.154   4.536   3.674
 3708SOL     OW12022   0.196   0.625   6.664
 3708SOL    HW112023   0.204   0.526   6.652
 3708SOL    HW212024   0.282   0.661   6.700
 3709SOL     OW12025   3.482   0.905   0.632
 3709SOL    HW112026   3.496   0.817   0.588
 3709SOL    HW212027   3.532   0.907   0.719
 3710SOL     OW12028   6.118   5.357   5.571
 3710SOL    HW112029   6.128   5.317   5.480
 3710SOL    HW212030   6.021   5.361   5.596
 3711SOL     OW12031   1.100   6.473   4.086
 3711SOL    HW112032   1.137   6.565   4.082
 3711SOL    HW212033   1.138   6.418   4.011
 3712SOL     OW12034   6.736   5.208   6.613
 3712SOL    HW112035   6.694   5.280   6.557
 3712SOL    HW212036   6.825   5.185   6.574
 3713SOL     OW12037   1.346   6.316   6.201
 3713SOL    HW112038   1.438   6.298   6.166
 3713SOL    HW212039   1.284   6.245   6.168
 3714SOL     OW12040   5.216   6.569   5.907
 3714SOL    HW112041   5.131   6.619   5.899
 3714SOL    HW212042   5.200   6.483   5.956
 3715SOL     OW12043   0.366   4.030   2.580
 3715SOL    HW112044   0.420   4.091   2.638
 3715SOL    HW212045   0.275   4.018   2.620
 3716SOL     OW12046   6.553   6.843   4.831
 3716SOL    HW112047   6.471   6.833   4.887
 3716SOL    HW212048   6.542   6.923   4.771
 3717SOL     OW12049   6.543   6.765   0.061
 3717SOL    HW112050   6.566   6.796   6.991
 3717SOL    HW212051   6.519   6.845   0.117
 3718SOL     OW12052   1.604   0.698   6.985
 3718SOL    HW112053   1.688   0.751   6.981
 3718SOL    HW212054   1.604   0.630   6.911
 3719SOL     OW12055   5.196   4.099   1.843
 3719SOL    HW112056   5.104   4.138   1.840
 3719SOL    HW212057   5.242   4.116   1.756
 3720SOL     OW12058   6.176   2.758   6.416
 3720SOL    HW112059   6.109   2.701   6.368
 3720SOL    HW212060   6.224   2.816   6.350
 3721SOL     OW12061   6.453   4.284   1.627
 3721SOL    HW112062   6.553   4.291   1.631
 3721SOL    HW212063   6.423   4.203   1.678
 3722SOL     OW12064   6.256   6.108   0.918
 3722SOL    HW112065   6.341   6.066   0.950
 3722SOL    HW212066   6.217   6.164   0.991
 3723SOL     OW12067   6.153   5.565   1.551
 3723SOL    HW112068   6.241   5.575   1.506
 3723SOL    HW212069   6.164   5.513   1.636
 3724SOL     OW12070   1.794   4.396   4.381
 3724SOL    HW112071   1.728   4.400   4.306
 3724SOL    HW212072   1.764   4.457   4.454
 3725SOL     OW12073   6.568   5.609   0.523
 3725SOL    HW112074   6.624   5.625   0.604
 3725SOL    HW212075   6.526   5.695   0.495
 3726SOL     OW12076   6.007   3.524   0.665
 3726SOL    HW112077   6.085   3.580   0.635
 3726SOL    HW212078   6.019   3.430   0.633
 3727SOL     OW12079   6.618   1.542   4.775
 3727SOL    HW112080   6.597   1.582   4.686
 3727SOL    HW212081   6.624   1.614   4.844
 3728SOL     OW12082   1.702   4.124   6.823
 3728SOL    HW112083   1.772   4.084   6.764
 3728SOL    HW212084   1.611   4.110   6.782
 3729SOL     OW12085   0.954   2.510   3.612
 3729SOL    HW112086   0.894   2.469   3.543
 3729SOL    HW212087   0.921   2.486   3.703
 3730SOL     OW12088   2.461   5.535   6.027
 3730SOL    HW112089   2.434   5.466   6.095
 3730SOL    HW212090   2.545   5.506   5.982
 3731SOL     OW12091   6.978   1.943   0.810
 3731SOL    HW112092   6.895   1.984   0.773
 3731SOL    HW212093   0.035   1.994   0.777
 3732SOL     OW12094   3.130   1.503   0.472
 3732SOL    HW112095   3.217   1.499   0.521
 3732SOL    HW212096   3.070   1.429   0.504
 3733SOL     OW12097   1.333   3.594   2.827
 3733SOL    HW112098   1.336   3.541   2.742
 3733SOL    HW212099   1.264   3.554   2.888
 3734SOL     OW12100   4.981   0.490   1.980
 3734SOL    HW112101   5.069   0.539   1.974
 3734SOL    HW212102   4.996   0.400   2.020
 3735SOL     OW12103   1.890   1.302   3.604
 3735SOL    HW112104   1.957   1.231   3.586
 3735SOL    HW212105   1.923   1.390   3.569
 3736SOL     OW12106   6.882   2.156   1.129
 3736SOL    HW112107   6.868   2.254   1.114
 3736SOL    HW212108   6.810   2.104   1.082
 3737SOL     OW12109   5.501   1.405   3.667
 3737SOL    HW112110   5.404   1.415   3.645
 3737SOL    HW212111   5.512   1.378   3.762
 3738SOL     OW12112   0.256   0.265   2.535
 3738SOL    HW112113   0.209   0.267   2.624
 3738SOL    HW212114   0.328   0.196   2.536
 3739SOL     OW12115   2.081   4.889   1.393
 3739SOL    HW112116   1.981   4.889   1.399
 3739SOL    HW212117   2.112   4.801   1.357
 3740SOL     OW12118   5.486   1.180   1.320
 3740SOL    HW112119   5.542   1.225   1.390
 3740SOL    HW212120   5.500   1.225   1.232
 3741SOL     OW12121   5.177   2.703   6.983
 3741SOL    HW112122   5.162   2.613   7.022
 3741SOL    HW212123   5.222   2.762   0.028
 3742SOL     OW12124   2.516   1.952   0.235
 3742SOL    HW112125   2.474   1.862   0.238
 3742SOL    HW212126   2.491   1.997   0.149
 3743SOL     OW12127   5.525   4.095   0.455
 3743SOL    HW112128   5.602   4.157   0.471
 3743SOL    HW212129   5.547   4.006   0.495
 3744SOL     OW12130   1.611   6.245   2.383
 3744SOL    HW112131   1.689   6.212   2.437
 3744SOL    HW212132   1.532   6.186   2.400
 3745SOL     OW12133   4.222   4.933   1.671
 3745SOL    HW112134   4.239   4.844   1.627
 3745SOL    HW212135   4.308   4.967   1.710
 3746SOL     OW12136   5.367   0.605   2.855
 3746SOL    HW112137   5.458   0.602   2.895
 3746SOL    HW212138   5.373   0.624   2.757
 3747SOL     OW12139   2.751   6.537   5.130
 3747SOL    HW112140   2.828   6.536   5.067
 3747SOL    HW212141   2.739   6.629   5.167
 3748SOL     OW12142   5.331   1.259   1.557
 3748SOL    HW112143   5.400   1.218   1.499
 3748SOL    HW212144   5.370   1.339   1.603
 3749SOL     OW12145   2.013   5.449   3.736
 3749SOL    HW112146   1.925   5.444   3.782
 3749SOL    HW212147   2.000   5.486   3.644
 3750SOL     OW12148   0.491   4.482   1.326
 3750SOL    HW112149   0.542   4.403   1.292
 3750SOL    HW212150   0.546   4.565   1.314
 3751SOL     OW12151   6.675   3.355   1.654
 3751SOL    HW112152   6.673   3.421   1.578
 3751SOL    HW212153   6.624   3.392   1.731
 3752SOL     OW12154   5.518   0.281   0.929
 3752SOL    HW112155   5.473   0.323   1.007
 3752SOL    HW212156   5.454   0.222   0.880
 3753SOL     OW12157   6.277   0.001   4.487
 3753SOL    HW112158   6.233   0.086   4.457
 3753SOL    HW212159   6.226   6.946   4.451
 3754SOL     OW12160   3.001   1.093   1.159
 3754SOL    HW112161   3.018   1.006   1.112
 3754SOL    HW212162   2.902   1.104   1.174
 3755SOL     OW12163   4.840   4.976   4.135
 3755SOL    HW112164   4.861   4.999   4.229
 3755SOL    HW212165   4.915   4.921   4.097
 3756SOL     OW12166   3.163   5.075   6.571
 3756SOL    HW112167   3.214   5.155   6.601
 3756SOL    HW212168   3.226   5.007   6.534
 3757SOL     OW12169   5.134   5.924   6.888
 3757SOL    HW112170   5.150   6.003   6.946
 3757SOL    HW212171   5.220   5.875   6.873
 3758SOL     OW12172   2.490   1.017   4.815
 3758SOL    HW112173   2.447   1.075   4.746
 3758SOL    HW212174   2.584   1.046   4.830
 3759SOL     OW12175   4.399   0.034   6.566
 3759SOL    HW112176   4.308   0.036   6.607
 3759SOL    HW212177   4.465   0.073   6.630
 3760SOL     OW12178   2.060   1.409   4.353
 3760SOL    HW112179   1.975   1.381   4.308
 3760SOL    HW212180   2.047   1.500   4.394
 3761SOL     OW12181   1.005   1.381   4.737
 3761SOL    HW112182   0.957   1.460   4.698
 3761SOL    HW212183   0.960   1.354   4.822
 3762SOL     OW12184   1.736   4.730   1.231
 3762SOL    HW112185   1.644   4.762   1.208
 3762SOL    HW212186   1.790   4.720   1.147
 3763SOL     OW12187   6.702   3.943   1.004
 3763SOL    HW112188   6.641   3.980   1.074
 3763SOL    HW212189   6.703   3.843   1.010
 3764SOL     OW12190   1.654   0.358   2.359
 3764SOL    HW112191   1.627   0.334   2.266
 3764SOL    HW212192   1.747   0.325   2.376
 3765SOL     OW12193   4.939   1.726   1.264
 3765SOL    HW112194   4.929   1.783   1.182
 3765SOL    HW212195   4.892   1.639   1.250
 3766SOL     OW12196   2.314   1.434   4.213
 3766SOL    HW112197   2.230   1.441   4.267
 3766SOL    HW212198   2.369   1.358   4.247
 3767SOL     OW12199   2.047   4.610   6.758
 3767SOL    HW112200   2.133   4.661   6.761
 3767SOL    HW212201   1.971   4.671   6.777
 3768SOL     OW12202   0.917   6.251   4.157
 3768SOL    HW112203   0.989   6.316   4.131
 3768SOL    HW212204   0.830   6.300   4.166
 3769SOL     OW12205   6.279   5.988   4.416
 3769SOL    HW112206   6.220   5.924   4.366
 3769SOL    HW212207   6.236   6.011   4.503
 3770SOL     OW12208   1.496   0.879   6.158
 3770SOL    HW112209   1.550   0.806   6.116
 3770SOL    HW212210   1.556   0.941   6.208
 3771SOL     OW12211   5.223   2.867   0.191
 3771SOL    HW112212   5.261   2.832   0.277
 3771SOL    HW212213   5.126   2.886   0.203
 3772SOL     OW12214   0.190   1.541   6.978
 3772SOL    HW112215   0.152   1.457   7.016
 3772SOL    HW212216   0.248   1.519   6.900
 3773SOL     OW12217   5.751   3.319   5.667
 3773SOL    HW112218   5.701   3.303   5.752
 3773SOL    HW212219   5.739   3.241   5.605
 3774SOL     OW12220   6.398   5.845   1.280
 3774SOL    HW112221   6.477   5.904   1.265
 3774SOL    HW212222   6.342   5.881   1.354
 3775SOL     OW12223   4.696   5.100   2.182
 3775SOL    HW112224   4.681   5.006   2.213
 3775SOL    HW212225   4.625   5.125   2.116
 3776SOL     OW12226   4.622   2.075   6.682
 3776SOL    HW112227   4.696   2.010   6.699
 3776SOL    HW212228   4.565   2.081   6.764
 3777SOL     OW12229   3.498   5.888   3.524
 3777SOL    HW112230   3.504   5.909   3.622
 3777SOL    HW212231   3.485   5.789   3.512
 3778SOL     OW12232   2.872   4.983   2.743
 3778SOL    HW112233   2.786   5.021   2.708
 3778SOL    HW212234   2.948   5.041   2.716
 3779SOL     OW12235   1.371   4.666   0.505
 3779SOL    HW112236   1.296   4.654   0.571
 3779SOL    HW212237   1.454   4.694   0.554
 3780SOL     OW12238   5.824   5.081   4.750
 3780SOL    HW112239   5.832   5.127   4.662
 3780SOL    HW212240   5.895   5.012   4.758
 3781SOL     OW12241   0.657   6.299   4.368
 3781SOL    HW112242   0.626   6.205   4.356
 3781SOL    HW212243   0.598   6.346   4.433
 3782SOL     OW12244   2.347   0.150   3.218
 3782SOL    HW112245   2.392   0.085   3.156
 3782SOL    HW212246   2.400   0.157   3.302
 3783SOL     OW12247   5.460   5.218   3.613
 3783SOL    HW112248   5.427   5.304   3.574
 3783SOL    HW212249   5.558   5.224   3.629
 3784SOL     OW12250   4.631   2.551   2.928
 3784SOL    HW112251   4.563   2.580   2.860
 3784SOL    HW212252   4.720   2.541   2.884
 3785SOL     OW12253   1.623   3.501   5.815
 3785SOL    HW112254   1.604   3.595   5.841
 3785SOL    HW212255   1.706   3.470   5.861
 3786SOL     OW12256   2.138   5.165   2.954
 3786SOL    HW112257   2.113   5.128   3.043
 3786SOL    HW212258   2.216   5.226   2.964
 3787SOL     OW12259   5.694   1.563   2.924
 3787SOL    HW112260   5.790   1.560   2.895
 3787SOL    HW212261   5.637   1.591   2.847
 3788SOL     OW12262   0.115   4.972   4.746
 3788SOL    HW112263   0.070   4.982   4.834
 3788SOL    HW212264   0.047   4.952   4.675
 3789SOL     OW12265   6.787   2.897   4.512
 3789SOL    HW112266   6.760   2.802   4.527
 3789SOL    HW212267   6.808   2.910   4.415
 3790SOL     OW12268   1.311   4.265   5.884
 3790SOL    HW112269   1.364   4.203   5.942
 3790SOL    HW212270   1.243   4.212   5.833
 3791SOL     OW12271   5.135   1.369   6.560
 3791SOL    HW112272   5.226   1.391   6.595
 3791SOL    HW212273   5.135   1.371   6.461
 3792SOL     OW12274   1.054   2.391   4.065
 3792SOL    HW112275   1.117   2.335   4.118
 3792SOL    HW212276   1.012   2.460   4.124
 3793SOL     OW12277   4.819   6.236   1.843
 3793SOL    HW112278   4.867   6.304   1.788
 3793SOL    HW212279   4.748   6.192   1.788
 3794SOL     OW12280   2.119   2.882   1.190
 3794SOL    HW112281   2.205   2.838   1.168
 3794SOL    HW212282   2.122   2.916   1.285
 3795SOL     OW12283   4.125   6.121   0.792
 3795SOL    HW112284   4.139   6.214   0.756
 3795SOL    HW212285   4.147   6.054   0.721
 3796SOL     OW12286   3.223   2.101   1.860
 3796SOL    HW112287   3.319   2.078   1.844
 3796SOL    HW212288   3.204   2.094   1.958
 3797SOL     OW12289   0.294   3.315   1.953
 3797SOL    HW112290   0.237   3.397   1.941
 3797SOL    HW212291   0.282   3.280   2.045
 3798SOL     OW12292   2.738   5.153   2.975
 3798SOL    HW112293   2.726   5.157   3.074
 3798SOL    HW212294   2.681   5.080   2.937
 3799SOL     OW12295   6.757   2.493   3.737
 3799SOL    HW112296   6.788   2.399   3.727
 3799SOL    HW212297   6.836   2.553   3.750
 3800SOL     OW12298   5.999   2.856   4.366
 3800SOL    HW112299   5.904   2.861   4.336
 3800SOL    HW212300   6.036   2.949   4.376
 3801SOL     OW12301   6.099   0.092   2.000
 3801SOL    HW112302   6.040   0.083   1.919
 3801SOL    HW212303   6.044   0.079   2.082
 3802SOL     OW12304   1.344   2.373   1.641
 3802SOL    HW112305   1.401   2.428   1.702
 3802SOL    HW212306   1.382   2.280   1.635
 3803SOL     OW12307   4.071   3.211   2.108
 3803SOL    HW112308   4.024   3.124   2.119
 3803SOL    HW212309   4.129   3.207   2.026
 3804SOL     OW12310   4.410   1.623   3.781
 3804SOL    HW112311   4.421   1.564   3.861
 3804SOL    HW212312   4.495   1.623   3.728
 3805SOL     OW12313   2.400   2.833   1.046
 3805SOL    HW112314   2.413   2.899   1.120
 3805SOL    HW212315   2.437   2.744   1.074
 3806SOL     OW12316   3.362   3.484   6.297
 3806SOL    HW112317   3.322   3.559   6.244
 3806SOL    HW212318   3.412   3.423   6.235
 3807SOL     OW12319   1.421   5.986   2.773
 3807SOL    HW112320   1.414   6.082   2.801
 3807SOL    HW212321   1.499   5.944   2.821
 3808SOL     OW12322   4.827   1.204   0.960
 3808SOL    HW112323   4.832   1.143   0.881
 3808SOL    HW212324   4.822   1.299   0.929
 3809SOL     OW12325   5.615   2.506   1.713
 3809SOL    HW112326   5.662   2.588   1.745
 3809SOL    HW212327   5.519   2.527   1.695
 3810SOL     OW12328   4.630   2.702   3.605
 3810SOL    HW112329   4.623   2.799   3.625
 3810SOL    HW212330   4.644   2.689   3.507
 3811SOL     OW12331   1.388   5.334   4.883
 3811SOL    HW112332   1.391   5.423   4.839
 3811SOL    HW212333   1.321   5.276   4.837
 3812SOL     OW12334   4.741   5.660   5.056
 3812SOL    HW112335   4.675   5.687   4.986
 3812SOL    HW212336   4.750   5.560   5.056
 3813SOL     OW12337   4.258   3.301   0.853
 3813SOL    HW112338   4.288   3.289   0.758
 3813SOL    HW212339   4.285   3.221   0.906
 3814SOL     OW12340   0.355   0.063   6.654
 3814SOL    HW112341   0.408   7.012   6.612
 3814SOL    HW212342   0.265   0.029   6.680
 3815SOL     OW12343   4.445   2.562   0.690
 3815SOL    HW112344   4.431   2.481   0.632
 3815SOL    HW212345   4.436   2.644   0.634
 3816SOL     OW12346   0.981   5.479   6.879
 3816SOL    HW112347   1.076   5.493   6.852
 3816SOL    HW212348   0.921   5.539   6.827
 3817SOL     OW12349   4.867   3.398   2.826
 3817SOL    HW112350   4.811   3.318   2.804
 3817SOL    HW212351   4.963   3.377   2.807
 3818SOL     OW12352   6.081   1.090   6.827
 3818SOL    HW112353   6.067   0.996   6.857
 3818SOL    HW212354   6.032   1.106   6.742
 3819SOL     OW12355   5.479   5.465   1.846
 3819SOL    HW112356   5.419   5.543   1.864
 3819SOL    HW212357   5.574   5.495   1.843
 3820SOL     OW12358   4.950   6.874   4.137
 3820SOL    HW112359   4.887   6.885   4.213
 3820SOL    HW212360   4.972   6.778   4.124
 3821SOL     OW12361   2.595   1.324   0.969
 3821SOL    HW112362   2.600   1.224   0.971
 3821SOL    HW212363   2.517   1.355   1.024
 3822SOL     OW12364   2.181   0.140   1.118
 3822SOL    HW112365   2.175   0.095   1.029
 3822SOL    HW212366   2.095   0.187   1.137
 3823SOL     OW12367   3.544   3.478   5.816
 3823SOL    HW112368   3.542   3.395   5.760
 3823SOL    HW212369   3.513   3.555   5.762
 3824SOL     OW12370   6.841   2.682   0.475
 3824SOL    HW112371   6.870   2.597   0.432
 3824SOL    HW212372   6.905   2.706   0.548
 3825SOL     OW12373   0.563   5.624   0.805
 3825SOL    HW112374   0.468   5.632   0.836
 3825SOL    HW212375   0.620   5.591   0.881
 3826SOL     OW12376   0.997   3.219   6.563
 3826SOL    HW112377   1.007   3.298   6.503
 3826SOL    HW212378   1.076   3.213   6.624
 3827SOL     OW12379   1.507   1.236   2.091
 3827SOL    HW112380   1.594   1.267   2.052
 3827SOL    HW212381   1.509   1.136   2.102
 3828SOL     OW12382   3.349   3.470   2.596
 3828SOL    HW112383   3.433   3.419   2.577
 3828SOL    HW212384   3.270   3.411   2.580
 3829SOL     OW12385   1.726   4.893   3.032
 3829SOL    HW112386   1.637   4.938   3.021
 3829SOL    HW212387   1.769   4.925   3.117
 3830SOL     OW12388   0.661   1.544   4.924
 3830SOL    HW112389   0.698   1.455   4.896
 3830SOL    HW212390   0.565   1.549   4.900
 3831SOL     OW12391   4.488   2.550   2.328
 3831SOL    HW112392   4.541   2.600   2.260
 3831SOL    HW212393   4.459   2.462   2.290
 3832SOL     OW12394   5.591   0.875   2.683
 3832SOL    HW112395   5.581   0.890   2.781
 3832SOL    HW212396   5.653   0.797   2.667
 3833SOL     OW12397   0.220   6.543   6.215
 3833SOL    HW112398   0.219   6.627   6.160
 3833SOL    HW212399   0.268   6.560   6.301
 3834SOL     OW12400   4.265   4.492   1.459
 3834SOL    HW112401   4.269   4.433   1.378
 3834SOL    HW212402   4.327   4.457   1.529
 3835SOL     OW12403   3.779   5.626   4.502
 3835SOL    HW112404   3.846   5.693   4.534
 3835SOL    HW212405   3.709   5.613   4.572
 3836SOL     OW12406   1.374   4.041   6.029
 3836SOL    HW112407   1.447   3.977   6.054
 3836SOL    HW212408   1.309   4.049   6.105
 3837SOL     OW12409   4.701   5.184   6.450
 3837SOL    HW112410   4.705   5.239   6.534
 3837SOL    HW212411   4.690   5.245   6.371
 3838SOL     OW12412   0.583   3.853   4.903
 3838SOL    HW112413   0.512   3.794   4.943
 3838SOL    HW212414   0.669   3.802   4.897
 3839SOL     OW12415   4.970   0.854   3.748
 3839SOL    HW112416   5.061   0.876   3.714
 3839SOL    HW212417   4.902   0.876   3.678
 3840SOL     OW12418   2.329   0.471   6.193
 3840SOL    HW112419   2.315   0.451   6.290
 3840SOL    HW212420   2.249   0.520   6.157
 3841SOL     OW12421   0.050   3.140   4.325
 3841SOL    HW112422   0.037   3.201   4.404
 3841SOL    HW212423   6.988   3.134   4.272
 3842SOL     OW12424   2.022   3.128   1.085
 3842SOL    HW112425   2.062   3.042   1.115
 3842SOL    HW212426   1.927   3.113   1.058
 3843SOL     OW12427   5.933   4.506   2.341
 3843SOL    HW112428   6.031   4.490   2.335
 3843SOL    HW212429   5.885   4.419   2.329
 3844SOL     OW12430   0.696   2.765   6.131
 3844SOL    HW112431   0.774   2.813   6.092
 3844SOL    HW212432   0.638   2.728   6.058
 3845SOL     OW12433   3.308   3.210   4.986
 3845SOL    HW112434   3.303   3.294   5.040
 3845SOL    HW212435   3.369   3.145   5.031
 3846SOL     OW12436   0.483   5.550   3.683
 3846SOL    HW112437   0.448   5.505   3.601
 3846SOL    HW212438   0.567   5.505   3.712
 3847SOL     OW12439   5.415   1.032   5.090
 3847SOL    HW112440   5.321   1.064   5.100
 3847SOL    HW212441   5.464   1.094   5.028
 3848SOL     OW12442   4.294   5.482   3.218
 3848SOL    HW112443   4.369   5.520   3.272
 3848SOL    HW212444   4.261   5.551   3.154
 3849SOL     OW12445   1.403   1.373   5.726
 3849SOL    HW112446   1.404   1.398   5.629
 3849SOL    HW212447   1.479   1.416   5.773
 3850SOL     OW12448   2.138   3.005   0.779
 3850SOL    HW112449   2.187   3.049   0.855
 3850SOL    HW212450   2.189   2.925   0.749
 3851SOL     OW12451   1.184   4.639   2.127
 3851SOL    HW112452   1.206   4.587   2.210
 3851SOL    HW212453   1.245   4.610   2.053
 3852SOL     OW12454   4.145   6.557   4.066
 3852SOL    HW112455   4.180   6.464   4.078
 3852SOL    HW212456   4.052   6.562   4.102
 3853SOL     OW12457   1.225   4.245   3.357
 3853SOL    HW112458   1.162   4.265   3.283
 3853SOL    HW212459   1.301   4.310   3.355
 3854SOL     OW12460   2.017   3.239   2.404
 3854SOL    HW112461   1.954   3.254   2.328
 3854SOL    HW212462   1.978   3.171   2.467
 3855SOL     OW12463   5.246   6.696   6.560
 3855SOL    HW112464   5.200   6.779   6.590
 3855SOL    HW212465   5.333   6.686   6.609
 3856SOL     OW12466   0.091   0.374   6.107
 3856SOL    HW112467   0.169   0.377   6.045
 3856SOL    HW212468   0.069   0.278   6.128
 3857SOL     OW12469   0.460   5.970   6.923
 3857SOL    HW112470   0.402   5.955   7.003
 3857SOL    HW212471   0.496   5.883   6.891
 3858SOL     OW12472   1.411   6.944   5.741
 3858SOL    HW112473   1.315   6.936   5.713
 3858SOL    HW212474   1.426   0.011   5.783
 3859SOL     OW12475   6.381   1.728   3.164
 3859SOL    HW112476   6.367   1.630   3.148
 3859SOL    HW212477   6.367   1.778   3.078
 3860SOL     OW12478   2.614   0.419   5.698
 3860SOL    HW112479   2.585   0.504   5.742
 3860SOL    HW212480   2.581   0.341   5.752
 3861SOL     OW12481   4.813   4.655   3.295
 3861SOL    HW112482   4.753   4.681   3.370
 3861SOL    HW212483   4.789   4.707   3.213
 3862SOL     OW12484   1.310   0.072   5.405
 3862SOL    HW112485   1.363   0.070   5.320
 3862SOL    HW212486   1.372   0.082   5.483
 3863SOL     OW12487   4.591   3.144   6.395
 3863SOL    HW112488   4.653   3.155   6.317
 3863SOL    HW212489   4.599   3.051   6.430
 3864SOL     OW12490   2.333   0.426   5.625
 3864SOL    HW112491   2.262   0.450   5.691
 3864SOL    HW212492   2.409   0.382   5.672
 3865SOL     OW12493   3.385   6.844   7.008
 3865SOL    HW112494   3.297   6.887   0.004
 3865SOL    HW212495   3.390   6.755   0.031
 3866SOL     OW12496   3.666   0.883   1.915
 3866SOL    HW112497   3.615   0.917   1.994
 3866SOL    HW212498   3.616   0.903   1.832
 3867SOL     OW12499   1.206   4.220   4.244
 3867SOL    HW112500   1.303   4.195   4.235
 3867SOL    HW212501   1.166   4.169   4.320
 3868SOL     OW12502   3.796   6.829   0.011
 3868SOL    HW112503   3.788   6.922   6.998
 3868SOL    HW212504   3.890   6.813   0.041
 3869SOL     OW12505   5.951   3.914   4.924
 3869SOL    HW112506   5.950   3.817   4.948
 3869SOL    HW212507   5.949   3.969   5.007
 3870SOL     OW12508   4.292   5.609   6.749
 3870SOL    HW112509   4.363   5.668   6.788
 3870SOL    HW212510   4.202   5.646   6.770
 3871SOL     OW12511   3.857   0.509   2.730
 3871SOL    HW112512   3.942   0.461   2.750
 3871SOL    HW212513   3.809   0.462   2.655
 3872SOL     OW12514   3.769   3.208   2.940
 3872SOL    HW112515   3.779   3.253   3.028
 3872SOL    HW212516   3.797   3.112   2.948
 3873SOL     OW12517   5.776   3.022   2.179
 3873SOL    HW112518   5.782   2.970   2.264
 3873SOL    HW212519   5.702   3.089   2.186
 3874SOL     OW12520   3.606   6.031   6.596
 3874SOL    HW112521   3.696   5.989   6.588
 3874SOL    HW212522   3.556   6.019   6.510
 3875SOL     OW12523   1.612   2.564   1.527
 3875SOL    HW112524   1.681   2.554   1.599
 3875SOL    HW212525   1.529   2.605   1.566
 3876SOL     OW12526   5.012   5.115   0.810
 3876SOL    HW112527   4.929   5.083   0.766
 3876SOL    HW212528   5.092   5.081   0.760
 3877SOL     OW12529   0.001   2.855   0.062
 3877SOL    HW112530   6.982   2.783   0.008
 3877SOL    HW212531   0.032   2.928   0.002
 3878SOL     OW12532   2.741   6.556   4.785
 3878SOL    HW112533   2.778   6.642   4.819
 3878SOL    HW212534   2.652   6.538   4.827
 3879SOL     OW12535   4.666   6.122   1.649
 3879SOL    HW112536   4.626   6.155   1.563
 3879SOL    HW212537   4.593   6.098   1.712
 3880SOL     OW12538   6.455   4.571   3.860
 3880SOL    HW112539   6.468   4.638   3.933
 3880SOL    HW212540   6.405   4.613   3.784
 3881SOL     OW12541   1.135   4.462   0.839
 3881SOL    HW112542   1.211   4.432   0.896
 3881SOL    HW212543   1.170   4.513   0.761
 3882SOL     OW12544   0.736   1.797   4.886
 3882SOL    HW112545   0.714   1.843   4.800
 3882SOL    HW212546   0.699   1.704   4.885
 3883SOL     OW12547   4.279   0.903   3.712
 3883SOL    HW112548   4.315   0.815   3.744
 3883SOL    HW212549   4.179   0.902   3.715
 3884SOL     OW12550   1.056   5.100   3.345
 3884SOL    HW112551   1.018   5.193   3.346
 3884SOL    HW212552   1.016   5.048   3.420
 3885SOL     OW12553   6.287   0.412   2.915
 3885SOL    HW112554   6.244   0.399   2.825
 3885SOL    HW212555   6.216   0.412   2.986
 3886SOL     OW12556   6.591   6.104   4.830
 3886SOL    HW112557   6.552   6.137   4.744
 3886SOL    HW212558   6.593   6.004   4.830
 3887SOL     OW12559   6.707   1.163   6.232
 3887SOL    HW112560   6.767   1.241   6.216
 3887SOL    HW212561   6.689   1.116   6.146
 3888SOL     OW12562   1.094   0.224   6.475
 3888SOL    HW112563   1.032   0.296   6.446
 3888SOL    HW212564   1.186   0.242   6.440
 3889SOL     OW12565   6.349   3.507   6.115
 3889SOL    HW112566   6.406   3.451   6.176
 3889SOL    HW212567   6.279   3.554   6.169
 3890SOL     OW12568   5.641   5.788   2.705
 3890SOL    HW112569   5.615   5.871   2.755
 3890SOL    HW212570   5.739   5.791   2.685
 3891SOL     OW12571   5.630   4.818   3.982
 3891SOL    HW112572   5.557   4.789   3.920
 3891SOL    HW212573   5.609   4.909   4.017
 3892SOL     OW12574   0.241   2.337   1.421
 3892SOL    HW112575   0.293   2.349   1.505
 3892SOL    HW212576   0.233   2.240   1.400
 3893SOL     OW12577   3.200   5.289   1.419
 3893SOL    HW112578   3.122   5.249   1.370
 3893SOL    HW212579   3.206   5.386   1.397
 3894SOL     OW12580   2.464   1.659   0.984
 3894SOL    HW112581   2.494   1.655   0.889
 3894SOL    HW212582   2.410   1.577   1.005
 3895SOL     OW12583   1.586   0.373   5.368
 3895SOL    HW112584   1.545   0.284   5.350
 3895SOL    HW212585   1.569   0.434   5.291
 3896SOL     OW12586   0.404   2.128   6.439
 3896SOL    HW112587   0.447   2.069   6.507
 3896SOL    HW212588   0.338   2.075   6.385
 3897SOL     OW12589   3.457   6.567   2.060
 3897SOL    HW112590   3.428   6.573   2.156
 3897SOL    HW212591   3.498   6.477   2.044
 3898SOL     OW12592   3.512   3.782   4.039
 3898SOL    HW112593   3.514   3.692   3.994
 3898SOL    HW212594   3.553   3.774   4.130
 3899SOL     OW12595   4.969   1.053   4.252
 3899SOL    HW112596   4.971   0.971   4.309
 3899SOL    HW212597   4.881   1.059   4.206
 3900SOL     OW12598   5.218   2.462   3.860
 3900SOL    HW112599   5.217   2.462   3.760
 3900SOL    HW212600   5.124   2.468   3.893
 3901SOL     OW12601   3.055   6.189   5.452
 3901SOL    HW112602   3.033   6.093   5.433
 3901SOL    HW212603   3.096   6.196   5.543
 3902SOL     OW12604   5.964   3.605   1.729
 3902SOL    HW112605   5.951   3.521   1.783
 3902SOL    HW212606   5.879   3.657   1.728
 3903SOL     OW12607   5.040   4.389   6.517
 3903SOL    HW112608   5.125   4.432   6.546
 3903SOL    HW212609   5.038   4.381   6.418
 3904SOL     OW12610   2.170   6.255   5.623
 3904SOL    HW112611   2.252   6.264   5.566
 3904SOL    HW212612   2.092   6.293   5.574
 3905SOL     OW12613   5.857   6.858   5.854
 3905SOL    HW112614   5.956   6.870   5.863
 3905SOL    HW212615   5.837   6.820   5.764
 3906SOL     OW12616   1.894   5.333   5.668
 3906SOL    HW112617   1.972   5.371   5.719
 3906SOL    HW212618   1.839   5.407   5.631
 3907SOL     OW12619   6.510   6.738   4.343
 3907SOL    HW112620   6.532   6.835   4.348
 3907SOL    HW212621   6.423   6.725   4.295
 3908SOL     OW12622   1.549   0.824   6.676
 3908SOL    HW112623   1.461   0.786   6.704
 3908SOL    HW212624   1.544   0.924   6.675
 3909SOL     OW12625   0.086   4.731   6.601
 3909SOL    HW112626   0.074   4.704   6.696
 3909SOL    HW212627   0.104   4.650   6.545
 3910SOL     OW12628   3.734   3.953   1.968
 3910SOL    HW112629   3.635   3.967   1.980
 3910SOL    HW212630   3.753   3.930   1.873
 3911SOL     OW12631   4.699   1.551   7.003
 3911SOL    HW112632   4.650   1.464   7.010
 3911SOL    HW212633   4.671   1.612   0.054
 3912SOL     OW12634   3.717   1.545   6.368
 3912SOL    HW112635   3.622   1.517   6.382
 3912SOL    HW212636   3.776   1.464   6.372
 3913SOL     OW12637   2.970   6.297   6.634
 3913SOL    HW112638   2.937   6.377   6.584
 3913SOL    HW212639   2.940   6.302   6.729
 3914SOL     OW12640   4.915   0.724   1.256
 3914SOL    HW112641   4.931   0.634   1.297
 3914SOL    HW212642   4.845   0.773   1.308
 3915SOL     OW12643   4.393   6.336   0.859
 3915SOL    HW112644   4.358   6.263   0.917
 3915SOL    HW212645   4.324   6.361   0.791
 3916SOL     OW12646   2.111   6.788   2.427
 3916SOL    HW112647   2.034   6.780   2.364
 3916SOL    HW212648   2.197   6.787   2.375
 3917SOL     OW12649   1.386   4.377   0.974
 3917SOL    HW112650   1.367   4.400   1.070
 3917SOL    HW212651   1.452   4.301   0.971
 3918SOL     OW12652   4.345   6.572   2.005
 3918SOL    HW112653   4.343   6.521   1.919
 3918SOL    HW212654   4.386   6.516   2.076
 3919SOL     OW12655   3.578   0.154   6.414
 3919SOL    HW112656   3.604   0.193   6.325
 3919SOL    HW212657   3.552   0.058   6.401
 3920SOL     OW12658   2.480   2.199   6.181
 3920SOL    HW112659   2.519   2.170   6.094
 3920SOL    HW212660   2.524   2.149   6.256
 3921SOL     OW12661   6.834   2.832   0.249
 3921SOL    HW112662   6.908   2.830   0.182
 3921SOL    HW212663   6.855   2.769   0.324
 3922SOL     OW12664   4.144   5.115   0.547
 3922SOL    HW112665   4.162   5.037   0.487
 3922SOL    HW212666   4.173   5.093   0.640
 3923SOL     OW12667   6.298   1.939   0.440
 3923SOL    HW112668   6.238   1.869   0.477
 3923SOL    HW212669   6.290   2.022   0.495
 3924SOL     OW12670   0.278   4.562   3.236
 3924SOL    HW112671   0.323   4.549   3.325
 3924SOL    HW212672   0.210   4.489   3.223
 3925SOL     OW12673   4.418   4.417   0.948
 3925SOL    HW112674   4.397   4.419   0.850
 3925SOL    HW212675   4.517   4.414   0.961
 3926SOL     OW12676   0.188   7.005   4.668
 3926SOL    HW112677   0.189   6.992   4.569
 3926SOL    HW212678   0.268   6.962   4.709
 3927SOL     OW12679   0.085   2.468   4.554
 3927SOL    HW112680   0.124   2.487   4.644
 3927SOL    HW212681   0.159   2.467   4.486
 3928SOL     OW12682   3.931   5.926   4.501
 3928SOL    HW112683   3.996   5.863   4.542
 3928SOL    HW212684   3.929   5.913   4.402
 3929SOL     OW12685   6.966   1.508   6.507
 3929SOL    HW112686   7.001   1.577   6.443
 3929SOL    HW212687   6.877   1.537   6.543
 3930SOL     OW12688   0.996   2.092   3.569
 3930SOL    HW112689   1.008   2.175   3.515
 3930SOL    HW212690   1.064   2.024   3.540
 3931SOL     OW12691   1.635   1.567   2.055
 3931SOL    HW112692   1.561   1.560   2.121
 3931SOL    HW212693   1.723   1.562   2.102
 3932SOL     OW12694   1.719   4.200   4.055
 3932SOL    HW112695   1.804   4.153   4.078
 3932SOL    HW212696   1.697   4.267   4.126
 3933SOL     OW12697   1.661   6.691   0.325
 3933SOL    HW112698   1.657   6.780   0.279
 3933SOL    HW212699   1.576   6.642   0.309
 3934SOL     OW12700   0.342   1.036   2.294
 3934SOL    HW112701   0.244   1.018   2.293
 3934SOL    HW212702   0.390   0.961   2.249
 3935SOL     OW12703   1.711   1.025   5.499
 3935SOL    HW112704   1.736   1.027   5.596
 3935SOL    HW212705   1.644   1.096   5.481
 3936SOL     OW12706   6.915   6.353   5.577
 3936SOL    HW112707   6.847   6.422   5.601
 3936SOL    HW212708   6.890   6.310   5.490
 3937SOL     OW12709   0.047   6.554   2.396
 3937SOL    HW112710   6.980   6.562   2.439
 3937SOL    HW212711   0.082   6.645   2.375
 3938SOL     OW12712   6.337   3.201   3.906
 3938SOL    HW112713   6.320   3.295   3.936
 3938SOL    HW212714   6.337   3.141   3.986
 3939SOL     OW12715   2.837   1.817   3.250
 3939SOL    HW112716   2.919   1.869   3.229
 3939SOL    HW212717   2.768   1.833   3.180
 3940SOL     OW12718   2.938   4.854   1.975
 3940SOL    HW112719   3.028   4.836   2.016
 3940SOL    HW212720   2.886   4.768   1.970
 3941SOL     OW12721   5.562   0.411   4.860
 3941SOL    HW112722   5.596   0.321   4.886
 3941SOL    HW212723   5.631   0.480   4.882
 3942SOL     OW12724   0.959   6.142   5.487
 3942SOL    HW112725   0.895   6.143   5.564
 3942SOL    HW212726   0.966   6.049   5.451
 3943SOL     OW12727   0.269   3.341   2.337
 3943SOL    HW112728   0.253   3.262   2.278
 3943SOL    HW212729   0.206   3.338   2.415
 3944SOL     OW12730   5.767   3.878   5.670
 3944SOL    HW112731   5.854   3.923   5.689
 3944SOL    HW212732   5.783   3.799   5.611
 3945SOL     OW12733   0.888   2.303   2.451
 3945SOL    HW112734   0.877   2.284   2.353
 3945SOL    HW212735   0.932   2.392   2.463
 3946SOL     OW12736   0.039   3.895   6.229
 3946SOL    HW112737   6.996   3.821   6.219
 3946SOL    HW212738   0.129   3.864   6.198
 3947SOL     OW12739   5.603   5.489   0.782
 3947SOL    HW112740   5.676   5.547   0.820
 3947SOL    HW212741   5.608   5.398   0.824
 3948SOL     OW12742   1.062   4.638   0.069
 3948SOL    HW112743   0.967   4.607   0.067
 3948SOL    HW212744   1.119   4.568   0.110
 3949SOL     OW12745   5.684   6.535   2.864
 3949SOL    HW112746   5.782   6.517   2.854
 3949SOL    HW212747   5.666   6.569   2.956
 3950SOL     OW12748   3.556   4.044   1.487
 3950SOL    HW112749   3.622   4.118   1.498
 3950SOL    HW212750   3.502   4.058   1.404
 3951SOL     OW12751   0.441   0.839   0.106
 3951SOL    HW112752   0.414   0.839   0.202
 3951SOL    HW212753   0.369   0.881   0.051
 3952SOL     OW12754   6.079   3.442   4.939
 3952SOL    HW112755   6.135   3.405   5.013
 3952SOL    HW212756   6.011   3.373   4.911
 3953SOL     OW12757   4.020   4.075   6.791
 3953SOL    HW112758   3.998   4.042   6.883
 3953SOL    HW212759   3.953   4.143   6.764
 3954SOL     OW12760   5.757   5.210   5.256
 3954SOL    HW112761   5.837   5.155   5.236
 3954SOL    HW212762   5.786   5.302   5.284
 3955SOL     OW12763   4.736   6.816   6.844
 3955SOL    HW112764   4.668   6.843   6.912
 3955SOL    HW212765   4.827   6.843   6.876
 3956SOL     OW12766   1.385   2.016   4.707
 3956SOL    HW112767   1.430   2.105   4.720
 3956SOL    HW212768   1.287   2.026   4.725
 3957SOL     OW12769   4.481   6.820   3.570
 3957SOL    HW112770   4.474   6.723   3.590
 3957SOL    HW212771   4.390   6.860   3.566
 3958SOL     OW12772   5.875   6.854   6.292
 3958SOL    HW112773   5.817   6.935   6.290
 3958SOL    HW212774   5.971   6.882   6.286
 3959SOL     OW12775   3.347   6.461   1.114
 3959SOL    HW112776   3.397   6.388   1.069
 3959SOL    HW212777   3.377   6.469   1.209
 3960SOL     OW12778   5.958   2.294   6.314
 3960SOL    HW112779   5.954   2.263   6.219
 3960SOL    HW212780   5.979   2.216   6.374
 3961SOL     OW12781   5.342   2.815   2.412
 3961SOL    HW112782   5.332   2.914   2.423
 3961SOL    HW212783   5.309   2.769   2.494
 3962SOL     OW12784   1.237   5.544   6.837
 3962SOL    HW112785   1.307   5.477   6.812
 3962SOL    HW212786   1.263   5.590   6.922
 3963SOL     OW12787   5.464   4.486   3.551
 3963SOL    HW112788   5.434   4.461   3.459
 3963SOL    HW212789   5.560   4.459   3.563
 3964SOL     OW12790   4.379   4.719   4.738
 3964SOL    HW112791   4.349   4.663   4.815
 3964SOL    HW212792   4.307   4.783   4.713
 3965SOL     OW12793   4.109   4.067   6.153
 3965SOL    HW112794   4.028   4.013   6.129
 3965SOL    HW212795   4.103   4.096   6.249
 3966SOL     OW12796   6.824   5.001   0.035
 3966SOL    HW112797   6.730   4.971   0.054
 3966SOL    HW212798   6.847   5.078   0.095
 3967SOL     OW12799   1.504   4.424   2.705
 3967SOL    HW112800   1.564   4.504   2.698
 3967SOL    HW212801   1.463   4.406   2.616
 3968SOL     OW12802   6.571   0.625   0.939
 3968SOL    HW112803   6.514   0.593   1.014
 3968SOL    HW212804   6.527   0.603   0.852
 3969SOL     OW12805   0.341   3.653   3.032
 3969SOL    HW112806   0.421   3.710   3.015
 3969SOL    HW212807   0.342   3.621   3.126
 3970SOL     OW12808   4.826   5.086   3.394
 3970SOL    HW112809   4.773   5.171   3.390
 3970SOL    HW212810   4.763   5.009   3.403
 3971SOL     OW12811   2.218   4.792   2.400
 3971SOL    HW112812   2.281   4.799   2.323
 3971SOL    HW212813   2.194   4.696   2.416
 3972SOL     OW12814   1.632   5.651   1.626
 3972SOL    HW112815   1.553   5.712   1.619
 3972SOL    HW212816   1.716   5.705   1.624
 3973SOL     OW12817   2.437   3.714   5.340
 3973SOL    HW112818   2.431   3.799   5.287
 3973SOL    HW212819   2.533   3.692   5.356
 3974SOL     OW12820   1.938   0.818   5.547
 3974SOL    HW112821   2.013   0.884   5.553
 3974SOL    HW212822   1.862   0.848   5.604
 3975SOL     OW12823   5.768   0.122   6.655
 3975SOL    HW112824   5.856   0.121   6.608
 3975SOL    HW212825   5.783   0.138   6.753
 3976SOL     OW12826   2.208   4.994   1.062
 3976SOL    HW112827   2.141   5.028   1.128
 3976SOL    HW212828   2.253   5.071   1.017
 3977SOL     OW12829   3.407   4.961   5.773
 3977SOL    HW112830   3.339   4.943   5.844
 3977SOL    HW212831   3.498   4.943   5.810
 3978SOL     OW12832   5.735   0.619   4.904
 3978SOL    HW112833   5.830   0.613   4.871
 3978SOL    HW212834   5.736   0.638   5.002
 3979SOL     OW12835   2.525   5.904   1.437
 3979SOL    HW112836   2.460   5.951   1.496
 3979SOL    HW212837   2.477   5.834   1.384
 3980SOL     OW12838   0.202   4.512   5.907
 3980SOL    HW112839   0.250   4.592   5.943
 3980SOL    HW212840   0.256   4.471   5.834
 3981SOL     OW12841   1.792   1.933   6.421
 3981SOL    HW112842   1.809   2.008   6.484
 3981SOL    HW212843   1.696   1.905   6.427
 3982SOL     OW12844   2.585   0.619   4.292
 3982SOL    HW112845   2.518   0.625   4.218
 3982SOL    HW212846   2.568   0.692   4.358
 3983SOL     OW12847   3.344   5.911   4.546
 3983SOL    HW112848   3.356   5.943   4.640
 3983SOL    HW212849   3.433   5.899   4.503
 3984SOL     OW12850   2.287   0.378   2.299
 3984SOL    HW112851   2.368   0.397   2.243
 3984SOL    HW212852   2.287   0.281   2.325
 3985SOL     OW12853   2.412   4.237   0.184
 3985SOL    HW112854   2.372   4.328   0.193
 3985SOL    HW212855   2.346   4.175   0.144
 3986SOL     OW12856   6.951   1.183   3.290
 3986SOL    HW112857   6.975   1.269   3.336
 3986SOL    HW212858   6.882   1.135   3.343
 3987SOL     OW12859   1.331   5.683   5.057
 3987SOL    HW112860   1.367   5.614   5.120
 3987SOL    HW212861   1.363   5.664   4.964
 3988SOL     OW12862   3.615   2.754   5.552
 3988SOL    HW112863   3.547   2.777   5.621
 3988SOL    HW212864   3.624   2.654   5.546
 3989SOL     OW12865   6.638   1.410   0.037
 3989SOL    HW112866   6.734   1.417   0.066
 3989SOL    HW212867   6.586   1.486   0.075
 3990SOL     OW12868   6.093   1.597   3.778
 3990SOL    HW112869   6.137   1.628   3.862
 3990SOL    HW212870   6.001   1.564   3.798
 3991SOL     OW12871   6.490   1.770   2.472
 3991SOL    HW112872   6.467   1.860   2.434
 3991SOL    HW212873   6.588   1.768   2.495
 3992SOL     OW12874   4.362   2.120   6.257
 3992SOL    HW112875   4.456   2.128   6.289
 3992SOL    HW212876   4.301   2.165   6.322
 3993SOL     OW12877   1.371   2.139   3.224
 3993SOL    HW112878   1.287   2.193   3.225
 3993SOL    HW212879   1.349   2.042   3.216
 3994SOL     OW12880   1.645   2.626   5.221
 3994SOL    HW112881   1.702   2.595   5.145
 3994SOL    HW212882   1.705   2.656   5.296
 3995SOL     OW12883   2.110   3.773   4.298
 3995SOL    HW112884   2.016   3.791   4.270
 3995SOL    HW212885   2.114   3.686   4.347
 3996SOL     OW12886   1.600   0.811   5.144
 3996SOL    HW112887   1.603   0.811   5.244
 3996SOL    HW212888   1.539   0.884   5.112
 3997SOL     OW12889   4.816   2.986   3.258
 3997SOL    HW112890   4.863   3.032   3.183
 3997SOL    HW212891   4.790   3.054   3.327
 3998SOL     OW12892   4.815   1.735   2.389
 3998SOL    HW112893   4.730   1.682   2.383
 3998SOL    HW212894   4.826   1.790   2.306
 3999SOL     OW12895   5.546   3.557   3.648
 3999SOL    HW112896   5.500   3.507   3.721
 3999SOL    HW212897   5.645   3.545   3.657
 4000SOL     OW12898   3.550   5.607   2.623
 4000SOL    HW112899   3.546   5.601   2.523
 4000SOL    HW212900   3.632   5.560   2.655
 4001SOL     OW12901   2.062   2.781   4.852
 4001SOL    HW112902   1.980   2.725   4.862
 4001SOL    HW212903   2.143   2.722   4.851
 4002SOL     OW12904   2.888   2.962   6.504
 4002SOL    HW112905   2.986   2.974   6.483
 4002SOL    HW212906   2.869   2.865   6.518
 4003SOL     OW12907   2.688   6.929   6.079
 4003SOL    HW112908   2.693   6.996   6.153
 4003SOL    HW212909   2.607   6.872   6.091
 4004SOL     OW12910   6.151   2.515   4.062
 4004SOL    HW112911   6.131   2.419   4.041
 4004SOL    HW212912   6.159   2.566   3.976
 4005SOL     OW12913   5.422   5.160   1.195
 4005SOL    HW112914   5.434   5.076   1.141
 4005SOL    HW212915   5.510   5.206   1.204
 4006SOL     OW12916   4.652   4.668   2.013
 4006SOL    HW112917   4.648   4.665   2.112
 4006SOL    HW212918   4.658   4.763   1.983
 4007SOL     OW12919   0.768   2.766   1.476
 4007SOL    HW112920   0.768   2.669   1.450
 4007SOL    HW212921   0.853   2.809   1.445
 4008SOL     OW12922   3.983   1.691   5.532
 4008SOL    HW112923   3.885   1.702   5.549
 4008SOL    HW212924   4.009   1.743   5.451
 4009SOL     OW12925   4.672   2.832   0.725
 4009SOL    HW112926   4.738   2.757   0.731
 4009SOL    HW212927   4.634   2.851   0.815
 4010SOL     OW12928   1.930   3.407   1.094
 4010SOL    HW112929   1.959   3.312   1.086
 4010SOL    HW212930   1.868   3.417   1.172
 4011SOL     OW12931   1.104   6.562   1.887
 4011SOL    HW112932   1.165   6.584   1.963
 4011SOL    HW212933   1.035   6.634   1.878
 4012SOL     OW12934   4.634   4.590   1.719
 4012SOL    HW112935   4.618   4.620   1.813
 4012SOL    HW212936   4.573   4.513   1.698
 4013SOL     OW12937   2.930   0.358   0.643
 4013SOL    HW112938   2.870   0.338   0.720
 4013SOL    HW212939   3.009   0.297   0.645
 4014SOL     OW12940   4.076   5.717   3.688
 4014SOL    HW112941   4.153   5.780   3.677
 4014SOL    HW212942   4.109   5.629   3.722
 4015SOL     OW12943   4.552   5.124   6.187
 4015SOL    HW112944   4.617   5.167   6.124
 4015SOL    HW212945   4.486   5.192   6.218
 4016SOL     OW12946   0.846   5.564   6.680
 4016SOL    HW112947   0.891   5.570   6.591
 4016SOL    HW212948   0.759   5.516   6.670
 4017SOL     OW12949   0.696   6.473   0.348
 4017SOL    HW112950   0.625   6.541   0.331
 4017SOL    HW212951   0.736   6.444   0.261
 4018SOL     OW12952   6.063   6.461   1.835
 4018SOL    HW112953   5.996   6.516   1.884
 4018SOL    HW212954   6.073   6.372   1.879
 4019SOL     OW12955   6.152   3.927   2.366
 4019SOL    HW112956   6.174   4.018   2.402
 4019SOL    HW212957   6.235   3.883   2.334
 4020SOL     OW12958   6.444   2.777   5.826
 4020SOL    HW112959   6.356   2.775   5.873
 4020SOL    HW212960   6.473   2.872   5.815
 4021SOL     OW12961   3.075   3.957   5.411
 4021SOL    HW112962   3.122   3.956   5.323
 4021SOL    HW212963   3.062   3.863   5.443
 4022SOL     OW12964   4.789   0.088   6.677
 4022SOL    HW112965   4.783   0.090   6.578
 4022SOL    HW212966   4.697   0.077   6.716
 4023SOL     OW12967   6.974   0.827   4.499
 4023SOL    HW112968   0.034   0.772   4.497
 4023SOL    HW212969   6.972   0.880   4.584
 4024SOL     OW12970   3.024   5.139   4.251
 4024SOL    HW112971   2.966   5.168   4.327
 4024SOL    HW212972   3.051   5.220   4.198
 4025SOL     OW12973   0.075   6.118   4.573
 4025SOL    HW112974   7.018   6.129   4.514
 4025SOL    HW212975   0.060   6.166   4.660
 4026SOL     OW12976   6.149   0.222   3.185
 4026SOL    HW112977   6.088   0.143   3.192
 4026SOL    HW212978   6.095   0.306   3.192
 4027SOL     OW12979   2.721   2.651   1.173
 4027SOL    HW112980   2.726   2.720   1.246
 4027SOL    HW212981   2.626   2.641   1.144
 4028SOL     OW12982   2.737   2.289   2.731
 4028SOL    HW112983   2.669   2.221   2.705
 4028SOL    HW212984   2.695   2.356   2.792
 4029SOL     OW12985   2.875   4.677   6.244
 4029SOL    HW112986   2.951   4.741   6.252
 4029SOL    HW212987   2.870   4.620   6.326
 4030SOL     OW12988   1.105   1.585   0.817
 4030SOL    HW112989   1.078   1.489   0.805
 4030SOL    HW212990   1.186   1.603   0.762
 4031SOL     OW12991   4.895   6.194   3.546
 4031SOL    HW112992   4.827   6.240   3.490
 4031SOL    HW212993   4.908   6.246   3.631
 4032SOL     OW12994   6.202   0.085   2.700
 4032SOL    HW112995   6.292   0.117   2.672
 4032SOL    HW212996   6.141   0.163   2.712
 4033SOL     OW12997   3.007   3.865   1.935
 4033SOL    HW112998   3.044   3.922   1.862
 4033SOL    HW212999   2.965   3.784   1.895
 4034SOL     OW13000   0.040   1.355   4.259
 4034SOL    HW113001   0.090   1.357   4.345
 4034SOL    HW213002   6.971   1.392   4.272
 4035SOL     OW13003   6.176   2.452   0.880
 4035SOL    HW113004   6.146   2.380   0.818
 4035SOL    HW213005   6.096   2.500   0.917
 4036SOL     OW13006   4.823   6.629   2.401
 4036SOL    HW113007   4.812   6.683   2.485
 4036SOL    HW213008   4.779   6.540   2.412
 4037SOL     OW13009   2.466   0.910   0.804
 4037SOL    HW113010   2.479   0.811   0.805
 4037SOL    HW213011   2.554   0.956   0.818
 4038SOL     OW13012   4.325   4.037   1.630
 4038SOL    HW113013   4.299   4.100   1.557
 4038SOL    HW213014   4.366   4.088   1.706
 4039SOL     OW13015   4.653   4.187   1.494
 4039SOL    HW113016   4.567   4.206   1.446
 4039SOL    HW213017   4.633   4.170   1.591
 4040SOL     OW13018   3.698   6.885   6.026
 4040SOL    HW113019   3.726   6.981   6.023
 4040SOL    HW213020   3.673   6.855   5.934
 4041SOL     OW13021   1.811   5.075   1.086
 4041SOL    HW113022   1.733   5.109   1.139
 4041SOL    HW213023   1.896   5.105   1.129
 4042SOL     OW13024   6.454   5.264   2.846
 4042SOL    HW113025   6.419   5.338   2.902
 4042SOL    HW213026   6.548   5.243   2.873
 4043SOL     OW13027   5.170   1.640   4.314
 4043SOL    HW113028   5.158   1.713   4.247
 4043SOL    HW213029   5.091   1.638   4.376
 4044SOL     OW13030   4.871   0.151   3.505
 4044SOL    HW113031   4.793   0.107   3.461
 4044SOL    HW213032   4.866   0.250   3.490
 4045SOL     OW13033   2.828   5.291   5.913
 4045SOL    HW113034   2.737   5.251   5.914
 4045SOL    HW213035   2.894   5.222   5.882
 4046SOL     OW13036   1.210   1.386   3.909
 4046SOL    HW113037   1.177   1.397   3.815
 4046SOL    HW213038   1.219   1.288   3.929
 4047SOL     OW13039   1.283   2.099   0.799
 4047SOL    HW113040   1.269   2.025   0.733
 4047SOL    HW213041   1.380   2.121   0.804
 4048SOL     OW13042   5.281   1.950   2.326
 4048SOL    HW113043   5.346   2.015   2.366
 4048SOL    HW213044   5.330   1.867   2.299
 4049SOL     OW13045   6.553   5.662   6.231
 4049SOL    HW113046   6.503   5.576   6.243
 4049SOL    HW213047   6.500   5.737   6.271
 4050SOL     OW13048   1.210   6.336   0.642
 4050SOL    HW113049   1.132   6.374   0.691
 4050SOL    HW213050   1.223   6.241   0.668
 4051SOL     OW13051   3.869   2.577   6.945
 4051SOL    HW113052   3.813   2.529   6.877
 4051SOL    HW213053   3.864   2.529   0.010
 4052SOL     OW13054   6.838   0.746   2.670
 4052SOL    HW113055   6.912   0.680   2.661
 4052SOL    HW213056   6.789   0.729   2.756
 4053SOL     OW13057   3.420   5.018   4.192
 4053SOL    HW113058   3.517   5.032   4.174
 4053SOL    HW213059   3.373   5.001   4.105
 4054SOL     OW13060   6.843   3.463   2.184
 4054SOL    HW113061   6.898   3.528   2.236
 4054SOL    HW213062   6.900   3.385   2.158
 4055SOL     OW13063   3.655   3.264   6.578
 4055SOL    HW113064   3.615   3.345   6.534
 4055SOL    HW213065   3.753   3.277   6.587
 4056SOL     OW13066   3.622   3.913   1.085
 4056SOL    HW113067   3.648   3.961   1.001
 4056SOL    HW213068   3.545   3.852   1.066
 4057SOL     OW13069   5.375   2.068   1.627
 4057SOL    HW113070   5.298   2.018   1.668
 4057SOL    HW213071   5.357   2.166   1.635
 4058SOL     OW13072   1.921   0.181   3.807
 4058SOL    HW113073   1.864   0.194   3.888
 4058SOL    HW213074   2.005   0.235   3.817
 4059SOL     OW13075   1.147   2.574   3.435
 4059SOL    HW113076   1.094   2.536   3.511
 4059SOL    HW213077   1.238   2.600   3.468
 4060SOL     OW13078   4.816   5.285   4.425
 4060SOL    HW113079   4.754   5.331   4.488
 4060SOL    HW213080   4.817   5.187   4.444
 4061SOL     OW13081   2.964   5.139   1.329
 4061SOL    HW113082   2.919   5.072   1.387
 4061SOL    HW213083   2.898   5.180   1.266
 4062SOL     OW13084   2.306   1.899   2.398
 4062SOL    HW113085   2.290   1.804   2.424
 4062SOL    HW213086   2.256   1.960   2.459
 4063SOL     OW13087   6.156   6.343   5.448
 4063SOL    HW113088   6.188   6.318   5.356
 4063SOL    HW213089   6.137   6.259   5.500
 4064SOL     OW13090   1.734   6.754   3.828
 4064SOL    HW113091   1.652   6.698   3.817
 4064SOL    HW213092   1.755   6.799   3.741
 4065SOL     OW13093   6.813   6.886   0.502
 4065SOL    HW113094   6.876   6.854   0.572
 4065SOL    HW213095   6.860   6.948   0.440
 4066SOL     OW13096   5.227   6.078   2.861
 4066SOL    HW113097   5.135   6.113   2.842
 4066SOL    HW213098   5.252   6.010   2.791
 4067SOL     OW13099   6.226   3.385   3.321
 4067SOL    HW113100   6.232   3.385   3.221
 4067SOL    HW213101   6.262   3.298   3.355
 4068SOL     OW13102   3.129   0.341   4.522
 4068SOL    HW113103   3.067   0.407   4.565
 4068SOL    HW213104   3.127   0.255   4.573
 4069SOL     OW13105   4.115   4.784   6.459
 4069SOL    HW113106   4.170   4.735   6.526
 4069SOL    HW213107   4.034   4.730   6.437
 4070SOL     OW13108   0.460   3.687   2.378
 4070SOL    HW113109   0.431   3.766   2.432
 4070SOL    HW213110   0.480   3.610   2.439
 4071SOL     OW13111   1.133   0.854   5.559
 4071SOL    HW113112   1.132   0.797   5.641
 4071SOL    HW213113   1.189   0.809   5.488
 4072SOL     OW13114   0.814   5.643   4.219
 4072SOL    HW113115   0.717   5.661   4.204
 4072SOL    HW213116   0.860   5.727   4.247
 4073SOL     OW13117   2.574   5.852   6.485
 4073SOL    HW113118   2.663   5.860   6.528
 4073SOL    HW213119   2.574   5.774   6.422
 4074SOL     OW13120   0.379   3.035   1.922
 4074SOL    HW113121   0.300   3.021   1.862
 4074SOL    HW213122   0.435   2.952   1.922
 4075SOL     OW13123   4.151   2.308   2.777
 4075SOL    HW113124   4.052   2.313   2.764
 4075SOL    HW213125   4.177   2.214   2.801
 4076SOL     OW13126   3.307   3.492   5.110
 4076SOL    HW113127   3.355   3.490   5.197
 4076SOL    HW213128   3.335   3.573   5.058
 4077SOL     OW13129   3.377   0.096   0.162
 4077SOL    HW113130   3.475   0.117   0.168
 4077SOL    HW213131   3.340   0.136   0.078
 4078SOL     OW13132   6.143   5.632   2.296
 4078SOL    HW113133   6.089   5.714   2.313
 4078SOL    HW213134   6.197   5.609   2.377
 4079SOL     OW13135   0.730   1.767   3.658
 4079SOL    HW113136   0.739   1.756   3.757
 4079SOL    HW213137   0.644   1.725   3.627
 4080SOL     OW13138   2.365   3.404   0.176
 4080SOL    HW113139   2.430   3.343   0.132
 4080SOL    HW213140   2.311   3.352   0.243
 4081SOL     OW13141   1.959   2.144   3.847
 4081SOL    HW113142   1.880   2.123   3.904
 4081SOL    HW213143   1.934   2.216   3.781
 4082SOL     OW13144   1.230   2.881   1.141
 4082SOL    HW113145   1.289   2.819   1.193
 4082SOL    HW213146   1.176   2.828   1.076
 4083SOL     OW13147   6.616   4.269   1.975
 4083SOL    HW113148   6.568   4.356   1.967
 4083SOL    HW213149   6.646   4.238   1.885
 4084SOL     OW13150   4.426   2.436   3.109
 4084SOL    HW113151   4.425   2.458   3.207
 4084SOL    HW213152   4.521   2.424   3.079
 4085SOL     OW13153   2.592   5.583   0.655
 4085SOL    HW113154   2.598   5.659   0.720
 4085SOL    HW213155   2.563   5.618   0.566
 4086SOL     OW13156   0.274   4.612   1.153
 4086SOL    HW113157   0.208   4.542   1.125
 4086SOL    HW213158   0.355   4.567   1.191
 4087SOL     OW13159   1.574   1.872   3.418
 4087SOL    HW113160   1.563   1.900   3.323
 4087SOL    HW213161   1.613   1.780   3.421
 4088SOL     OW13162   6.400   0.834   6.594
 4088SOL    HW113163   6.362   0.806   6.506
 4088SOL    HW213164   6.459   0.914   6.581
 4089SOL     OW13165   6.222   4.767   4.008
 4089SOL    HW113166   6.254   4.685   4.056
 4089SOL    HW213167   6.123   4.759   3.991
 4090SOL     OW13168   1.333   5.687   5.571
 4090SOL    HW113169   1.278   5.635   5.506
 4090SOL    HW213170   1.413   5.633   5.596
 4091SOL     OW13171   0.549   6.152   0.213
 4091SOL    HW113172   0.511   6.195   0.131
 4091SOL    HW213173   0.645   6.130   0.196
 4092SOL     OW13174   5.775   2.670   4.050
 4092SOL    HW113175   5.816   2.615   3.977
 4092SOL    HW213176   5.833   2.749   4.069
 4093SOL     OW13177   4.932   6.710   1.561
 4093SOL    HW113178   4.925   6.748   1.653
 4093SOL    HW213179   5.012   6.748   1.515
 4094SOL     OW13180   1.494   4.670   5.982
 4094SOL    HW113181   1.518   4.713   5.895
 4094SOL    HW213182   1.484   4.740   6.052
 4095SOL     OW13183   0.293   4.164   0.655
 4095SOL    HW113184   0.276   4.114   0.570
 4095SOL    HW213185   0.389   4.151   0.682
 4096SOL     OW13186   5.107   0.821   6.740
 4096SOL    HW113187   5.186   0.764   6.716
 4096SOL    HW213188   5.136   0.916   6.749
 4097SOL     OW13189   4.544   4.499   4.352
 4097SOL    HW113190   4.633   4.468   4.387
 4097SOL    HW213191   4.525   4.454   4.265
 4098SOL     OW13192   0.826   2.044   1.875
 4098SOL    HW113193   0.823   2.137   1.911
 4098SOL    HW213194   0.894   2.039   1.801
 4099SOL     OW13195   3.963   5.366   1.034
 4099SOL    HW113196   3.964   5.390   1.130
 4099SOL    HW213197   4.057   5.367   0.998
 4100SOL     OW13198   0.391   6.454   4.397
 4100SOL    HW113199   0.408   6.500   4.309
 4100SOL    HW213200   0.368   6.522   4.466
 4101SOL     OW13201   0.461   1.521   0.619
 4101SOL    HW113202   0.463   1.621   0.621
 4101SOL    HW213203   0.438   1.489   0.527
 4102SOL     OW13204   1.165   0.611   0.792
 4102SOL    HW113205   1.194   0.599   0.697
 4102SOL    HW213206   1.245   0.608   0.852
 4103SOL     OW13207   0.568   0.114   0.626
 4103SOL    HW113208   0.602   0.041   0.567
 4103SOL    HW213209   0.588   0.203   0.585
 4104SOL     OW13210   6.999   4.856   3.464
 4104SOL    HW113211   0.033   4.900   3.395
 4104SOL    HW213212   6.954   4.776   3.423
 4105SOL     OW13213   5.591   0.559   2.984
 4105SOL    HW113214   5.668   0.520   2.932
 4105SOL    HW213215   5.616   0.651   3.015
 4106SOL     OW13216   6.837   2.958   3.381
 4106SOL    HW113217   6.805   3.026   3.447
 4106SOL    HW213218   6.760   2.928   3.325
 4107SOL     OW13219   1.439   5.491   1.147
 4107SOL    HW113220   1.362   5.481   1.083
 4107SOL    HW213221   1.486   5.577   1.128
 4108SOL     OW13222   6.623   5.045   4.735
 4108SOL    HW113223   6.630   5.086   4.644
 4108SOL    HW213224   6.545   5.084   4.783
 4109SOL     OW13225   6.531   0.018   4.622
 4109SOL    HW113226   6.551   0.109   4.656
 4109SOL    HW213227   6.445   0.019   4.570
 4110SOL     OW13228   4.177   3.766   5.578
 4110SOL    HW113229   4.243   3.828   5.534
 4110SOL    HW213230   4.157   3.799   5.670
 4111SOL     OW13231   5.733   4.708   6.270
 4111SOL    HW113232   5.634   4.720   6.266
 4111SOL    HW213233   5.771   4.717   6.178
 4112SOL     OW13234   4.958   6.330   4.670
 4112SOL    HW113235   5.000   6.393   4.735
 4112SOL    HW213236   4.859   6.341   4.672
 4113SOL     OW13237   5.720   5.408   4.986
 4113SOL    HW113238   5.714   5.319   4.941
 4113SOL    HW213239   5.645   5.418   5.051
 4114SOL     OW13240   3.973   2.127   4.169
 4114SOL    HW113241   3.876   2.123   4.147
 4114SOL    HW213242   4.020   2.181   4.099
 4115SOL     OW13243   2.894   5.088   2.177
 4115SOL    HW113244   2.956   5.152   2.222
 4115SOL    HW213245   2.943   5.005   2.153
 4116SOL     OW13246   3.790   1.617   2.831
 4116SOL    HW113247   3.797   1.530   2.781
 4116SOL    HW213248   3.694   1.635   2.853
 4117SOL     OW13249   1.254   3.791   2.506
 4117SOL    HW113250   1.334   3.848   2.493
 4117SOL    HW213251   1.221   3.800   2.600
 4118SOL     OW13252   4.961   6.835   0.610
 4118SOL    HW113253   4.916   6.765   0.665
 4118SOL    HW213254   4.997   6.793   0.526
 4119SOL     OW13255   3.095   1.829   3.926
 4119SOL    HW113256   3.068   1.789   4.014
 4119SOL    HW213257   3.034   1.795   3.855
 4120SOL     OW13258   3.874   0.845   5.532
 4120SOL    HW113259   3.938   0.820   5.605
 4120SOL    HW213260   3.822   0.926   5.561
 4121SOL     OW13261   6.626   0.237   3.446
 4121SOL    HW113262   6.708   0.206   3.397
 4121SOL    HW213263   6.626   0.198   3.538
 4122SOL     OW13264   1.369   0.307   4.780
 4122SOL    HW113265   1.452   0.259   4.750
 4122SOL    HW213266   1.348   0.381   4.717
 4123SOL     OW13267   4.342   4.719   5.356
 4123SOL    HW113268   4.374   4.813   5.359
 4123SOL    HW213269   4.283   4.701   5.435
 4124SOL     OW13270   6.572   6.292   0.779
 4124SOL    HW113271   6.579   6.202   0.823
 4124SOL    HW213272   6.589   6.364   0.846
 4125SOL     OW13273   4.409   1.877   2.805
 4125SOL    HW113274   4.419   1.977   2.796
 4125SOL    HW213275   4.439   1.849   2.895
 4126SOL     OW13276   2.007   3.229   3.154
 4126SOL    HW113277   1.931   3.249   3.091
 4126SOL    HW213278   2.087   3.203   3.101
 4127SOL     OW13279   5.651   3.521   5.476
 4127SOL    HW113280   5.579   3.544   5.541
 4127SOL    HW213281   5.698   3.438   5.506
 4128SOL     OW13282   1.022   3.122   1.373
 4128SOL    HW113283   1.040   3.141   1.277
 4128SOL    HW213284   1.046   3.202   1.428
 4129SOL     OW13285   3.373   1.100   0.019
 4129SOL    HW113286   3.286   1.057   7.015
 4129SOL    HW213287   3.449   1.043   7.012
 4130SOL     OW13288   6.382   3.026   0.989
 4130SOL    HW113289   6.286   3.025   0.961
 4130SOL    HW213290   6.440   3.019   0.907
 4131SOL     OW13291   0.067   1.130   3.573
 4131SOL    HW113292   0.149   1.107   3.520
 4131SOL    HW213293   0.032   1.219   3.543
 4132SOL     OW13294   4.827   3.940   3.372
 4132SOL    HW113295   4.866   3.848   3.368
 4132SOL    HW213296   4.795   3.966   3.281
 4133SOL     OW13297   3.238   5.951   1.592
 4133SOL    HW113298   3.325   5.980   1.552
 4133SOL    HW213299   3.164   5.967   1.525
 4134SOL     OW13300   2.414   3.891   1.181
 4134SOL    HW113301   2.501   3.857   1.145
 4134SOL    HW213302   2.343   3.879   1.112
 4135SOL     OW13303   0.479   2.217   2.046
 4135SOL    HW113304   0.402   2.267   2.006
 4135SOL    HW213305   0.564   2.246   2.003
 4136SOL     OW13306   1.158   3.120   2.842
 4136SOL    HW113307   1.213   3.154   2.918
 4136SOL    HW213308   1.084   3.062   2.877
 4137SOL     OW13309   1.745   3.773   1.290
 4137SOL    HW113310   1.786   3.747   1.378
 4137SOL    HW213311   1.756   3.871   1.275
 4138SOL     OW13312   4.173   5.742   2.707
 4138SOL    HW113313   4.173   5.783   2.616
 4138SOL    HW213314   4.207   5.810   2.773
 4139SOL     OW13315   1.725   1.719   5.198
 4139SOL    HW113316   1.702   1.769   5.282
 4139SOL    HW213317   1.641   1.692   5.151
 4140SOL     OW13318   3.380   0.822   5.142
 4140SOL    HW113319   3.350   0.847   5.050
 4140SOL    HW213320   3.462   0.765   5.136
 4141SOL     OW13321   5.118   6.230   1.299
 4141SOL    HW113322   5.080   6.207   1.389
 4141SOL    HW213323   5.078   6.316   1.267
 4142SOL     OW13324   6.491   4.858   1.136
 4142SOL    HW113325   6.470   4.928   1.204
 4142SOL    HW213326   6.527   4.902   1.053
 4143SOL     OW13327   5.720   2.309   0.909
 4143SOL    HW113328   5.628   2.293   0.873
 4143SOL    HW213329   5.713   2.359   0.996
 4144SOL     OW13330   4.966   1.628   6.900
 4144SOL    HW113331   4.894   1.567   6.868
 4144SOL    HW213332   4.997   1.686   6.824
 4145SOL     OW13333   0.411   6.242   1.173
 4145SOL    HW113334   0.396   6.336   1.144
 4145SOL    HW213335   0.502   6.234   1.215
 4146SOL     OW13336   6.081   0.468   3.090
 4146SOL    HW113337   6.058   0.564   3.075
 4146SOL    HW213338   5.997   0.414   3.095
 4147SOL     OW13339   4.898   5.032   5.966
 4147SOL    HW113340   4.988   4.990   5.967
 4147SOL    HW213341   4.834   4.974   6.016
 4148SOL     OW13342   2.496   0.429   4.922
 4148SOL    HW113343   2.443   0.473   4.994
 4148SOL    HW213344   2.497   0.330   4.937
 4149SOL     OW13345   0.272   4.080   1.305
 4149SOL    HW113346   0.213   4.151   1.345
 4149SOL    HW213347   0.280   4.095   1.206
 4150SOL     OW13348   1.558   0.492   5.991
 4150SOL    HW113349   1.627   0.462   5.925
 4150SOL    HW213350   1.470   0.500   5.945
 4151SOL     OW13351   3.205   5.895   5.586
 4151SOL    HW113352   3.208   5.795   5.578
 4151SOL    HW213353   3.163   5.933   5.503
 4152SOL     OW13354   4.103   5.843   1.231
 4152SOL    HW113355   4.135   5.926   1.275
 4152SOL    HW213356   4.056   5.785   1.298
 4153SOL     OW13357   5.788   5.252   0.973
 4153SOL    HW113358   5.857   5.235   1.044
 4153SOL    HW213359   5.834   5.264   0.885
 4154SOL     OW13360   6.734   4.956   3.536
 4154SOL    HW113361   6.816   4.901   3.520
 4154SOL    HW213362   6.743   5.005   3.623
 4155SOL     OW13363   0.215   1.231   1.869
 4155SOL    HW113364   0.273   1.307   1.842
 4155SOL    HW213365   0.182   1.245   1.962
 4156SOL     OW13366   5.999   6.175   4.672
 4156SOL    HW113367   5.949   6.094   4.703
 4156SOL    HW213368   5.967   6.256   4.722
 4157SOL     OW13369   4.929   5.718   3.979
 4157SOL    HW113370   4.991   5.790   4.010
 4157SOL    HW213371   4.982   5.635   3.960
 4158SOL     OW13372   0.467   3.161   1.677
 4158SOL    HW113373   0.478   3.141   1.774
 4158SOL    HW213374   0.398   3.232   1.665
 4159SOL     OW13375   2.164   3.017   2.930
 4159SOL    HW113376   2.177   3.115   2.915
 4159SOL    HW213377   2.214   2.988   3.011
 4160SOL     OW13378   5.484   1.005   0.552
 4160SOL    HW113379   5.515   0.980   0.460
 4160SOL    HW213380   5.556   1.057   0.598
 4161SOL     OW13381   0.920   2.034   0.790
 4161SOL    HW113382   0.911   1.965   0.719
 4161SOL    HW213383   0.961   1.993   0.872
 4162SOL     OW13384   6.580   5.804   0.237
 4162SOL    HW113385   6.633   5.875   0.190
 4162SOL    HW213386   6.555   5.837   0.328
 4163SOL     OW13387   4.902   0.544   2.969
 4163SOL    HW113388   4.981   0.484   2.956
 4163SOL    HW213389   4.900   0.612   2.895
 4164SOL     OW13390   1.777   6.494   5.815
 4164SOL    HW113391   1.844   6.557   5.774
 4164SOL    HW213392   1.810   6.464   5.905
 4165SOL     OW13393   4.303   0.717   5.901
 4165SOL    HW113394   4.216   0.697   5.946
 4165SOL    HW213395   4.288   0.781   5.825
 4166SOL     OW13396   5.574   1.696   0.444
 4166SOL    HW113397   5.643   1.624   0.439
 4166SOL    HW213398   5.501   1.676   0.379
 4167SOL     OW13399   2.323   4.489   0.342
 4167SOL    HW113400   2.246   4.467   0.402
 4167SOL    HW213401   2.290   4.499   0.248
 4168SOL     OW13402   0.215   4.592   1.459
 4168SOL    HW113403   0.237   4.574   1.363
 4168SOL    HW213404   0.230   4.509   1.513
 4169SOL     OW13405   5.655   5.126   4.950
 4169SOL    HW113406   5.665   5.099   5.046
 4169SOL    HW213407   5.725   5.080   4.895
 4170SOL     OW13408   4.531   3.480   6.781
 4170SOL    HW113409   4.442   3.512   6.811
 4170SOL    HW213410   4.584   3.557   6.745
 4171SOL     OW13411   6.548   5.773   0.957
 4171SOL    HW113412   6.629   5.722   0.928
 4171SOL    HW213413   6.468   5.712   0.958
 4172SOL     OW13414   1.295   1.918   6.110
 4172SOL    HW113415   1.199   1.904   6.135
 4172SOL    HW213416   1.305   2.008   6.067
 4173SOL     OW13417   5.135   4.477   4.533
 4173SOL    HW113418   5.164   4.386   4.504
 4173SOL    HW213419   5.037   4.476   4.554
 4174SOL     OW13420   4.718   1.592   2.666
 4174SOL    HW113421   4.687   1.617   2.574
 4174SOL    HW213422   4.652   1.531   2.708
 4175SOL     OW13423   2.168   5.374   4.513
 4175SOL    HW113424   2.069   5.386   4.521
 4175SOL    HW213425   2.200   5.317   4.588
 4176SOL     OW13426   3.616   5.984   1.842
 4176SOL    HW113427   3.690   6.040   1.880
 4176SOL    HW213428   3.656   5.914   1.783
 4177SOL     OW13429   5.943   5.011   5.169
 4177SOL    HW113430   5.866   4.949   5.150
 4177SOL    HW213431   6.010   4.964   5.227
 4178SOL     OW13432   4.194   6.979   4.352
 4178SOL    HW113433   4.205   6.922   4.271
 4178SOL    HW213434   4.187   0.052   4.324
 4179SOL     OW13435   5.686   3.225   3.009
 4179SOL    HW113436   5.777   3.207   3.044
 4179SOL    HW213437   5.639   3.291   3.067
 4180SOL     OW13438   4.779   3.946   0.861
 4180SOL    HW113439   4.835   4.017   0.817
 4180SOL    HW213440   4.756   3.975   0.954
 4181SOL     OW13441   3.674   1.016   0.459
 4181SOL    HW113442   3.600   0.960   0.497
 4181SOL    HW213443   3.708   0.974   0.375
 4182SOL     OW13444   1.148   6.852   3.815
 4182SOL    HW113445   1.139   6.798   3.732
 4182SOL    HW213446   1.153   6.949   3.791
 4183SOL     OW13447   2.867   1.313   0.036
 4183SOL    HW113448   2.865   1.213   0.046
 4183SOL    HW213449   2.840   1.338   6.966
 4184SOL     OW13450   4.178   6.156   2.357
 4184SOL    HW113451   4.108   6.226   2.366
 4184SOL    HW213452   4.202   6.144   2.261
 4185SOL     OW13453   0.517   4.712   2.743
 4185SOL    HW113454   0.479   4.688   2.833
 4185SOL    HW213455   0.476   4.654   2.673
 4186SOL     OW13456   3.025   4.969   6.898
 4186SOL    HW113457   3.007   4.900   6.968
 4186SOL    HW213458   2.940   4.995   6.853
 4187SOL     OW13459   3.607   3.266   5.502
 4187SOL    HW113460   3.616   3.167   5.493
 4187SOL    HW213461   3.686   3.302   5.552
 4188SOL     OW13462   5.131   0.427   4.913
 4188SOL    HW113463   5.198   0.368   4.868
 4188SOL    HW213464   5.042   0.381   4.913
 4189SOL     OW13465   3.368   5.097   5.559
 4189SOL    HW113466   3.375   5.042   5.642
 4189SOL    HW213467   3.281   5.146   5.558
 4190SOL     OW13468   0.732   0.615   0.490
 4190SOL    HW113469   0.776   0.645   0.405
 4190SOL    HW213470   0.714   0.695   0.548
 4191SOL     OW13471   4.856   4.422   3.169
 4191SOL    HW113472   4.850   4.508   3.219
 4191SOL    HW213473   4.838   4.438   3.072
 4192SOL     OW13474   0.944   0.724   3.976
 4192SOL    HW113475   0.988   0.636   3.959
 4192SOL    HW213476   0.855   0.726   3.931
 4193SOL     OW13477   0.336   1.452   1.796
 4193SOL    HW113478   0.339   1.506   1.880
 4193SOL    HW213479   0.429   1.427   1.769
 4194SOL     OW13480   5.966   0.453   4.057
 4194SOL    HW113481   5.951   0.521   4.128
 4194SOL    HW213482   6.062   0.424   4.058
 4195SOL     OW13483   3.908   6.384   1.869
 4195SOL    HW113484   3.840   6.416   1.803
 4195SOL    HW213485   3.942   6.461   1.922
 4196SOL     OW13486   6.181   2.017   3.055
 4196SOL    HW113487   6.120   1.973   3.120
 4196SOL    HW213488   6.133   2.090   3.007
 4197SOL     OW13489   4.823   5.621   5.846
 4197SOL    HW113490   4.853   5.586   5.757
 4197SOL    HW213491   4.888   5.590   5.916
 4198SOL     OW13492   5.738   2.444   0.082
 4198SOL    HW113493   5.685   2.360   0.088
 4198SOL    HW213494   5.708   2.498   0.004
 4199SOL     OW13495   1.968   2.490   6.506
 4199SOL    HW113496   2.036   2.556   6.477
 4199SOL    HW213497   1.945   2.430   6.430
 4200SOL     OW13498   3.859   0.107   5.754
 4200SOL    HW113499   3.935   0.169   5.736
 4200SOL    HW213500   3.835   0.109   5.851
 4201SOL     OW13501   5.896   6.896   3.618
 4201SOL    HW113502   5.911   6.980   3.565
 4201SOL    HW213503   5.982   6.847   3.630
 4202SOL     OW13504   3.843   5.612   5.346
 4202SOL    HW113505   3.809   5.640   5.436
 4202SOL    HW213506   3.799   5.668   5.276
 4203SOL     OW13507   4.087   5.326   0.374
 4203SOL    HW113508   4.111   5.256   0.441
 4203SOL    HW213509   4.148   5.405   0.385
 4204SOL     OW13510   3.594   3.795   2.773
 4204SOL    HW113511   3.579   3.837   2.684
 4204SOL    HW213512   3.635   3.863   2.835
 4205SOL     OW13513   4.047   5.482   3.483
 4205SOL    HW113514   4.140   5.468   3.450
 4205SOL    HW213515   4.045   5.562   3.543
 4206SOL     OW13516   6.856   0.428   6.001
 4206SOL    HW113517   6.806   0.358   6.053
 4206SOL    HW213518   6.949   0.435   6.036
 4207SOL     OW13519   1.888   1.610   1.028
 4207SOL    HW113520   1.845   1.556   1.099
 4207SOL    HW213521   1.970   1.654   1.064
 4208SOL     OW13522   0.301   2.752   6.024
 4208SOL    HW113523   0.284   2.825   6.090
 4208SOL    HW213524   0.242   2.763   5.945
 4209SOL     OW13525   0.234   0.374   4.181
 4209SOL    HW113526   0.290   0.396   4.101
 4209SOL    HW213527   0.149   0.332   4.151
 4210SOL     OW13528   3.458   3.497   2.150
 4210SOL    HW113529   3.543   3.544   2.125
 4210SOL    HW213530   3.401   3.559   2.205
 4211SOL     OW13531   4.470   6.270   6.539
 4211SOL    HW113532   4.451   6.326   6.620
 4211SOL    HW213533   4.531   6.321   6.478
 4212SOL     OW13534   6.171   1.965   2.736
 4212SOL    HW113535   6.243   1.900   2.712
 4212SOL    HW213536   6.087   1.915   2.758
 4213SOL     OW13537   1.823   1.050   1.051
 4213SOL    HW113538   1.866   0.985   1.114
 4213SOL    HW213539   1.892   1.086   0.988
 4214SOL     OW13540   1.190   5.358   5.184
 4214SOL    HW113541   1.153   5.404   5.103
 4214SOL    HW213542   1.267   5.299   5.157
 4215SOL     OW13543   5.588   0.023   5.561
 4215SOL    HW113544   5.499   0.006   5.605
 4215SOL    HW213545   5.653   0.057   5.629
 4216SOL     OW13546   1.225   1.248   3.064
 4216SOL    HW113547   1.176   1.161   3.068
 4216SOL    HW213548   1.320   1.232   3.038
 4217SOL     OW13549   0.838   0.458   2.099
 4217SOL    HW113550   0.836   0.394   2.023
 4217SOL    HW213551   0.823   0.551   2.066
 4218SOL     OW13552   4.366   0.904   1.805
 4218SOL    HW113553   4.290   0.839   1.804
 4218SOL    HW213554   4.340   0.984   1.858
 4219SOL     OW13555   3.483   5.363   4.045
 4219SOL    HW113556   3.488   5.424   4.124
 4219SOL    HW213557   3.559   5.299   4.047
 4220SOL     OW13558   5.612   2.496   4.236
 4220SOL    HW113559   5.605   2.396   4.239
 4220SOL    HW213560   5.673   2.524   4.161
 4221SOL     OW13561   5.893   5.200   6.915
 4221SOL    HW113562   5.863   5.199   7.011
 4221SOL    HW213563   5.812   5.204   6.855
 4222SOL     OW13564   6.240   2.236   2.804
 4222SOL    HW113565   6.186   2.317   2.778
 4222SOL    HW213566   6.183   2.155   2.795
 4223SOL     OW13567   3.859   3.094   6.000
 4223SOL    HW113568   3.861   3.001   5.965
 4223SOL    HW213569   3.922   3.103   6.077
 4224SOL     OW13570   5.278   3.626   3.932
 4224SOL    HW113571   5.275   3.711   3.879
 4224SOL    HW213572   5.284   3.548   3.870
 4225SOL     OW13573   4.016   0.806   5.767
 4225SOL    HW113574   3.988   0.834   5.859
 4225SOL    HW213575   3.997   0.708   5.755
 4226SOL     OW13576   0.924   0.456   2.562
 4226SOL    HW113577   0.825   0.461   2.558
 4226SOL    HW213578   0.962   0.479   2.472
 4227SOL     OW13579   3.875   4.796   1.214
 4227SOL    HW113580   3.890   4.715   1.270
 4227SOL    HW213581   3.865   4.770   1.118
 4228SOL     OW13582   0.736   4.211   4.959
 4228SOL    HW113583   0.637   4.197   4.971
 4228SOL    HW213584   0.770   4.148   4.889
 4229SOL     OW13585   5.140   5.611   5.581
 4229SOL    HW113586   5.166   5.622   5.485
 4229SOL    HW213587   5.079   5.532   5.590
 4230SOL     OW13588   1.362   6.627   2.891
 4230SOL    HW113589   1.438   6.681   2.926
 4230SOL    HW213590   1.365   6.626   2.791
 4231SOL     OW13591   5.742   6.567   5.446
 4231SOL    HW113592   5.663   6.626   5.428
 4231SOL    HW213593   5.724   6.475   5.411
 4232SOL     OW13594   0.015   4.688   2.634
 4232SOL    HW113595   6.970   4.708   2.705
 4232SOL    HW213596   0.056   4.773   2.602
 4233SOL     OW13597   6.871   0.976   6.401
 4233SOL    HW113598   6.789   1.034   6.400
 4233SOL    HW213599   6.937   1.012   6.467
 4234SOL     OW13600   2.477   6.478   5.611
 4234SOL    HW113601   2.518   6.489   5.702
 4234SOL    HW213602   2.434   6.564   5.583
 4235SOL     OW13603   6.000   4.056   5.747
 4235SOL    HW113604   6.088   4.055   5.698
 4235SOL    HW213605   6.016   4.042   5.845
 4236SOL     OW13606   6.701   3.609   2.927
 4236SOL    HW113607   6.647   3.590   3.008
 4236SOL    HW213608   6.790   3.645   2.953
 4237SOL     OW13609   5.676   5.634   2.206
 4237SOL    HW113610   5.689   5.549   2.155
 4237SOL    HW213611   5.588   5.632   2.253
 4238SOL     OW13612   3.013   5.192   2.877
 4238SOL    HW113613   2.914   5.187   2.888
 4238SOL    HW213614   3.052   5.101   2.891
 4239SOL     OW13615   5.516   1.817   3.195
 4239SOL    HW113616   5.507   1.821   3.096
 4239SOL    HW213617   5.463   1.739   3.230
 4240SOL     OW13618   2.298   0.004   6.832
 4240SOL    HW113619   2.371   6.962   6.810
 4240SOL    HW213620   2.320   0.051   6.918
 4241SOL     OW13621   6.235   1.229   0.283
 4241SOL    HW113622   6.156   1.172   0.260
 4241SOL    HW213623   6.208   1.325   0.283
 4242SOL     OW13624   2.554   0.821   3.683
 4242SOL    HW113625   2.652   0.842   3.684
 4242SOL    HW213626   2.538   0.737   3.736
 4243SOL     OW13627   6.412   3.005   3.138
 4243SOL    HW113628   6.406   3.093   3.185
 4243SOL    HW213629   6.500   2.998   3.091
 4244SOL     OW13630   4.377   4.393   1.222
 4244SOL    HW113631   4.370   4.414   1.124
 4244SOL    HW213632   4.466   4.422   1.255
 4245SOL     OW13633   0.092   1.032   6.088
 4245SOL    HW113634   0.086   0.977   6.172
 4245SOL    HW213635   0.094   1.129   6.113
 4246SOL     OW13636   6.781   3.654   2.663
 4246SOL    HW113637   6.791   3.619   2.756
 4246SOL    HW213638   6.852   3.614   2.605
 4247SOL     OW13639   2.779   4.864   3.197
 4247SOL    HW113640   2.746   4.957   3.183
 4247SOL    HW213641   2.813   4.828   3.110
 4248SOL     OW13642   2.097   2.083   3.594
 4248SOL    HW113643   2.008   2.045   3.568
 4248SOL    HW213644   2.103   2.091   3.693
 4249SOL     OW13645   5.670   2.357   3.846
 4249SOL    HW113646   5.743   2.423   3.828
 4249SOL    HW213647   5.697   2.296   3.920
 4250SOL     OW13648   6.859   5.704   3.434
 4250SOL    HW113649   6.880   5.608   3.452
 4250SOL    HW213650   6.907   5.762   3.500
 4251SOL     OW13651   5.351   4.035   1.303
 4251SOL    HW113652   5.251   4.042   1.303
 4251SOL    HW213653   5.379   3.961   1.365
 4252SOL     OW13654   5.790   6.819   6.608
 4252SOL    HW113655   5.714   6.881   6.588
 4252SOL    HW213656   5.832   6.789   6.522
 4253SOL     OW13657   3.149   6.915   1.263
 4253SOL    HW113658   3.224   6.875   1.210
 4253SOL    HW213659   3.099   6.980   1.205
 4254SOL     OW13660   1.176   3.595   1.928
 4254SOL    HW113661   1.150   3.631   1.839
 4254SOL    HW213662   1.095   3.593   1.988
 4255SOL     OW13663   6.938   3.934   4.181
 4255SOL    HW113664   6.903   3.846   4.214
 4255SOL    HW213665   0.002   3.954   4.225
 4256SOL     OW13666   1.594   5.991   0.842
 4256SOL    HW113667   1.570   6.043   0.925
 4256SOL    HW213668   1.619   6.054   0.769
 4257SOL     OW13669   2.867   0.675   4.331
 4257SOL    HW113670   2.902   0.767   4.310
 4257SOL    HW213671   2.780   0.661   4.284
 4258SOL     OW13672   3.409   5.898   0.760
 4258SOL    HW113673   3.344   5.839   0.807
 4258SOL    HW213674   3.383   5.994   0.775
 4259SOL     OW13675   2.496   0.396   0.977
 4259SOL    HW113676   2.500   0.333   0.900
 4259SOL    HW213677   2.581   0.393   1.028
 4260SOL     OW13678   5.924   0.547   1.625
 4260SOL    HW113679   5.958   0.550   1.719
 4260SOL    HW213680   5.846   0.610   1.616
 4261SOL     OW13681   2.588   0.276   2.672
 4261SOL    HW113682   2.545   0.223   2.599
 4261SOL    HW213683   2.680   0.240   2.690
 4262SOL     OW13684   0.505   4.191   6.342
 4262SOL    HW113685   0.442   4.223   6.412
 4262SOL    HW213686   0.597   4.226   6.361
 4263SOL     OW13687   3.046   0.686   2.253
 4263SOL    HW113688   3.023   0.588   2.251
 4263SOL    HW213689   3.006   0.728   2.334
 4264SOL     OW13690   6.465   1.737   3.568
 4264SOL    HW113691   6.423   1.793   3.496
 4264SOL    HW213692   6.427   1.762   3.656
 4265SOL     OW13693   4.329   1.606   0.789
 4265SOL    HW113694   4.309   1.704   0.794
 4265SOL    HW213695   4.304   1.571   0.699
 4266SOL     OW13696   1.451   5.802   6.196
 4266SOL    HW113697   1.392   5.776   6.119
 4266SOL    HW213698   1.546   5.806   6.165
 4267SOL     OW13699   2.111   3.927   3.822
 4267SOL    HW113700   2.019   3.966   3.819
 4267SOL    HW213701   2.179   4.000   3.814
 4268SOL     OW13702   0.933   5.632   6.384
 4268SOL    HW113703   1.002   5.648   6.314
 4268SOL    HW213704   0.844   5.615   6.341
 4269SOL     OW13705   2.697   0.703   2.416
 4269SOL    HW113706   2.655   0.751   2.493
 4269SOL    HW213707   2.634   0.704   2.338
 4270SOL     OW13708   4.076   3.642   3.198
 4270SOL    HW113709   4.104   3.572   3.133
 4270SOL    HW213710   3.976   3.647   3.200
 4271SOL     OW13711   6.693   1.194   6.869
 4271SOL    HW113712   6.663   1.116   6.923
 4271SOL    HW213713   6.679   1.278   6.921
 4272SOL     OW13714   6.629   2.270   4.507
 4272SOL    HW113715   6.728   2.285   4.497
 4272SOL    HW213716   6.609   2.173   4.495
 4273SOL     OW13717   4.628   7.000   5.019
 4273SOL    HW113718   4.645   6.918   4.964
 4273SOL    HW213719   4.569   0.040   4.969
 4274SOL     OW13720   1.021   6.965   1.483
 4274SOL    HW113721   0.952   6.917   1.429
 4274SOL    HW213722   1.106   6.913   1.483
 4275SOL     OW13723   6.421   2.537   4.800
 4275SOL    HW113724   6.466   2.537   4.711
 4275SOL    HW213725   6.408   2.443   4.832
 4276SOL     OW13726   2.212   5.373   3.979
 4276SOL    HW113727   2.190   5.278   3.998
 4276SOL    HW213728   2.164   5.403   3.897
 4277SOL     OW13729   6.289   4.817   3.171
 4277SOL    HW113730   6.345   4.893   3.205
 4277SOL    HW213731   6.198   4.822   3.212
 4278SOL     OW13732   0.081   6.801   5.236
 4278SOL    HW113733   0.013   6.873   5.247
 4278SOL    HW213734   0.099   6.787   5.139
 4279SOL     OW13735   3.466   1.015   3.896
 4279SOL    HW113736   3.503   0.960   3.971
 4279SOL    HW213737   3.366   1.017   3.903
 4280SOL     OW13738   5.038   0.620   6.442
 4280SOL    HW113739   4.996   0.689   6.383
 4280SOL    HW213740   5.015   0.638   6.537
 4281SOL     OW13741   6.900   4.266   3.405
 4281SOL    HW113742   6.859   4.325   3.335
 4281SOL    HW213743   6.846   4.271   3.489
 4282SOL     OW13744   3.826   4.273   6.165
 4282SOL    HW113745   3.849   4.346   6.100
 4282SOL    HW213746   3.802   4.190   6.115
 4283SOL     OW13747   1.994   0.827   2.797
 4283SOL    HW113748   1.997   0.729   2.818
 4283SOL    HW213749   1.907   0.848   2.752
 4284SOL     OW13750   4.428   4.862   1.182
 4284SOL    HW113751   4.423   4.797   1.106
 4284SOL    HW213752   4.430   4.955   1.146
 4285SOL     OW13753   1.647   0.546   5.577
 4285SOL    HW113754   1.607   0.482   5.511
 4285SOL    HW213755   1.678   0.495   5.657
 4286SOL     OW13756   5.164   6.712   5.664
 4286SOL    HW113757   5.183   6.810   5.665
 4286SOL    HW213758   5.220   6.666   5.733
 4287SOL     OW13759   5.830   1.088   5.653
 4287SOL    HW113760   5.823   1.038   5.567
 4287SOL    HW213761   5.884   1.172   5.638
 4288SOL     OW13762   0.438   5.789   3.807
 4288SOL    HW113763   0.449   5.700   3.764
 4288SOL    HW213764   0.520   5.844   3.790
 4289SOL     OW13765   0.241   2.971   6.226
 4289SOL    HW113766   0.157   3.025   6.218
 4289SOL    HW213767   0.228   2.898   6.293
 4290SOL     OW13768   1.182   6.071   3.748
 4290SOL    HW113769   1.090   6.038   3.727
 4290SOL    HW213770   1.218   6.122   3.670
 4291SOL     OW13771   4.776   3.426   0.464
 4291SOL    HW113772   4.869   3.461   0.471
 4291SOL    HW213773   4.747   3.425   0.368
 4292SOL     OW13774   5.407   3.077   0.141
 4292SOL    HW113775   5.337   3.005   0.149
 4292SOL    HW213776   5.483   3.056   0.203
 4293SOL     OW13777   2.617   2.465   6.750
 4293SOL    HW113778   2.652   2.546   6.703
 4293SOL    HW213779   2.587   2.489   6.842
 4294SOL     OW13780   2.053   2.288   6.757
 4294SOL    HW113781   2.036   2.360   6.825
 4294SOL    HW213782   2.113   2.218   6.797
 4295SOL     OW13783   3.894   5.568   4.931
 4295SOL    HW113784   3.858   5.619   5.009
 4295SOL    HW213785   3.821   5.547   4.867
 4296SOL     OW13786   3.250   6.821   0.797
 4296SOL    HW113787   3.324   6.859   0.742
 4296SOL    HW213788   3.219   6.735   0.755
 4297SOL     OW13789   5.167   7.016   0.536
 4297SOL    HW113790   5.212   6.952   0.473
 4297SOL    HW213791   5.094   6.969   0.585
 4298SOL     OW13792   3.849   5.148   0.521
 4298SOL    HW113793   3.835   5.175   0.617
 4298SOL    HW213794   3.938   5.180   0.491
 4299SOL     OW13795   1.340   3.059   6.667
 4299SOL    HW113796   1.371   3.077   6.574
 4299SOL    HW213797   1.276   3.131   6.695
 4300SOL     OW13798   3.571   6.769   0.183
 4300SOL    HW113799   3.613   6.679   0.201
 4300SOL    HW213800   3.613   6.809   0.102
 4301SOL     OW13801   4.099   0.776   1.754
 4301SOL    HW113802   4.025   0.743   1.812
 4301SOL    HW213803   4.061   0.798   1.663
 4302SOL     OW13804   0.978   0.029   6.106
 4302SOL    HW113805   0.885   0.054   6.082
 4302SOL    HW213806   0.991   0.038   6.205
 4303SOL     OW13807   6.845   4.770   4.198
 4303SOL    HW113808   6.943   4.755   4.213
 4303SOL    HW213809   6.829   4.866   4.176
 4304SOL     OW13810   3.187   4.003   2.678
 4304SOL    HW113811   3.204   3.947   2.597
 4304SOL    HW213812   3.265   4.064   2.692
 4305SOL     OW13813   0.156   0.047   5.532
 4305SOL    HW113814   0.073   7.021   5.558
 4305SOL    HW213815   0.155   0.063   5.433
 4306SOL     OW13816   5.149   5.109   5.396
 4306SOL    HW113817   5.181   5.138   5.486
 4306SOL    HW213818   5.049   5.116   5.392
 4307SOL     OW13819   5.703   3.833   5.948
 4307SOL    HW113820   5.637   3.908   5.949
 4307SOL    HW213821   5.739   3.822   5.855
 4308SOL     OW13822   5.781   4.453   1.075
 4308SOL    HW113823   5.769   4.481   1.170
 4308SOL    HW213824   5.711   4.497   1.018
 4309SOL     OW13825   0.978   1.335   0.125
 4309SOL    HW113826   1.057   1.380   0.083
 4309SOL    HW213827   0.997   1.237   0.133
 4310SOL     OW13828   2.262   2.891   2.089
 4310SOL    HW113829   2.228   2.957   2.157
 4310SOL    HW213830   2.278   2.803   2.134
 4311SOL     OW13831   1.906   6.311   2.555
 4311SOL    HW113832   1.848   6.392   2.546
 4311SOL    HW213833   1.983   6.318   2.492
 4312SOL     OW13834   1.823   5.826   1.582
 4312SOL    HW113835   1.922   5.815   1.576
 4312SOL    HW213836   1.801   5.910   1.632
 4313SOL     OW13837   4.504   1.416   1.385
 4313SOL    HW113838   4.554   1.455   1.307
 4313SOL    HW213839   4.416   1.462   1.395
 4314SOL     OW13840   5.913   1.522   4.558
 4314SOL    HW113841   5.907   1.423   4.570
 4314SOL    HW213842   5.935   1.542   4.462
 4315SOL     OW13843   2.670   6.237   2.356
 4315SOL    HW113844   2.730   6.172   2.401
 4315SOL    HW213845   2.689   6.330   2.389
 4316SOL     OW13846   5.271   1.180   1.813
 4316SOL    HW113847   5.249   1.264   1.863
 4316SOL    HW213848   5.297   1.203   1.719
 4317SOL     OW13849   4.886   2.602   4.944
 4317SOL    HW113850   4.817   2.559   4.886
 4317SOL    HW213851   4.916   2.688   4.902
 4318SOL     OW13852   0.238   2.544   4.779
 4318SOL    HW113853   0.224   2.643   4.783
 4318SOL    HW213854   0.171   2.498   4.837
 4319SOL     OW13855   1.850   1.242   0.439
 4319SOL    HW113856   1.927   1.233   0.375
 4319SOL    HW213857   1.773   1.188   0.406
 4320SOL     OW13858   4.835   4.842   0.309
 4320SOL    HW113859   4.872   4.935   0.321
 4320SOL    HW213860   4.878   4.800   0.229
 4321SOL     OW13861   6.790   6.227   5.329
 4321SOL    HW113862   6.697   6.263   5.327
 4321SOL    HW213863   6.852   6.292   5.284
 4322SOL     OW13864   5.970   2.897   0.026
 4322SOL    HW113865   6.053   2.849   0.055
 4322SOL    HW213866   5.943   2.865   6.958
 4323SOL     OW13867   4.768   3.994   0.478
 4323SOL    HW113868   4.717   4.025   0.398
 4323SOL    HW213869   4.836   3.927   0.450
 4324SOL     OW13870   5.791   4.092   6.913
 4324SOL    HW113871   5.786   4.069   7.010
 4324SOL    HW213872   5.807   4.009   6.860
 4325SOL     OW13873   2.126   1.340   1.609
 4325SOL    HW113874   2.193   1.396   1.560
 4325SOL    HW213875   2.096   1.266   1.549
 4326SOL     OW13876   4.741   4.898   3.686
 4326SOL    HW113877   4.817   4.931   3.630
 4326SOL    HW213878   4.733   4.953   3.769
 4327SOL     OW13879   5.778   6.041   1.918
 4327SOL    HW113880   5.759   6.138   1.936
 4327SOL    HW213881   5.722   6.010   1.841
 4328SOL     OW13882   4.362   4.042   5.689
 4328SOL    HW113883   4.444   4.096   5.704
 4328SOL    HW213884   4.351   4.023   5.591
 4329SOL     OW13885   4.953   2.167   5.480
 4329SOL    HW113886   4.951   2.155   5.381
 4329SOL    HW213887   4.907   2.253   5.504
 4330SOL     OW13888   2.190   6.425   4.290
 4330SOL    HW113889   2.158   6.346   4.237
 4330SOL    HW213890   2.283   6.407   4.324
 4331SOL     OW13891   5.755   1.366   2.109
 4331SOL    HW113892   5.710   1.289   2.155
 4331SOL    HW213893   5.748   1.354   2.010
 4332SOL     OW13894   5.151   3.291   2.118
 4332SOL    HW113895   5.069   3.248   2.154
 4332SOL    HW213896   5.165   3.264   2.023
 4333SOL     OW13897   4.156   1.271   5.932
 4333SOL    HW113898   4.057   1.283   5.936
 4333SOL    HW213899   4.200   1.338   5.992
 4334SOL     OW13900   1.773   2.040   2.597
 4334SOL    HW113901   1.723   2.044   2.510
 4334SOL    HW213902   1.760   2.126   2.647
 4335SOL     OW13903   3.430   4.092   2.665
 4335SOL    HW113904   3.512   4.102   2.720
 4335SOL    HW213905   3.448   4.125   2.572
 4336SOL     OW13906   3.444   6.401   5.812
 4336SOL    HW113907   3.436   6.498   5.788
 4336SOL    HW213908   3.360   6.354   5.786
 4337SOL     OW13909   1.030   4.523   0.401
 4337SOL    HW113910   1.113   4.571   0.373
 4337SOL    HW213911   1.052   4.459   0.475
 4338SOL     OW13912   6.466   7.007   6.051
 4338SOL    HW113913   6.506   0.074   6.036
 4338SOL    HW213914   6.503   6.942   5.985
 4339SOL     OW13915   4.856   3.425   5.672
 4339SOL    HW113916   4.875   3.373   5.590
 4339SOL    HW213917   4.821   3.516   5.647
 4340SOL     OW13918   6.185   3.655   1.580
 4340SOL    HW113919   6.191   3.755   1.578
 4340SOL    HW213920   6.104   3.627   1.632
 4341SOL     OW13921   0.592   4.876   1.929
 4341SOL    HW113922   0.657   4.939   1.971
 4341SOL    HW213923   0.603   4.785   1.969
 4342SOL     OW13924   5.376   3.856   3.592
 4342SOL    HW113925   5.474   3.838   3.593
 4342SOL    HW213926   5.328   3.773   3.564
 4343SOL     OW13927   2.823   5.818   5.296
 4343SOL    HW113928   2.864   5.764   5.223
 4343SOL    HW213929   2.726   5.834   5.276
 4344SOL     OW13930   0.079   3.821   1.912
 4344SOL    HW113931   0.159   3.770   1.944
 4344SOL    HW213932   0.063   3.802   1.816
 4345SOL     OW13933   3.606   4.137   5.393
 4345SOL    HW113934   3.658   4.152   5.309
 4345SOL    HW213935   3.515   4.179   5.383
 4346SOL     OW13936   1.746   3.274   2.963
 4346SOL    HW113937   1.791   3.184   2.967
 4346SOL    HW213938   1.768   3.318   2.876
 4347SOL     OW13939   6.495   6.595   2.771
 4347SOL    HW113940   6.565   6.551   2.827
 4347SOL    HW213941   6.527   6.600   2.676
 4348SOL     OW13942   0.083   5.340   3.640
 4348SOL    HW113943   0.026   5.392   3.576
 4348SOL    HW213944   0.046   5.247   3.648
 4349SOL     OW13945   5.485   1.846   2.939
 4349SOL    HW113946   5.534   1.771   2.893
 4349SOL    HW213947   5.445   1.906   2.870
 4350SOL     OW13948   3.684   1.553   3.666
 4350SOL    HW113949   3.624   1.550   3.746
 4350SOL    HW213950   3.770   1.507   3.688
 4351SOL     OW13951   1.685   5.505   0.783
 4351SOL    HW113952   1.739   5.587   0.765
 4351SOL    HW213953   1.603   5.506   0.725
 4352SOL     OW13954   6.426   3.691   2.564
 4352SOL    HW113955   6.421   3.591   2.565
 4352SOL    HW213956   6.473   3.721   2.482
 4353SOL     OW13957   4.156   2.716   6.638
 4353SOL    HW113958   4.061   2.695   6.615
 4353SOL    HW213959   4.161   2.745   6.734
 4354SOL     OW13960   2.070   0.646   5.753
 4354SOL    HW113961   1.978   0.666   5.719
 4354SOL    HW213962   2.076   0.549   5.777
 4355SOL     OW13963   2.400   6.868   2.681
 4355SOL    HW113964   2.355   6.951   2.716
 4355SOL    HW213965   2.332   6.810   2.636
 4356SOL     OW13966   5.466   3.681   0.335
 4356SOL    HW113967   5.456   3.775   0.302
 4356SOL    HW213968   5.477   3.619   0.257
 4357SOL     OW13969   6.105   1.040   1.437
 4357SOL    HW113970   6.097   0.970   1.509
 4357SOL    HW213971   6.059   1.008   1.354
 4358SOL     OW13972   0.082   1.033   0.787
 4358SOL    HW113973   0.074   0.950   0.842
 4358SOL    HW213974   0.177   1.065   0.790
 4359SOL     OW13975   1.757   1.393   5.880
 4359SOL    HW113976   1.715   1.369   5.793
 4359SOL    HW213977   1.687   1.428   5.942
 4360SOL     OW13978   1.489   3.272   3.736
 4360SOL    HW113979   1.541   3.217   3.670
 4360SOL    HW213980   1.533   3.361   3.748
 4361SOL     OW13981   2.320   3.422   1.271
 4361SOL    HW113982   2.305   3.512   1.310
 4361SOL    HW213983   2.271   3.353   1.326
 4362SOL     OW13984   6.470   5.275   3.550
 4362SOL    HW113985   6.472   5.205   3.622
 4362SOL    HW213986   6.383   5.268   3.500
 4363SOL     OW13987   5.652   2.434   1.128
 4363SOL    HW113988   5.694   2.453   1.216
 4363SOL    HW213989   5.574   2.372   1.141
 4364SOL     OW13990   3.192   3.999   4.337
 4364SOL    HW113991   3.145   3.985   4.250
 4364SOL    HW213992   3.243   4.085   4.334
 4365SOL     OW13993   2.937   0.565   1.871
 4365SOL    HW113994   2.957   0.578   1.774
 4365SOL    HW213995   2.858   0.621   1.897
 4366SOL     OW13996   5.850   0.153   6.909
 4366SOL    HW113997   5.877   0.085   6.978
 4366SOL    HW213998   5.897   0.239   6.927
 4367SOL     OW13999   2.304   4.414   4.555
 4367SOL    HW114000   2.275   4.352   4.481
 4367SOL    HW214001   2.329   4.360   4.635
 4368SOL     OW14002   3.509   5.281   0.447
 4368SOL    HW114003   3.472   5.231   0.525
 4368SOL    HW214004   3.442   5.279   0.372
 4369SOL     OW14005   4.708   5.432   3.099
 4369SOL    HW114006   4.808   5.433   3.097
 4369SOL    HW214007   4.673   5.368   3.031
 4370SOL     OW14008   3.626   4.814   1.604
 4370SOL    HW114009   3.594   4.893   1.656
 4370SOL    HW214010   3.643   4.738   1.666
 4371SOL     OW14011   0.840   1.955   2.412
 4371SOL    HW114012   0.938   1.967   2.395
 4371SOL    HW214013   0.789   1.983   2.330
 4372SOL     OW14014   2.419   2.252   3.121
 4372SOL    HW114015   2.489   2.183   3.138
 4372SOL    HW214016   2.334   2.227   3.167
 4373SOL     OW14017   5.688   1.360   0.171
 4373SOL    HW114018   5.626   1.282   0.158
 4373SOL    HW214019   5.667   1.431   0.103
 4374SOL     OW14020   0.710   1.391   0.714
 4374SOL    HW114021   0.630   1.397   0.655
 4374SOL    HW214022   0.687   1.424   0.805
 4375SOL     OW14023   4.488   6.717   3.322
 4375SOL    HW114024   4.412   6.653   3.316
 4375SOL    HW214025   4.488   6.760   3.412
 4376SOL     OW14026   6.002   6.806   3.038
 4376SOL    HW114027   5.915   6.845   3.067
 4376SOL    HW214028   6.031   6.849   2.952
 4377SOL     OW14029   5.735   5.185   0.126
 4377SOL    HW114030   5.754   5.159   0.220
 4377SOL    HW214031   5.681   5.113   0.081
 4378SOL     OW14032   2.146   2.882   2.472
 4378SOL    HW114033   2.201   2.897   2.555
 4378SOL    HW214034   2.192   2.923   2.394
 4379SOL     OW14035   2.117   2.595   2.545
 4379SOL    HW114036   2.121   2.681   2.494
 4379SOL    HW214037   2.034   2.593   2.600
 4380SOL     OW14038   0.948   7.007   3.210
 4380SOL    HW114039   1.003   6.958   3.141
 4380SOL    HW214040   1.009   0.019   3.281
 4381SOL     OW14041   1.847   3.831   5.458
 4381SOL    HW114042   1.916   3.821   5.529
 4381SOL    HW214043   1.878   3.896   5.389
 4382SOL     OW14044   5.980   3.459   6.096
 4382SOL    HW114045   6.038   3.534   6.065
 4382SOL    HW214046   5.926   3.490   6.175
 4383SOL     OW14047   0.929   2.045   5.871
 4383SOL    HW114048   0.839   2.008   5.850
 4383SOL    HW214049   0.924   2.145   5.873
 4384SOL     OW14050   6.123   2.390   5.941
 4384SOL    HW114051   6.127   2.411   5.843
 4384SOL    HW214052   6.210   2.413   5.984
 4385SOL     OW14053   5.954   2.835   5.392
 4385SOL    HW114054   6.020   2.909   5.403
 4385SOL    HW214055   5.948   2.809   5.295
 4386SOL     OW14056   2.030   3.496   0.254
 4386SOL    HW114057   2.045   3.422   0.320
 4386SOL    HW214058   2.056   3.583   0.295
 4387SOL     OW14059   6.858   1.569   1.466
 4387SOL    HW114060   6.764   1.571   1.430
 4387SOL    HW214061   6.873   1.484   1.515
 4388SOL     OW14062   5.103   1.697   6.227
 4388SOL    HW114063   5.023   1.700   6.286
 4388SOL    HW214064   5.170   1.764   6.258
 4389SOL     OW14065   0.591   3.687   0.640
 4389SOL    HW114066   0.594   3.666   0.738
 4389SOL    HW214067   0.510   3.645   0.599
 4390SOL     OW14068   3.751   1.097   1.117
 4390SOL    HW114069   3.740   1.170   1.049
 4390SOL    HW214070   3.802   1.021   1.076
 4391SOL     OW14071   1.823   5.683   0.009
 4391SOL    HW114072   1.840   5.608   6.968
 4391SOL    HW214073   1.843   5.770   6.986
 4392SOL     OW14074   6.833   3.724   5.785
 4392SOL    HW114075   6.815   3.668   5.866
 4392SOL    HW214076   6.747   3.741   5.736
 4393SOL     OW14077   6.191   0.411   2.044
 4393SOL    HW114078   6.128   0.476   2.084
 4393SOL    HW214079   6.212   0.339   2.110
 4394SOL     OW14080   6.019   5.860   2.421
 4394SOL    HW114081   6.053   5.852   2.515
 4394SOL    HW214082   6.042   5.951   2.385
 4395SOL     OW14083   2.969   6.741   1.952
 4395SOL    HW114084   2.955   6.753   2.051
 4395SOL    HW214085   2.904   6.673   1.917
 4396SOL     OW14086   2.221   2.252   3.923
 4396SOL    HW114087   2.143   2.189   3.921
 4396SOL    HW214088   2.227   2.295   4.013
 4397SOL     OW14089   0.686   0.802   4.598
 4397SOL    HW114090   0.627   0.829   4.674
 4397SOL    HW214091   0.739   0.721   4.624
 4398SOL     OW14092   0.968   4.108   5.502
 4398SOL    HW114093   0.971   4.083   5.405
 4398SOL    HW214094   0.898   4.052   5.548
 4399SOL     OW14095   2.070   0.629   1.432
 4399SOL    HW114096   2.018   0.707   1.468
 4399SOL    HW214097   2.091   0.566   1.506
 4400SOL     OW14098   3.543   6.844   5.559
 4400SOL    HW114099   3.530   6.905   5.481
 4400SOL    HW214100   3.598   6.765   5.531
 4401SOL     OW14101   4.398   6.791   6.461
 4401SOL    HW114102   4.403   6.881   6.505
 4401SOL    HW214103   4.464   6.787   6.387
 4402SOL     OW14104   2.608   0.263   1.784
 4402SOL    HW114105   2.698   0.225   1.760
 4402SOL    HW214106   2.549   0.259   1.703
 4403SOL     OW14107   0.794   0.197   3.194
 4403SOL    HW114108   0.841   0.110   3.208
 4403SOL    HW214109   0.855   0.272   3.217
 4404SOL     OW14110   0.381   4.760   6.070
 4404SOL    HW114111   0.441   4.776   5.991
 4404SOL    HW214112   0.334   4.845   6.092
 4405SOL     OW14113   1.815   4.369   1.257
 4405SOL    HW114114   1.869   4.445   1.292
 4405SOL    HW214115   1.825   4.362   1.158
 4406SOL     OW14116   0.012   3.786   0.463
 4406SOL    HW114117   0.098   3.835   0.472
 4406SOL    HW214118   6.995   3.770   0.553
 4407SOL     OW14119   6.525   4.751   0.770
 4407SOL    HW114120   6.559   4.672   0.718
 4407SOL    HW214121   6.600   4.792   0.821
 4408SOL     OW14122   3.464   0.913   1.716
 4408SOL    HW114123   3.535   0.920   1.647
 4408SOL    HW214124   3.444   1.004   1.754
 4409SOL     OW14125   4.833   0.687   2.407
 4409SOL    HW114126   4.775   0.616   2.446
 4409SOL    HW214127   4.849   0.667   2.310
 4410SOL     OW14128   1.093   5.428   6.595
 4410SOL    HW114129   1.190   5.452   6.592
 4410SOL    HW214130   1.045   5.489   6.657
 4411SOL     OW14131   3.811   4.066   4.440
 4411SOL    HW114132   3.799   4.074   4.538
 4411SOL    HW214133   3.894   4.013   4.421
 4412SOL     OW14134   4.582   6.647   5.004
 4412SOL    HW114135   4.659   6.699   4.965
 4412SOL    HW214136   4.509   6.639   4.936
 4413SOL     OW14137   6.396   5.197   4.345
 4413SOL    HW114138   6.405   5.149   4.258
 4413SOL    HW214139   6.486   5.213   4.384
 4414SOL     OW14140   3.421   4.666   1.138
 4414SOL    HW114141   3.478   4.719   1.200
 4414SOL    HW214142   3.434   4.568   1.155
 4415SOL     OW14143   3.752   3.047   0.736
 4415SOL    HW114144   3.671   3.002   0.773
 4415SOL    HW214145   3.724   3.121   0.675
 4416SOL     OW14146   2.751   0.591   3.484
 4416SOL    HW114147   2.782   0.496   3.480
 4416SOL    HW214148   2.696   0.612   3.404
 4417SOL     OW14149   6.035   4.420   3.319
 4417SOL    HW114150   5.982   4.365   3.255
 4417SOL    HW214151   5.983   4.501   3.345
 4418SOL     OW14152   5.682   1.900   2.320
 4418SOL    HW114153   5.679   1.964   2.243
 4418SOL    HW214154   5.699   1.807   2.286
 4419SOL     OW14155   5.961   6.229   6.582
 4419SOL    HW114156   5.914   6.262   6.663
 4419SOL    HW214157   5.904   6.161   6.536
 4420SOL     OW14158   5.381   1.389   2.250
 4420SOL    HW114159   5.314   1.370   2.178
 4420SOL    HW214160   5.389   1.488   2.263
 4421SOL     OW14161   2.036   0.919   5.159
 4421SOL    HW114162   1.972   0.980   5.206
 4421SOL    HW214163   1.987   0.865   5.091
 4422SOL     OW14164   2.705   3.892   6.976
 4422SOL    HW114165   2.605   3.887   6.979
 4422SOL    HW214166   2.738   3.836   6.900
 4423SOL     OW14167   0.574   2.891   5.768
 4423SOL    HW114168   0.531   2.952   5.834
 4423SOL    HW214169   0.651   2.938   5.724
 4424SOL     OW14170   5.687   0.931   4.699
 4424SOL    HW114171   5.658   1.026   4.686
 4424SOL    HW214172   5.611   0.878   4.735
 4425SOL     OW14173   2.985   4.793   0.269
 4425SOL    HW114174   2.981   4.785   0.368
 4425SOL    HW214175   2.957   4.885   0.241
 4426SOL     OW14176   0.174   0.675   4.540
 4426SOL    HW114177   0.149   0.591   4.492
 4426SOL    HW214178   0.266   0.702   4.513
 4427SOL     OW14179   0.653   6.192   2.269
 4427SOL    HW114180   0.583   6.136   2.312
 4427SOL    HW214181   0.655   6.174   2.171
 4428SOL     OW14182   3.454   6.986   2.489
 4428SOL    HW114183   3.534   6.981   2.429
 4428SOL    HW214184   3.411   0.053   2.480
 4429SOL     OW14185   2.390   6.592   2.849
 4429SOL    HW114186   2.332   6.533   2.793
 4429SOL    HW214187   2.429   6.538   2.925
 4430SOL     OW14188   4.858   4.093   4.706
 4430SOL    HW114189   4.875   4.025   4.777
 4430SOL    HW214190   4.811   4.172   4.746
 4431SOL     OW14191   2.197   0.942   1.820
 4431SOL    HW114192   2.113   0.929   1.873
 4431SOL    HW214193   2.216   1.040   1.811
 4432SOL     OW14194   3.023   3.711   5.532
 4432SOL    HW114195   2.979   3.636   5.581
 4432SOL    HW214196   3.044   3.682   5.439
 4433SOL     OW14197   4.559   1.546   4.720
 4433SOL    HW114198   4.561   1.502   4.810
 4433SOL    HW214199   4.505   1.490   4.657
 4434SOL     OW14200   4.924   1.756   4.077
 4434SOL    HW114201   4.884   1.695   4.009
 4434SOL    HW214202   5.021   1.736   4.087
 4435SOL     OW14203   5.120   3.310   1.465
 4435SOL    HW114204   5.110   3.376   1.390
 4435SOL    HW214205   5.191   3.342   1.528
 4436SOL     OW14206   4.725   0.922   0.747
 4436SOL    HW114207   4.626   0.913   0.757
 4436SOL    HW214208   4.770   0.884   0.827
 4437SOL     OW14209   5.992   2.358   3.136
 4437SOL    HW114210   5.948   2.330   3.221
 4437SOL    HW214211   5.958   2.300   3.061
 4438SOL     OW14212   5.495   0.404   0.093
 4438SOL    HW114213   5.547   0.490   0.100
 4438SOL    HW214214   5.413   0.410   0.149
 4439SOL     OW14215   0.425   5.078   2.009
 4439SOL    HW114216   0.364   5.128   1.948
 4439SOL    HW214217   0.462   4.998   1.961
 4440SOL     OW14218   2.702   5.180   0.486
 4440SOL    HW114219   2.626   5.240   0.461
 4440SOL    HW214220   2.670   5.086   0.489
 4441SOL     OW14221   6.938   1.517   2.754
 4441SOL    HW114222   6.909   1.472   2.838
 4441SOL    HW214223   0.005   1.482   2.727
 4442SOL     OW14224   2.728   5.752   4.329
 4442SOL    HW114225   2.743   5.692   4.249
 4442SOL    HW214226   2.816   5.780   4.367
 4443SOL     OW14227   0.338   3.144   0.565
 4443SOL    HW114228   0.317   3.166   0.660
 4443SOL    HW214229   0.292   3.208   0.504
 4444SOL     OW14230   3.260   4.620   5.522
 4444SOL    HW114231   3.347   4.572   5.530
 4444SOL    HW214232   3.189   4.568   5.572
 4445SOL     OW14233   1.072   6.764   0.902
 4445SOL    HW114234   1.162   6.808   0.895
 4445SOL    HW214235   1.007   6.827   0.944
 4446SOL     OW14236   5.642   0.745   1.967
 4446SOL    HW114237   5.637   0.833   2.014
 4446SOL    HW214238   5.553   0.724   1.926
 4447SOL     OW14239   5.512   3.661   6.055
 4447SOL    HW114240   5.594   3.706   6.021
 4447SOL    HW214241   5.520   3.646   6.153
 4448SOL     OW14242   2.443   3.964   1.631
 4448SOL    HW114243   2.461   3.999   1.539
 4448SOL    HW214244   2.411   3.870   1.625
 4449SOL     OW14245   5.677   0.517   6.097
 4449SOL    HW114246   5.667   0.607   6.053
 4449SOL    HW214247   5.598   0.499   6.155
 4450SOL     OW14248   3.492   3.484   4.788
 4450SOL    HW114249   3.504   3.567   4.733
 4450SOL    HW214250   3.532   3.499   4.879
 4451SOL     OW14251   6.376   4.613   3.005
 4451SOL    HW114252   6.306   4.545   3.024
 4451SOL    HW214253   6.368   4.688   3.071
 4452SOL     OW14254   5.068   6.407   4.399
 4452SOL    HW114255   5.143   6.346   4.424
 4452SOL    HW214256   5.021   6.439   4.481
 4453SOL     OW14257   0.766   2.515   1.424
 4453SOL    HW114258   0.699   2.525   1.498
 4453SOL    HW214259   0.748   2.430   1.374
 4454SOL     OW14260   1.481   2.009   0.531
 4454SOL    HW114261   1.531   1.983   0.613
 4454SOL    HW214262   1.504   1.946   0.457
 4455SOL     OW14263   4.165   6.583   5.756
 4455SOL    HW114264   4.172   6.642   5.837
 4455SOL    HW214265   4.224   6.503   5.768
 4456SOL     OW14266   3.513   6.024   2.101
 4456SOL    HW114267   3.530   6.002   2.004
 4456SOL    HW214268   3.443   6.095   2.107
 4457SOL     OW14269   4.425   1.372   2.433
 4457SOL    HW114270   4.421   1.285   2.384
 4457SOL    HW214271   4.333   1.411   2.439
 4458SOL     OW14272   1.880   2.789   0.008
 4458SOL    HW114273   1.859   2.714   6.969
 4458SOL    HW214274   1.915   2.867   6.978
 4459SOL     OW14275   3.521   1.111   4.881
 4459SOL    HW114276   3.488   1.062   4.801
 4459SOL    HW214277   3.620   1.098   4.891
 4460SOL     OW14278   2.709   2.711   5.933
 4460SOL    HW114279   2.774   2.782   5.961
 4460SOL    HW214280   2.623   2.722   5.982
 4461SOL     OW14281   1.238   0.467   1.279
 4461SOL    HW114282   1.169   0.526   1.238
 4461SOL    HW214283   1.318   0.522   1.304
 4462SOL     OW14284   6.351   4.827   1.396
 4462SOL    HW114285   6.270   4.856   1.345
 4462SOL    HW214286   6.331   4.743   1.447
 4463SOL     OW14287   5.324   2.093   6.947
 4463SOL    HW114288   5.401   2.031   6.965
 4463SOL    HW214289   5.352   2.164   6.883
 4464SOL     OW14290   6.625   5.405   0.872
 4464SOL    HW114291   6.692   5.467   0.912
 4464SOL    HW214292   6.536   5.451   0.869
 4465SOL     OW14293   2.760   5.464   1.300
 4465SOL    HW114294   2.740   5.454   1.398
 4465SOL    HW214295   2.713   5.392   1.249
 4466SOL     OW14296   1.612   1.597   3.350
 4466SOL    HW114297   1.584   1.550   3.266
 4466SOL    HW214298   1.583   1.543   3.429
 4467SOL     OW14299   1.929   6.593   2.739
 4467SOL    HW114300   1.857   6.556   2.680
 4467SOL    HW214301   1.908   6.688   2.762
 4468SOL     OW14302   1.878   3.207   0.584
 4468SOL    HW114303   1.782   3.191   0.561
 4468SOL    HW214304   1.885   3.284   0.647
 4469SOL     OW14305   3.589   0.693   1.491
 4469SOL    HW114306   3.628   0.783   1.509
 4469SOL    HW214307   3.652   0.641   1.433
 4470SOL     OW14308   6.026   2.402   2.273
 4470SOL    HW114309   6.089   2.334   2.309
 4470SOL    HW214310   5.936   2.360   2.259
 4471SOL     OW14311   1.172   2.047   6.578
 4471SOL    HW114312   1.099   1.997   6.624
 4471SOL    HW214313   1.146   2.065   6.483
 4472SOL     OW14314   1.407   3.397   2.617
 4472SOL    HW114315   1.464   3.353   2.687
 4472SOL    HW214316   1.316   3.357   2.618
 4473SOL     OW14317   6.233   2.752   4.892
 4473SOL    HW114318   6.275   2.806   4.965
 4473SOL    HW214319   6.302   2.692   4.851
 4474SOL     OW14320   2.547   0.655   2.103
 4474SOL    HW114321   2.616   0.674   2.032
 4474SOL    HW214322   2.551   0.559   2.128
 4475SOL     OW14323   1.774   4.033   2.924
 4475SOL    HW114324   1.819   3.951   2.957
 4475SOL    HW214325   1.788   4.107   2.990
 4476SOL     OW14326   4.037   0.208   3.006
 4476SOL    HW114327   3.983   0.274   2.954
 4476SOL    HW214328   4.064   0.249   3.093
 4477SOL     OW14329   2.174   6.977   5.116
 4477SOL    HW114330   2.264   6.961   5.077
 4477SOL    HW214331   2.107   6.917   5.071
 4478SOL     OW14332   4.001   6.741   3.161
 4478SOL    HW114333   3.970   6.759   3.068
 4478SOL    HW214334   3.922   6.723   3.220
 4479SOL     OW14335   0.522   1.021   1.978
 4479SOL    HW114336   0.610   1.069   1.976
 4479SOL    HW214337   0.526   0.947   2.045
 4480SOL     OW14338   1.573   3.869   5.122
 4480SOL    HW114339   1.655   3.826   5.158
 4480SOL    HW214340   1.575   3.967   5.142
 4481SOL     OW14341   3.387   6.031   4.781
 4481SOL    HW114342   3.444   6.113   4.775
 4481SOL    HW214343   3.349   6.023   4.873
 4482SOL     OW14344   0.707   3.114   4.518
 4482SOL    HW114345   0.799   3.077   4.504
 4482SOL    HW214346   0.669   3.077   4.603
 4483SOL     OW14347   5.603   2.736   2.306
 4483SOL    HW114348   5.679   2.776   2.358
 4483SOL    HW214349   5.518   2.750   2.356
 4484SOL     OW14350   2.758   2.424   6.322
 4484SOL    HW114351   2.798   2.441   6.232
 4484SOL    HW214352   2.777   2.330   6.350
 4485SOL     OW14353   5.726   1.980   5.128
 4485SOL    HW114354   5.804   1.948   5.074
 4485SOL    HW214355   5.752   1.983   5.225
 4486SOL     OW14356   5.378   4.287   5.094
 4486SOL    HW114357   5.367   4.253   5.187
 4486SOL    HW214358   5.418   4.379   5.096
 4487SOL     OW14359   2.348   2.842   6.201
 4487SOL    HW114360   2.318   2.938   6.200
 4487SOL    HW214361   2.418   2.830   6.272
 4488SOL     OW14362   0.409   3.342   6.220
 4488SOL    HW114363   0.322   3.355   6.172
 4488SOL    HW214364   0.394   3.285   6.301
 4489SOL     OW14365   5.513   5.293   4.422
 4489SOL    HW114366   5.462   5.209   4.441
 4489SOL    HW214367   5.556   5.326   4.506
 4490SOL     OW14368   6.050   2.978   2.606
 4490SOL    HW114369   6.147   2.986   2.628
 4490SOL    HW214370   5.998   2.955   2.688
 4491SOL     OW14371   6.876   2.630   4.564
 4491SOL    HW114372   6.855   2.630   4.466
 4491SOL    HW214373   6.974   2.641   4.577
 4492SOL     OW14374   5.652   4.331   1.469
 4492SOL    HW114375   5.702   4.284   1.542
 4492SOL    HW214376   5.626   4.264   1.399
 4493SOL     OW14377   4.686   5.382   5.007
 4493SOL    HW114378   4.727   5.319   4.941
 4493SOL    HW214379   4.589   5.393   4.987
 4494SOL     OW14380   0.311   1.359   6.744
 4494SOL    HW114381   0.341   1.267   6.769
 4494SOL    HW214382   0.212   1.360   6.733
 4495SOL     OW14383   3.635   6.659   4.335
 4495SOL    HW114384   3.629   6.742   4.390
 4495SOL    HW214385   3.694   6.592   4.381
 4496SOL     OW14386   5.649   6.016   1.145
 4496SOL    HW114387   5.593   5.986   1.222
 4496SOL    HW214388   5.738   6.049   1.178
 4497SOL     OW14389   5.013   1.154   0.116
 4497SOL    HW114390   5.076   1.227   0.141
 4497SOL    HW214391   5.065   1.079   0.073
 4498SOL     OW14392   0.010   4.214   0.624
 4498SOL    HW114393   0.106   4.188   0.612
 4498SOL    HW214394   0.002   4.314   0.626
 4499SOL     OW14395   6.202   3.541   5.203
 4499SOL    HW114396   6.250   3.586   5.278
 4499SOL    HW214397   6.269   3.512   5.134
 4500SOL     OW14398   3.046   3.266   4.264
 4500SOL    HW114399   3.004   3.342   4.314
 4500SOL    HW214400   3.122   3.301   4.210
 4501SOL     OW14401   0.037   3.199   3.373
 4501SOL    HW114402   0.075   3.233   3.287
 4501SOL    HW214403   6.973   3.245   3.391
 4502SOL     OW14404   0.711   2.910   6.737
 4502SOL    HW114405   0.783   2.913   6.668
 4502SOL    HW214406   0.751   2.926   6.827
 4503SOL     OW14407   3.465   7.007   1.641
 4503SOL    HW114408   3.375   6.997   1.597
 4503SOL    HW214409   3.502   6.916   1.661
 4504SOL     OW14410   6.696   1.033   5.343
 4504SOL    HW114411   6.612   1.005   5.298
 4504SOL    HW214412   6.686   1.126   5.379
 4505SOL     OW14413   5.555   5.038   1.738
 4505SOL    HW114414   5.572   4.940   1.734
 4505SOL    HW214415   5.478   5.056   1.799
 4506SOL     OW14416   4.412   2.283   3.593
 4506SOL    HW114417   4.422   2.184   3.596
 4506SOL    HW214418   4.494   2.326   3.631
 4507SOL     OW14419   5.271   4.519   2.758
 4507SOL    HW114420   5.307   4.475   2.676
 4507SOL    HW214421   5.346   4.536   2.822
 4508SOL     OW14422   1.242   5.156   6.610
 4508SOL    HW114423   1.163   5.213   6.631
 4508SOL    HW214424   1.276   5.115   6.695
 4509SOL     OW14425   4.396   2.398   2.827
 4509SOL    HW114426   4.301   2.372   2.813
 4509SOL    HW214427   4.409   2.429   2.922
 4510SOL     OW14428   3.536   1.711   4.342
 4510SOL    HW114429   3.589   1.791   4.313
 4510SOL    HW214430   3.477   1.682   4.267
 4511SOL     OW14431   6.387   3.329   0.528
 4511SOL    HW114432   6.406   3.392   0.602
 4511SOL    HW214433   6.332   3.375   0.458
 4512SOL     OW14434   2.946   1.397   5.494
 4512SOL    HW114435   2.888   1.472   5.464
 4512SOL    HW214436   2.889   1.328   5.539
 4513SOL     OW14437   6.179   5.357   0.527
 4513SOL    HW114438   6.278   5.344   0.537
 4513SOL    HW214439   6.153   5.338   0.432
 4514SOL     OW14440   4.405   1.874   6.582
 4514SOL    HW114441   4.500   1.903   6.592
 4514SOL    HW214442   4.345   1.954   6.590
 4515SOL     OW14443   6.972   1.361   5.815
 4515SOL    HW114444   6.923   1.414   5.884
 4515SOL    HW214445   6.917   1.282   5.789
 4516SOL     OW14446   2.046   0.137   6.691
 4516SOL    HW114447   1.970   0.072   6.691
 4516SOL    HW214448   2.115   0.107   6.756
 4517SOL     OW14449   3.941   0.915   6.771
 4517SOL    HW114450   3.894   0.980   6.831
 4517SOL    HW214451   3.884   0.896   6.691
 4518SOL     OW14452   6.512   0.253   2.984
 4518SOL    HW114453   6.441   0.319   2.960
 4518SOL    HW214454   6.486   0.207   3.070
 4519SOL     OW14455   6.569   0.126   1.371
 4519SOL    HW114456   6.604   0.098   1.281
 4519SOL    HW214457   6.646   0.138   1.434
 4520SOL     OW14458   4.615   6.353   4.664
 4520SOL    HW114459   4.625   6.449   4.641
 4520SOL    HW214460   4.518   6.328   4.665
 4521SOL     OW14461   6.350   1.612   4.228
 4521SOL    HW114462   6.309   1.692   4.271
 4521SOL    HW214463   6.441   1.635   4.195
 4522SOL     OW14464   5.672   5.984   3.073
 4522SOL    HW114465   5.602   5.978   3.003
 4522SOL    HW214466   5.655   6.064   3.131
 4523SOL     OW14467   0.811   4.243   0.014
 4523SOL    HW114468   0.760   4.324   7.010
 4523SOL    HW214469   0.852   4.258   0.104
 4524SOL     OW14470   6.582   2.566   3.186
 4524SOL    HW114471   6.563   2.543   3.091
 4524SOL    HW214472   6.670   2.613   3.192
 4525SOL     OW14473   5.061   1.556   5.659
 4525SOL    HW114474   5.085   1.460   5.674
 4525SOL    HW214475   5.063   1.605   5.746
 4526SOL     OW14476   6.407   0.361   0.850
 4526SOL    HW114477   6.495   0.330   0.884
 4526SOL    HW214478   6.396   0.459   0.869
 4527SOL     OW14479   5.017   1.233   3.649
 4527SOL    HW114480   5.055   1.312   3.697
 4527SOL    HW214481   5.090   1.170   3.625
 4528SOL     OW14482   5.081   0.683   0.734
 4528SOL    HW114483   5.112   0.768   0.692
 4528SOL    HW214484   4.987   0.695   0.769
 4529SOL     OW14485   2.487   0.538   5.418
 4529SOL    HW114486   2.454   0.482   5.494
 4529SOL    HW214487   2.554   0.604   5.451
 4530SOL     OW14488   2.134   5.032   4.893
 4530SOL    HW114489   2.209   4.973   4.923
 4530SOL    HW214490   2.137   5.118   4.944
 4531SOL     OW14491   0.204   2.814   4.834
 4531SOL    HW114492   0.219   2.808   4.933
 4531SOL    HW214493   0.127   2.874   4.815
 4532SOL     OW14494   6.728   1.544   3.009
 4532SOL    HW114495   6.712   1.462   2.954
 4532SOL    HW214496   6.703   1.625   2.956
 4533SOL     OW14497   1.069   1.588   1.866
 4533SOL    HW114498   1.095   1.603   1.771
 4533SOL    HW214499   1.095   1.495   1.892
 4534SOL     OW14500   4.784   4.044   3.992
 4534SOL    HW114501   4.853   4.025   4.063
 4534SOL    HW214502   4.739   4.131   4.013
 4535SOL     OW14503   3.912   0.994   2.619
 4535SOL    HW114504   3.831   1.022   2.671
 4535SOL    HW214505   3.991   0.991   2.681
 4536SOL     OW14506   3.311   1.604   4.219
 4536SOL    HW114507   3.291   1.656   4.303
 4536SOL    HW214508   3.230   1.553   4.191
 4537SOL     OW14509   4.291   3.418   0.277
 4537SOL    HW114510   4.238   3.342   0.240
 4537SOL    HW214511   4.287   3.495   0.214
 4538SOL     OW14512   1.471   0.436   3.025
 4538SOL    HW114513   1.435   0.407   2.936
 4538SOL    HW214514   1.412   0.401   3.098
 4539SOL     OW14515   2.820   7.004   5.088
 4539SOL    HW114516   2.807   0.074   5.122
 4539SOL    HW214517   2.761   6.942   5.141
 4540SOL     OW14518   2.827   2.663   5.700
 4540SOL    HW114519   2.865   2.754   5.681
 4540SOL    HW214520   2.780   2.665   5.788
 4541SOL     OW14521   6.452   1.822   0.858
 4541SOL    HW114522   6.516   1.798   0.931
 4541SOL    HW214523   6.479   1.776   0.774
 4542SOL     OW14524   0.256   1.387   2.147
 4542SOL    HW114525   0.331   1.353   2.203
 4542SOL    HW214526   0.286   1.469   2.098
 4543SOL     OW14527   4.291   1.931   1.879
 4543SOL    HW114528   4.220   1.861   1.883
 4543SOL    HW214529   4.308   1.957   1.784
 4544SOL     OW14530   3.183   6.287   5.860
 4544SOL    HW114531   3.112   6.337   5.810
 4544SOL    HW214532   3.152   6.193   5.876
 4545SOL     OW14533   5.435   3.621   4.457
 4545SOL    HW114534   5.389   3.685   4.396
 4545SOL    HW214535   5.463   3.668   4.540
 4546SOL     OW14536   1.573   1.236   5.425
 4546SOL    HW114537   1.489   1.192   5.396
 4546SOL    HW214538   1.587   1.320   5.373
 4547SOL     OW14539   5.977   2.291   2.641
 4547SOL    HW114540   5.916   2.254   2.571
 4547SOL    HW214541   5.996   2.387   2.622
 4548SOL     OW14542   1.126   3.408   3.956
 4548SOL    HW114543   1.209   3.462   3.969
 4548SOL    HW214544   1.073   3.408   4.041
 4549SOL     OW14545   6.929   3.839   1.636
 4549SOL    HW114546   6.858   3.877   1.696
 4549SOL    HW214547   6.895   3.837   1.542
 4550SOL     OW14548   1.069   4.764   3.039
 4550SOL    HW114549   1.065   4.864   3.031
 4550SOL    HW214550   1.100   4.739   3.130
 4551SOL     OW14551   0.414   2.640   5.091
 4551SOL    HW114552   0.420   2.689   5.178
 4551SOL    HW214553   0.330   2.585   5.091
 4552SOL     OW14554   6.327   3.272   1.805
 4552SOL    HW114555   6.310   3.341   1.875
 4552SOL    HW214556   6.333   3.316   1.716
 4553SOL     OW14557   3.275   4.573   6.572
 4553SOL    HW114558   3.206   4.640   6.598
 4553SOL    HW214559   3.360   4.592   6.621
 4554SOL     OW14560   6.123   0.125   1.493
 4554SOL    HW114561   6.052   0.091   1.431
 4554SOL    HW214562   6.119   0.225   1.497
 4555SOL     OW14563   2.445   2.677   6.021
 4555SOL    HW114564   2.409   2.745   6.084
 4555SOL    HW214565   2.417   2.586   6.049
 4556SOL     OW14566   5.746   2.844   4.270
 4556SOL    HW114567   5.716   2.770   4.209
 4556SOL    HW214568   5.777   2.922   4.215
 4557SOL     OW14569   4.890   6.425   5.571
 4557SOL    HW114570   4.970   6.411   5.513
 4557SOL    HW214571   4.897   6.369   5.653
 4558SOL     OW14572   0.292   4.584   5.249
 4558SOL    HW114573   0.357   4.551   5.318
 4558SOL    HW214574   0.225   4.512   5.230
 4559SOL     OW14575   0.358   3.962   1.557
 4559SOL    HW114576   0.335   4.020   1.479
 4559SOL    HW214577   0.288   3.891   1.567
 4560SOL     OW14578   5.091   4.232   1.479
 4560SOL    HW114579   5.079   4.277   1.567
 4560SOL    HW214580   5.097   4.301   1.407
 4561SOL     OW14581   2.095   1.978   2.637
 4561SOL    HW114582   2.070   1.882   2.641
 4561SOL    HW214583   2.021   2.031   2.596
 4562SOL     OW14584   2.580   6.092   5.639
 4562SOL    HW114585   2.679   6.087   5.649
 4562SOL    HW214586   2.540   6.124   5.725
 4563SOL     OW14587   0.171   3.064   1.357
 4563SOL    HW114588   0.212   3.151   1.330
 4563SOL    HW214589   0.073   3.066   1.339
 4564SOL     OW14590   6.701   6.119   1.673
 4564SOL    HW114591   6.683   6.033   1.626
 4564SOL    HW214592   6.760   6.102   1.751
 4565SOL     OW14593   0.762   1.087   4.893
 4565SOL    HW114594   0.786   0.990   4.900
 4565SOL    HW214595   0.826   1.141   4.948
 4566SOL     OW14596   6.581   2.974   0.208
 4566SOL    HW114597   6.529   2.926   0.137
 4566SOL    HW214598   6.665   2.924   0.227
 4567SOL     OW14599   6.365   0.424   6.937
 4567SOL    HW114600   6.425   0.452   6.862
 4567SOL    HW214601   6.412   0.438   0.001
 4568SOL     OW14602   2.793   4.005   5.760
 4568SOL    HW114603   2.737   4.070   5.709
 4568SOL    HW214604   2.734   3.935   5.801
 4569SOL     OW14605   1.950   1.692   2.867
 4569SOL    HW114606   2.008   1.679   2.786
 4569SOL    HW214607   1.968   1.782   2.906
 4570SOL     OW14608   0.958   6.603   3.259
 4570SOL    HW114609   1.044   6.637   3.220
 4570SOL    HW214610   0.973   6.512   3.297
 4571SOL     OW14611   4.142   4.160   6.399
 4571SOL    HW114612   4.227   4.211   6.410
 4571SOL    HW214613   4.155   4.066   6.428
 4572SOL     OW14614   2.013   0.274   6.459
 4572SOL    HW114615   1.914   0.266   6.442
 4572SOL    HW214616   2.037   0.223   6.542
 4573SOL     OW14617   6.446   1.202   0.073
 4573SOL    HW114618   6.494   1.289   0.082
 4573SOL    HW214619   6.373   1.197   0.141
 4574SOL     OW14620   5.745   4.148   0.844
 4574SOL    HW114621   5.775   4.170   0.937
 4574SOL    HW214622   5.798   4.070   0.810
 4575SOL     OW14623   5.879   0.861   6.528
 4575SOL    HW114624   5.889   0.814   6.441
 4575SOL    HW214625   5.878   0.794   6.602
 4576SOL     OW14626   2.583   6.480   5.864
 4576SOL    HW114627   2.678   6.481   5.894
 4576SOL    HW214628   2.542   6.392   5.887
 4577SOL     OW14629   2.020   2.573   4.580
 4577SOL    HW114630   1.971   2.507   4.524
 4577SOL    HW214631   1.964   2.600   4.658
 4578SOL     OW14632   1.063   2.937   5.309
 4578SOL    HW114633   1.133   2.955   5.239
 4578SOL    HW214634   1.020   3.022   5.336
 4579SOL     OW14635   4.059   0.647   3.659
 4579SOL    HW114636   4.141   0.622   3.710
 4579SOL    HW214637   3.979   0.605   3.701
 4580SOL     OW14638   5.660   5.112   0.374
 4580SOL    HW114639   5.695   5.044   0.439
 4580SOL    HW214640   5.597   5.174   0.421
 4581SOL     OW14641   1.940   5.242   2.749
 4581SOL    HW114642   2.000   5.198   2.817
 4581SOL    HW214643   1.974   5.334   2.730
 4582SOL     OW14644   5.382   0.095   5.127
 4582SOL    HW114645   5.357   0.114   5.032
 4582SOL    HW214646   5.420   0.177   5.169
 4583SOL     OW14647   2.381   2.681   6.579
 4583SOL    HW114648   2.427   2.620   6.516
 4583SOL    HW214649   2.365   2.634   6.666
 4584SOL     OW14650   0.659   4.679   5.848
 4584SOL    HW114651   0.720   4.663   5.770
 4584SOL    HW214652   0.654   4.777   5.866
 4585SOL     OW14653   3.320   5.730   3.207
 4585SOL    HW114654   3.372   5.649   3.181
 4585SOL    HW214655   3.264   5.710   3.287
 4586SOL     OW14656   3.245   5.100   0.367
 4586SOL    HW114657   3.149   5.122   0.350
 4586SOL    HW214658   3.251   5.029   0.438
 4587SOL     OW14659   3.797   3.654   3.160
 4587SOL    HW114660   3.828   3.717   3.089
 4587SOL    HW214661   3.700   3.671   3.179
 4588SOL     OW14662   2.836   3.334   5.289
 4588SOL    HW114663   2.764   3.285   5.337
 4588SOL    HW214664   2.850   3.294   5.199
 4589SOL     OW14665   6.336   1.100   2.525
 4589SOL    HW114666   6.273   1.043   2.471
 4589SOL    HW214667   6.378   1.044   2.596
 4590SOL     OW14668   4.826   5.989   1.381
 4590SOL    HW114669   4.829   6.085   1.410
 4590SOL    HW214670   4.737   5.950   1.406
 4591SOL     OW14671   1.081   6.678   4.882
 4591SOL    HW114672   1.127   6.748   4.827
 4591SOL    HW214673   1.095   6.588   4.840
 4592SOL     OW14674   2.678   1.838   2.159
 4592SOL    HW114675   2.648   1.843   2.254
 4592SOL    HW214676   2.626   1.903   2.104
 4593SOL     OW14677   4.713   5.618   2.610
 4593SOL    HW114678   4.617   5.648   2.613
 4593SOL    HW214679   4.758   5.643   2.696
 4594SOL     OW14680   2.757   1.552   2.996
 4594SOL    HW114681   2.781   1.557   2.899
 4594SOL    HW214682   2.724   1.642   3.027
 4595SOL     OW14683   3.543   3.386   6.096
 4595SOL    HW114684   3.455   3.399   6.050
 4595SOL    HW214685   3.591   3.308   6.055
 4596SOL     OW14686   5.777   0.260   2.166
 4596SOL    HW114687   5.807   0.316   2.089
 4596SOL    HW214688   5.779   0.164   2.140
 4597SOL     OW14689   3.950   5.455   5.745
 4597SOL    HW114690   4.035   5.475   5.794
 4597SOL    HW214691   3.970   5.439   5.648
 4598SOL     OW14692   2.509   6.167   6.601
 4598SOL    HW114693   2.602   6.136   6.587
 4598SOL    HW214694   2.446   6.108   6.550
 4599SOL     OW14695   1.275   5.000   0.910
 4599SOL    HW114696   1.332   5.066   0.959
 4599SOL    HW214697   1.318   4.910   0.913
 4600SOL     OW14698   0.959   5.238   5.606
 4600SOL    HW114699   0.940   5.328   5.567
 4600SOL    HW214700   0.942   5.168   5.537
 4601SOL     OW14701   2.041   1.065   5.701
 4601SOL    HW114702   2.050   1.006   5.781
 4601SOL    HW214703   2.030   1.160   5.730
 4602SOL     OW14704   1.964   6.336   1.362
 4602SOL    HW114705   2.026   6.297   1.431
 4602SOL    HW214706   1.967   6.281   1.279
 4603SOL     OW14707   2.918   6.255   0.532
 4603SOL    HW114708   2.922   6.232   0.629
 4603SOL    HW214709   3.005   6.230   0.489
 4604SOL     OW14710   4.382   0.809   0.568
 4604SOL    HW114711   4.403   0.711   0.569
 4604SOL    HW214712   4.303   0.825   0.508
 4605SOL     OW14713   2.920   0.119   2.497
 4605SOL    HW114714   2.887   0.176   2.422
 4605SOL    HW214715   3.008   0.154   2.529
 4606SOL     OW14716   0.951   6.130   2.289
 4606SOL    HW114717   0.919   6.224   2.280
 4606SOL    HW214718   0.879   6.074   2.330
 4607SOL     OW14719   1.548   3.381   1.461
 4607SOL    HW114720   1.475   3.396   1.528
 4607SOL    HW214721   1.520   3.419   1.373
 4608SOL     OW14722   0.566   6.286   3.454
 4608SOL    HW114723   0.499   6.301   3.527
 4608SOL    HW214724   0.658   6.307   3.489
 4609SOL     OW14725   4.084   5.206   6.639
 4609SOL    HW114726   4.148   5.146   6.591
 4609SOL    HW214727   4.104   5.301   6.617
 4610SOL     OW14728   4.833   2.613   0.729
 4610SOL    HW114729   4.822   2.516   0.750
 4610SOL    HW214730   4.930   2.637   0.734
 4611SOL     OW14731   0.858   6.088   6.579
 4611SOL    HW114732   0.816   6.056   6.664
 4611SOL    HW214733   0.915   6.015   6.541
 4612SOL     OW14734   1.394   5.686   0.052
 4612SOL    HW114735   1.429   5.753   7.009
 4612SOL    HW214736   1.342   5.734   0.123
 4613SOL     OW14737   2.688   5.971   1.952
 4613SOL    HW114738   2.762   5.952   2.017
 4613SOL    HW214739   2.707   5.923   1.866
 4614SOL     OW14740   6.906   2.999   3.709
 4614SOL    HW114741   6.827   3.023   3.652
 4614SOL    HW214742   6.990   3.004   3.655
 4615SOL     OW14743   1.820   0.218   6.884
 4615SOL    HW114744   1.838   0.314   6.907
 4615SOL    HW214745   1.898   0.182   6.832
 4616SOL     OW14746   6.418   0.765   4.859
 4616SOL    HW114747   6.372   0.729   4.940
 4616SOL    HW214748   6.381   0.855   4.837
 4617SOL     OW14749   0.404   2.574   2.278
 4617SOL    HW114750   0.402   2.619   2.367
 4617SOL    HW214751   0.440   2.481   2.288
 4618SOL     OW14752   2.382   2.720   4.719
 4618SOL    HW114753   2.307   2.764   4.671
 4618SOL    HW214754   2.446   2.789   4.752
 4619SOL     OW14755   3.393   6.425   3.170
 4619SOL    HW114756   3.346   6.381   3.246
 4619SOL    HW214757   3.491   6.402   3.174
 4620SOL     OW14758   2.824   4.749   0.790
 4620SOL    HW114759   2.858   4.661   0.821
 4620SOL    HW214760   2.873   4.822   0.838
 4621SOL     OW14761   5.169   0.877   2.153
 4621SOL    HW114762   5.158   0.793   2.101
 4621SOL    HW214763   5.267   0.895   2.166
 4622SOL     OW14764   2.608   4.908   0.924
 4622SOL    HW114765   2.606   4.858   1.010
 4622SOL    HW214766   2.667   4.861   0.859
 4623SOL     OW14767   4.835   6.589   0.696
 4623SOL    HW114768   4.813   6.531   0.618
 4623SOL    HW214769   4.757   6.594   0.757
 4624SOL     OW14770   4.358   7.013   3.387
 4624SOL    HW114771   4.412   7.019   3.303
 4624SOL    HW214772   4.270   0.035   3.372
 4625SOL     OW14773   2.350   4.387   1.063
 4625SOL    HW114774   2.266   4.333   1.070
 4625SOL    HW214775   2.392   4.372   0.974
 4626SOL     OW14776   5.109   4.441   1.695
 4626SOL    HW114777   5.178   4.398   1.753
 4626SOL    HW214778   5.024   4.451   1.746
 4627SOL     OW14779   2.692   4.672   4.700
 4627SOL    HW114780   2.665   4.651   4.794
 4627SOL    HW214781   2.622   4.639   4.637
 4628SOL     OW14782   6.511   3.907   4.153
 4628SOL    HW114783   6.530   3.935   4.247
 4628SOL    HW214784   6.525   3.985   4.091
 4629SOL     OW14785   2.670   5.511   5.854
 4629SOL    HW114786   2.748   5.449   5.859
 4629SOL    HW214787   2.650   5.533   5.759
 4630SOL     OW14788   2.942   5.580   2.679
 4630SOL    HW114789   2.958   5.482   2.693
 4630SOL    HW214790   2.951   5.628   2.766
 4631SOL     OW14791   1.772   5.643   3.353
 4631SOL    HW114792   1.709   5.610   3.282
 4631SOL    HW214793   1.821   5.565   3.393
 4632SOL     OW14794   3.121   4.886   2.506
 4632SOL    HW114795   3.174   4.917   2.585
 4632SOL    HW214796   3.031   4.853   2.536
 4633SOL     OW14797   5.441   0.252   4.452
 4633SOL    HW114798   5.471   0.157   4.456
 4633SOL    HW214799   5.475   0.295   4.369
 4634SOL     OW14800   3.678   4.309   5.758
 4634SOL    HW114801   3.742   4.257   5.701
 4634SOL    HW214802   3.722   4.393   5.790
 4635SOL     OW14803   4.459   3.962   1.262
 4635SOL    HW114804   4.369   3.925   1.239
 4635SOL    HW214805   4.520   3.887   1.287
 4636SOL     OW14806   1.547   4.555   6.840
 4636SOL    HW114807   1.562   4.556   6.741
 4636SOL    HW214808   1.452   4.530   6.859
 4637SOL     OW14809   0.966   5.973   1.352
 4637SOL    HW114810   1.022   6.056   1.349
 4637SOL    HW214811   0.869   5.998   1.357
 4638SOL     OW14812   4.638   4.587   6.560
 4638SOL    HW114813   4.586   4.662   6.601
 4638SOL    HW214814   4.629   4.591   6.460
 4639SOL     OW14815   3.460   4.194   5.906
 4639SOL    HW114816   3.545   4.227   5.864
 4639SOL    HW214817   3.386   4.200   5.840
 4640SOL     OW14818   4.808   3.937   3.758
 4640SOL    HW114819   4.860   3.855   3.780
 4640SOL    HW214820   4.786   3.986   3.842
 4641SOL     OW14821   2.416   6.850   5.008
 4641SOL    HW114822   2.347   6.782   4.983
 4641SOL    HW214823   2.479   6.863   4.931
 4642SOL     OW14824   1.152   5.547   4.503
 4642SOL    HW114825   1.157   5.623   4.568
 4642SOL    HW214826   1.063   5.548   4.457
 4643SOL     OW14827   6.381   2.515   1.123
 4643SOL    HW114828   6.294   2.471   1.144
 4643SOL    HW214829   6.365   2.609   1.091
 4644SOL     OW14830   6.473   5.316   5.089
 4644SOL    HW114831   6.413   5.336   5.166
 4644SOL    HW214832   6.530   5.396   5.069
 4645SOL     OW14833   0.417   0.346   3.962
 4645SOL    HW114834   0.498   0.404   3.960
 4645SOL    HW214835   0.405   0.303   3.872
 4646SOL     OW14836   2.128   5.992   3.983
 4646SOL    HW114837   2.112   5.908   4.035
 4646SOL    HW214838   2.071   5.992   3.901
 4647SOL     OW14839   1.737   0.237   3.099
 4647SOL    HW114840   1.735   0.193   3.189
 4647SOL    HW214841   1.645   0.269   3.075
 4648SOL     OW14842   3.702   1.385   2.631
 4648SOL    HW114843   3.658   1.295   2.633
 4648SOL    HW214844   3.745   1.399   2.542
 4649SOL     OW14845   5.246   0.390   0.227
 4649SOL    HW114846   5.176   0.445   0.182
 4649SOL    HW214847   5.245   0.409   0.326
 4650SOL     OW14848   4.743   5.331   2.545
 4650SOL    HW114849   4.765   5.426   2.567
 4650SOL    HW214850   4.644   5.317   2.553
 4651SOL     OW14851   6.907   3.115   0.371
 4651SOL    HW114852   6.965   3.053   0.425
 4651SOL    HW214853   6.843   3.061   0.316
 4652SOL     OW14854   6.615   6.982   4.258
 4652SOL    HW114855   6.565   0.043   4.277
 4652SOL    HW214856   6.636   6.977   4.160
 4653SOL     OW14857   5.462   5.225   0.890
 4653SOL    HW114858   5.452   5.153   0.821
 4653SOL    HW214859   5.542   5.205   0.947
 4654SOL     OW14860   1.091   6.782   0.344
 4654SOL    HW114861   1.124   6.809   0.434
 4654SOL    HW214862   0.994   6.761   0.349
 4655SOL     OW14863   4.671   4.041   1.095
 4655SOL    HW114864   4.741   4.042   1.166
 4655SOL    HW214865   4.582   4.022   1.137
 4656SOL     OW14866   1.241   0.371   2.363
 4656SOL    HW114867   1.270   0.308   2.291
 4656SOL    HW214868   1.225   0.320   2.448
 4657SOL     OW14869   4.411   6.648   1.673
 4657SOL    HW114870   4.510   6.642   1.660
 4657SOL    HW214871   4.384   6.743   1.684
 4658SOL     OW14872   3.410   1.406   2.950
 4658SOL    HW114873   3.311   1.401   2.955
 4658SOL    HW214874   3.450   1.376   3.037
 4659SOL     OW14875   3.437   4.990   5.077
 4659SOL    HW114876   3.352   5.041   5.061
 4659SOL    HW214877   3.439   4.960   5.173
 4660SOL     OW14878   1.309   3.646   5.707
 4660SOL    HW114879   1.301   3.597   5.621
 4660SOL    HW214880   1.228   3.628   5.764
 4661SOL     OW14881   3.012   4.517   5.601
 4661SOL    HW114882   3.009   4.425   5.560
 4661SOL    HW214883   2.925   4.537   5.645
 4662SOL     OW14884   3.117   6.991   5.520
 4662SOL    HW114885   3.157   6.930   5.590
 4662SOL    HW214886   3.048   0.027   5.563
 4663SOL     OW14887   0.407   1.988   1.656
 4663SOL    HW114888   0.485   1.954   1.709
 4663SOL    HW214889   0.333   1.922   1.659
 4664SOL     OW14890   1.373   0.931   1.047
 4664SOL    HW114891   1.281   0.896   1.063
 4664SOL    HW214892   1.369   1.030   1.032
 4665SOL     OW14893   3.736   0.312   6.587
 4665SOL    HW114894   3.696   0.244   6.525
 4665SOL    HW214895   3.675   0.325   6.665
 4666SOL     OW14896   1.526   2.957   0.569
 4666SOL    HW114897   1.601   2.914   0.519
 4666SOL    HW214898   1.521   2.918   0.661
 4667SOL     OW14899   6.577   3.346   2.135
 4667SOL    HW114900   6.657   3.379   2.185
 4667SOL    HW214901   6.607   3.284   2.063
 4668SOL     OW14902   4.261   2.341   2.511
 4668SOL    HW114903   4.200   2.335   2.590
 4668SOL    HW214904   4.328   2.267   2.514
 4669SOL     OW14905   4.566   6.697   6.249
 4669SOL    HW114906   4.569   6.641   6.331
 4669SOL    HW214907   4.526   6.645   6.174
 4670SOL     OW14908   2.260   2.757   5.819
 4670SOL    HW114909   2.339   2.717   5.867
 4670SOL    HW214910   2.272   2.856   5.813
 4671SOL     OW14911   6.714   2.497   0.752
 4671SOL    HW114912   6.702   2.594   0.734
 4671SOL    HW214913   6.796   2.483   0.808
 4672SOL     OW14914   2.397   4.340   5.939
 4672SOL    HW114915   2.442   4.430   5.942
 4672SOL    HW214916   2.310   4.345   5.988
 4673SOL     OW14917   5.228   0.586   2.106
 4673SOL    HW114918   5.228   0.527   2.187
 4673SOL    HW214919   5.322   0.604   2.078
 4674SOL     OW14920   5.467   0.774   6.505
 4674SOL    HW114921   5.498   0.707   6.437
 4674SOL    HW214922   5.388   0.824   6.469
 4675SOL     OW14923   2.079   1.280   6.518
 4675SOL    HW114924   2.027   1.365   6.523
 4675SOL    HW214925   2.176   1.299   6.534
 4676SOL     OW14926   7.018   6.189   3.744
 4676SOL    HW114927   0.006   6.134   3.661
 4676SOL    HW214928   0.070   6.170   3.807
 4677SOL     OW14929   2.292   1.697   6.505
 4677SOL    HW114930   2.196   1.686   6.531
 4677SOL    HW214931   2.307   1.790   6.472
 4678SOL     OW14932   2.022   4.274   3.253
 4678SOL    HW114933   1.991   4.236   3.166
 4678SOL    HW214934   1.945   4.278   3.317
 4679SOL     OW14935   3.901   1.142   0.532
 4679SOL    HW114936   3.939   1.198   0.459
 4679SOL    HW214937   3.814   1.103   0.502
 4680SOL     OW14938   3.370   1.509   0.605
 4680SOL    HW114939   3.356   1.597   0.651
 4680SOL    HW214940   3.468   1.494   0.591
 4681SOL     OW14941   4.919   6.106   6.195
 4681SOL    HW114942   5.018   6.108   6.214
 4681SOL    HW214943   4.872   6.060   6.269
 4682SOL     OW14944   4.460   4.536   5.817
 4682SOL    HW114945   4.505   4.624   5.801
 4682SOL    HW214946   4.411   4.508   5.735
 4683SOL     OW14947   4.549   4.838   2.839
 4683SOL    HW114948   4.558   4.899   2.760
 4683SOL    HW214949   4.555   4.743   2.807
 4684SOL     OW14950   6.371   1.574   5.014
 4684SOL    HW114951   6.396   1.484   4.979
 4684SOL    HW214952   6.450   1.635   5.008
 4685SOL     OW14953   0.788   6.089   5.691
 4685SOL    HW114954   0.708   6.028   5.686
 4685SOL    HW214955   0.820   6.092   5.786
 4686SOL     OW14956   4.170   5.123   6.906
 4686SOL    HW114957   4.117   5.067   6.841
 4686SOL    HW214958   4.136   5.107   6.998
 4687SOL     OW14959   6.350   4.103   4.773
 4687SOL    HW114960   6.281   4.125   4.841
 4687SOL    HW214961   6.306   4.062   4.693
 4688SOL     OW14962   5.974   4.529   4.556
 4688SOL    HW114963   6.068   4.560   4.564
 4688SOL    HW214964   5.912   4.607   4.568
 4689SOL     OW14965   5.827   0.888   0.238
 4689SOL    HW114966   5.748   0.858   0.292
 4689SOL    HW214967   5.877   0.808   0.205
 4690SOL     OW14968   1.061   6.563   6.917
 4690SOL    HW114969   1.159   6.546   6.904
 4690SOL    HW214970   1.048   6.652   6.961
 4691SOL     OW14971   3.059   5.057   1.834
 4691SOL    HW114972   3.093   5.021   1.747
 4691SOL    HW214973   3.004   4.986   1.880
 4692SOL     OW14974   6.197   5.423   1.800
 4692SOL    HW114975   6.231   5.483   1.873
 4692SOL    HW214976   6.113   5.378   1.831
 4693SOL     OW14977   0.658   1.723   3.175
 4693SOL    HW114978   0.587   1.654   3.191
 4693SOL    HW214979   0.682   1.768   3.261
 4694SOL     OW14980   1.960   0.513   6.989
 4694SOL    HW114981   1.921   0.511   0.058
 4694SOL    HW214982   2.043   0.458   6.988
 4695SOL     OW14983   1.562   3.552   1.708
 4695SOL    HW114984   1.631   3.551   1.636
 4695SOL    HW214985   1.553   3.460   1.746
 4696SOL     OW14986   0.444   4.147   0.283
 4696SOL    HW114987   0.456   4.066   0.340
 4696SOL    HW214988   0.477   4.127   0.190
 4697SOL     OW14989   1.916   3.125   1.338
 4697SOL    HW114990   1.893   3.036   1.375
 4697SOL    HW214991   1.958   3.115   1.247
 4698SOL     OW14992   4.576   4.954   2.556
 4698SOL    HW114993   4.596   4.858   2.537
 4698SOL    HW214994   4.656   4.996   2.600
 4699SOL     OW14995   1.779   6.711   2.295
 4699SOL    HW114996   1.681   6.717   2.313
 4699SOL    HW214997   1.796   6.643   2.223
 4700SOL     OW14998   6.675   1.244   3.401
 4700SOL    HW114999   6.689   1.323   3.341
 4700SOL    HW215000   6.617   1.271   3.478
 4701SOL     OW15001   2.462   2.184   0.064
 4701SOL    HW115002   2.422   2.258   0.119
 4701SOL    HW215003   2.560   2.202   0.050
 4702SOL     OW15004   3.878   5.398   0.204
 4702SOL    HW115005   3.946   5.402   0.277
 4702SOL    HW215006   3.921   5.420   0.117
 4703SOL     OW15007   1.127   1.305   1.569
 4703SOL    HW115008   1.149   1.379   1.505
 4703SOL    HW215009   1.210   1.277   1.617
 4704SOL     OW15010   0.505   6.575   0.671
 4704SOL    HW115011   0.451   6.659   0.681
 4704SOL    HW215012   0.451   6.507   0.623
 4705SOL     OW15013   3.802   3.341   2.437
 4705SOL    HW115014   3.846   3.252   2.445
 4705SOL    HW215015   3.705   3.330   2.416
 4706SOL     OW15016   3.657   0.432   6.877
 4706SOL    HW115017   3.577   0.467   6.926
 4706SOL    HW215018   3.731   0.499   6.882
 4707SOL     OW15019   1.929   6.569   1.195
 4707SOL    HW115020   1.952   6.523   1.109
 4707SOL    HW215021   1.958   6.512   1.271
 4708SOL     OW15022   1.198   1.724   6.507
 4708SOL    HW115023   1.165   1.780   6.583
 4708SOL    HW215024   1.120   1.681   6.461
 4709SOL     OW15025   4.566   6.003   5.670
 4709SOL    HW115026   4.518   6.091   5.669
 4709SOL    HW215027   4.662   6.017   5.646
 4710SOL     OW15028   4.172   0.754   5.525
 4710SOL    HW115029   4.102   0.707   5.579
 4710SOL    HW215030   4.227   0.812   5.585
 4711SOL     OW15031   5.892   0.862   1.372
 4711SOL    HW115032   5.820   0.795   1.353
 4711SOL    HW215033   5.946   0.831   1.450
 4712SOL     OW15034   2.883   4.665   0.007
 4712SOL    HW115035   2.914   4.575   6.998
 4712SOL    HW215036   2.941   4.695   0.083
 4713SOL     OW15037   3.608   3.901   0.483
 4713SOL    HW115038   3.566   3.888   0.573
 4713SOL    HW215039   3.538   3.925   0.417
 4714SOL     OW15040   1.000   2.181   7.004
 4714SOL    HW115041   1.045   2.203   6.917
 4714SOL    HW215042   0.966   2.265   0.023
 4715SOL     OW15043   5.510   2.132   2.575
 4715SOL    HW115044   5.478   2.183   2.495
 4715SOL    HW215045   5.432   2.084   2.617
 4716SOL     OW15046   4.733   6.001   6.396
 4716SOL    HW115047   4.786   5.937   6.451
 4716SOL    HW215048   4.650   5.956   6.364
 4717SOL     OW15049   0.088   0.447   3.927
 4717SOL    HW115050   7.023   0.494   3.923
 4717SOL    HW215051   0.076   0.352   3.898
 4718SOL     OW15052   5.355   2.515   1.652
 4718SOL    HW115053   5.312   2.604   1.664
 4718SOL    HW215054   5.304   2.446   1.704
 4719SOL     OW15055   5.004   2.942   1.706
 4719SOL    HW115056   5.029   2.874   1.637
 4719SOL    HW215057   4.999   2.897   1.796
 4720SOL     OW15058   2.224   5.625   5.650
 4720SOL    HW115059   2.205   5.534   5.688
 4720SOL    HW215060   2.296   5.669   5.703
 4721SOL     OW15061   6.502   2.038   2.290
 4721SOL    HW115062   6.578   2.056   2.228
 4721SOL    HW215063   6.416   2.067   2.247
 4722SOL     OW15064   0.994   5.895   6.455
 4722SOL    HW115065   1.070   5.879   6.518
 4722SOL    HW215066   0.952   5.808   6.430
 4723SOL     OW15067   2.561   3.855   5.824
 4723SOL    HW115068   2.531   3.890   5.735
 4723SOL    HW215069   2.504   3.894   5.896
 4724SOL     OW15070   6.432   6.212   2.596
 4724SOL    HW115071   6.470   6.246   2.511
 4724SOL    HW215072   6.337   6.243   2.605
 4725SOL     OW15073   6.294   5.551   2.528
 4725SOL    HW115074   6.376   5.543   2.586
 4725SOL    HW215075   6.261   5.459   2.505
 4726SOL     OW15076   1.523   2.382   5.943
 4726SOL    HW115077   1.525   2.393   6.042
 4726SOL    HW215078   1.603   2.329   5.913
 4727SOL     OW15079   1.272   5.955   1.102
 4727SOL    HW115080   1.349   5.932   1.162
 4727SOL    HW215081   1.208   5.879   1.100
 4728SOL     OW15082   6.541   1.041   2.212
 4728SOL    HW115083   6.540   1.022   2.113
 4728SOL    HW215084   6.627   1.007   2.251
 4729SOL     OW15085   2.824   1.369   0.522
 4729SOL    HW115086   2.755   1.314   0.474
 4729SOL    HW215087   2.779   1.426   0.591
 4730SOL     OW15088   3.162   5.860   4.939
 4730SOL    HW115089   3.153   5.775   4.992
 4730SOL    HW215090   3.083   5.919   4.958
 4731SOL     OW15091   4.362   0.037   0.126
 4731SOL    HW115092   4.371   6.966   0.093
 4731SOL    HW215093   4.388   0.041   0.223
 4732SOL     OW15094   0.932   2.930   5.987
 4732SOL    HW115095   0.999   2.974   5.927
 4732SOL    HW215096   0.882   3.001   6.037
 4733SOL     OW15097   1.183   3.969   3.308
 4733SOL    HW115098   1.255   3.905   3.335
 4733SOL    HW215099   1.218   4.062   3.312
 4734SOL     OW15100   4.362   2.684   0.303
 4734SOL    HW115101   4.428   2.699   0.376
 4734SOL    HW215102   4.269   2.698   0.338
 4735SOL     OW15103   6.847   5.488   4.572
 4735SOL    HW115104   6.872   5.475   4.668
 4735SOL    HW215105   6.810   5.580   4.559
 4736SOL     OW15106   0.146   1.571   5.791
 4736SOL    HW115107   0.067   1.509   5.787
 4736SOL    HW215108   0.197   1.553   5.875
 4737SOL     OW15109   2.401   4.496   2.115
 4737SOL    HW115110   2.310   4.536   2.121
 4737SOL    HW215111   2.428   4.459   2.204
 4738SOL     OW15112   0.255   6.246   2.865
 4738SOL    HW115113   0.273   6.336   2.825
 4738SOL    HW215114   0.329   6.183   2.840
 4739SOL     OW15115   4.046   6.794   3.448
 4739SOL    HW115116   4.066   6.773   3.352
 4739SOL    HW215117   4.089   6.881   3.473
 4740SOL     OW15118   0.868   1.131   1.706
 4740SOL    HW115119   0.912   1.211   1.668
 4740SOL    HW215120   0.930   1.085   1.769
 4741SOL     OW15121   3.903   3.598   1.069
 4741SOL    HW115122   3.998   3.582   1.095
 4741SOL    HW215123   3.895   3.597   0.969
 4742SOL     OW15124   3.658   6.723   6.226
 4742SOL    HW115125   3.720   6.645   6.238
 4742SOL    HW215126   3.687   6.776   6.147
 4743SOL     OW15127   1.654   3.150   3.583
 4743SOL    HW115128   1.683   3.078   3.520
 4743SOL    HW215129   1.734   3.183   3.634
 4744SOL     OW15130   2.055   4.453   0.453
 4744SOL    HW115131   2.035   4.535   0.399
 4744SOL    HW215132   2.055   4.475   0.550
 4745SOL     OW15133   3.231   4.417   5.865
 4745SOL    HW115134   3.198   4.404   5.771
 4745SOL    HW215135   3.283   4.502   5.870
 4746SOL     OW15136   5.478   5.743   1.978
 4746SOL    HW115137   5.393   5.692   1.968
 4746SOL    HW215138   5.514   5.730   2.070
 4747SOL     OW15139   1.735   3.909   0.277
 4747SOL    HW115140   1.755   3.811   0.285
 4747SOL    HW215141   1.805   3.952   0.220
 4748SOL     OW15142   2.291   5.219   0.955
 4748SOL    HW115143   2.305   5.254   0.862
 4748SOL    HW215144   2.317   5.289   1.021
 4749SOL     OW15145   1.813   6.200   5.726
 4749SOL    HW115146   1.814   6.300   5.720
 4749SOL    HW215147   1.720   6.166   5.711
 4750SOL     OW15148   0.429   3.964   4.561
 4750SOL    HW115149   0.529   3.956   4.555
 4750SOL    HW215150   0.401   4.054   4.529
 4751SOL     OW15151   3.797   2.060   2.220
 4751SOL    HW115152   3.872   2.019   2.170
 4751SOL    HW215153   3.746   2.122   2.160
 4752SOL     OW15154   4.226   1.285   6.519
 4752SOL    HW115155   4.222   1.370   6.571
 4752SOL    HW215156   4.164   1.218   6.560
 4753SOL     OW15157   5.840   0.161   3.701
 4753SOL    HW115158   5.910   0.146   3.631
 4753SOL    HW215159   5.784   0.239   3.677
 4754SOL     OW15160   5.944   5.648   4.625
 4754SOL    HW115161   5.956   5.574   4.692
 4754SOL    HW215162   5.880   5.618   4.554
 4755SOL     OW15163   3.076   0.399   0.238
 4755SOL    HW115164   3.118   0.490   0.236
 4755SOL    HW215165   3.059   0.368   0.145
 4756SOL     OW15166   5.551   2.696   0.271
 4756SOL    HW115167   5.607   2.622   0.308
 4756SOL    HW215168   5.611   2.768   0.235
 4757SOL     OW15169   2.645   1.493   0.744
 4757SOL    HW115170   2.605   1.432   0.813
 4757SOL    HW215171   2.573   1.552   0.707
 4758SOL     OW15172   1.662   6.266   3.594
 4758SOL    HW115173   1.667   6.176   3.551
 4758SOL    HW215174   1.733   6.273   3.664
 4759SOL     OW15175   6.270   4.631   4.791
 4759SOL    HW115176   6.296   4.622   4.695
 4759SOL    HW215177   6.351   4.657   4.845
 4760SOL     OW15178   2.394   2.098   0.720
 4760SOL    HW115179   2.361   2.091   0.814
 4760SOL    HW215180   2.451   2.179   0.710
 4761SOL     OW15181   0.567   5.779   0.239
 4761SOL    HW115182   0.494   5.846   0.218
 4761SOL    HW215183   0.549   5.695   0.189
 4762SOL     OW15184   1.390   5.714   2.309
 4762SOL    HW115185   1.334   5.774   2.252
 4762SOL    HW215186   1.351   5.709   2.401
 4763SOL     OW15187   5.638   6.726   3.074
 4763SOL    HW115188   5.623   6.810   3.022
 4763SOL    HW215189   5.697   6.745   3.152
 4764SOL     OW15190   4.857   3.929   4.925
 4764SOL    HW115191   4.892   3.861   4.988
 4764SOL    HW215192   4.787   3.888   4.866
 4765SOL     OW15193   4.645   1.162   4.715
 4765SOL    HW115194   4.560   1.207   4.744
 4765SOL    HW215195   4.723   1.208   4.757
 4766SOL     OW15196   5.362   5.692   4.135
 4766SOL    HW115197   5.317   5.676   4.223
 4766SOL    HW215198   5.441   5.752   4.147
 4767SOL     OW15199   2.866   5.483   5.228
 4767SOL    HW115200   2.937   5.415   5.210
 4767SOL    HW215201   2.777   5.437   5.230
 4768SOL     OW15202   4.218   2.324   6.396
 4768SOL    HW115203   4.281   2.353   6.324
 4768SOL    HW215204   4.252   2.356   6.485
 4769SOL     OW15205   4.779   5.120   6.920
 4769SOL    HW115206   4.827   5.055   6.861
 4769SOL    HW215207   4.717   5.069   6.981
 4770SOL     OW15208   0.496   0.895   4.163
 4770SOL    HW115209   0.469   0.862   4.253
 4770SOL    HW215210   0.472   0.826   4.094
 4771SOL     OW15211   2.956   5.618   5.614
 4771SOL    HW115212   2.867   5.574   5.602
 4771SOL    HW215213   2.999   5.630   5.525
 4772SOL     OW15214   4.382   4.972   0.840
 4772SOL    HW115215   4.308   4.906   0.830
 4772SOL    HW215216   4.467   4.933   0.803
 4773SOL     OW15217   6.626   5.303   4.452
 4773SOL    HW115218   6.597   5.365   4.379
 4773SOL    HW215219   6.708   5.339   4.496
 4774SOL     OW15220   1.868   3.267   1.686
 4774SOL    HW115221   1.798   3.211   1.642
 4774SOL    HW215222   1.948   3.211   1.707
 4775SOL     OW15223   5.229   6.570   2.760
 4775SOL    HW115224   5.253   6.487   2.811
 4775SOL    HW215225   5.202   6.545   2.667
 4776SOL     OW15226   1.181   6.108   6.154
 4776SOL    HW115227   1.186   6.061   6.066
 4776SOL    HW215228   1.086   6.122   6.179
 4777SOL     OW15229   2.220   5.348   1.316
 4777SOL    HW115230   2.154   5.422   1.301
 4777SOL    HW215231   2.299   5.362   1.256
 4778SOL     OW15232   6.523   2.568   3.883
 4778SOL    HW115233   6.602   2.509   3.866
 4778SOL    HW215234   6.555   2.662   3.900
 4779SOL     OW15235   5.836   5.609   2.426
 4779SOL    HW115236   5.882   5.697   2.437
 4779SOL    HW215237   5.799   5.602   2.334
 4780SOL     OW15238   6.039   1.649   0.122
 4780SOL    HW115239   5.993   1.657   0.034
 4780SOL    HW215240   6.125   1.700   0.121
 4781SOL     OW15241   2.406   5.948   2.305
 4781SOL    HW115242   2.475   6.016   2.278
 4781SOL    HW215243   2.443   5.892   2.380
 4782SOL     OW15244   6.313   5.731   0.055
 4782SOL    HW115245   6.377   5.705   0.128
 4782SOL    HW215246   6.220   5.709   0.084
 4783SOL     OW15247   4.890   3.887   0.052
 4783SOL    HW115248   4.830   3.966   0.042
 4783SOL    HW215249   4.944   3.876   6.991
 4784SOL     OW15250   6.141   3.534   6.955
 4784SOL    HW115251   6.046   3.508   6.937
 4784SOL    HW215252   6.159   3.625   6.917
 4785SOL     OW15253   1.538   6.287   3.160
 4785SOL    HW115254   1.510   6.375   3.200
 4785SOL    HW215255   1.514   6.213   3.222
 4786SOL     OW15256   2.450   0.305   0.267
 4786SOL    HW115257   2.380   0.367   0.232
 4786SOL    HW215258   2.494   0.346   0.346
 4787SOL     OW15259   3.877   1.326   2.951
 4787SOL    HW115260   3.947   1.259   2.977
 4787SOL    HW215261   3.900   1.415   2.989
 4788SOL     OW15262   6.440   6.281   0.013
 4788SOL    HW115263   6.504   6.357   0.023
 4788SOL    HW215264   6.385   6.294   6.953
 4789SOL     OW15265   4.562   2.291   1.296
 4789SOL    HW115266   4.630   2.222   1.269
 4789SOL    HW215267   4.546   2.286   1.394
 4790SOL     OW15268   6.484   2.113   5.650
 4790SOL    HW115269   6.482   2.013   5.657
 4790SOL    HW215270   6.393   2.146   5.626
 4791SOL     OW15271   0.190   3.038   1.029
 4791SOL    HW115272   0.113   2.975   1.039
 4791SOL    HW215273   0.265   3.010   1.089
 4792SOL     OW15274   2.894   4.814   3.467
 4792SOL    HW115275   2.872   4.821   3.370
 4792SOL    HW215276   2.988   4.845   3.482
 4793SOL     OW15277   2.488   2.463   5.152
 4793SOL    HW115278   2.479   2.548   5.204
 4793SOL    HW215279   2.399   2.439   5.113
 4794SOL     OW15280   5.243   0.306   4.677
 4794SOL    HW115281   5.321   0.320   4.616
 4794SOL    HW215282   5.158   0.315   4.625
 4795SOL     OW15283   6.362   2.114   4.327
 4795SOL    HW115284   6.348   2.210   4.353
 4795SOL    HW215285   6.332   2.101   4.232
 4796SOL     OW15286   4.877   1.673   4.865
 4796SOL    HW115287   4.899   1.770   4.867
 4796SOL    HW215288   4.785   1.660   4.829
 4797SOL     OW15289   0.775   6.294   5.337
 4797SOL    HW115290   0.824   6.210   5.358
 4797SOL    HW215291   0.840   6.366   5.314
 4798SOL     OW15292   7.012   4.067   5.537
 4798SOL    HW115293   7.018   4.016   5.451
 4798SOL    HW215294   0.039   4.153   5.528
 4799SOL     OW15295   4.639   1.695   0.485
 4799SOL    HW115296   4.706   1.623   0.505
 4799SOL    HW215297   4.645   1.766   0.555
 4800SOL     OW15298   3.006   2.276   6.804
 4800SOL    HW115299   2.913   2.256   6.774
 4800SOL    HW215300   3.057   2.190   6.811
 4801SOL     OW15301   3.225   2.111   6.294
 4801SOL    HW115302   3.226   2.206   6.264
 4801SOL    HW215303   3.132   2.086   6.322
 4802SOL     OW15304   0.623   6.558   1.821
 4802SOL    HW115305   0.691   6.566   1.894
 4802SOL    HW215306   0.649   6.485   1.758
 4803SOL     OW15307   6.976   4.774   0.329
 4803SOL    HW115308   6.968   4.693   0.272
 4803SOL    HW215309   6.893   4.784   0.384
 4804SOL     OW15310   6.809   6.557   1.708
 4804SOL    HW115311   6.743   6.589   1.775
 4804SOL    HW215312   6.888   6.518   1.756
 4805SOL     OW15313   6.269   1.586   2.259
 4805SOL    HW115314   6.278   1.681   2.290
 4805SOL    HW215315   6.320   1.526   2.320
 4806SOL     OW15316   0.963   4.274   2.692
 4806SOL    HW115317   0.980   4.177   2.677
 4806SOL    HW215318   1.029   4.311   2.757
 4807SOL     OW15319   0.852   4.863   0.298
 4807SOL    HW115320   0.934   4.903   0.341
 4807SOL    HW215321   0.834   4.773   0.338
 4808SOL     OW15322   4.805   5.286   0.679
 4808SOL    HW115323   4.903   5.284   0.657
 4808SOL    HW215324   4.753   5.251   0.601
 4809SOL     OW15325   3.257   4.832   0.156
 4809SOL    HW115326   3.181   4.845   0.220
 4809SOL    HW215327   3.317   4.912   0.158
 4810SOL     OW15328   1.944   4.425   2.496
 4810SOL    HW115329   1.864   4.365   2.502
 4810SOL    HW215330   1.914   4.520   2.490
 4811SOL     OW15331   2.452   4.213   1.797
 4811SOL    HW115332   2.515   4.140   1.770
 4811SOL    HW215333   2.478   4.298   1.751
 4812SOL     OW15334   0.489   5.607   2.338
 4812SOL    HW115335   0.440   5.534   2.386
 4812SOL    HW215336   0.423   5.674   2.305
 4813SOL     OW15337   5.985   1.652   6.552
 4813SOL    HW115338   6.036   1.573   6.518
 4813SOL    HW215339   6.046   1.730   6.564
 4814SOL     OW15340   6.969   3.202   1.147
 4814SOL    HW115341   0.036   3.232   1.177
 4814SOL    HW215342   6.901   3.222   1.218
 4815SOL     OW15343   5.149   3.808   2.704
 4815SOL    HW115344   5.152   3.836   2.608
 4815SOL    HW215345   5.080   3.737   2.716
 4816SOL     OW15346   2.332   4.826   1.234
 4816SOL    HW115347   2.290   4.877   1.159
 4816SOL    HW215348   2.417   4.784   1.202
 4817SOL     OW15349   1.993   1.379   6.904
 4817SOL    HW115350   1.993   1.384   6.804
 4817SOL    HW215351   2.001   1.284   6.933
 4818SOL     OW15352   0.866   6.599   4.614
 4818SOL    HW115353   0.937   6.553   4.668
 4818SOL    HW215354   0.877   6.575   4.518
 4819SOL     OW15355   1.811   1.491   0.566
 4819SOL    HW115356   1.801   1.478   0.665
 4819SOL    HW215357   1.829   1.402   0.524
 4820SOL     OW15358   6.051   2.575   2.567
 4820SOL    HW115359   6.056   2.626   2.480
 4820SOL    HW215360   5.985   2.620   2.627
 4821SOL     OW15361   0.401   6.688   2.179
 4821SOL    HW115362   0.307   6.725   2.177
 4821SOL    HW215363   0.409   6.615   2.112
 4822SOL     OW15364   2.070   3.549   4.466
 4822SOL    HW115365   2.041   3.502   4.549
 4822SOL    HW215366   2.104   3.482   4.400
 4823SOL     OW15367   1.637   0.451   4.820
 4823SOL    HW115368   1.571   0.524   4.837
 4823SOL    HW215369   1.678   0.423   4.906
 4824SOL     OW15370   5.525   2.164   4.455
 4824SOL    HW115371   5.506   2.128   4.546
 4824SOL    HW215372   5.479   2.252   4.444
 4825SOL     OW15373   1.686   2.269   4.065
 4825SOL    HW115374   1.656   2.270   3.970
 4825SOL    HW215375   1.782   2.296   4.070
 4826SOL     OW15376   6.814   1.523   5.955
 4826SOL    HW115377   6.734   1.468   5.978
 4826SOL    HW215378   6.841   1.578   6.034
 4827SOL     OW15379   6.406   1.552   1.178
 4827SOL    HW115380   6.352   1.613   1.236
 4827SOL    HW215381   6.345   1.491   1.128
 4828SOL     OW15382   5.388   3.272   0.777
 4828SOL    HW115383   5.479   3.249   0.812
 4828SOL    HW215384   5.397   3.318   0.689
 4829SOL     OW15385   4.330   6.717   0.229
 4829SOL    HW115386   4.257   6.780   0.257
 4829SOL    HW215387   4.303   6.670   0.145
 4830SOL     OW15388   4.052   6.815   3.792
 4830SOL    HW115389   3.962   6.843   3.760
 4830SOL    HW215390   4.079   6.871   3.871
 4831SOL     OW15391   0.346   4.526   6.377
 4831SOL    HW115392   0.406   4.504   6.300
 4831SOL    HW215393   0.252   4.538   6.344
 4832SOL     OW15394   3.523   3.731   4.699
 4832SOL    HW115395   3.435   3.770   4.727
 4832SOL    HW215396   3.549   3.768   4.610
 4833SOL     OW15397   4.727   2.324   3.318
 4833SOL    HW115398   4.801   2.272   3.360
 4833SOL    HW215399   4.685   2.270   3.245
 4834SOL     OW15400   3.711   6.423   0.818
 4834SOL    HW115401   3.739   6.328   0.804
 4834SOL    HW215402   3.786   6.483   0.788
 4835SOL     OW15403   6.656   1.480   6.397
 4835SOL    HW115404   6.683   1.392   6.359
 4835SOL    HW215405   6.616   1.467   6.488
 4836SOL     OW15406   5.127   3.030   4.711
 4836SOL    HW115407   5.225   3.048   4.704
 4836SOL    HW215408   5.081   3.112   4.746
 4837SOL     OW15409   6.159   3.740   2.661
 4837SOL    HW115410   6.256   3.749   2.639
 4837SOL    HW215411   6.105   3.774   2.584
 4838SOL     OW15412   1.034   5.130   0.133
 4838SOL    HW115413   1.079   5.217   0.112
 4838SOL    HW215414   1.103   5.058   0.137
 4839SOL     OW15415   1.891   3.317   6.688
 4839SOL    HW115416   1.865   3.296   6.782
 4839SOL    HW215417   1.954   3.247   6.654
 4840SOL     OW15418   6.874   4.821   6.533
 4840SOL    HW115419   6.832   4.740   6.490
 4840SOL    HW215420   6.966   4.798   6.563
 4841SOL     OW15421   2.940   5.721   1.690
 4841SOL    HW115422   3.025   5.689   1.650
 4841SOL    HW215423   2.866   5.658   1.669
 4842SOL     OW15424   3.797   5.114   2.797
 4842SOL    HW115425   3.808   5.016   2.781
 4842SOL    HW215426   3.875   5.164   2.759
 4843SOL     OW15427   6.589   3.180   1.090
 4843SOL    HW115428   6.660   3.135   1.037
 4843SOL    HW215429   6.501   3.137   1.073
 4844SOL     OW15430   0.462   3.038   5.940
 4844SOL    HW115431   0.477   3.019   6.037
 4844SOL    HW215432   0.378   3.091   5.929
 4845SOL     OW15433   5.236   5.531   6.360
 4845SOL    HW115434   5.234   5.436   6.389
 4845SOL    HW215435   5.257   5.536   6.262
 4846SOL     OW15436   6.951   3.193   3.933
 4846SOL    HW115437   6.855   3.172   3.949
 4846SOL    HW215438   6.973   3.181   3.836
 4847SOL     OW15439   2.904   1.058   6.069
 4847SOL    HW115440   2.871   1.030   5.978
 4847SOL    HW215441   2.964   1.138   6.059
 4848SOL     OW15442   1.629   0.788   3.953
 4848SOL    HW115443   1.645   0.848   3.874
 4848SOL    HW215444   1.548   0.732   3.935
 4849SOL     OW15445   1.165   5.852   6.689
 4849SOL    HW115446   1.261   5.827   6.681
 4849SOL    HW215447   1.145   5.876   6.784
 4850SOL     OW15448   3.872   1.603   1.980
 4850SOL    HW115449   3.796   1.632   2.039
 4850SOL    HW215450   3.839   1.589   1.887
 4851SOL     OW15451   4.452   6.939   5.693
 4851SOL    HW115452   4.542   6.902   5.672
 4851SOL    HW215453   4.432   6.927   5.790
 4852SOL     OW15454   1.645   6.035   4.844
 4852SOL    HW115455   1.598   5.997   4.764
 4852SOL    HW215456   1.637   5.972   4.921
 4853SOL     OW15457   3.157   1.336   3.030
 4853SOL    HW115458   3.062   1.313   3.008
 4853SOL    HW215459   3.169   1.336   3.129
 4854SOL     OW15460   4.630   6.832   1.371
 4854SOL    HW115461   4.620   6.801   1.276
 4854SOL    HW215462   4.648   6.753   1.429
 4855SOL     OW15463   6.194   2.892   3.402
 4855SOL    HW115464   6.230   2.805   3.436
 4855SOL    HW215465   6.269   2.948   3.368
 4856SOL     OW15466   1.315   3.258   3.013
 4856SOL    HW115467   1.384   3.265   3.085
 4856SOL    HW215468   1.255   3.338   3.017
 4857SOL     OW15469   2.538   1.881   4.790
 4857SOL    HW115470   2.544   1.962   4.732
 4857SOL    HW215471   2.600   1.891   4.868
 4858SOL     OW15472   0.766   0.663   4.192
 4858SOL    HW115473   0.852   0.692   4.150
 4858SOL    HW215474   0.721   0.742   4.233
 4859SOL     OW15475   0.866   0.186   4.466
 4859SOL    HW115476   0.848   0.112   4.402
 4859SOL    HW215477   0.791   0.252   4.464
 4860SOL     OW15478   4.409   4.429   1.670
 4860SOL    HW115479   4.404   4.341   1.718
 4860SOL    HW215480   4.359   4.498   1.722
 4861SOL     OW15481   6.132   5.335   0.226
 4861SOL    HW115482   6.172   5.374   0.143
 4861SOL    HW215483   6.050   5.385   0.251
 4862SOL     OW15484   2.281   4.501   4.971
 4862SOL    HW115485   2.342   4.542   4.903
 4862SOL    HW215486   2.255   4.571   5.038
 4863SOL     OW15487   5.539   3.694   1.282
 4863SOL    HW115488   5.549   3.692   1.182
 4863SOL    HW215489   5.446   3.667   1.307
 4864SOL     OW15490   4.009   1.372   2.655
 4864SOL    HW115491   3.967   1.330   2.574
 4864SOL    HW215492   3.942   1.376   2.729
 4865SOL     OW15493   2.097   6.419   3.940
 4865SOL    HW115494   2.117   6.508   3.980
 4865SOL    HW215495   2.096   6.349   4.011
 4866SOL     OW15496   5.982   3.449   1.978
 4866SOL    HW115497   5.953   3.362   2.017
 4866SOL    HW215498   5.935   3.524   2.024
 4867SOL     OW15499   3.886   5.474   1.789
 4867SOL    HW115500   3.909   5.552   1.847
 4867SOL    HW215501   3.819   5.416   1.835
 4868SOL     OW15502   6.592   4.835   2.986
 4868SOL    HW115503   6.564   4.742   3.009
 4868SOL    HW215504   6.521   4.879   2.931
 4869SOL     OW15505   1.374   1.120   1.619
 4869SOL    HW115506   1.397   1.043   1.677
 4869SOL    HW215507   1.405   1.102   1.525
 4870SOL     OW15508   0.391   5.911   2.440
 4870SOL    HW115509   0.382   5.881   2.345
 4870SOL    HW215510   0.481   5.885   2.475
 4871SOL     OW15511   1.302   0.627   4.145
 4871SOL    HW115512   1.365   0.605   4.070
 4871SOL    HW215513   1.340   0.701   4.201
 4872SOL     OW15514   6.467   6.446   3.900
 4872SOL    HW115515   6.451   6.382   3.975
 4872SOL    HW215516   6.494   6.396   3.818
 4873SOL     OW15517   6.916   4.619   3.694
 4873SOL    HW115518   6.816   4.614   3.690
 4873SOL    HW215519   6.952   4.646   3.605
 4874SOL     OW15520   6.341   3.332   3.054
 4874SOL    HW115521   6.407   3.258   3.067
 4874SOL    HW215522   6.252   3.294   3.030
 4875SOL     OW15523   5.724   2.493   1.395
 4875SOL    HW115524   5.628   2.523   1.402
 4875SOL    HW215525   5.734   2.404   1.440
 4876SOL     OW15526   5.603   1.771   4.236
 4876SOL    HW115527   5.656   1.687   4.244
 4876SOL    HW215528   5.640   1.840   4.297
 4877SOL     OW15529   1.576   2.288   6.559
 4877SOL    HW115530   1.558   2.381   6.590
 4877SOL    HW215531   1.545   2.223   6.629
 4878SOL     OW15532   6.192   0.868   3.047
 4878SOL    HW115533   6.267   0.891   3.109
 4878SOL    HW215534   6.113   0.926   3.067
 4879SOL     OW15535   4.500   6.155   2.650
 4879SOL    HW115536   4.537   6.072   2.691
 4879SOL    HW215537   4.524   6.234   2.707
 4880SOL     OW15538   5.674   3.586   0.058
 4880SOL    HW115539   5.768   3.621   0.052
 4880SOL    HW215540   5.675   3.486   0.052
 4881SOL     OW15541   1.586   1.128   6.304
 4881SOL    HW115542   1.676   1.109   6.344
 4881SOL    HW215543   1.538   1.195   6.361
 4882SOL     OW15544   5.224   1.668   5.210
 4882SOL    HW115545   5.297   1.715   5.159
 4882SOL    HW215546   5.241   1.570   5.208
 4883SOL     OW15547   5.647   4.492   1.797
 4883SOL    HW115548   5.567   4.435   1.817
 4883SOL    HW215549   5.730   4.439   1.810
 4884SOL     OW15550   3.218   6.972   1.542
 4884SOL    HW115551   3.128   6.987   1.584
 4884SOL    HW215552   3.206   6.960   1.443
 4885SOL     OW15553   1.859   5.168   2.245
 4885SOL    HW115554   1.791   5.154   2.317
 4885SOL    HW215555   1.949   5.140   2.277
 4886SOL     OW15556   1.234   5.264   1.187
 4886SOL    HW115557   1.282   5.297   1.269
 4886SOL    HW215558   1.283   5.294   1.105
 4887SOL     OW15559   0.661   0.462   2.590
 4887SOL    HW115560   0.626   0.545   2.633
 4887SOL    HW215561   0.598   0.434   2.517
 4888SOL     OW15562   2.372   6.905   4.358
 4888SOL    HW115563   2.376   6.879   4.262
 4888SOL    HW215564   2.362   6.823   4.414
 4889SOL     OW15565   6.596   1.373   6.002
 4889SOL    HW115566   6.539   1.451   5.979
 4889SOL    HW215567   6.542   1.289   5.999
 4890SOL     OW15568   1.356   1.694   0.115
 4890SOL    HW115569   1.321   1.691   0.209
 4890SOL    HW215570   1.456   1.704   0.117
 4891SOL     OW15571   1.477   4.830   6.183
 4891SOL    HW115572   1.437   4.797   6.269
 4891SOL    HW215573   1.572   4.856   6.199
 4892SOL     OW15574   3.281   6.249   2.064
 4892SOL    HW115575   3.236   6.329   2.024
 4892SOL    HW215576   3.263   6.246   2.162
 4893SOL     OW15577   6.583   3.699   1.622
 4893SOL    HW115578   6.602   3.793   1.649
 4893SOL    HW215579   6.524   3.656   1.690
 4894SOL     OW15580   2.536   1.373   3.084
 4894SOL    HW115581   2.476   1.350   3.008
 4894SOL    HW215582   2.606   1.438   3.053
 4895SOL     OW15583   0.903   5.006   3.585
 4895SOL    HW115584   0.962   5.030   3.662
 4895SOL    HW215585   0.821   5.063   3.586
 4896SOL     OW15586   1.973   5.787   2.108
 4896SOL    HW115587   2.039   5.755   2.039
 4896SOL    HW215588   1.917   5.709   2.138
 4897SOL     OW15589   2.765   4.049   6.127
 4897SOL    HW115590   2.732   4.114   6.058
 4897SOL    HW215591   2.694   3.980   6.144
 4898SOL     OW15592   3.617   0.687   4.311
 4898SOL    HW115593   3.710   0.723   4.316
 4898SOL    HW215594   3.555   0.746   4.363
 4899SOL     OW15595   6.073   5.277   3.146
 4899SOL    HW115596   5.977   5.285   3.173
 4899SOL    HW215597   6.093   5.182   3.122
 4900SOL     OW15598   2.052   5.808   4.161
 4900SOL    HW115599   2.030   5.720   4.119
 4900SOL    HW215600   2.030   5.805   4.259
 4901SOL     OW15601   3.159   6.785   5.736
 4901SOL    HW115602   3.162   6.735   5.649
 4901SOL    HW215603   3.146   6.721   5.811
 4902SOL     OW15604   2.279   1.921   3.921
 4902SOL    HW115605   2.291   1.844   3.858
 4902SOL    HW215606   2.349   1.990   3.903
 4903SOL     OW15607   3.727   6.389   6.407
 4903SOL    HW115608   3.648   6.337   6.373
 4903SOL    HW215609   3.777   6.427   6.329
 4904SOL     OW15610   2.217   6.736   3.815
 4904SOL    HW115611   2.269   6.791   3.881
 4904SOL    HW215612   2.276   6.666   3.776
 4905SOL     OW15613   4.221   0.223   2.205
 4905SOL    HW115614   4.144   0.271   2.246
 4905SOL    HW215615   4.277   0.182   2.277
 4906SOL     OW15616   4.556   1.834   5.923
 4906SOL    HW115617   4.495   1.791   5.856
 4906SOL    HW215618   4.651   1.806   5.904
 4907SOL     OW15619   4.123   6.465   1.123
 4907SOL    HW115620   4.031   6.457   1.161
 4907SOL    HW215621   4.155   6.375   1.093
 4908SOL     OW15622   5.507   4.588   6.505
 4908SOL    HW115623   5.601   4.557   6.522
 4908SOL    HW215624   5.492   4.592   6.406
 4909SOL     OW15625   6.785   0.245   4.382
 4909SOL    HW115626   6.779   0.164   4.441
 4909SOL    HW215627   6.704   0.250   4.323
 4910SOL     OW15628   5.528   7.019   4.773
 4910SOL    HW115629   5.473   0.036   4.699
 4910SOL    HW215630   5.539   0.062   4.846
 4911SOL     OW15631   0.964   3.324   4.191
 4911SOL    HW115632   0.963   3.298   4.288
 4911SOL    HW215633   0.914   3.256   4.138
 4912SOL     OW15634   5.363   1.054   6.380
 4912SOL    HW115635   5.293   1.125   6.392
 4912SOL    HW215636   5.318   0.966   6.369
 4913SOL     OW15637   3.862   3.002   5.078
 4913SOL    HW115638   3.794   2.929   5.077
 4913SOL    HW215639   3.846   3.064   5.001
 4914SOL     OW15640   3.708   0.407   5.015
 4914SOL    HW115641   3.753   0.363   4.937
 4914SOL    HW215642   3.660   0.489   4.984
 4915SOL     OW15643   4.395   0.618   4.899
 4915SOL    HW115644   4.381   0.613   4.800
 4915SOL    HW215645   4.307   0.616   4.945
 4916SOL     OW15646   1.764   0.573   4.180
 4916SOL    HW115647   1.690   0.596   4.243
 4916SOL    HW215648   1.728   0.561   4.088
 4917SOL     OW15649   2.338   4.968   1.502
 4917SOL    HW115650   2.357   4.880   1.545
 4917SOL    HW215651   2.268   4.956   1.431
 4918SOL     OW15652   4.492   5.425   2.170
 4918SOL    HW115653   4.461   5.425   2.265
 4918SOL    HW215654   4.488   5.517   2.133
 4919SOL     OW15655   3.036   2.017   6.803
 4919SOL    HW115656   3.121   1.970   6.828
 4919SOL    HW215657   2.965   1.995   6.869
 4920SOL     OW15658   5.812   0.690   4.621
 4920SOL    HW115659   5.908   0.705   4.598
 4920SOL    HW215660   5.768   0.778   4.639
 4921SOL     OW15661   1.664   4.671   0.499
 4921SOL    HW115662   1.637   4.757   0.454
 4921SOL    HW215663   1.695   4.606   0.430
 4922SOL     OW15664   2.059   2.195   4.991
 4922SOL    HW115665   2.116   2.131   5.042
 4922SOL    HW215666   2.019   2.149   4.912
 4923SOL     OW15667   4.083   1.745   1.887
 4923SOL    HW115668   4.155   1.676   1.885
 4923SOL    HW215669   3.995   1.701   1.903
 4924SOL     OW15670   2.823   1.680   5.379
 4924SOL    HW115671   2.922   1.691   5.385
 4924SOL    HW215672   2.779   1.765   5.409
 4925SOL     OW15673   6.286   6.359   2.202
 4925SOL    HW115674   6.332   6.390   2.119
 4925SOL    HW215675   6.296   6.260   2.211
 4926SOL     OW15676   5.622   1.338   0.470
 4926SOL    HW115677   5.694   1.340   0.401
 4926SOL    HW215678   5.547   1.282   0.438
 4927SOL     OW15679   3.910   3.638   4.744
 4927SOL    HW115680   3.910   3.684   4.832
 4927SOL    HW215681   3.861   3.551   4.752
 4928SOL     OW15682   1.366   0.092   7.020
 4928SOL    HW115683   1.330   0.002   6.994
 4928SOL    HW215684   1.320   0.123   0.081
 4929SOL     OW15685   0.759   5.330   4.788
 4929SOL    HW115686   0.700   5.253   4.764
 4929SOL    HW215687   0.703   5.412   4.805
 4930SOL     OW15688   4.914   0.931   3.453
 4930SOL    HW115689   4.972   1.009   3.433
 4930SOL    HW215690   4.970   0.850   3.468
 4931SOL     OW15691   6.978   6.927   0.730
 4931SOL    HW115692   0.018   7.002   0.749
 4931SOL    HW215693   6.885   6.962   0.720
 4932SOL     OW15694   2.522   3.386   1.646
 4932SOL    HW115695   2.459   3.404   1.722
 4932SOL    HW215696   2.541   3.288   1.642
 4933SOL     OW15697   2.422   6.872   3.466
 4933SOL    HW115698   2.404   6.839   3.373
 4933SOL    HW215699   2.392   6.967   3.473
 4934SOL     OW15700   2.560   6.023   2.782
 4934SOL    HW115701   2.632   6.008   2.714
 4934SOL    HW215702   2.527   6.117   2.775
 4935SOL     OW15703   1.344   0.931   5.923
 4935SOL    HW115704   1.386   0.921   6.013
 4935SOL    HW215705   1.401   0.989   5.865
 4936SOL     OW15706   2.561   4.625   1.933
 4936SOL    HW115707   2.660   4.627   1.947
 4936SOL    HW215708   2.519   4.569   2.005
 4937SOL     OW15709   6.865   2.998   6.151
 4937SOL    HW115710   6.940   3.062   6.165
 4937SOL    HW215711   6.895   2.906   6.177
 4938SOL     OW15712   2.277   6.006   5.756
 4938SOL    HW115713   2.232   6.093   5.736
 4938SOL    HW215714   2.272   5.947   5.675
 4939SOL     OW15715   6.220   1.785   3.995
 4939SOL    HW115716   6.225   1.885   4.006
 4939SOL    HW215717   6.304   1.744   4.031
 4940SOL     OW15718   0.381   0.739   5.292
 4940SOL    HW115719   0.328   0.663   5.253
 4940SOL    HW215720   0.438   0.704   5.367
 4941SOL     OW15721   4.921   2.116   5.215
 4941SOL    HW115722   4.842   2.167   5.180
 4941SOL    HW215723   4.954   2.053   5.144
 4942SOL     OW15724   5.581   3.309   6.248
 4942SOL    HW115725   5.583   3.245   6.171
 4942SOL    HW215726   5.496   3.360   6.248
 4943SOL     OW15727   4.395   3.697   5.993
 4943SOL    HW115728   4.308   3.710   6.039
 4943SOL    HW215729   4.430   3.785   5.961
 4944SOL     OW15730   2.154   4.233   1.758
 4944SOL    HW115731   2.165   4.296   1.681
 4944SOL    HW215732   2.193   4.273   1.840
 4945SOL     OW15733   1.051   0.077   4.641
 4945SOL    HW115734   1.003   0.070   4.729
 4945SOL    HW215735   0.991   0.123   4.575
 4946SOL     OW15736   1.635   5.006   6.975
 4946SOL    HW115737   1.566   5.077   6.988
 4946SOL    HW215738   1.686   5.024   6.891
 4947SOL     OW15739   2.321   6.952   0.874
 4947SOL    HW115740   2.347   6.865   0.830
 4947SOL    HW215741   2.222   6.953   0.888
 4948SOL     OW15742   1.517   2.784   2.650
 4948SOL    HW115743   1.527   2.702   2.594
 4948SOL    HW215744   1.423   2.817   2.644
 4949SOL     OW15745   5.634   5.473   6.365
 4949SOL    HW115746   5.574   5.408   6.319
 4949SOL    HW215747   5.597   5.565   6.357
 4950SOL     OW15748   2.080   5.424   4.226
 4950SOL    HW115749   2.060   5.344   4.170
 4950SOL    HW215750   2.164   5.409   4.277
 4951SOL     OW15751   5.986   0.905   5.141
 4951SOL    HW115752   5.937   0.976   5.090
 4951SOL    HW215753   6.003   0.827   5.080
 4952SOL     OW15754   0.351   0.928   6.050
 4952SOL    HW115755   0.328   0.974   5.964
 4952SOL    HW215756   0.308   0.976   6.126
 4953SOL     OW15757   1.943   6.225   2.993
 4953SOL    HW115758   1.898   6.207   2.905
 4953SOL    HW215759   1.887   6.289   3.045
 4954SOL     OW15760   3.681   3.196   0.502
 4954SOL    HW115761   3.754   3.182   0.435
 4954SOL    HW215762   3.673   3.293   0.522
 4955SOL     OW15763   3.199   6.547   6.826
 4955SOL    HW115764   3.129   6.526   6.894
 4955SOL    HW215765   3.156   6.585   6.745
 4956SOL     OW15766   2.251   0.167   5.268
 4956SOL    HW115767   2.192   0.171   5.348
 4956SOL    HW215768   2.223   0.091   5.209
 4957SOL     OW15769   5.650   2.048   2.091
 4957SOL    HW115770   5.561   2.092   2.081
 4957SOL    HW215771   5.673   2.001   2.006
 4958SOL     OW15772   0.140   5.306   5.550
 4958SOL    HW115773   0.087   5.353   5.620
 4958SOL    HW215774   0.081   5.245   5.498
 4959SOL     OW15775   6.243   1.939   6.970
 4959SOL    HW115776   6.146   1.963   6.968
 4959SOL    HW215777   6.255   1.857   0.003
 4960SOL     OW15778   3.450   4.951   3.330
 4960SOL    HW115779   3.382   4.946   3.257
 4960SOL    HW215780   3.423   5.019   3.397
 4961SOL     OW15781   4.576   1.314   5.776
 4961SOL    HW115782   4.649   1.290   5.713
 4961SOL    HW215783   4.548   1.409   5.762
 4962SOL     OW15784   6.329   2.453   0.512
 4962SOL    HW115785   6.349   2.497   0.600
 4962SOL    HW215786   6.318   2.355   0.525
 4963SOL     OW15787   6.204   5.870   0.512
 4963SOL    HW115788   6.148   5.843   0.589
 4963SOL    HW215789   6.189   5.808   0.435
 4964SOL     OW15790   2.904   0.341   3.488
 4964SOL    HW115791   2.876   0.275   3.558
 4964SOL    HW215792   2.995   0.375   3.509
 4965SOL     OW15793   0.753   1.158   2.457
 4965SOL    HW115794   0.692   1.230   2.491
 4965SOL    HW215795   0.846   1.193   2.452
 4966SOL     OW15796   2.069   6.523   5.310
 4966SOL    HW115797   2.094   6.619   5.303
 4966SOL    HW215798   2.104   6.473   5.231
 4967SOL     OW15799   3.918   5.026   5.416
 4967SOL    HW115800   3.844   5.071   5.366
 4967SOL    HW215801   3.879   4.980   5.497
 4968SOL     OW15802   6.764   1.737   3.937
 4968SOL    HW115803   6.857   1.727   3.973
 4968SOL    HW215804   6.766   1.734   3.837
 4969SOL     OW15805   2.572   6.279   2.687
 4969SOL    HW115806   2.543   6.353   2.626
 4969SOL    HW215807   2.650   6.310   2.742
 4970SOL     OW15808   2.118   2.707   3.004
 4970SOL    HW115809   2.029   2.662   2.995
 4970SOL    HW215810   2.105   2.804   3.023
 4971SOL     OW15811   5.915   5.539   3.533
 4971SOL    HW115812   5.924   5.595   3.615
 4971SOL    HW215813   5.841   5.576   3.476
 4972SOL     OW15814   1.353   3.537   0.948
 4972SOL    HW115815   1.407   3.600   0.893
 4972SOL    HW215816   1.256   3.555   0.935
 4973SOL     OW15817   1.433   6.654   2.257
 4973SOL    HW115818   1.411   6.573   2.203
 4973SOL    HW215819   1.455   6.730   2.196
 4974SOL     OW15820   6.245   4.521   1.160
 4974SOL    HW115821   6.252   4.439   1.217
 4974SOL    HW215822   6.337   4.552   1.135
 4975SOL     OW15823   5.781   4.086   5.291
 4975SOL    HW115824   5.806   4.181   5.273
 4975SOL    HW215825   5.764   4.039   5.204
 4976SOL     OW15826   1.665   0.897   3.705
 4976SOL    HW115827   1.714   0.831   3.649
 4976SOL    HW215828   1.566   0.888   3.689
 4977SOL     OW15829   3.867   5.002   0.296
 4977SOL    HW115830   3.872   5.043   0.387
 4977SOL    HW215831   3.944   5.033   0.240
 4978SOL     OW15832   6.608   4.050   4.678
 4978SOL    HW115833   6.516   4.029   4.711
 4978SOL    HW215834   6.673   4.047   4.755
 4979SOL     OW15835   0.128   0.337   6.678
 4979SOL    HW115836   0.048   0.347   6.619
 4979SOL    HW215837   0.134   0.243   6.711
 4980SOL     OW15838   4.992   6.225   3.168
 4980SOL    HW115839   5.090   6.220   3.183
 4980SOL    HW215840   4.958   6.314   3.198
 4981SOL     OW15841   4.684   6.152   0.302
 4981SOL    HW115842   4.658   6.134   0.207
 4981SOL    HW215843   4.611   6.203   0.347
 4982SOL     OW15844   2.709   1.261   6.096
 4982SOL    HW115845   2.653   1.195   6.046
 4982SOL    HW215846   2.792   1.216   6.129
 4983SOL     OW15847   5.787   3.347   4.965
 4983SOL    HW115848   5.782   3.262   4.913
 4983SOL    HW215849   5.711   3.407   4.939
 4984SOL     OW15850   5.699   3.779   3.611
 4984SOL    HW115851   5.667   3.862   3.657
 4984SOL    HW215852   5.655   3.700   3.653
 4985SOL     OW15853   6.236   7.021   3.473
 4985SOL    HW115854   6.266   7.000   3.381
 4985SOL    HW215855   6.304   6.989   3.539
 4986SOL     OW15856   6.394   4.081   1.815
 4986SOL    HW115857   6.323   4.127   1.867
 4986SOL    HW215858   6.440   4.014   1.873
 4987SOL     OW15859   1.248   0.615   1.698
 4987SOL    HW115860   1.348   0.609   1.688
 4987SOL    HW215861   1.218   0.708   1.676
 4988SOL     OW15862   5.293   0.824   3.002
 4988SOL    HW115863   5.356   0.894   2.969
 4988SOL    HW215864   5.313   0.738   2.955
 4989SOL     OW15865   4.867   0.332   1.231
 4989SOL    HW115866   4.786   0.375   1.192
 4989SOL    HW215867   4.844   0.239   1.261
 4990SOL     OW15868   2.143   1.958   5.627
 4990SOL    HW115869   2.122   2.019   5.703
 4990SOL    HW215870   2.197   2.008   5.558
 4991SOL     OW15871   6.585   4.942   3.981
 4991SOL    HW115872   6.504   4.963   4.036
 4991SOL    HW215873   6.667   4.953   4.036
 4992SOL     OW15874   5.226   0.996   3.662
 4992SOL    HW115875   5.279   0.932   3.606
 4992SOL    HW215876   5.258   0.993   3.756
 4993SOL     OW15877   3.025   5.980   3.916
 4993SOL    HW115878   3.026   6.018   4.009
 4993SOL    HW215879   2.933   5.990   3.878
 4994SOL     OW15880   2.100   0.059   3.344
 4994SOL    HW115881   2.175   0.097   3.289
 4994SOL    HW215882   2.070   0.128   3.410
 4995SOL     OW15883   0.406   2.346   5.912
 4995SOL    HW115884   0.457   2.428   5.887
 4995SOL    HW215885   0.317   2.373   5.949
 4996SOL     OW15886   1.203   1.294   2.786
 4996SOL    HW115887   1.227   1.283   2.882
 4996SOL    HW215888   1.109   1.262   2.771
 4997SOL     OW15889   5.437   2.560   2.873
 4997SOL    HW115890   5.490   2.490   2.825
 4997SOL    HW215891   5.409   2.526   2.962
 4998SOL     OW15892   2.152   4.179   5.143
 4998SOL    HW115893   2.189   4.271   5.129
 4998SOL    HW215894   2.214   4.111   5.103
 4999SOL     OW15895   6.550   4.001   0.389
 4999SOL    HW115896   6.604   3.933   0.439
 4999SOL    HW215897   6.536   3.970   0.295
 5000SOL     OW15898   2.879   6.588   3.595
 5000SOL    HW115899   2.952   6.576   3.529
 5000SOL    HW215900   2.890   6.521   3.669
 5001SOL     OW15901   0.428   3.992   1.035
 5001SOL    HW115902   0.518   4.032   1.021
 5001SOL    HW215903   0.428   3.937   1.119
 5002SOL     OW15904   0.386   3.132   3.385
 5002SOL    HW115905   0.351   3.049   3.428
 5002SOL    HW215906   0.372   3.127   3.286
 5003SOL     OW15907   2.791   6.605   2.711
 5003SOL    HW115908   2.761   6.669   2.782
 5003SOL    HW215909   2.787   6.512   2.748
 5004SOL     OW15910   3.937   4.983   6.257
 5004SOL    HW115911   3.892   5.015   6.173
 5004SOL    HW215912   3.919   5.048   6.331
 5005SOL     OW15913   2.794   2.350   0.589
 5005SOL    HW115914   2.830   2.394   0.507
 5005SOL    HW215915   2.698   2.376   0.601
 5006SOL     OW15916   5.282   0.867   0.668
 5006SOL    HW115917   5.351   0.928   0.628
 5006SOL    HW215918   5.326   0.782   0.699
 5007SOL     OW15919   1.570   0.062   0.347
 5007SOL    HW115920   1.564   7.010   0.281
 5007SOL    HW215921   1.665   0.083   0.366
 5008SOL     OW15922   6.700   6.490   2.956
 5008SOL    HW115923   6.653   6.402   2.950
 5008SOL    HW215924   6.748   6.497   3.043
 5009SOL     OW15925   1.067   6.501   0.984
 5009SOL    HW115926   0.986   6.469   0.935
 5009SOL    HW215927   1.084   6.597   0.962
 5010SOL     OW15928   3.537   3.367   2.916
 5010SOL    HW115929   3.637   3.366   2.909
 5010SOL    HW215930   3.511   3.343   3.010
 5011SOL     OW15931   1.805   3.794   3.033
 5011SOL    HW115932   1.867   3.717   3.016
 5011SOL    HW215933   1.723   3.784   2.977
 5012SOL     OW15934   5.505   4.097   6.245
 5012SOL    HW115935   5.440   4.103   6.321
 5012SOL    HW215936   5.592   4.140   6.271
 5013SOL     OW15937   4.891   1.729   6.412
 5013SOL    HW115938   4.823   1.729   6.338
 5013SOL    HW215939   4.844   1.731   6.500
 5014SOL     OW15940   5.494   4.601   0.557
 5014SOL    HW115941   5.572   4.569   0.612
 5014SOL    HW215942   5.419   4.535   0.565
 5015SOL     OW15943   4.492   1.893   4.382
 5015SOL    HW115944   4.412   1.901   4.323
 5015SOL    HW215945   4.575   1.912   4.329
 5016SOL     OW15946   1.754   2.139   0.536
 5016SOL    HW115947   1.697   2.220   0.550
 5016SOL    HW215948   1.733   2.098   0.447
 5017SOL     OW15949   1.838   2.181   0.016
 5017SOL    HW115950   1.885   2.094   0.004
 5017SOL    HW215951   1.892   2.240   0.076
 5018SOL     OW15952   7.008   4.430   1.963
 5018SOL    HW115953   6.976   4.374   2.040
 5018SOL    HW215954   0.051   4.497   1.995
 5019SOL     OW15955   1.177   5.043   6.383
 5019SOL    HW115956   1.225   5.081   6.462
 5019SOL    HW215957   1.110   4.975   6.414
 5020SOL     OW15958   5.297   0.159   6.650
 5020SOL    HW115959   5.240   0.240   6.643
 5020SOL    HW215960   5.370   0.175   6.717
 5021SOL     OW15961   1.523   1.594   5.927
 5021SOL    HW115962   1.486   1.541   6.004
 5021SOL    HW215963   1.457   1.664   5.899
 5022SOL     OW15964   1.443   1.222   6.997
 5022SOL    HW115965   1.424   1.187   0.065
 5022SOL    HW215966   1.509   1.297   7.003
 5023SOL     OW15967   6.682   3.112   1.365
 5023SOL    HW115968   6.609   3.102   1.433
 5023SOL    HW215969   6.647   3.160   1.285
 5024SOL     OW15970   5.575   5.917   1.786
 5024SOL    HW115971   5.539   5.869   1.707
 5024SOL    HW215972   5.565   5.860   1.868
 5025SOL     OW15973   3.720   1.776   1.754
 5025SOL    HW115974   3.779   1.856   1.769
 5025SOL    HW215975   3.626   1.799   1.778
 5026SOL     OW15976   6.348   6.382   6.314
 5026SOL    HW115977   6.441   6.355   6.287
 5026SOL    HW215978   6.284   6.309   6.293
 5027SOL     OW15979   0.762   5.884   2.421
 5027SOL    HW115980   0.715   5.850   2.503
 5027SOL    HW215981   0.732   5.832   2.341
 5028SOL     OW15982   0.605   0.631   3.174
 5028SOL    HW115983   0.678   0.657   3.111
 5028SOL    HW215984   0.641   0.567   3.242
 5029SOL     OW15985   6.967   2.579   2.977
 5029SOL    HW115986   6.962   2.546   2.883
 5029SOL    HW215987   0.017   2.532   3.026
 5030SOL     OW15988   6.865   6.786   0.091
 5030SOL    HW115989   6.926   6.715   0.128
 5030SOL    HW215990   6.775   6.778   0.134
 5031SOL     OW15991   5.952   0.396   4.954
 5031SOL    HW115992   5.992   0.427   4.868
 5031SOL    HW215993   6.004   0.319   4.990
 5032SOL     OW15994   1.021   3.547   1.262
 5032SOL    HW115995   0.986   3.487   1.334
 5032SOL    HW215996   1.060   3.629   1.303
 5033SOL     OW15997   2.855   6.234   5.791
 5033SOL    HW115998   2.897   6.150   5.758
 5033SOL    HW215999   2.903   6.313   5.751
 5034SOL     OW16000   4.787   0.980   2.969
 5034SOL    HW116001   4.696   1.012   2.942
 5034SOL    HW216002   4.819   1.032   3.048
 5035SOL     OW16003   0.516   4.443   0.242
 5035SOL    HW116004   0.586   4.444   0.313
 5035SOL    HW216005   0.452   4.368   0.260
 5036SOL     OW16006   0.085   5.001   0.276
 5036SOL    HW116007   0.065   5.011   0.178
 5036SOL    HW216008   0.023   4.933   0.315
 5037SOL     OW16009   5.404   2.966   3.628
 5037SOL    HW116010   5.337   3.007   3.689
 5037SOL    HW216011   5.372   2.876   3.599
 5038SOL     OW16012   2.039   3.880   6.853
 5038SOL    HW116013   2.122   3.826   6.845
 5038SOL    HW216014   1.978   3.838   6.920
 5039SOL     OW16015   3.092   4.339   5.338
 5039SOL    HW116016   3.065   4.426   5.297
 5039SOL    HW216017   3.015   4.301   5.389
 5040SOL     OW16018   2.031   5.001   6.118
 5040SOL    HW116019   2.044   4.918   6.064
 5040SOL    HW216020   2.120   5.041   6.141
 5041SOL     OW16021   1.668   1.971   1.713
 5041SOL    HW116022   1.659   1.938   1.808
 5041SOL    HW216023   1.753   1.936   1.674
 5042SOL     OW16024   6.119   3.211   0.840
 5042SOL    HW116025   6.098   3.141   0.909
 5042SOL    HW216026   6.158   3.167   0.759
 5043SOL     OW16027   3.299   0.864   6.000
 5043SOL    HW116028   3.348   0.889   5.916
 5043SOL    HW216029   3.257   0.774   5.988
 5044SOL     OW16030   0.145   6.194   1.054
 5044SOL    HW116031   0.087   6.222   1.132
 5044SOL    HW216032   0.237   6.230   1.066
 5045SOL     OW16033   5.655   1.918   0.173
 5045SOL    HW116034   5.707   1.853   0.229
 5045SOL    HW216035   5.581   1.957   0.227
 5046SOL     OW16036   3.565   4.186   3.491
 5046SOL    HW116037   3.513   4.180   3.406
 5046SOL    HW216038   3.662   4.195   3.471
 5047SOL     OW16039   0.062   3.250   2.512
 5047SOL    HW116040   0.058   3.172   2.450
 5047SOL    HW216041   0.089   3.220   2.603
 5048SOL     OW16042   0.547   0.858   2.182
 5048SOL    HW116043   0.548   0.758   2.173
 5048SOL    HW216044   0.634   0.889   2.220
 5049SOL     OW16045   6.148   1.850   5.303
 5049SOL    HW116046   6.088   1.803   5.239
 5049SOL    HW216047   6.109   1.846   5.395
 5050SOL     OW16048   1.564   0.373   1.696
 5050SOL    HW116049   1.579   0.302   1.765
 5050SOL    HW216050   1.494   0.342   1.632
 5051SOL     OW16051   4.635   4.504   1.265
 5051SOL    HW116052   4.622   4.574   1.336
 5051SOL    HW216053   4.710   4.443   1.293
 5052SOL     OW16054   2.139   6.173   6.105
 5052SOL    HW116055   2.189   6.220   6.177
 5052SOL    HW216056   2.144   6.074   6.120
 5053SOL     OW16057   2.253   4.291   3.863
 5053SOL    HW116058   2.340   4.319   3.823
 5053SOL    HW216059   2.269   4.252   3.954
 5054SOL     OW16060   3.568   6.226   4.804
 5054SOL    HW116061   3.652   6.274   4.781
 5054SOL    HW216062   3.506   6.287   4.854
 5055SOL     OW16063   1.923   0.207   5.569
 5055SOL    HW116064   2.011   0.210   5.615
 5055SOL    HW216065   1.907   0.295   5.523
 5056SOL     OW16066   6.374   4.462   0.776
 5056SOL    HW116067   6.344   4.372   0.743
 5056SOL    HW216068   6.466   4.455   0.814
 5057SOL     OW16069   6.412   6.046   5.336
 5057SOL    HW116070   6.318   6.080   5.344
 5057SOL    HW216071   6.434   6.033   5.240
 5058SOL     OW16072   2.726   3.080   5.312
 5058SOL    HW116073   2.662   3.066   5.236
 5058SOL    HW216074   2.701   3.020   5.387
 5059SOL     OW16075   5.606   2.742   3.691
 5059SOL    HW116076   5.704   2.722   3.696
 5059SOL    HW216077   5.591   2.821   3.632
 5060SOL     OW16078   0.401   2.234   5.644
 5060SOL    HW116079   0.497   2.240   5.614
 5060SOL    HW216080   0.393   2.270   5.737
 5061SOL     OW16081   3.856   3.338   3.172
 5061SOL    HW116082   3.953   3.324   3.153
 5061SOL    HW216083   3.840   3.435   3.192
 5062SOL     OW16084   5.313   0.321   3.217
 5062SOL    HW116085   5.370   0.393   3.257
 5062SOL    HW216086   5.223   0.321   3.260
 5063SOL     OW16087   1.055   7.013   2.031
 5063SOL    HW116088   1.040   0.036   2.119
 5063SOL    HW216089   1.083   0.057   1.962
 5064SOL     OW16090   4.483   3.834   1.649
 5064SOL    HW116091   4.431   3.918   1.635
 5064SOL    HW216092   4.575   3.856   1.679
 5065SOL     OW16093   1.481   1.719   3.669
 5065SOL    HW116094   1.531   1.793   3.623
 5065SOL    HW216095   1.543   1.642   3.685
 5066SOL     OW16096   3.755   4.716   0.958
 5066SOL    HW116097   3.726   4.621   0.947
 5066SOL    HW216098   3.742   4.765   0.872
 5067SOL     OW16099   2.936   1.298   2.465
 5067SOL    HW116100   2.856   1.330   2.415
 5067SOL    HW216101   3.015   1.294   2.404
 5068SOL     OW16102   3.112   4.776   6.666
 5068SOL    HW116103   3.138   4.860   6.714
 5068SOL    HW216104   3.017   4.754   6.686
 5069SOL     OW16105   1.961   3.129   5.895
 5069SOL    HW116106   1.929   3.086   5.811
 5069SOL    HW216107   1.919   3.085   5.974
 5070SOL     OW16108   5.063   4.472   3.920
 5070SOL    HW116109   5.037   4.503   3.828
 5070SOL    HW216110   5.091   4.551   3.975
 5071SOL     OW16111   3.985   0.928   3.678
 5071SOL    HW116112   3.959   0.832   3.666
 5071SOL    HW216113   3.917   0.974   3.736
 5072SOL     OW16114   0.856   0.736   1.730
 5072SOL    HW116115   0.923   0.809   1.715
 5072SOL    HW216116   0.823   0.703   1.642
 5073SOL     OW16117   1.381   4.662   1.615
 5073SOL    HW116118   1.290   4.698   1.636
 5073SOL    HW216119   1.447   4.737   1.617
 5074SOL     OW16120   3.318   2.071   1.075
 5074SOL    HW116121   3.344   2.168   1.082
 5074SOL    HW216122   3.223   2.061   1.103
 5075SOL     OW16123   1.228   2.394   6.359
 5075SOL    HW116124   1.326   2.377   6.357
 5075SOL    HW216125   1.179   2.311   6.333
 5076SOL     OW16126   5.099   0.422   1.131
 5076SOL    HW116127   5.186   0.387   1.167
 5076SOL    HW216128   5.023   0.373   1.173
 5077SOL     OW16129   2.349   4.347   5.508
 5077SOL    HW116130   2.295   4.286   5.566
 5077SOL    HW216131   2.414   4.294   5.454
 5078SOL     OW16132   0.783   0.401   3.751
 5078SOL    HW116133   0.687   0.422   3.733
 5078SOL    HW216134   0.812   0.324   3.694
 5079SOL     OW16135   2.015   3.406   4.692
 5079SOL    HW116136   2.056   3.372   4.777
 5079SOL    HW216137   1.970   3.331   4.644
 5080SOL     OW16138   5.885   6.610   6.140
 5080SOL    HW116139   5.846   6.695   6.174
 5080SOL    HW216140   5.958   6.580   6.202
 5081SOL     OW16141   3.329   3.948   5.239
 5081SOL    HW116142   3.345   3.876   5.171
 5081SOL    HW216143   3.374   4.032   5.210
 5082SOL     OW16144   5.056   5.560   1.529
 5082SOL    HW116145   5.150   5.545   1.561
 5082SOL    HW216146   5.054   5.636   1.465
 5083SOL     OW16147   2.830   0.212   2.802
 5083SOL    HW116148   2.819   0.120   2.840
 5083SOL    HW216149   2.889   0.266   2.863
 5084SOL     OW16150   0.331   4.191   4.426
 5084SOL    HW116151   0.405   4.259   4.419
 5084SOL    HW216152   0.252   4.223   4.374
 5085SOL     OW16153   6.610   2.610   6.113
 5085SOL    HW116154   6.556   2.646   6.189
 5085SOL    HW216155   6.693   2.665   6.102
 5086SOL     OW16156   1.197   5.088   2.887
 5086SOL    HW116157   1.115   5.064   2.938
 5086SOL    HW216158   1.244   5.164   2.933
 5087SOL     OW16159   1.522   5.662   2.900
 5087SOL    HW116160   1.459   5.668   2.977
 5087SOL    HW216161   1.486   5.597   2.833
 5088SOL     OW16162   6.037   0.187   3.915
 5088SOL    HW116163   5.954   0.202   3.861
 5088SOL    HW216164   6.097   0.266   3.907
 5089SOL     OW16165   5.521   3.599   4.137
 5089SOL    HW116166   5.486   3.535   4.206
 5089SOL    HW216167   5.600   3.559   4.091
 5090SOL     OW16168   2.052   3.752   2.642
 5090SOL    HW116169   2.061   3.847   2.671
 5090SOL    HW216170   2.061   3.747   2.542
 5091SOL     OW16171   6.905   1.364   1.626
 5091SOL    HW116172   6.855   1.379   1.711
 5091SOL    HW216173   6.992   1.414   1.629
 5092SOL     OW16174   3.419   4.118   3.228
 5092SOL    HW116175   3.365   4.135   3.145
 5092SOL    HW216176   3.358   4.106   3.306
 5093SOL     OW16177   2.988   0.816   0.425
 5093SOL    HW116178   3.064   0.880   0.439
 5093SOL    HW216179   2.994   0.742   0.492
 5094SOL     OW16180   2.448   5.702   5.776
 5094SOL    HW116181   2.468   5.786   5.827
 5094SOL    HW216182   2.464   5.623   5.835
 5095SOL     OW16183   6.251   2.025   3.670
 5095SOL    HW116184   6.346   1.994   3.665
 5095SOL    HW216185   6.250   2.124   3.685
 5096SOL     OW16186   3.738   4.823   6.664
 5096SOL    HW116187   3.785   4.820   6.753
 5096SOL    HW216188   3.766   4.906   6.615
 5097SOL     OW16189   0.955   6.996   6.513
 5097SOL    HW116190   0.948   0.068   6.543
 5097SOL    HW216191   1.051   6.972   6.502
 5098SOL     OW16192   2.817   0.905   2.188
 5098SOL    HW116193   2.852   0.998   2.201
 5098SOL    HW216194   2.879   0.840   2.232
 5099SOL     OW16195   0.678   0.377   0.836
 5099SOL    HW116196   0.679   0.347   0.741
 5099SOL    HW216197   0.691   0.298   0.896
 5100SOL     OW16198   3.245   5.639   4.439
 5100SOL    HW116199   3.245   5.734   4.469
 5100SOL    HW216200   3.291   5.632   4.350
 5101SOL     OW16201   4.875   0.363   7.014
 5101SOL    HW116202   4.779   0.364   6.985
 5101SOL    HW216203   4.934   0.349   6.935
 5102SOL     OW16204   5.725   0.022   4.168
 5102SOL    HW116205   5.747   6.998   4.082
 5102SOL    HW216206   5.793   0.093   4.186
 5103SOL     OW16207   0.673   0.420   4.327
 5103SOL    HW116208   0.739   0.484   4.288
 5103SOL    HW216209   0.659   0.344   4.263
 5104SOL     OW16210   1.548   6.385   1.878
 5104SOL    HW116211   1.566   6.391   1.780
 5104SOL    HW216212   1.595   6.305   1.915
 5105SOL     OW16213   2.268   2.767   0.131
 5105SOL    HW116214   2.180   2.766   0.179
 5105SOL    HW216215   2.297   2.862   0.118
 5106SOL     OW16216   4.170   2.368   0.190
 5106SOL    HW116217   4.114   2.421   0.254
 5106SOL    HW216218   4.161   2.271   0.209
 5107SOL     OW16219   3.846   1.647   1.259
 5107SOL    HW116220   3.884   1.739   1.257
 5107SOL    HW216221   3.751   1.649   1.227
 5108SOL     OW16222   3.953   3.963   5.139
 5108SOL    HW116223   3.947   3.985   5.041
 5108SOL    HW216224   4.029   4.013   5.180
 5109SOL     OW16225   0.928   1.665   6.939
 5109SOL    HW116226   0.845   1.611   6.952
 5109SOL    HW216227   0.907   1.761   6.958
 5110SOL     OW16228   0.912   0.462   5.680
 5110SOL    HW116229   1.005   0.486   5.653
 5110SOL    HW216230   0.854   0.543   5.677
 5111SOL     OW16231   1.059   0.519   5.141
 5111SOL    HW116232   1.072   0.420   5.153
 5111SOL    HW216233   0.968   0.545   5.171
 5112SOL     OW16234   1.298   0.772   3.451
 5112SOL    HW116235   1.376   0.750   3.392
 5112SOL    HW216236   1.331   0.806   3.538
 5113SOL     OW16237   1.817   0.005   0.948
 5113SOL    HW116238   1.843   6.952   1.008
 5113SOL    HW216239   1.746   0.060   0.992
 5114SOL     OW16240   3.532   0.953   6.907
 5114SOL    HW116241   3.525   0.855   6.889
 5114SOL    HW216242   3.495   1.004   6.829
 5115SOL     OW16243   1.862   4.673   4.170
 5115SOL    HW116244   1.877   4.637   4.078
 5115SOL    HW216245   1.764   4.682   4.187
 5116SOL     OW16246   0.525   0.194   6.168
 5116SOL    HW116247   0.602   0.167   6.110
 5116SOL    HW216248   0.464   0.117   6.181
 5117SOL     OW16249   2.230   4.159   4.784
 5117SOL    HW116250   2.259   4.117   4.870
 5117SOL    HW216251   2.277   4.114   4.707
 5118SOL     OW16252   4.910   0.657   0.420
 5118SOL    HW116253   4.952   0.566   0.420
 5118SOL    HW216254   4.973   0.723   0.460
 5119SOL     OW16255   5.181   0.921   1.788
 5119SOL    HW116256   5.084   0.910   1.805
 5119SOL    HW216257   5.207   1.016   1.806
 5120SOL     OW16258   3.856   0.312   4.322
 5120SOL    HW116259   3.806   0.279   4.243
 5120SOL    HW216260   3.794   0.323   4.399
 5121SOL     OW16261   2.750   2.215   6.791
 5121SOL    HW116262   2.707   2.299   6.757
 5121SOL    HW216263   2.757   2.219   6.891
 5122SOL     OW16264   3.438   6.584   3.461
 5122SOL    HW116265   3.340   6.568   3.475
 5122SOL    HW216266   3.453   6.678   3.432
 5123SOL     OW16267   4.299   2.260   4.370
 5123SOL    HW116268   4.367   2.308   4.315
 5123SOL    HW216269   4.345   2.204   4.439
 5124SOL     OW16270   2.519   5.696   4.479
 5124SOL    HW116271   2.592   5.715   4.414
 5124SOL    HW216272   2.466   5.779   4.496
 5125SOL     OW16273   5.923   3.496   4.001
 5125SOL    HW116274   5.980   3.415   3.987
 5125SOL    HW216275   5.974   3.577   3.973
 5126SOL     OW16276   5.920   5.093   5.577
 5126SOL    HW116277   5.848   5.025   5.590
 5126SOL    HW216278   5.880   5.184   5.569
 5127SOL     OW16279   1.411   4.174   6.866
 5127SOL    HW116280   1.361   4.260   6.872
 5127SOL    HW216281   1.416   4.132   6.957
 5128SOL     OW16282   6.945   0.679   6.586
 5128SOL    HW116283   0.015   0.661   6.618
 5128SOL    HW216284   6.915   0.768   6.621
 5129SOL     OW16285   5.957   0.018   2.531
 5129SOL    HW116286   6.049   7.020   2.563
 5129SOL    HW216287   5.935   0.113   2.556
 5130SOL     OW16288   0.288   5.929   3.599
 5130SOL    HW116289   0.375   5.931   3.550
 5130SOL    HW216290   0.304   5.903   3.695
 5131SOL     OW16291   2.463   5.041   3.657
 5131SOL    HW116292   2.542   5.024   3.717
 5131SOL    HW216293   2.467   4.979   3.579
 5132SOL     OW16294   3.155   2.530   6.277
 5132SOL    HW116295   3.060   2.536   6.307
 5132SOL    HW216296   3.170   2.594   6.201
 5133SOL     OW16297   1.461   5.712   6.721
 5133SOL    HW116298   1.401   5.633   6.733
 5133SOL    HW216299   1.487   5.719   6.624
 5134SOL     OW16300   0.042   2.742   1.966
 5134SOL    HW116301   0.106   2.716   2.038
 5134SOL    HW216302   6.986   2.680   1.968
 5135SOL     OW16303   5.644   3.084   4.529
 5135SOL    HW116304   5.587   3.025   4.473
 5135SOL    HW216305   5.684   3.156   4.472
 5136SOL     OW16306   5.184   0.416   6.637
 5136SOL    HW116307   5.211   0.480   6.709
 5136SOL    HW216308   5.182   0.464   6.549
 5137SOL     OW16309   5.419   3.989   5.743
 5137SOL    HW116310   5.436   4.037   5.829
 5137SOL    HW216311   5.503   3.986   5.689
 5138SOL     OW16312   3.976   2.982   5.318
 5138SOL    HW116313   3.942   3.004   5.226
 5138SOL    HW216314   4.033   2.900   5.313
 5139SOL     OW16315   1.072   1.255   3.434
 5139SOL    HW116316   1.052   1.160   3.411
 5139SOL    HW216317   0.989   1.300   3.464
 5140SOL     OW16318   3.807   2.977   6.693
 5140SOL    HW116319   3.764   3.012   6.610
 5140SOL    HW216320   3.770   2.887   6.714
 5141SOL     OW16321   6.363   3.767   0.982
 5141SOL    HW116322   6.412   3.748   0.897
 5141SOL    HW216323   6.368   3.865   1.003
 5142SOL     OW16324   6.201   6.555   2.803
 5142SOL    HW116325   6.300   6.552   2.788
 5142SOL    HW216326   6.169   6.649   2.797
 5143SOL     OW16327   6.215   4.678   4.370
 5143SOL    HW116328   6.259   4.664   4.281
 5143SOL    HW216329   6.137   4.739   4.359
 5144SOL     OW16330   1.102   4.195   5.731
 5144SOL    HW116331   1.056   4.177   5.643
 5144SOL    HW216332   1.060   4.275   5.774
 5145SOL     OW16333   3.264   5.630   5.563
 5145SOL    HW116334   3.224   5.591   5.646
 5145SOL    HW216335   3.226   5.584   5.483
 5146SOL     OW16336   3.421   3.797   5.442
 5146SOL    HW116337   3.381   3.868   5.385
 5146SOL    HW216338   3.515   3.821   5.465
 5147SOL     OW16339   6.800   5.346   2.648
 5147SOL    HW116340   6.788   5.354   2.747
 5147SOL    HW216341   6.714   5.321   2.605
 5148SOL     OW16342   6.467   0.097   1.690
 5148SOL    HW116343   6.414   0.151   1.625
 5148SOL    HW216344   6.431   0.112   1.782
 5149SOL     OW16345   6.591   5.476   3.109
 5149SOL    HW116346   6.492   5.462   3.110
 5149SOL    HW216347   6.612   5.567   3.144
 5150SOL     OW16348   2.119   5.755   3.318
 5150SOL    HW116349   2.127   5.698   3.400
 5150SOL    HW216350   2.031   5.803   3.320
 5151SOL     OW16351   6.613   2.875   1.670
 5151SOL    HW116352   6.674   2.954   1.680
 5151SOL    HW216353   6.544   2.877   1.741
 5152SOL     OW16354   1.798   4.726   6.845
 5152SOL    HW116355   1.725   4.659   6.831
 5152SOL    HW216356   1.760   4.818   6.834
 5153SOL     OW16357   1.731   1.157   6.791
 5153SOL    HW116358   1.647   1.154   6.737
 5153SOL    HW216359   1.718   1.217   6.870
 5154SOL     OW16360   1.305   2.671   6.207
 5154SOL    HW116361   1.361   2.588   6.206
 5154SOL    HW216362   1.233   2.664   6.138
 5155SOL     OW16363   4.078   0.847   2.253
 5155SOL    HW116364   4.109   0.762   2.296
 5155SOL    HW216365   3.978   0.850   2.254
 5156SOL     OW16366   5.649   3.834   6.367
 5156SOL    HW116367   5.561   3.787   6.367
 5156SOL    HW216368   5.643   3.916   6.425
 5157SOL     OW16369   3.700   2.066   3.203
 5157SOL    HW116370   3.780   2.122   3.226
 5157SOL    HW216371   3.719   2.014   3.120
 5158SOL     OW16372   3.659   1.309   1.638
 5158SOL    HW116373   3.698   1.223   1.672
 5158SOL    HW216374   3.561   1.311   1.659
 5159SOL     OW16375   6.029   4.199   4.848
 5159SOL    HW116376   5.993   4.292   4.841
 5159SOL    HW216377   6.057   4.167   4.757
 5160SOL     OW16378   0.438   4.993   3.105
 5160SOL    HW116379   0.508   4.928   3.134
 5160SOL    HW216380   0.395   5.033   3.186
 5161SOL     OW16381   1.999   3.501   5.562
 5161SOL    HW116382   1.914   3.458   5.592
 5161SOL    HW216383   1.985   3.600   5.551
 5162SOL     OW16384   0.786   4.747   2.682
 5162SOL    HW116385   0.697   4.785   2.708
 5162SOL    HW216386   0.813   4.782   2.593
 5163SOL     OW16387   3.359   6.555   0.051
 5163SOL    HW116388   3.323   6.538   6.982
 5163SOL    HW216389   3.442   6.502   0.065
 5164SOL     OW16390   4.078   2.446   6.803
 5164SOL    HW116391   3.988   2.423   6.764
 5164SOL    HW216392   4.074   2.537   6.845
 5165SOL     OW16393   6.664   4.278   5.565
 5165SOL    HW116394   6.753   4.311   5.596
 5165SOL    HW216395   6.621   4.348   5.508
 5166SOL     OW16396   0.562   5.337   2.072
 5166SOL    HW116397   0.488   5.270   2.068
 5166SOL    HW216398   0.620   5.317   2.151
 5167SOL     OW16399   6.890   6.149   6.352
 5167SOL    HW116400   6.977   6.195   6.331
 5167SOL    HW216401   6.890   6.120   6.447
 5168SOL     OW16402   4.875   3.547   2.115
 5168SOL    HW116403   4.816   3.504   2.183
 5168SOL    HW216404   4.875   3.491   2.031
 5169SOL     OW16405   4.048   2.141   4.462
 5169SOL    HW116406   3.969   2.136   4.401
 5169SOL    HW216407   4.131   2.155   4.408
 5170SOL     OW16408   0.689   4.387   5.384
 5170SOL    HW116409   0.782   4.351   5.391
 5170SOL    HW216410   0.623   4.317   5.413
 5171SOL     OW16411   0.613   4.962   4.984
 5171SOL    HW116412   0.523   4.922   5.000
 5171SOL    HW216413   0.670   4.950   5.065
 5172SOL     OW16414   1.443   2.570   2.427
 5172SOL    HW116415   1.451   2.509   2.348
 5172SOL    HW216416   1.369   2.635   2.412
 5173SOL     OW16417   5.292   4.908   5.626
 5173SOL    HW116418   5.291   4.971   5.704
 5173SOL    HW216419   5.341   4.825   5.652
 5174SOL     OW16420   2.101   5.029   3.174
 5174SOL    HW116421   2.184   4.987   3.211
 5174SOL    HW216422   2.021   4.994   3.223
 5175SOL     OW16423   2.826   3.756   6.799
 5175SOL    HW116424   2.847   3.671   6.847
 5175SOL    HW216425   2.858   3.750   6.704
 5176SOL     OW16426   5.017   3.460   6.958
 5176SOL    HW116427   4.949   3.532   6.942
 5176SOL    HW216428   5.030   3.449   0.033
 5177SOL     OW16429   5.550   0.556   0.357
 5177SOL    HW116430   5.461   0.550   0.401
 5177SOL    HW216431   5.592   0.465   0.353
 5178SOL     OW16432   1.344   4.078   2.167
 5178SOL    HW116433   1.378   4.026   2.089
 5178SOL    HW216434   1.380   4.171   2.164
 5179SOL     OW16435   4.028   5.320   3.790
 5179SOL    HW116436   4.047   5.255   3.863
 5179SOL    HW216437   4.059   5.282   3.702
 5180SOL     OW16438   2.160   2.181   0.918
 5180SOL    HW116439   2.076   2.217   0.877
 5180SOL    HW216440   2.216   2.257   0.951
 5181SOL     OW16441   5.803   1.070   2.705
 5181SOL    HW116442   5.763   1.014   2.633
 5181SOL    HW216443   5.900   1.048   2.716
 5182SOL     OW16444   3.983   4.159   1.607
 5182SOL    HW116445   4.004   4.078   1.661
 5182SOL    HW216446   3.884   4.172   1.603
 5183SOL     OW16447   3.980   1.551   3.032
 5183SOL    HW116448   3.985   1.620   3.105
 5183SOL    HW216449   3.909   1.576   2.967
 5184SOL     OW16450   0.583   1.610   4.612
 5184SOL    HW116451   0.595   1.710   4.617
 5184SOL    HW216452   0.493   1.586   4.649
 5185SOL     OW16453   5.800   0.454   2.403
 5185SOL    HW116454   5.752   0.475   2.318
 5185SOL    HW216455   5.854   0.533   2.431
 5186SOL     OW16456   6.410   2.556   0.758
 5186SOL    HW116457   6.485   2.507   0.803
 5186SOL    HW216458   6.330   2.558   0.818
 5187SOL     OW16459   1.283   6.710   4.407
 5187SOL    HW116460   1.284   6.809   4.418
 5187SOL    HW216461   1.354   6.669   4.464
 5188SOL     OW16462   0.750   5.486   0.983
 5188SOL    HW116463   0.785   5.417   0.919
 5188SOL    HW216464   0.742   5.445   1.074
 5189SOL     OW16465   3.755   4.400   0.927
 5189SOL    HW116466   3.822   4.426   0.997
 5189SOL    HW216467   3.801   4.387   0.840
 5190SOL     OW16468   0.582   1.812   4.134
 5190SOL    HW116469   0.535   1.787   4.049
 5190SOL    HW216470   0.607   1.728   4.184
 5191SOL     OW16471   3.901   0.170   2.014
 5191SOL    HW116472   3.940   0.258   1.987
 5191SOL    HW216473   3.965   0.097   1.992
 5192SOL     OW16474   2.567   5.802   2.514
 5192SOL    HW116475   2.626   5.722   2.519
 5192SOL    HW216476   2.618   5.883   2.539
 5193SOL     OW16477   4.878   4.454   4.610
 5193SOL    HW116478   4.876   4.545   4.568
 5193SOL    HW216479   4.911   4.462   4.704
 5194SOL     OW16480   4.835   2.125   6.966
 5194SOL    HW116481   4.891   2.200   7.001
 5194SOL    HW216482   4.842   2.047   0.006
 5195SOL     OW16483   6.743   6.535   3.917
 5195SOL    HW116484   6.671   6.471   3.891
 5195SOL    HW216485   6.763   6.525   4.015
 5196SOL     OW16486   3.301   5.588   0.778
 5196SOL    HW116487   3.400   5.599   0.767
 5196SOL    HW216488   3.282   5.532   0.859
 5197SOL     OW16489   1.891   5.046   5.536
 5197SOL    HW116490   1.884   5.134   5.584
 5197SOL    HW216491   1.932   4.978   5.597
 5198SOL     OW16492   4.241   6.945   3.631
 5198SOL    HW116493   4.256   6.983   3.539
 5198SOL    HW216494   4.162   6.884   3.628
 5199SOL     OW16495   1.813   5.780   0.261
 5199SOL    HW116496   1.752   5.744   0.332
 5199SOL    HW216497   1.809   5.720   0.181
 5200SOL     OW16498   1.054   2.557   5.155
 5200SOL    HW116499   1.133   2.614   5.131
 5200SOL    HW216500   1.081   2.492   5.226
 5201SOL     OW16501   0.167   6.725   3.602
 5201SOL    HW116502   0.262   6.736   3.631
 5201SOL    HW216503   0.159   6.643   3.545
 5202SOL     OW16504   6.406   4.234   5.698
 5202SOL    HW116505   6.484   4.178   5.671
 5202SOL    HW216506   6.406   4.319   5.644
 5203SOL     OW16507   2.341   1.387   6.493
 5203SOL    HW116508   2.353   1.486   6.483
 5203SOL    HW216509   2.409   1.339   6.439
 5204SOL     OW16510   3.862   5.867   6.686
 5204SOL    HW116511   3.841   5.792   6.623
 5204SOL    HW216512   3.821   5.846   6.776
 5205SOL     OW16513   0.800   5.681   0.659
 5205SOL    HW116514   0.825   5.775   0.683
 5205SOL    HW216515   0.718   5.654   0.709
 5206SOL     OW16516   0.554   4.666   6.525
 5206SOL    HW116517   0.508   4.583   6.493
 5206SOL    HW216518   0.537   4.741   6.461
 5207SOL     OW16519   1.027   6.031   4.297
 5207SOL    HW116520   0.955   5.968   4.328
 5207SOL    HW216521   0.987   6.102   4.239
 5208SOL     OW16522   4.835   2.851   6.314
 5208SOL    HW116523   4.803   2.914   6.244
 5208SOL    HW216524   4.788   2.763   6.303
 5209SOL     OW16525   5.682   6.788   1.873
 5209SOL    HW116526   5.644   6.700   1.899
 5209SOL    HW216527   5.707   6.786   1.776
 5210SOL     OW16528   4.457   3.000   0.130
 5210SOL    HW116529   4.542   3.019   0.080
 5210SOL    HW216530   4.478   2.983   0.226
 5211SOL     OW16531   3.702   2.496   5.535
 5211SOL    HW116532   3.799   2.507   5.515
 5211SOL    HW216533   3.660   2.437   5.466
 5212SOL     OW16534   0.274   2.776   0.804
 5212SOL    HW116535   0.364   2.807   0.774
 5212SOL    HW216536   0.235   2.715   0.735
 5213SOL     OW16537   4.709   4.213   6.851
 5213SOL    HW116538   4.677   4.305   6.827
 5213SOL    HW216539   4.656   4.178   6.928
 5214SOL     OW16540   5.708   1.724   6.204
 5214SOL    HW116541   5.636   1.783   6.241
 5214SOL    HW216542   5.797   1.756   6.234
 5215SOL     OW16543   0.382   4.439   3.936
 5215SOL    HW116544   0.413   4.374   4.006
 5215SOL    HW216545   0.306   4.493   3.973
 5216SOL     OW16546   4.759   4.912   1.901
 5216SOL    HW116547   4.782   4.983   1.968
 5216SOL    HW216548   4.830   4.908   1.831
 5217SOL     OW16549   4.056   5.235   4.214
 5217SOL    HW116550   4.004   5.214   4.297
 5217SOL    HW216551   4.091   5.329   4.218
 5218SOL     OW16552   1.020   0.790   2.378
 5218SOL    HW116553   1.017   0.693   2.353
 5218SOL    HW216554   1.058   0.800   2.470
 5219SOL     OW16555   4.280   1.669   4.817
 5219SOL    HW116556   4.357   1.718   4.775
 5219SOL    HW216557   4.290   1.671   4.917
 5220SOL     OW16558   1.067   6.198   2.715
 5220SOL    HW116559   1.009   6.117   2.724
 5220SOL    HW216560   1.010   6.278   2.698
 5221SOL     OW16561   5.858   1.500   3.822
 5221SOL    HW116562   5.827   1.405   3.832
 5221SOL    HW216563   5.785   1.554   3.781
 5222SOL     OW16564   4.217   6.248   3.410
 5222SOL    HW116565   4.198   6.333   3.459
 5222SOL    HW216566   4.246   6.177   3.474
 5223SOL     OW16567   6.088   2.895   0.472
 5223SOL    HW116568   6.166   2.839   0.442
 5223SOL    HW216569   6.006   2.838   0.478
 5224SOL     OW16570   6.566   2.798   4.735
 5224SOL    HW116571   6.568   2.746   4.820
 5224SOL    HW216572   6.571   2.736   4.657
 5225SOL     OW16573   0.274   0.322   3.513
 5225SOL    HW116574   0.195   0.268   3.484
 5225SOL    HW216575   0.249   0.376   3.593
 5226SOL     OW16576   6.662   6.563   4.866
 5226SOL    HW116577   6.620   6.654   4.864
 5226SOL    HW216578   6.595   6.497   4.901
 5227SOL     OW16579   0.184   3.722   5.168
 5227SOL    HW116580   0.087   3.706   5.146
 5227SOL    HW216581   0.199   3.705   5.265
 5228SOL     OW16582   6.119   2.146   1.141
 5228SOL    HW116583   6.110   2.236   1.183
 5228SOL    HW216584   6.112   2.154   1.042
 5229SOL     OW16585   2.345   6.182   0.025
 5229SOL    HW116586   2.402   6.138   0.094
 5229SOL    HW216587   2.276   6.117   7.016
 5230SOL     OW16588   0.762   5.562   1.712
 5230SOL    HW116589   0.734   5.478   1.666
 5230SOL    HW216590   0.732   5.560   1.807
 5231SOL     OW16591   4.671   2.475   4.827
 5231SOL    HW116592   4.599   2.535   4.863
 5231SOL    HW216593   4.645   2.380   4.841
 5232SOL     OW16594   2.639   3.363   6.037
 5232SOL    HW116595   2.697   3.307   6.097
 5232SOL    HW216596   2.696   3.424   5.983
 5233SOL     OW16597   4.517   1.100   2.019
 5233SOL    HW116598   4.559   1.159   2.089
 5233SOL    HW216599   4.417   1.112   2.022
 5234SOL     OW16600   2.748   1.534   6.137
 5234SOL    HW116601   2.774   1.439   6.121
 5234SOL    HW216602   2.674   1.558   6.074
 5235SOL     OW16603   1.673   2.415   1.031
 5235SOL    HW116604   1.760   2.409   0.982
 5235SOL    HW216605   1.599   2.436   0.966
 5236SOL     OW16606   5.139   5.156   2.069
 5236SOL    HW116607   5.093   5.082   2.118
 5236SOL    HW216608   5.156   5.232   2.132
 5237SOL     OW16609   1.626   1.110   4.851
 5237SOL    HW116610   1.652   1.019   4.818
 5237SOL    HW216611   1.694   1.142   4.917
 5238SOL     OW16612   0.389   4.562   6.969
 5238SOL    HW116613   0.467   4.565   6.906
 5238SOL    HW216614   0.352   4.469   6.970
 5239SOL     OW16615   3.186   3.011   4.402
 5239SOL    HW116616   3.163   3.093   4.351
 5239SOL    HW216617   3.267   2.968   4.361
 5240SOL     OW16618   3.208   2.063   5.790
 5240SOL    HW116619   3.271   1.986   5.805
 5240SOL    HW216620   3.222   2.099   5.698
 5241SOL     OW16621   0.296   5.515   4.925
 5241SOL    HW116622   0.250   5.602   4.939
 5241SOL    HW216623   0.240   5.440   4.961
 5242SOL     OW16624   6.737   6.496   6.406
 5242SOL    HW116625   6.789   6.564   6.354
 5242SOL    HW216626   6.746   6.514   6.504
 5243SOL     OW16627   1.282   5.370   1.459
 5243SOL    HW116628   1.184   5.388   1.470
 5243SOL    HW216629   1.326   5.370   1.549
 5244SOL     OW16630   3.500   5.370   0.017
 5244SOL    HW116631   3.516   5.282   0.060
 5244SOL    HW216632   3.410   5.405   0.044
 5245SOL     OW16633   3.788   4.774   0.150
 5245SOL    HW116634   3.808   4.845   0.218
 5245SOL    HW216635   3.705   4.725   0.177
 5246SOL     OW16636   5.409   3.829   1.788
 5246SOL    HW116637   5.316   3.850   1.821
 5246SOL    HW216638   5.443   3.747   1.834
 5247SOL     OW16639   1.859   0.554   6.749
 5247SOL    HW116640   1.764   0.528   6.761
 5247SOL    HW216641   1.906   0.553   6.837
 5248SOL     OW16642   5.666   1.634   3.663
 5248SOL    HW116643   5.618   1.548   3.647
 5248SOL    HW216644   5.690   1.676   3.576
 5249SOL     OW16645   6.917   5.062   5.834
 5249SOL    HW116646   6.868   5.067   5.747
 5249SOL    HW216647   6.906   5.148   5.884
 5250SOL     OW16648   2.146   5.913   6.011
 5250SOL    HW116649   2.177   5.933   5.918
 5250SOL    HW216650   2.142   5.815   6.025
 5251SOL     OW16651   0.654   3.674   6.988
 5251SOL    HW116652   0.670   3.720   6.901
 5251SOL    HW216653   0.574   3.615   6.981
 5252SOL     OW16654   1.619   6.353   0.603
 5252SOL    HW116655   1.619   6.254   0.593
 5252SOL    HW216656   1.599   6.378   0.697
 5253SOL     OW16657   5.981   4.849   4.662
 5253SOL    HW116658   6.071   4.890   4.681
 5253SOL    HW216659   5.948   4.803   4.745
 5254SOL     OW16660   4.246   1.169   3.226
 5254SOL    HW116661   4.297   1.226   3.290
 5254SOL    HW216662   4.198   1.097   3.276
 5255SOL     OW16663   5.716   1.217   5.316
 5255SOL    HW116664   5.814   1.214   5.299
 5255SOL    HW216665   5.674   1.132   5.283
 5256SOL     OW16666   4.005   1.482   3.629
 5256SOL    HW116667   4.099   1.454   3.650
 5256SOL    HW216668   3.943   1.449   3.700
 5257SOL     OW16669   5.975   6.760   1.928
 5257SOL    HW116670   6.017   6.831   1.873
 5257SOL    HW216671   5.878   6.779   1.939
 5258SOL     OW16672   5.743   3.269   1.563
 5258SOL    HW116673   5.732   3.363   1.595
 5258SOL    HW216674   5.674   3.211   1.606
 5259SOL     OW16675   5.583   6.481   1.951
 5259SOL    HW116676   5.639   6.473   1.869
 5259SOL    HW216677   5.595   6.399   2.008
 5260SOL     OW16678   5.197   3.513   0.914
 5260SOL    HW116679   5.132   3.449   0.954
 5260SOL    HW216680   5.256   3.465   0.848
 5261SOL     OW16681   0.723   3.839   6.788
 5261SOL    HW116682   0.629   3.871   6.777
 5261SOL    HW216683   0.769   3.896   6.856
 5262SOL     OW16684   2.485   0.708   2.961
 5262SOL    HW116685   2.540   0.787   2.988
 5262SOL    HW216686   2.388   0.727   2.978
 5263SOL     OW16687   1.359   1.799   4.315
 5263SOL    HW116688   1.399   1.868   4.375
 5263SOL    HW216689   1.387   1.708   4.347
 5264SOL     OW16690   6.506   2.480   2.916
 5264SOL    HW116691   6.525   2.529   2.831
 5264SOL    HW216692   6.418   2.509   2.953
 5265SOL     OW16693   6.754   3.673   4.031
 5265SOL    HW116694   6.818   3.716   4.095
 5265SOL    HW216695   6.710   3.595   4.074
 5266SOL     OW16696   2.804   5.414   0.703
 5266SOL    HW116697   2.755   5.494   0.670
 5266SOL    HW216698   2.802   5.342   0.633
 5267SOL     OW16699   5.221   4.000   4.971
 5267SOL    HW116700   5.293   3.949   5.018
 5267SOL    HW216701   5.141   3.941   4.960
 5268SOL     OW16702   5.583   0.449   6.815
 5268SOL    HW116703   5.628   0.453   6.904
 5268SOL    HW216704   5.568   0.354   6.790
 5269SOL     OW16705   1.471   6.662   3.822
 5269SOL    HW116706   1.455   6.710   3.908
 5269SOL    HW216707   1.430   6.571   3.826
 5270SOL     OW16708   5.877   1.330   1.209
 5270SOL    HW116709   5.934   1.331   1.291
 5270SOL    HW216710   5.875   1.237   1.171
 5271SOL     OW16711   5.881   5.399   4.729
 5271SOL    HW116712   5.857   5.416   4.825
 5271SOL    HW216713   5.800   5.372   4.679
 5272SOL     OW16714   2.853   5.277   1.946
 5272SOL    HW116715   2.850   5.233   2.036
 5272SOL    HW216716   2.918   5.229   1.888
 5273SOL     OW16717   6.699   3.096   3.573
 5273SOL    HW116718   6.610   3.052   3.565
 5273SOL    HW216719   6.687   3.186   3.615
 5274SOL     OW16720   6.516   6.802   2.940
 5274SOL    HW116721   6.466   6.801   3.027
 5274SOL    HW216722   6.499   6.716   2.892
 5275SOL     OW16723   3.583   2.136   0.834
 5275SOL    HW116724   3.571   2.235   0.834
 5275SOL    HW216725   3.560   2.100   0.744
 5276SOL     OW16726   2.040   0.370   0.946
 5276SOL    HW116727   2.125   0.412   0.978
 5276SOL    HW216728   1.987   0.338   1.025
 5277SOL     OW16729   1.330   1.541   2.748
 5277SOL    HW116730   1.298   1.447   2.759
 5277SOL    HW216731   1.256   1.598   2.714
 5278SOL     OW16732   5.855   0.504   3.424
 5278SOL    HW116733   5.872   0.429   3.359
 5278SOL    HW216734   5.818   0.467   3.509
 5279SOL     OW16735   2.222   5.004   5.810
 5279SOL    HW116736   2.196   4.946   5.733
 5279SOL    HW216737   2.192   4.961   5.895
 5280SOL     OW16738   2.374   5.857   5.065
 5280SOL    HW116739   2.434   5.851   4.985
 5280SOL    HW216740   2.347   5.764   5.093
 5281SOL     OW16741   0.714   1.528   2.814
 5281SOL    HW116742   0.620   1.558   2.832
 5281SOL    HW216743   0.751   1.582   2.738
 5282SOL     OW16744   2.272   2.023   2.888
 5282SOL    HW116745   2.298   2.117   2.907
 5282SOL    HW216746   2.267   2.009   2.789
 5283SOL     OW16747   3.932   6.788   1.586
 5283SOL    HW116748   3.967   6.699   1.557
 5283SOL    HW216749   3.974   6.861   1.532
 5284SOL     OW16750   4.935   3.676   3.291
 5284SOL    HW116751   4.876   3.601   3.323
 5284SOL    HW216752   5.031   3.652   3.306
 5285SOL     OW16753   2.654   5.119   3.267
 5285SOL    HW116754   2.707   5.139   3.349
 5285SOL    HW216755   2.603   5.200   3.240
 5286SOL     OW16756   1.542   4.269   0.296
 5286SOL    HW116757   1.581   4.204   0.361
 5286SOL    HW216758   1.607   4.343   0.279
 5287SOL     OW16759   2.821   6.441   1.053
 5287SOL    HW116760   2.917   6.462   1.036
 5287SOL    HW216761   2.813   6.392   1.140
 5288SOL     OW16762   3.707   0.319   1.441
 5288SOL    HW116763   3.624   0.268   1.462
 5288SOL    HW216764   3.785   0.279   1.491
 5289SOL     OW16765   1.670   4.382   5.801
 5289SOL    HW116766   1.642   4.295   5.761
 5289SOL    HW216767   1.588   4.435   5.826
 5290SOL     OW16768   1.890   5.168   5.147
 5290SOL    HW116769   1.889   5.115   5.062
 5290SOL    HW216770   1.844   5.116   5.219
 5291SOL     OW16771   2.549   5.194   5.948
 5291SOL    HW116772   2.550   5.240   6.036
 5291SOL    HW216773   2.477   5.232   5.890
 5292SOL     OW16774   6.316   3.132   6.897
 5292SOL    HW116775   6.272   3.119   6.986
 5292SOL    HW216776   6.371   3.052   6.874
 5293SOL     OW16777   0.667   0.035   4.734
 5293SOL    HW116778   0.728   6.992   4.690
 5293SOL    HW216779   0.634   0.101   4.666
 5294SOL     OW16780   4.315   3.449   5.831
 5294SOL    HW116781   4.321   3.495   5.743
 5294SOL    HW216782   4.344   3.511   5.904
 5295SOL     OW16783   5.101   0.910   2.653
 5295SOL    HW116784   5.175   0.847   2.675
 5295SOL    HW216785   5.114   0.947   2.561
 5296SOL     OW16786   2.145   5.123   0.072
 5296SOL    HW116787   2.124   5.217   0.096
 5296SOL    HW216788   2.244   5.111   0.068
 5297SOL     OW16789   3.256   2.358   1.063
 5297SOL    HW116790   3.269   2.453   1.036
 5297SOL    HW216791   3.184   2.317   1.006
 5298SOL     OW16792   0.977   5.353   0.282
 5298SOL    HW116793   0.947   5.383   0.372
 5298SOL    HW216794   0.916   5.282   0.248
 5299SOL     OW16795   2.211   2.435   0.995
 5299SOL    HW116796   2.231   2.450   1.092
 5299SOL    HW216797   2.141   2.500   0.966
 5300SOL     OW16798   0.213   6.109   1.845
 5300SOL    HW116799   0.266   6.144   1.923
 5300SOL    HW216800   0.139   6.050   1.879
 5301SOL     OW16801   4.593   2.461   0.896
 5301SOL    HW116802   4.523   2.523   0.860
 5301SOL    HW216803   4.630   2.406   0.821
 5302SOL     OW16804   6.060   3.956   2.840
 5302SOL    HW116805   6.076   3.858   2.832
 5302SOL    HW216806   5.963   3.972   2.857
 5303SOL     OW16807   6.594   6.058   3.375
 5303SOL    HW116808   6.539   5.981   3.343
 5303SOL    HW216809   6.594   6.059   3.475
 5304SOL     OW16810   6.846   1.988   5.764
 5304SOL    HW116811   6.850   1.992   5.664
 5304SOL    HW216812   6.921   1.932   5.798
 5305SOL     OW16813   1.496   6.426   4.730
 5305SOL    HW116814   1.428   6.354   4.745
 5305SOL    HW216815   1.587   6.391   4.752
 5306SOL     OW16816   0.221   5.984   5.084
 5306SOL    HW116817   0.282   5.929   5.027
 5306SOL    HW216818   0.275   6.046   5.141
 5307SOL     OW16819   4.356   0.256   6.984
 5307SOL    HW116820   4.343   0.180   0.025
 5307SOL    HW216821   4.270   0.306   6.975
 5308SOL     OW16822   1.063   6.441   4.717
 5308SOL    HW116823   1.094   6.425   4.623
 5308SOL    HW216824   1.061   6.355   4.767
 5309SOL     OW16825   2.994   3.674   2.403
 5309SOL    HW116826   3.001   3.680   2.304
 5309SOL    HW216827   2.928   3.604   2.429
 5310SOL     OW16828   5.283   2.571   2.013
 5310SOL    HW116829   5.204   2.518   1.982
 5310SOL    HW216830   5.367   2.519   1.997
 5311SOL     OW16831   0.292   5.658   0.874
 5311SOL    HW116832   0.253   5.619   0.957
 5311SOL    HW216833   0.262   5.752   0.864
 5312SOL     OW16834   0.064   4.260   2.453
 5312SOL    HW116835   7.005   4.249   2.510
 5312SOL    HW216836   0.098   4.354   2.462
 5313SOL     OW16837   1.092   4.682   6.830
 5313SOL    HW116838   1.100   4.689   6.929
 5313SOL    HW216839   1.020   4.617   6.806
 5314SOL     OW16840   3.387   5.110   0.115
 5314SOL    HW116841   3.316   5.117   0.045
 5314SOL    HW216842   3.350   5.139   0.203
 5315SOL     OW16843   3.840   3.838   1.547
 5315SOL    HW116844   3.926   3.866   1.591
 5315SOL    HW216845   3.848   3.850   1.448
 5316SOL     OW16846   6.659   5.097   5.090
 5316SOL    HW116847   6.627   5.006   5.113
 5316SOL    HW216848   6.581   5.156   5.067
 5317SOL     OW16849   6.955   0.752   5.057
 5317SOL    HW116850   6.943   0.844   5.093
 5317SOL    HW216851   7.015   0.755   4.977
 5318SOL     OW16852   0.547   1.570   5.871
 5318SOL    HW116853   0.513   1.477   5.884
 5318SOL    HW216854   0.484   1.621   5.813
 5319SOL     OW16855   4.627   6.422   6.977
 5319SOL    HW116856   4.561   6.457   0.020
 5319SOL    HW216857   4.581   6.363   6.911
 5320SOL     OW16858   5.633   5.181   6.756
 5320SOL    HW116859   5.561   5.202   6.689
 5320SOL    HW216860   5.633   5.251   6.828
 5321SOL     OW16861   1.048   3.838   2.751
 5321SOL    HW116862   1.078   3.903   2.682
 5321SOL    HW216863   1.082   3.866   2.841
 5322SOL     OW16864   3.829   6.143   5.992
 5322SOL    HW116865   3.779   6.213   5.942
 5322SOL    HW216866   3.909   6.184   6.035
 5323SOL     OW16867   3.924   3.280   0.724
 5323SOL    HW116868   3.882   3.219   0.657
 5323SOL    HW216869   3.965   3.226   0.797
 5324SOL     OW16870   3.699   2.634   1.767
 5324SOL    HW116871   3.769   2.645   1.696
 5324SOL    HW216872   3.705   2.542   1.806
 5325SOL     OW16873   5.630   6.483   3.661
 5325SOL    HW116874   5.710   6.489   3.720
 5325SOL    HW216875   5.547   6.495   3.716
 5326SOL     OW16876   6.878   4.856   2.821
 5326SOL    HW116877   6.785   4.821   2.816
 5326SOL    HW216878   6.893   4.900   2.910
 5327SOL     OW16879   6.701   5.185   5.648
 5327SOL    HW116880   6.738   5.200   5.556
 5327SOL    HW216881   6.642   5.261   5.672
 5328SOL     OW16882   4.611   2.587   5.535
 5328SOL    HW116883   4.572   2.587   5.627
 5328SOL    HW216884   4.665   2.670   5.522
 5329SOL     OW16885   0.732   3.981   7.018
 5329SOL    HW116886   0.751   4.075   0.022
 5329SOL    HW216887   0.634   3.970   7.000
 5330SOL     OW16888   3.540   4.882   6.888
 5330SOL    HW116889   3.544   4.782   6.884
 5330SOL    HW216890   3.613   4.916   6.948
 5331SOL     OW16891   5.420   1.518   1.626
 5331SOL    HW116892   5.492   1.550   1.565
 5331SOL    HW216893   5.351   1.589   1.637
 5332SOL     OW16894   6.361   4.205   0.643
 5332SOL    HW116895   6.453   4.170   0.659
 5332SOL    HW216896   6.362   4.269   0.565
 5333SOL     OW16897   1.136   0.462   3.677
 5333SOL    HW116898   1.081   0.516   3.612
 5333SOL    HW216899   1.232   0.466   3.649
 5334SOL     OW16900   3.770   4.983   5.656
 5334SOL    HW116901   3.785   4.915   5.728
 5334SOL    HW216902   3.713   5.057   5.691
 5335SOL     OW16903   0.400   5.001   2.519
 5335SOL    HW116904   0.459   5.066   2.567
 5335SOL    HW216905   0.457   4.928   2.480
 5336SOL     OW16906   2.285   2.257   3.509
 5336SOL    HW116907   2.207   2.202   3.542
 5336SOL    HW216908   2.289   2.342   3.560
 5337SOL     OW16909   5.315   4.593   1.828
 5337SOL    HW116910   5.391   4.657   1.841
 5337SOL    HW216911   5.349   4.499   1.829
 5338SOL     OW16912   6.208   1.364   6.096
 5338SOL    HW116913   6.156   1.308   6.031
 5338SOL    HW216914   6.294   1.319   6.117
 5339SOL     OW16915   5.303   1.637   3.289
 5339SOL    HW116916   5.251   1.554   3.308
 5339SOL    HW216917   5.314   1.690   3.373
 5340SOL     OW16918   6.240   4.119   1.330
 5340SOL    HW116919   6.303   4.043   1.318
 5340SOL    HW216920   6.168   4.092   1.394
 5341SOL     OW16921   2.989   4.969   5.192
 5341SOL    HW116922   2.914   4.960   5.127
 5341SOL    HW216923   3.029   4.879   5.211
 5342SOL     OW16924   5.414   6.283   4.591
 5342SOL    HW116925   5.450   6.335   4.669
 5342SOL    HW216926   5.456   6.316   4.507
 5343SOL     OW16927   4.114   3.362   4.736
 5343SOL    HW116928   4.105   3.322   4.644
 5343SOL    HW216929   4.024   3.366   4.780
 5344SOL     OW16930   0.761   1.637   0.589
 5344SOL    HW116931   0.743   1.543   0.617
 5344SOL    HW216932   0.796   1.689   0.667
 5345SOL     OW16933   5.101   0.120   0.312
 5345SOL    HW116934   5.130   0.095   0.404
 5345SOL    HW216935   5.176   0.108   0.248
 5346SOL     OW16936   3.329   5.671   3.745
 5346SOL    HW116937   3.387   5.608   3.796
 5346SOL    HW216938   3.237   5.671   3.785
 5347SOL     OW16939   6.652   3.862   3.167
 5347SOL    HW116940   6.692   3.771   3.166
 5347SOL    HW216941   6.640   3.893   3.261
 5348SOL     OW16942   0.221   1.664   6.603
 5348SOL    HW116943   0.139   1.620   6.640
 5348SOL    HW216944   0.288   1.678   6.675
 5349SOL     OW16945   2.591   3.560   0.572
 5349SOL    HW116946   2.583   3.468   0.533
 5349SOL    HW216947   2.546   3.626   0.512
 5350SOL     OW16948   2.287   6.756   5.516
 5350SOL    HW116949   2.309   6.753   5.419
 5350SOL    HW216950   2.190   6.780   5.528
 5351SOL     OW16951   0.121   5.705   2.116
 5351SOL    HW116952   0.057   5.715   2.192
 5351SOL    HW216953   0.131   5.608   2.094
 5352SOL     OW16954   1.959   4.938   2.857
 5352SOL    HW116955   1.879   4.931   2.917
 5352SOL    HW216956   2.026   5.000   2.898
 5353SOL     OW16957   3.652   6.211   3.994
 5353SOL    HW116958   3.564   6.166   3.983
 5353SOL    HW216959   3.690   6.233   3.904
 5354SOL     OW16960   1.846   4.771   0.682
 5354SOL    HW116961   1.925   4.717   0.711
 5354SOL    HW216962   1.786   4.715   0.625
 5355SOL     OW16963   6.233   5.160   3.982
 5355SOL    HW116964   6.291   5.101   4.038
 5355SOL    HW216965   6.193   5.106   3.908
 5356SOL     OW16966   6.625   3.540   2.460
 5356SOL    HW116967   6.683   3.587   2.394
 5356SOL    HW216968   6.668   3.544   2.551
 5357SOL     OW16969   3.573   4.617   0.720
 5357SOL    HW116970   3.496   4.631   0.782
 5357SOL    HW216971   3.598   4.521   0.719
 5358SOL     OW16972   4.555   2.530   1.156
 5358SOL    HW116973   4.567   2.437   1.191
 5358SOL    HW216974   4.569   2.530   1.057
 5359SOL     OW16975   2.438   1.887   5.983
 5359SOL    HW116976   2.498   1.877   6.063
 5359SOL    HW216977   2.491   1.923   5.907
 5360SOL     OW16978   4.802   5.953   3.646
 5360SOL    HW116979   4.838   5.960   3.739
 5360SOL    HW216980   4.820   6.039   3.597
 5361SOL     OW16981   2.177   6.633   4.119
 5361SOL    HW116982   2.273   6.660   4.133
 5361SOL    HW216983   2.155   6.556   4.179
 5362SOL     OW16984   6.467   5.898   2.375
 5362SOL    HW116985   6.562   5.924   2.394
 5362SOL    HW216986   6.466   5.828   2.304
 5363SOL     OW16987   5.429   6.145   5.999
 5363SOL    HW116988   5.407   6.048   6.003
 5363SOL    HW216989   5.347   6.198   6.024
 5364SOL     OW16990   6.156   6.602   1.614
 5364SOL    HW116991   6.235   6.634   1.667
 5364SOL    HW216992   6.112   6.527   1.663
 5365SOL     OW16993   3.089   3.012   2.215
 5365SOL    HW116994   3.173   3.019   2.161
 5365SOL    HW216995   3.103   2.947   2.289
 5366SOL     OW16996   6.699   6.494   2.200
 5366SOL    HW116997   6.731   6.588   2.189
 5366SOL    HW216998   6.770   6.431   2.167
 5367SOL     OW16999   0.461   6.811   1.464
 5367SOL    HW117000   0.510   6.788   1.380
 5367SOL    HW217001   0.389   6.744   1.481
 5368SOL     OW17002   6.204   6.820   2.714
 5368SOL    HW117003   6.220   6.794   2.619
 5368SOL    HW217004   6.184   6.918   2.719
 5369SOL     OW17005   2.625   6.215   0.997
 5369SOL    HW117006   2.613   6.163   1.082
 5369SOL    HW217007   2.718   6.251   0.994
 5370SOL     OW17008   4.389   3.908   0.910
 5370SOL    HW117009   4.373   3.985   0.972
 5370SOL    HW217010   4.439   3.939   0.830
 5371SOL     OW17011   0.334   5.126   5.142
 5371SOL    HW117012   0.387   5.047   5.174
 5371SOL    HW217013   0.312   5.185   5.220
 5372SOL     OW17014   1.150   6.312   3.007
 5372SOL    HW117015   1.067   6.257   3.016
 5372SOL    HW217016   1.129   6.408   3.023
 5373SOL     OW17017   3.942   6.770   5.323
 5373SOL    HW117018   4.021   6.711   5.342
 5373SOL    HW217019   3.868   6.748   5.386
 5374SOL     OW17020   2.382   5.006   0.769
 5374SOL    HW117021   2.474   4.987   0.804
 5374SOL    HW217022   2.319   5.021   0.845
 5375SOL     OW17023   0.430   5.870   5.877
 5375SOL    HW117024   0.506   5.864   5.942
 5375SOL    HW217025   0.380   5.955   5.893
 5376SOL     OW17026   1.458   2.267   1.236
 5376SOL    HW117027   1.455   2.364   1.215
 5376SOL    HW217028   1.537   2.248   1.294
 5377SOL     OW17029   0.877   0.334   2.801
 5377SOL    HW117030   0.780   0.311   2.811
 5377SOL    HW217031   0.891   0.384   2.716
 5378SOL     OW17032   6.916   0.121   2.454
 5378SOL    HW117033   6.942   0.207   2.409
 5378SOL    HW217034   6.901   0.138   2.551
 5379SOL     OW17035   0.917   3.365   4.852
 5379SOL    HW117036   0.844   3.369   4.920
 5379SOL    HW217037   0.890   3.419   4.772
 5380SOL     OW17038   2.724   6.944   1.394
 5380SOL    HW117039   2.765   6.885   1.324
 5380SOL    HW217040   2.678   6.888   1.462
 5381SOL     OW17041   0.152   6.234   2.159
 5381SOL    HW117042   0.206   6.304   2.206
 5381SOL    HW217043   0.122   6.165   2.225
 5382SOL     OW17044   3.028   2.114   2.151
 5382SOL    HW117045   2.983   2.178   2.089
 5382SOL    HW217046   3.007   2.139   2.246
 5383SOL     OW17047   1.469   3.010   4.920
 5383SOL    HW117048   1.395   3.004   4.854
 5383SOL    HW217049   1.526   2.928   4.914
 5384SOL     OW17050   5.025   6.071   4.553
 5384SOL    HW117051   4.970   6.142   4.598
 5384SOL    HW217052   4.978   5.983   4.559
 5385SOL     OW17053   4.915   3.213   5.495
 5385SOL    HW117054   4.950   3.152   5.425
 5385SOL    HW217055   4.881   3.160   5.572
 5386SOL     OW17056   5.638   1.494   4.203
 5386SOL    HW117057   5.626   1.481   4.105
 5386SOL    HW217058   5.550   1.484   4.249
 5387SOL     OW17059   2.452   6.447   3.129
 5387SOL    HW117060   2.367   6.415   3.086
 5387SOL    HW217061   2.433   6.474   3.223
 5388SOL     OW17062   1.249   0.098   2.454
 5388SOL    HW117063   1.283   0.028   2.517
 5388SOL    HW217064   1.149   0.099   2.456
 5389SOL     OW17065   3.912   1.626   4.840
 5389SOL    HW117066   3.954   1.709   4.876
 5389SOL    HW217067   3.871   1.574   4.914
 5390SOL     OW17068   5.722   4.101   3.327
 5390SOL    HW117069   5.690   4.007   3.315
 5390SOL    HW217070   5.737   4.118   3.425
 5391SOL     OW17071   2.228   2.024   0.518
 5391SOL    HW117072   2.140   2.016   0.564
 5391SOL    HW217073   2.295   2.063   0.580
 5392SOL     OW17074   5.324   3.984   0.775
 5392SOL    HW117075   5.370   3.897   0.763
 5392SOL    HW217076   5.281   3.987   0.865
 5393SOL     OW17077   4.887   0.907   5.143
 5393SOL    HW117078   4.950   0.845   5.096
 5393SOL    HW217079   4.803   0.916   5.091
 5394SOL     OW17080   0.767   5.321   1.242
 5394SOL    HW117081   0.684   5.285   1.282
 5394SOL    HW217082   0.846   5.269   1.274
 5395SOL     OW17083   4.965   0.505   1.411
 5395SOL    HW117084   4.966   0.444   1.331
 5395SOL    HW217085   4.884   0.486   1.465
 5396SOL     OW17086   5.969   4.869   1.729
 5396SOL    HW117087   5.975   4.837   1.823
 5396SOL    HW217088   5.877   4.853   1.694
 5397SOL     OW17089   6.976   1.861   2.323
 5397SOL    HW117090   0.018   1.802   2.373
 5397SOL    HW217091   6.944   1.814   2.242
 5398SOL     OW17092   3.136   2.102   3.934
 5398SOL    HW117093   3.109   2.005   3.939
 5398SOL    HW217094   3.074   2.155   3.992
 5399SOL     OW17095   2.597   6.605   6.385
 5399SOL    HW117096   2.682   6.657   6.376
 5399SOL    HW217097   2.608   6.515   6.342
 5400SOL     OW17098   3.209   3.534   0.356
 5400SOL    HW117099   3.222   3.596   0.433
 5400SOL    HW217100   3.268   3.454   0.367
 5401SOL     OW17101   5.723   4.303   2.276
 5401SOL    HW117102   5.721   4.204   2.257
 5401SOL    HW217103   5.651   4.348   2.224
 5402SOL     OW17104   2.776   6.812   1.158
 5402SOL    HW117105   2.834   6.805   1.077
 5402SOL    HW217106   2.686   6.774   1.137
 5403SOL     OW17107   5.060   3.528   6.173
 5403SOL    HW117108   5.104   3.491   6.091
 5403SOL    HW217109   4.967   3.556   6.150
 5404SOL     OW17110   0.800   0.178   1.594
 5404SOL    HW117111   0.869   0.118   1.555
 5404SOL    HW217112   0.752   0.131   1.668
 5405SOL     OW17113   5.950   4.602   6.648
 5405SOL    HW117114   5.877   4.533   6.645
 5405SOL    HW217115   5.955   4.650   6.561
 5406SOL     OW17116   2.329   1.005   5.044
 5406SOL    HW117117   2.313   1.104   5.045
 5406SOL    HW217118   2.367   0.978   4.956
 5407SOL     OW17119   3.637   1.851   0.775
 5407SOL    HW117120   3.591   1.918   0.833
 5407SOL    HW217121   3.572   1.813   0.709
 5408SOL     OW17122   4.099   0.879   5.043
 5408SOL    HW117123   4.040   0.943   5.091
 5408SOL    HW217124   4.157   0.831   5.108
 5409SOL     OW17125   6.395   1.455   2.834
 5409SOL    HW117126   6.455   1.417   2.764
 5409SOL    HW217127   6.371   1.549   2.811
 5410SOL     OW17128   1.080   2.269   6.762
 5410SOL    HW117129   1.087   2.196   6.694
 5410SOL    HW217130   1.050   2.353   6.718
 5411SOL     OW17131   5.224   5.274   6.449
 5411SOL    HW117132   5.131   5.253   6.480
 5411SOL    HW217133   5.256   5.203   6.386
 5412SOL     OW17134   2.979   1.269   6.523
 5412SOL    HW117135   3.055   1.206   6.509
 5412SOL    HW217136   3.014   1.355   6.560
 5413SOL     OW17137   0.621   6.901   6.803
 5413SOL    HW117138   0.626   6.953   6.888
 5413SOL    HW217139   0.713   6.879   6.772
 5414SOL     OW17140   6.176   5.024   4.700
 5414SOL    HW117141   6.241   4.972   4.644
 5414SOL    HW217142   6.146   5.105   4.649
 5415SOL     OW17143   2.510   6.484   1.044
 5415SOL    HW117144   2.606   6.510   1.034
 5415SOL    HW217145   2.503   6.386   1.063
 5416SOL     OW17146   2.713   4.861   5.144
 5416SOL    HW117147   2.762   4.777   5.122
 5416SOL    HW217148   2.616   4.850   5.124
 5417SOL     OW17149   3.953   0.215   5.164
 5417SOL    HW117150   4.044   0.205   5.124
 5417SOL    HW217151   3.887   0.163   5.109
 5418SOL     OW17152   5.863   5.624   5.082
 5418SOL    HW117153   5.831   5.713   5.052
 5418SOL    HW217154   5.795   5.554   5.059
 5419SOL     OW17155   3.655   6.011   0.633
 5419SOL    HW117156   3.566   5.994   0.674
 5419SOL    HW217157   3.695   5.925   0.602
 5420SOL     OW17158   2.164   1.737   0.746
 5420SOL    HW117159   2.131   1.813   0.804
 5420SOL    HW217160   2.114   1.737   0.660
 5421SOL     OW17161   3.371   5.074   1.359
 5421SOL    HW117162   3.341   5.164   1.389
 5421SOL    HW217163   3.359   5.066   1.260
 5422SOL     OW17164   0.970   4.476   4.575
 5422SOL    HW117165   1.031   4.440   4.646
 5422SOL    HW217166   0.953   4.573   4.593
 5423SOL     OW17167   5.242   4.964   6.963
 5423SOL    HW117168   5.153   4.985   7.005
 5423SOL    HW217169   5.313   4.968   0.010
 5424SOL     OW17170   5.701   3.869   4.320
 5424SOL    HW117171   5.648   3.790   4.290
 5424SOL    HW217172   5.731   3.855   4.415
 5425SOL     OW17173   6.005   2.226   5.086
 5425SOL    HW117174   6.079   2.269   5.035
 5425SOL    HW217175   6.035   2.212   5.181
 5426SOL     OW17176   5.428   5.685   2.312
 5426SOL    HW117177   5.454   5.656   2.405
 5426SOL    HW217178   5.383   5.774   2.316
 5427SOL     OW17179   5.251   3.283   0.178
 5427SOL    HW117180   5.299   3.199   0.151
 5427SOL    HW217181   5.290   3.360   0.128
 5428SOL     OW17182   5.425   6.803   1.611
 5428SOL    HW117183   5.490   6.778   1.683
 5428SOL    HW217184   5.355   6.732   1.603
 5429SOL     OW17185   1.891   7.020   5.407
 5429SOL    HW117186   1.918   0.071   5.468
 5429SOL    HW217187   1.891   0.029   5.313
 5430SOL     OW17188   1.907   3.201   4.538
 5430SOL    HW117189   1.828   3.258   4.518
 5430SOL    HW217190   1.935   3.153   4.455
 5431SOL     OW17191   2.763   3.892   6.507
 5431SOL    HW117192   2.680   3.946   6.522
 5431SOL    HW217193   2.816   3.932   6.432
 5432SOL     OW17194   3.773   5.696   6.346
 5432SOL    HW117195   3.768   5.791   6.314
 5432SOL    HW217196   3.724   5.637   6.282
 5433SOL     OW17197   0.919   0.411   1.585
 5433SOL    HW117198   0.870   0.326   1.563
 5433SOL    HW217199   0.882   0.449   1.670
 5434SOL     OW17200   3.999   1.254   4.806
 5434SOL    HW117201   4.071   1.320   4.825
 5434SOL    HW217202   4.022   1.201   4.725
 5435SOL     OW17203   6.556   3.592   0.489
 5435SOL    HW117204   6.646   3.554   0.510
 5435SOL    HW217205   6.515   3.628   0.573
 5436SOL     OW17206   6.291   4.518   4.096
 5436SOL    HW117207   6.382   4.491   4.066
 5436SOL    HW217208   6.237   4.437   4.118
 5437SOL     OW17209   3.188   5.108   5.027
 5437SOL    HW117210   3.203   5.060   4.941
 5437SOL    HW217211   3.120   5.059   5.082
 5438SOL     OW17212   5.517   4.462   2.194
 5438SOL    HW117213   5.538   4.517   2.113
 5438SOL    HW217214   5.505   4.522   2.273
 5439SOL     OW17215   0.218   3.237   6.595
 5439SOL    HW117216   0.301   3.201   6.552
 5439SOL    HW217217   0.161   3.161   6.627
 5440SOL     OW17218   6.514   6.305   3.679
 5440SOL    HW117219   6.450   6.252   3.624
 5440SOL    HW217220   6.593   6.248   3.701
 5441SOL     OW17221   5.110   3.309   3.872
 5441SOL    HW117222   5.068   3.286   3.960
 5441SOL    HW217223   5.055   3.378   3.826
 5442SOL     OW17224   3.849   0.115   3.621
 5442SOL    HW117225   3.818   0.179   3.691
 5442SOL    HW217226   3.797   0.130   3.537
 5443SOL     OW17227   4.176   5.894   3.928
 5443SOL    HW117228   4.138   5.938   3.847
 5443SOL    HW217229   4.164   5.954   4.007
 5444SOL     OW17230   0.066   0.619   4.156
 5444SOL    HW117231   0.017   0.583   4.235
 5444SOL    HW217232   0.101   0.543   4.101
 5445SOL     OW17233   6.206   3.985   3.668
 5445SOL    HW117234   6.142   3.912   3.644
 5445SOL    HW217235   6.191   4.012   3.763
 5446SOL     OW17236   5.986   5.523   4.166
 5446SOL    HW117237   6.000   5.540   4.264
 5446SOL    HW217238   6.037   5.590   4.113
 5447SOL     OW17239   1.630   1.008   0.875
 5447SOL    HW117240   1.682   1.006   0.960
 5447SOL    HW217241   1.672   1.074   0.812
 5448SOL     OW17242   4.378   4.560   3.617
 5448SOL    HW117243   4.398   4.562   3.519
 5448SOL    HW217244   4.286   4.596   3.633
 5449SOL     OW17245   2.184   1.029   0.741
 5449SOL    HW117246   2.273   0.997   0.771
 5449SOL    HW217247   2.177   1.021   0.641
 5450SOL     OW17248   3.306   0.399   1.258
 5450SOL    HW117249   3.234   0.432   1.196
 5450SOL    HW217250   3.311   0.299   1.250
 5451SOL     OW17251   2.073   5.981   3.546
 5451SOL    HW117252   2.045   5.945   3.457
 5451SOL    HW217253   2.065   6.081   3.546
 5452SOL     OW17254   2.615   4.445   1.111
 5452SOL    HW117255   2.679   4.423   1.037
 5452SOL    HW217256   2.527   4.401   1.094
 5453SOL     OW17257   4.946   3.850   2.318
 5453SOL    HW117258   5.014   3.839   2.245
 5453SOL    HW217259   4.871   3.907   2.285
 5454SOL     OW17260   5.769   5.842   0.962
 5454SOL    HW117261   5.748   5.921   1.021
 5454SOL    HW217262   5.781   5.761   1.019
 5455SOL     OW17263   0.292   1.941   3.678
 5455SOL    HW117264   0.268   1.870   3.611
 5455SOL    HW217265   0.249   2.027   3.651
 5456SOL     OW17266   3.694   1.985   6.656
 5456SOL    HW117267   3.605   2.020   6.626
 5456SOL    HW217268   3.743   1.948   6.578
 5457SOL     OW17269   6.469   2.202   1.418
 5457SOL    HW117270   6.524   2.122   1.441
 5457SOL    HW217271   6.474   2.268   1.493
 5458SOL     OW17272   6.866   5.230   0.252
 5458SOL    HW117273   6.781   5.253   0.300
 5458SOL    HW217274   6.895   5.308   0.197
 5459SOL     OW17275   2.182   4.891   5.545
 5459SOL    HW117276   2.198   4.929   5.455
 5459SOL    HW217277   2.259   4.831   5.570
 5460SOL     OW17278   2.762   7.016   2.117
 5460SOL    HW117279   2.710   6.945   2.166
 5460SOL    HW217280   2.783   0.068   2.180
 5461SOL     OW17281   0.818   6.919   4.371
 5461SOL    HW117282   0.794   6.895   4.465
 5461SOL    HW217283   0.915   6.901   4.355
 5462SOL     OW17284   5.537   6.148   6.982
 5462SOL    HW117285   5.493   6.140   6.893
 5462SOL    HW217286   5.560   6.243   7.000
 5463SOL     OW17287   0.623   1.994   0.067
 5463SOL    HW117288   0.531   1.961   0.090
 5463SOL    HW217289   0.615   2.074   0.009
 5464SOL     OW17290   5.808   6.202   4.360
 5464SOL    HW117291   5.889   6.247   4.396
 5464SOL    HW217292   5.726   6.254   4.386
 5465SOL     OW17293   6.495   0.968   3.461
 5465SOL    HW117294   6.495   0.999   3.366
 5465SOL    HW217295   6.506   1.046   3.522
 5466SOL     OW17296   5.002   2.621   5.694
 5466SOL    HW117297   4.968   2.715   5.694
 5466SOL    HW217298   5.073   2.612   5.624
 5467SOL     OW17299   6.361   3.539   3.529
 5467SOL    HW117300   6.330   3.483   3.453
 5467SOL    HW217301   6.318   3.508   3.614
 5468SOL     OW17302   6.628   1.716   4.997
 5468SOL    HW117303   6.698   1.786   4.982
 5468SOL    HW217304   6.601   1.715   5.093
 5469SOL     OW17305   3.080   5.616   5.345
 5469SOL    HW117306   3.134   5.624   5.261
 5469SOL    HW217307   2.988   5.584   5.323
 5470SOL     OW17308   3.919   5.768   4.264
 5470SOL    HW117309   3.874   5.680   4.280
 5470SOL    HW217310   3.931   5.782   4.166
 5471SOL     OW17311   6.062   0.329   2.716
 5471SOL    HW117312   5.970   0.290   2.717
 5471SOL    HW217313   6.076   0.378   2.629
 5472SOL     OW17314   3.184   3.321   6.625
 5472SOL    HW117315   3.220   3.414   6.622
 5472SOL    HW217316   3.179   3.284   6.532
 5473SOL     OW17317   1.643   3.339   0.913
 5473SOL    HW117318   1.707   3.415   0.908
 5473SOL    HW217319   1.575   3.356   0.985
 5474SOL     OW17320   0.956   4.865   4.927
 5474SOL    HW117321   0.906   4.834   5.008
 5474SOL    HW217322   0.971   4.964   4.933
 5475SOL     OW17323   1.671   2.377   0.319
 5475SOL    HW117324   1.600   2.394   0.388
 5475SOL    HW217325   1.693   2.462   0.272
 5476SOL     OW17326   2.320   4.632   4.719
 5476SOL    HW117327   2.223   4.643   4.736
 5476SOL    HW217328   2.334   4.566   4.645
 5477SOL     OW17329   2.116   3.950   3.391
 5477SOL    HW117330   2.173   4.020   3.347
 5477SOL    HW217331   2.033   3.993   3.427
 5478SOL     OW17332   4.323   0.355   5.545
 5478SOL    HW117333   4.400   0.291   5.541
 5478SOL    HW217334   4.357   0.449   5.539
 5479SOL     OW17335   5.078   2.232   4.803
 5479SOL    HW117336   5.038   2.263   4.717
 5479SOL    HW217337   5.088   2.309   4.865
 5480SOL     OW17338   5.272   5.430   4.331
 5480SOL    HW117339   5.252   5.514   4.381
 5480SOL    HW217340   5.362   5.396   4.358
 5481SOL     OW17341   4.468   1.789   4.649
 5481SOL    HW117342   4.526   1.710   4.672
 5481SOL    HW217343   4.469   1.802   4.550
 5482SOL     OW17344   3.687   3.600   2.048
 5482SOL    HW117345   3.736   3.672   2.098
 5482SOL    HW217346   3.727   3.590   1.957
 5483SOL     OW17347   0.569   1.911   5.109
 5483SOL    HW117348   0.608   1.959   5.187
 5483SOL    HW217349   0.637   1.847   5.072
 5484SOL     OW17350   5.151   0.615   4.061
 5484SOL    HW117351   5.066   0.582   4.020
 5484SOL    HW217352   5.213   0.646   3.989
 5485SOL     OW17353   3.157   0.173   5.223
 5485SOL    HW117354   3.127   0.151   5.130
 5485SOL    HW217355   3.118   0.260   5.251
 5486SOL     OW17356   1.832   5.669   5.158
 5486SOL    HW117357   1.836   5.576   5.120
 5486SOL    HW217358   1.755   5.675   5.221
 5487SOL     OW17359   4.885   3.180   6.597
 5487SOL    HW117360   4.852   3.233   6.675
 5487SOL    HW217361   4.872   3.083   6.615
 5488SOL     OW17362   5.296   1.373   1.113
 5488SOL    HW117363   5.249   1.381   1.201
 5488SOL    HW217364   5.283   1.280   1.077
 5489SOL     OW17365   1.032   5.127   0.951
 5489SOL    HW117366   1.115   5.093   0.907
 5489SOL    HW217367   1.055   5.161   1.042
 5490SOL     OW17368   3.636   0.157   0.170
 5490SOL    HW117369   3.655   0.091   0.243
 5490SOL    HW217370   3.702   0.144   0.096
 5491SOL     OW17371   2.055   4.592   0.705
 5491SOL    HW117372   2.148   4.625   0.686
 5491SOL    HW217373   2.054   4.546   0.794
 5492SOL     OW17374   0.698   2.268   6.468
 5492SOL    HW117375   0.648   2.263   6.555
 5492SOL    HW217376   0.753   2.351   6.466
 5493SOL     OW17377   3.998   3.945   4.097
 5493SOL    HW117378   4.002   4.037   4.135
 5493SOL    HW217379   4.054   3.941   4.014
 5494SOL     OW17380   6.954   2.734   6.261
 5494SOL    HW117381   6.947   2.660   6.195
 5494SOL    HW217382   0.011   2.719   6.320
 5495SOL     OW17383   3.961   2.342   1.234
 5495SOL    HW117384   4.060   2.331   1.243
 5495SOL    HW217385   3.915   2.281   1.298
 5496SOL     OW17386   2.410   0.055   2.931
 5496SOL    HW117387   2.360   0.123   2.877
 5496SOL    HW217388   2.508   0.064   2.914
 5497SOL     OW17389   0.456   1.331   3.982
 5497SOL    HW117390   0.525   1.375   4.039
 5497SOL    HW217391   0.385   1.398   3.960
 5498SOL     OW17392   5.430   6.733   1.189
 5498SOL    HW117393   5.335   6.707   1.171
 5498SOL    HW217394   5.488   6.651   1.191
 5499SOL     OW17395   6.941   0.969   4.745
 5499SOL    HW117396   6.848   0.981   4.780
 5499SOL    HW217397   7.005   1.020   4.803
 5500SOL     OW17398   1.808   0.143   0.726
 5500SOL    HW117399   1.807   0.105   0.818
 5500SOL    HW217400   1.769   0.077   0.662
 5501SOL     OW17401   4.138   6.528   0.438
 5501SOL    HW117402   4.235   6.533   0.458
 5501SOL    HW217403   4.105   6.618   0.410
 5502SOL     OW17404   6.022   3.305   0.282
 5502SOL    HW117405   5.960   3.247   0.229
 5502SOL    HW217406   6.085   3.353   0.219
 5503SOL     OW17407   7.002   5.111   2.834
 5503SOL    HW117408   6.974   5.017   2.814
 5503SOL    HW217409   0.012   5.155   2.751
 5504SOL     OW17410   3.794   1.152   4.970
 5504SOL    HW117411   3.854   1.210   4.914
 5504SOL    HW217412   3.835   1.062   4.981
 5505SOL     OW17413   1.577   5.584   4.580
 5505SOL    HW117414   1.594   5.486   4.579
 5505SOL    HW217415   1.662   5.633   4.559
 5506SOL     OW17416   1.625   1.838   6.022
 5506SOL    HW117417   1.668   1.750   6.003
 5506SOL    HW217418   1.540   1.846   5.969
 5507SOL     OW17419   2.841   0.192   3.727
 5507SOL    HW117420   2.765   0.128   3.741
 5507SOL    HW217421   2.825   0.275   3.779
 5508SOL     OW17422   1.797   0.674   6.215
 5508SOL    HW117423   1.739   0.673   6.296
 5508SOL    HW217424   1.814   0.580   6.185
 5509SOL     OW17425   0.848   6.416   0.833
 5509SOL    HW117426   0.854   6.329   0.784
 5509SOL    HW217427   0.868   6.491   0.770
 5510SOL     OW17428   4.545   5.827   1.201
 5510SOL    HW117429   4.625   5.798   1.149
 5510SOL    HW217430   4.574   5.856   1.292
 5511SOL     OW17431   2.431   1.202   4.327
 5511SOL    HW117432   2.516   1.206   4.274
 5511SOL    HW217433   2.394   1.110   4.325
 5512SOL     OW17434   5.735   1.741   2.031
 5512SOL    HW117435   5.755   1.685   2.111
 5512SOL    HW217436   5.646   1.717   1.994
 5513SOL     OW17437   4.575   4.952   6.482
 5513SOL    HW117438   4.636   5.031   6.473
 5513SOL    HW217439   4.540   4.927   6.392
 5514SOL     OW17440   4.202   6.485   3.537
 5514SOL    HW117441   4.130   6.538   3.582
 5514SOL    HW217442   4.290   6.530   3.551
 5515SOL     OW17443   0.440   4.828   1.064
 5515SOL    HW117444   0.375   4.755   1.088
 5515SOL    HW217445   0.416   4.911   1.115
 5516SOL     OW17446   1.449   3.764   6.613
 5516SOL    HW117447   1.376   3.830   6.595
 5516SOL    HW217448   1.466   3.709   6.531
 5517SOL     OW17449   2.108   3.248   2.103
 5517SOL    HW117450   2.151   3.326   2.058
 5517SOL    HW217451   2.012   3.269   2.120
 5518SOL     OW17452   6.497   6.880   6.739
 5518SOL    HW117453   6.428   6.891   6.810
 5518SOL    HW217454   6.460   6.826   6.664
 5519SOL     OW17455   5.294   3.185   3.231
 5519SOL    HW117456   5.311   3.278   3.200
 5519SOL    HW217457   5.277   3.126   3.152
 5520SOL     OW17458   6.306   6.042   1.776
 5520SOL    HW117459   6.240   6.025   1.848
 5520SOL    HW217460   6.301   6.138   1.747
 5521SOL     OW17461   5.259   0.013   1.867
 5521SOL    HW117462   5.240   0.104   1.829
 5521SOL    HW217463   5.178   6.979   1.859
 5522SOL     OW17464   6.872   5.080   0.504
 5522SOL    HW117465   6.881   5.100   0.406
 5522SOL    HW217466   6.830   5.159   0.550
 5523SOL     OW17467   3.644   0.241   2.121
 5523SOL    HW117468   3.625   0.338   2.135
 5523SOL    HW217469   3.743   0.226   2.118
 5524SOL     OW17470   5.093   5.137   5.027
 5524SOL    HW117471   5.120   5.218   5.078
 5524SOL    HW217472   5.032   5.081   5.083
 5525SOL     OW17473   0.076   2.441   0.483
 5525SOL    HW117474   0.066   2.455   0.384
 5525SOL    HW217475   0.035   2.353   0.508
 5526SOL     OW17476   4.869   4.675   4.416
 5526SOL    HW117477   4.937   4.749   4.415
 5526SOL    HW217478   4.802   4.691   4.343
 5527SOL     OW17479   5.847   3.814   3.993
 5527SOL    HW117480   5.889   3.904   4.001
 5527SOL    HW217481   5.751   3.819   4.021
 5528SOL     OW17482   1.389   1.614   6.712
 5528SOL    HW117483   1.376   1.665   6.627
 5528SOL    HW217484   1.320   1.642   6.778
 5529SOL     OW17485   2.207   0.364   3.128
 5529SOL    HW117486   2.267   0.286   3.146
 5529SOL    HW217487   2.211   0.427   3.206
 5530SOL     OW17488   6.221   2.207   2.351
 5530SOL    HW117489   6.249   2.176   2.261
 5530SOL    HW217490   6.158   2.141   2.391
 5531SOL     OW17491   3.765   2.923   2.138
 5531SOL    HW117492   3.789   2.914   2.234
 5531SOL    HW217493   3.770   3.019   2.111
 5532SOL     OW17494   1.090   2.361   0.584
 5532SOL    HW117495   1.155   2.294   0.549
 5532SOL    HW217496   1.064   2.424   0.510
 5533SOL     OW17497   3.468   0.907   3.405
 5533SOL    HW117498   3.536   0.901   3.331
 5533SOL    HW217499   3.388   0.851   3.382
 5534SOL     OW17500   0.998   1.941   6.111
 5534SOL    HW117501   1.004   1.991   6.025
 5534SOL    HW217502   0.916   1.969   6.161
 5535SOL     OW17503   0.114   3.037   3.575
 5535SOL    HW117504   0.104   3.095   3.494
 5535SOL    HW217505   0.164   3.087   3.646
 5536SOL     OW17506   3.087   1.458   4.151
 5536SOL    HW117507   3.019   1.431   4.082
 5536SOL    HW217508   3.099   1.384   4.217
 5537SOL     OW17509   2.253   0.884   2.710
 5537SOL    HW117510   2.170   0.864   2.762
 5537SOL    HW217511   2.283   0.802   2.662
 5538SOL     OW17512   2.814   0.065   5.855
 5538SOL    HW117513   2.818   0.058   5.955
 5538SOL    HW217514   2.794   6.998   5.816
 5539SOL     OW17515   1.032   3.947   0.992
 5539SOL    HW117516   0.955   3.925   1.052
 5539SOL    HW217517   1.115   3.904   1.027
 5540SOL     OW17518   5.797   3.489   3.733
 5540SOL    HW117519   5.831   3.480   3.827
 5540SOL    HW217520   5.871   3.520   3.674
 5541SOL     OW17521   6.178   0.525   6.530
 5541SOL    HW117522   6.238   0.595   6.491
 5541SOL    HW217523   6.090   0.526   6.482
 5542SOL     OW17524   6.120   4.811   6.140
 5542SOL    HW117525   6.178   4.850   6.068
 5542SOL    HW217526   6.110   4.878   6.214
 5543SOL     OW17527   3.742   5.596   5.832
 5543SOL    HW117528   3.820   5.548   5.792
 5543SOL    HW217529   3.666   5.596   5.768
 5544SOL     OW17530   5.615   6.486   6.054
 5544SOL    HW117531   5.589   6.455   5.963
 5544SOL    HW217532   5.709   6.520   6.053
 5545SOL     OW17533   4.017   1.905   2.135
 5545SOL    HW117534   4.037   1.896   2.037
 5545SOL    HW217535   4.098   1.940   2.182
 5546SOL     OW17536   0.682   5.910   4.783
 5546SOL    HW117537   0.635   5.870   4.705
 5546SOL    HW217538   0.707   6.005   4.762
 5547SOL     OW17539   3.395   7.017   4.637
 5547SOL    HW117540   3.450   0.001   4.554
 5547SOL    HW217541   3.360   0.084   4.662
 5548SOL     OW17542   5.543   3.420   5.896
 5548SOL    HW117543   5.509   3.448   5.806
 5548SOL    HW217544   5.540   3.499   5.957
 5549SOL     OW17545   4.580   3.919   0.264
 5549SOL    HW117546   4.481   3.912   0.275
 5549SOL    HW217547   4.622   3.830   0.280
 5550SOL     OW17548   2.299   4.210   2.023
 5550SOL    HW117549   2.351   4.156   1.957
 5550SOL    HW217550   2.345   4.298   2.037
 5551SOL     OW17551   1.786   0.064   3.311
 5551SOL    HW117552   1.876   0.027   3.335
 5551SOL    HW217553   1.716   0.018   3.366
 5552SOL     OW17554   6.964   0.128   0.025
 5552SOL    HW117555   0.030   0.163   0.052
 5552SOL    HW217556   6.926   0.185   6.975
 5553SOL     OW17557   5.381   6.134   6.718
 5553SOL    HW117558   5.417   6.090   6.636
 5553SOL    HW217559   5.282   6.146   6.709
 5554SOL     OW17560   4.635   1.359   5.314
 5554SOL    HW117561   4.592   1.294   5.376
 5554SOL    HW217562   4.614   1.335   5.219
 5555SOL     OW17563   2.259   4.586   4.058
 5555SOL    HW117564   2.333   4.526   4.086
 5555SOL    HW217565   2.172   4.549   4.089
 5556SOL     OW17566   6.864   1.319   3.639
 5556SOL    HW117567   6.817   1.401   3.609
 5556SOL    HW217568   6.844   1.243   3.577
 5557SOL     OW17569   3.695   6.879   2.689
 5557SOL    HW117570   3.628   6.851   2.757
 5557SOL    HW217571   3.648   6.896   2.602
 5558SOL     OW17572   4.801   3.636   5.978
 5558SOL    HW117573   4.783   3.613   6.073
 5558SOL    HW217574   4.817   3.552   5.926
 5559SOL     OW17575   2.024   0.483   2.172
 5559SOL    HW117576   1.974   0.569   2.173
 5559SOL    HW217577   2.115   0.496   2.212
 5560SOL     OW17578   1.363   0.035   2.978
 5560SOL    HW117579   1.423   6.978   2.976
 5560SOL    HW217580   1.385   0.094   2.900
 5561SOL     OW17581   1.557   2.096   4.293
 5561SOL    HW117582   1.598   2.177   4.253
 5561SOL    HW217583   1.628   2.030   4.315
 5562SOL     OW17584   3.338   2.201   6.785
 5562SOL    HW117585   3.294   2.112   6.797
 5562SOL    HW217586   3.334   2.252   6.871
 5563SOL     OW17587   4.387   5.446   2.415
 5563SOL    HW117588   4.288   5.455   2.403
 5563SOL    HW217589   4.406   5.368   2.475
 5564SOL     OW17590   4.252   1.112   1.914
 5564SOL    HW117591   4.252   1.178   1.839
 5564SOL    HW217592   4.157   1.087   1.936
 5565SOL     OW17593   4.814   1.738   5.880
 5565SOL    HW117594   4.900   1.780   5.851
 5565SOL    HW217595   4.827   1.639   5.890
 5566SOL     OW17596   1.826   5.233   6.715
 5566SOL    HW117597   1.781   5.146   6.691
 5566SOL    HW217598   1.920   5.216   6.743
 5567SOL     OW17599   0.038   3.410   1.818
 5567SOL    HW117600   0.119   3.423   1.761
 5567SOL    HW217601   6.989   3.473   1.789
 5568SOL     OW17602   4.199   2.277   3.367
 5568SOL    HW117603   4.231   2.263   3.274
 5568SOL    HW217604   4.246   2.356   3.407
 5569SOL     OW17605   1.703   1.420   2.575
 5569SOL    HW117606   1.704   1.360   2.495
 5569SOL    HW217607   1.770   1.494   2.562
 5570SOL     OW17608   5.716   4.315   4.943
 5570SOL    HW117609   5.778   4.322   4.865
 5570SOL    HW217610   5.667   4.228   4.937
 5571SOL     OW17611   6.948   5.505   0.578
 5571SOL    HW117612   6.969   5.495   0.481
 5571SOL    HW217613   0.009   5.498   0.632
 5572SOL     OW17614   0.791   2.276   5.172
 5572SOL    HW117615   0.700   2.262   5.211
 5572SOL    HW217616   0.788   2.260   5.074
 5573SOL     OW17617   1.892   3.589   6.660
 5573SOL    HW117618   1.901   3.493   6.689
 5573SOL    HW217619   1.981   3.633   6.661
 5574SOL     OW17620   6.285   1.843   3.395
 5574SOL    HW117621   6.334   1.806   3.315
 5574SOL    HW217622   6.212   1.780   3.421
 5575SOL     OW17623   6.794   1.535   1.112
 5575SOL    HW117624   6.752   1.540   1.203
 5575SOL    HW217625   6.815   1.439   1.091
 5576SOL     OW17626   1.175   5.992   2.870
 5576SOL    HW117627   1.136   6.071   2.823
 5576SOL    HW217628   1.268   5.976   2.837
 5577SOL     OW17629   2.721   2.510   5.477
 5577SOL    HW117630   2.725   2.598   5.428
 5577SOL    HW217631   2.666   2.521   5.560
 5578SOL     OW17632   4.034   4.304   0.217
 5578SOL    HW117633   4.102   4.346   0.278
 5578SOL    HW217634   4.027   4.207   0.237
 5579SOL     OW17635   0.273   3.857   6.096
 5579SOL    HW117636   0.304   3.944   6.134
 5579SOL    HW217637   0.341   3.786   6.115
 5580SOL     OW17638   5.255   2.889   5.973
 5580SOL    HW117639   5.225   2.846   6.058
 5580SOL    HW217640   5.177   2.932   5.928
 5581SOL     OW17641   2.630   0.560   1.716
 5581SOL    HW117642   2.634   0.488   1.786
 5581SOL    HW217643   2.696   0.540   1.644
 5582SOL     OW17644   3.639   3.377   4.516
 5582SOL    HW117645   3.694   3.444   4.467
 5582SOL    HW217646   3.636   3.401   4.613
 5583SOL     OW17647   4.038   0.800   3.024
 5583SOL    HW117648   3.989   0.870   3.076
 5583SOL    HW217649   3.998   0.793   2.932
 5584SOL     OW17650   5.803   4.229   3.913
 5584SOL    HW117651   5.727   4.205   3.974
 5584SOL    HW217652   5.825   4.326   3.924
 5585SOL     OW17653   4.785   6.320   4.019
 5585SOL    HW117654   4.829   6.392   4.074
 5585SOL    HW217655   4.758   6.245   4.079
 5586SOL     OW17656   0.232   2.024   6.804
 5586SOL    HW117657   0.200   2.117   6.786
 5586SOL    HW217658   0.240   2.010   6.903
 5587SOL     OW17659   3.917   6.178   2.581
 5587SOL    HW117660   3.907   6.089   2.537
 5587SOL    HW217661   3.981   6.234   2.529
 5588SOL     OW17662   1.602   6.812   2.726
 5588SOL    HW117663   1.683   6.810   2.668
 5588SOL    HW217664   1.536   6.743   2.695
 5589SOL     OW17665   5.975   3.284   5.859
 5589SOL    HW117666   5.906   3.295   5.787
 5589SOL    HW217667   5.936   3.315   5.946
 5590SOL     OW17668   6.662   5.350   3.353
 5590SOL    HW117669   6.623   5.390   3.271
 5590SOL    HW217670   6.590   5.334   3.421
 5591SOL     OW17671   5.846   1.162   6.959
 5591SOL    HW117672   5.865   1.224   0.012
 5591SOL    HW217673   5.931   1.127   6.921
 5592SOL     OW17674   0.362   4.345   2.792
 5592SOL    HW117675   0.266   4.372   2.788
 5592SOL    HW217676   0.415   4.415   2.840
 5593SOL     OW17677   0.167   2.473   5.980
 5593SOL    HW117678   0.100   2.528   6.029
 5593SOL    HW217679   0.122   2.424   5.905
 5594SOL     OW17680   3.278   1.217   6.724
 5594SOL    HW117681   3.257   1.280   6.650
 5594SOL    HW217682   3.329   1.139   6.689
 5595SOL     OW17683   6.082   0.193   5.074
 5595SOL    HW117684   6.166   0.169   5.024
 5595SOL    HW217685   6.106   0.228   5.165
 5596SOL     OW17686   4.827   0.225   3.071
 5596SOL    HW117687   4.779   0.289   3.010
 5596SOL    HW217688   4.879   0.277   3.138
 5597SOL     OW17689   6.455   1.595   5.514
 5597SOL    HW117690   6.373   1.648   5.534
 5597SOL    HW217691   6.532   1.633   5.565
 5598SOL     OW17692   6.518   2.742   4.226
 5598SOL    HW117693   6.502   2.808   4.300
 5598SOL    HW217694   6.459   2.662   4.238
 5599SOL     OW17695   0.302   2.371   1.905
 5599SOL    HW117696   0.213   2.326   1.896
 5599SOL    HW217697   0.295   2.464   1.868
 5600SOL     OW17698   2.453   0.090   2.494
 5600SOL    HW117699   2.518   0.032   2.543
 5600SOL    HW217700   2.437   0.053   2.403
 5601SOL     OW17701   3.233   1.190   6.426
 5601SOL    HW117702   3.276   1.245   6.354
 5601SOL    HW217703   3.233   1.094   6.399
 5602SOL     OW17704   0.504   0.135   2.030
 5602SOL    HW117705   0.405   0.148   2.031
 5602SOL    HW217706   0.546   0.191   2.102
 5603SOL     OW17707   5.586   1.983   6.937
 5603SOL    HW117708   5.620   1.958   0.005
 5603SOL    HW217709   5.530   1.909   6.901
 5604SOL     OW17710   6.842   2.237   5.204
 5604SOL    HW117711   6.852   2.294   5.286
 5604SOL    HW217712   6.924   2.181   5.193
 5605SOL     OW17713   1.751   0.391   4.593
 5605SOL    HW117714   1.691   0.423   4.667
 5605SOL    HW217715   1.697   0.339   4.527
 5606SOL     OW17716   5.589   1.136   0.784
 5606SOL    HW117717   5.606   1.065   0.853
 5606SOL    HW217718   5.672   1.191   0.772
 5607SOL     OW17719   5.792   1.244   3.802
 5607SOL    HW117720   5.871   1.197   3.763
 5607SOL    HW217721   5.740   1.181   3.859
 5608SOL     OW17722   6.319   1.450   3.114
 5608SOL    HW117723   6.222   1.476   3.121
 5608SOL    HW217724   6.337   1.414   3.023
 5609SOL     OW17725   4.307   5.882   1.533
 5609SOL    HW117726   4.256   5.955   1.487
 5609SOL    HW217727   4.302   5.896   1.632
 5610SOL     OW17728   5.168   4.350   1.241
 5610SOL    HW117729   5.132   4.443   1.236
 5610SOL    HW217730   5.267   4.353   1.255
 5611SOL     OW17731   0.806   5.162   2.819
 5611SOL    HW117732   0.881   5.229   2.818
 5611SOL    HW217733   0.809   5.108   2.735
 5612SOL     OW17734   4.158   3.119   0.465
 5612SOL    HW117735   4.214   3.199   0.487
 5612SOL    HW217736   4.142   3.116   0.367
 5613SOL     OW17737   5.440   5.410   5.076
 5613SOL    HW117738   5.393   5.347   5.138
 5613SOL    HW217739   5.395   5.410   4.987
 5614SOL     OW17740   5.077   3.724   5.009
 5614SOL    HW117741   4.996   3.670   4.985
 5614SOL    HW217742   5.151   3.663   5.036
 5615SOL     OW17743   6.600   1.658   4.153
 5615SOL    HW117744   6.649   1.746   4.151
 5615SOL    HW217745   6.626   1.604   4.073
 5616SOL     OW17746   2.247   2.491   4.776
 5616SOL    HW117747   2.324   2.553   4.767
 5616SOL    HW217748   2.202   2.480   4.688
 5617SOL     OW17749   1.381   4.500   4.877
 5617SOL    HW117750   1.365   4.416   4.930
 5617SOL    HW217751   1.479   4.511   4.860
 5618SOL     OW17752   6.578   4.751   3.445
 5618SOL    HW117753   6.583   4.654   3.471
 5618SOL    HW217754   6.633   4.806   3.508
 5619SOL     OW17755   3.289   3.992   4.032
 5619SOL    HW117756   3.361   4.062   4.029
 5619SOL    HW217757   3.330   3.901   4.033
 5620SOL     OW17758   4.614   4.046   0.007
 5620SOL    HW117759   4.611   4.015   0.102
 5620SOL    HW217760   4.582   3.973   6.970
 5621SOL     OW17761   1.770   3.001   0.172
 5621SOL    HW117762   1.755   3.100   0.180
 5621SOL    HW217763   1.799   2.979   0.079
 5622SOL     OW17764   5.126   0.546   5.913
 5622SOL    HW117765   5.191   0.488   5.863
 5622SOL    HW217766   5.176   0.621   5.958
 5623SOL     OW17767   4.772   6.772   4.892
 5623SOL    HW117768   4.863   6.761   4.932
 5623SOL    HW217769   4.778   6.761   4.792
 5624SOL     OW17770   0.457   4.544   4.249
 5624SOL    HW117771   0.517   4.484   4.196
 5624SOL    HW217772   0.465   4.521   4.346
 5625SOL     OW17773   0.069   6.170   5.708
 5625SOL    HW117774   0.054   6.082   5.662
 5625SOL    HW217775   0.005   6.238   5.673
 5626SOL     OW17776   2.736   5.106   3.771
 5626SOL    HW117777   2.746   5.204   3.757
 5626SOL    HW217778   2.788   5.079   3.852
 5627SOL     OW17779   0.272   4.955   6.630
 5627SOL    HW117780   0.219   4.871   6.616
 5627SOL    HW217781   0.351   4.935   6.688
 5628SOL     OW17782   1.795   2.640   1.315
 5628SOL    HW117783   1.729   2.632   1.390
 5628SOL    HW217784   1.861   2.565   1.321
 5629SOL     OW17785   4.865   3.298   1.929
 5629SOL    HW117786   4.931   3.255   1.868
 5629SOL    HW217787   4.804   3.229   1.968
 5630SOL     OW17788   1.656   4.579   6.573
 5630SOL    HW117789   1.675   4.624   6.486
 5630SOL    HW217790   1.601   4.497   6.557
 5631SOL     OW17791   4.729   1.925   1.584
 5631SOL    HW117792   4.668   1.847   1.572
 5631SOL    HW217793   4.810   1.897   1.635
 5632SOL     OW17794   3.342   2.156   5.247
 5632SOL    HW117795   3.366   2.122   5.156
 5632SOL    HW217796   3.269   2.224   5.239
 5633SOL     OW17797   5.992   4.823   4.358
 5633SOL    HW117798   5.976   4.906   4.304
 5633SOL    HW217799   5.971   4.842   4.454
 5634SOL     OW17800   1.994   4.574   4.594
 5634SOL    HW117801   2.011   4.480   4.625
 5634SOL    HW217802   2.003   4.636   4.672
 5635SOL     OW17803   1.505   6.146   6.844
 5635SOL    HW117804   1.581   6.194   6.799
 5635SOL    HW217805   1.436   6.212   6.873
 5636SOL     OW17806   6.593   0.011   5.135
 5636SOL    HW117807   6.665   0.007   5.066
 5636SOL    HW217808   6.507   0.039   5.093
 5637SOL     OW17809   3.861   6.629   3.543
 5637SOL    HW117810   3.919   6.697   3.499
 5637SOL    HW217811   3.917   6.554   3.578
 5638SOL     OW17812   6.369   4.039   1.016
 5638SOL    HW117813   6.269   4.050   1.021
 5638SOL    HW217814   6.413   4.122   1.050
 5639SOL     OW17815   2.584   0.368   2.314
 5639SOL    HW117816   2.581   0.327   2.223
 5639SOL    HW217817   2.677   0.360   2.351
 5640SOL     OW17818   2.947   0.806   2.451
 5640SOL    HW117819   2.951   0.898   2.492
 5640SOL    HW217820   2.853   0.772   2.455
 5641SOL     OW17821   0.985   4.431   5.800
 5641SOL    HW117822   1.015   4.519   5.764
 5641SOL    HW217823   0.891   4.414   5.770
 5642SOL     OW17824   0.478   5.863   4.982
 5642SOL    HW117825   0.528   5.874   5.068
 5642SOL    HW217826   0.541   5.877   4.905
 5643SOL     OW17827   3.331   0.898   4.241
 5643SOL    HW117828   3.409   0.896   4.178
 5643SOL    HW217829   3.273   0.976   4.220
 5644SOL     OW17830   3.646   0.163   4.578
 5644SOL    HW117831   3.594   0.178   4.494
 5644SOL    HW217832   3.744   0.167   4.558
 5645SOL     OW17833   5.632   4.932   2.610
 5645SOL    HW117834   5.599   4.837   2.614
 5645SOL    HW217835   5.730   4.933   2.629
 5646SOL     OW17836   1.296   5.393   2.978
 5646SOL    HW117837   1.331   5.340   3.056
 5646SOL    HW217838   1.316   5.490   2.992
 5647SOL     OW17839   5.728   0.431   1.025
 5647SOL    HW117840   5.816   0.399   0.989
 5647SOL    HW217841   5.654   0.377   0.985
 5648SOL     OW17842   1.808   0.771   3.540
 5648SOL    HW117843   1.776   0.850   3.488
 5648SOL    HW217844   1.758   0.689   3.511
 5649SOL     OW17845   6.865   7.004   5.018
 5649SOL    HW117846   6.926   0.048   4.976
 5649SOL    HW217847   6.854   6.925   4.957
 5650SOL     OW17848   1.464   5.190   0.944
 5650SOL    HW117849   1.526   5.112   0.937
 5650SOL    HW217850   1.451   5.230   0.853
 5651SOL     OW17851   0.518   1.279   1.598
 5651SOL    HW117852   0.596   1.294   1.659
 5651SOL    HW217853   0.519   1.347   1.525
 5652SOL     OW17854   6.607   6.985   2.201
 5652SOL    HW117855   6.541   6.954   2.132
 5652SOL    HW217856   6.669   6.910   2.223
 5653SOL     OW17857   0.714   6.055   6.821
 5653SOL    HW117858   0.622   6.016   6.816
 5653SOL    HW217859   0.729   6.093   6.913
 5654SOL     OW17860   6.644   0.179   5.944
 5654SOL    HW117861   6.688   0.157   5.856
 5654SOL    HW217862   6.710   0.164   6.018
 5655SOL     OW17863   1.825   3.578   4.843
 5655SOL    HW117864   1.883   3.524   4.782
 5655SOL    HW217865   1.879   3.607   4.923
 5656SOL     OW17866   0.394   3.545   6.958
 5656SOL    HW117867   0.325   3.578   6.893
 5656SOL    HW217868   0.359   3.557   0.028
 5657SOL     OW17869   5.630   1.532   6.966
 5657SOL    HW117870   5.650   1.484   6.881
 5657SOL    HW217871   5.667   1.625   6.962
 5658SOL     OW17872   3.921   4.736   6.119
 5658SOL    HW117873   3.892   4.703   6.209
 5658SOL    HW217874   3.974   4.821   6.131
 5659SOL     OW17875   3.456   3.526   3.916
 5659SOL    HW117876   3.376   3.580   3.889
 5659SOL    HW217877   3.429   3.431   3.931
 5660SOL     OW17878   5.666   0.716   6.976
 5660SOL    HW117879   5.721   0.719   6.893
 5660SOL    HW217880   5.614   0.801   6.984
 5661SOL     OW17881   1.465   5.265   5.135
 5661SOL    HW117882   1.445   5.268   5.038
 5661SOL    HW217883   1.541   5.327   5.156
 5662SOL     OW17884   2.736   5.385   2.800
 5662SOL    HW117885   2.741   5.467   2.857
 5662SOL    HW217886   2.760   5.305   2.855
 5663SOL     OW17887   2.171   3.259   0.331
 5663SOL    HW117888   2.223   3.217   0.405
 5663SOL    HW217889   2.105   3.194   0.295
 5664SOL     OW17890   6.467   4.364   4.708
 5664SOL    HW117891   6.391   4.416   4.668
 5664SOL    HW217892   6.444   4.267   4.709
 5665SOL     OW17893   1.664   1.489   0.281
 5665SOL    HW117894   1.702   1.497   0.373
 5665SOL    HW217895   1.729   1.443   0.222
 5666SOL     OW17896   5.970   5.963   2.114
 5666SOL    HW117897   5.890   5.999   2.065
 5666SOL    HW217898   6.034   5.922   2.048
 5667SOL     OW17899   1.281   4.641   4.676
 5667SOL    HW117900   1.199   4.605   4.631
 5667SOL    HW217901   1.307   4.581   4.752
 5668SOL     OW17902   5.488   2.086   4.711
 5668SOL    HW117903   5.390   2.084   4.733
 5668SOL    HW217904   5.539   2.122   4.789
 5669SOL     OW17905   0.382   3.252   6.912
 5669SOL    HW117906   0.382   3.351   6.924
 5669SOL    HW217907   0.462   3.213   6.958
 5670SOL     OW17908   6.848   2.651   3.477
 5670SOL    HW117909   6.919   2.619   3.540
 5670SOL    HW217910   6.846   2.751   3.477
 5671SOL     OW17911   0.228   6.509   0.084
 5671SOL    HW117912   0.205   6.459   0.001
 5671SOL    HW217913   0.268   6.446   0.151
 5672SOL     OW17914   4.200   4.858   6.165
 5672SOL    HW117915   4.242   4.768   6.163
 5672SOL    HW217916   4.122   4.858   6.228
 5673SOL     OW17917   0.685   6.950   2.412
 5673SOL    HW117918   0.700   6.951   2.313
 5673SOL    HW217919   0.758   6.898   2.457
 5674SOL     OW17920   0.089   4.972   5.071
 5674SOL    HW117921   0.062   4.876   5.063
 5674SOL    HW217922   0.183   4.978   5.103
 5675SOL     OW17923   3.907   2.284   5.869
 5675SOL    HW117924   3.979   2.217   5.886
 5675SOL    HW217925   3.892   2.339   5.951
 5676SOL     OW17926   1.581   2.713   2.113
 5676SOL    HW117927   1.678   2.691   2.129
 5676SOL    HW217928   1.524   2.637   2.142
 5677SOL     OW17929   0.134   0.922   1.455
 5677SOL    HW117930   0.220   0.927   1.406
 5677SOL    HW217931   0.133   0.989   1.529
 5678SOL     OW17932   4.137   6.436   2.918
 5678SOL    HW117933   4.172   6.369   2.852
 5678SOL    HW217934   4.152   6.401   3.011
 5679SOL     OW17935   0.986   1.275   4.198
 5679SOL    HW117936   1.014   1.185   4.163
 5679SOL    HW217937   1.008   1.345   4.130
 5680SOL     OW17938   1.502   5.123   6.367
 5680SOL    HW117939   1.561   5.129   6.286
 5680SOL    HW217940   1.439   5.201   6.368
 5681SOL     OW17941   0.267   4.700   0.389
 5681SOL    HW117942   0.275   4.750   0.476
 5681SOL    HW217943   0.173   4.666   0.379
 5682SOL     OW17944   2.643   4.249   5.663
 5682SOL    HW117945   2.694   4.243   5.577
 5682SOL    HW217946   2.553   4.209   5.651
 5683SOL     OW17947   3.766   0.737   6.266
 5683SOL    HW117948   3.734   0.656   6.315
 5683SOL    HW217949   3.866   0.737   6.263
 5684SOL     OW17950   2.812   3.410   5.696
 5684SOL    HW117951   2.798   3.480   5.766
 5684SOL    HW217952   2.875   3.444   5.627
 5685SOL     OW17953   1.561   3.042   2.465
 5685SOL    HW117954   1.489   3.071   2.402
 5685SOL    HW217955   1.547   2.946   2.490
 5686SOL     OW17956   3.048   1.264   5.984
 5686SOL    HW117957   3.115   1.208   5.937
 5686SOL    HW217958   3.002   1.325   5.919
 5687SOL     OW17959   0.489   4.878   6.303
 5687SOL    HW117960   0.402   4.926   6.316
 5687SOL    HW217961   0.479   4.809   6.232
 5688SOL     OW17962   0.483   2.455   0.845
 5688SOL    HW117963   0.500   2.533   0.785
 5688SOL    HW217964   0.511   2.479   0.938
 5689SOL     OW17965   4.045   1.295   0.948
 5689SOL    HW117966   3.976   1.303   0.877
 5689SOL    HW217967   4.053   1.382   0.997
 5690SOL     OW17968   2.480   6.191   0.335
 5690SOL    HW117969   2.387   6.225   0.347
 5690SOL    HW217970   2.545   6.264   0.358
 5691SOL     OW17971   3.076   0.120   1.887
 5691SOL    HW117972   3.059   0.174   1.970
 5691SOL    HW217973   3.143   0.049   1.907
 5692SOL     OW17974   6.052   3.271   0.527
 5692SOL    HW117975   6.135   3.233   0.566
 5692SOL    HW217976   6.059   3.270   0.427
 5693SOL     OW17977   5.632   1.850   2.588
 5693SOL    HW117978   5.591   1.941   2.588
 5693SOL    HW217979   5.623   1.809   2.497
 5694SOL     OW17980   0.263   1.864   3.263
 5694SOL    HW117981   0.329   1.906   3.200
 5694SOL    HW217982   0.180   1.840   3.214
 5695SOL     OW17983   0.751   2.483   2.794
 5695SOL    HW117984   0.693   2.561   2.821
 5695SOL    HW217985   0.846   2.504   2.816
 5696SOL     OW17986   1.053   0.999   3.064
 5696SOL    HW117987   1.050   0.974   2.967
 5696SOL    HW217988   1.142   0.974   3.102
 5697SOL     OW17989   6.026   2.293   1.786
 5697SOL    HW117990   5.936   2.264   1.754
 5697SOL    HW217991   6.045   2.250   1.874
 5698SOL     OW17992   0.767   3.736   3.446
 5698SOL    HW117993   0.778   3.831   3.475
 5698SOL    HW217994   0.771   3.731   3.347
 5699SOL     OW17995   0.399   2.051   3.120
 5699SOL    HW117996   0.323   2.088   3.173
 5699SOL    HW217997   0.486   2.084   3.158
 5700SOL     OW17998   0.101   0.092   4.378
 5700SOL    HW117999   0.063   0.136   4.296
 5700SOL    HW218000   0.108   0.158   4.452
 5701SOL     OW18001   1.580   0.613   2.459
 5701SOL    HW118002   1.599   0.586   2.554
 5701SOL    HW218003   1.591   0.534   2.399
 5702SOL     OW18004   2.583   6.131   4.881
 5702SOL    HW118005   2.585   6.191   4.962
 5702SOL    HW218006   2.528   6.174   4.810
 5703SOL     OW18007   6.586   4.522   1.214
 5703SOL    HW118008   6.629   4.582   1.281
 5703SOL    HW218009   6.602   4.557   1.122
 5704SOL     OW18010   4.593   4.412   2.552
 5704SOL    HW118011   4.687   4.417   2.518
 5704SOL    HW218012   4.552   4.324   2.527
 5705SOL     OW18013   5.086   1.035   0.821
 5705SOL    HW118014   5.037   1.105   0.768
 5705SOL    HW218015   5.166   1.005   0.769
 5706SOL     OW18016   6.809   4.092   0.518
 5706SOL    HW118017   6.890   4.131   0.562
 5706SOL    HW218018   6.812   4.112   0.420
 5707SOL     OW18019   0.219   6.755   0.452
 5707SOL    HW118020   0.216   6.826   0.382
 5707SOL    HW218021   0.229   6.797   0.542
 5708SOL     OW18022   5.028   6.193   1.573
 5708SOL    HW118023   5.103   6.183   1.638
 5708SOL    HW218024   4.963   6.260   1.608
 5709SOL     OW18025   1.334   7.008   2.232
 5709SOL    HW118026   1.431   7.012   2.207
 5709SOL    HW218027   1.325   0.001   2.330
 5710SOL     OW18028   2.839   2.825   0.238
 5710SOL    HW118029   2.773   2.862   0.303
 5710SOL    HW218030   2.818   2.729   0.221
 5711SOL     OW18031   4.797   1.365   2.380
 5711SOL    HW118032   4.739   1.443   2.358
 5711SOL    HW218033   4.798   1.351   2.479
 5712SOL     OW18034   0.161   6.327   6.458
 5712SOL    HW118035   0.156   6.331   6.359
 5712SOL    HW218036   0.236   6.266   6.486
 5713SOL     OW18037   2.934   2.920   1.553
 5713SOL    HW118038   2.883   2.849   1.603
 5713SOL    HW218039   2.990   2.972   1.618
 5714SOL     OW18040   0.381   5.951   0.146
 5714SOL    HW118041   0.286   5.947   0.177
 5714SOL    HW218042   0.428   6.026   0.193
 5715SOL     OW18043   0.573   6.715   3.419
 5715SOL    HW118044   0.499   6.779   3.397
 5715SOL    HW218045   0.600   6.665   3.337
 5716SOL     OW18046   1.189   3.845   0.018
 5716SOL    HW118047   1.158   3.920   6.983
 5716SOL    HW218048   1.252   3.786   6.990
 5717SOL     OW18049   2.279   5.528   0.305
 5717SOL    HW118050   2.257   5.556   0.399
 5717SOL    HW218051   2.224   5.582   0.241
 5718SOL     OW18052   0.190   2.760   5.782
 5718SOL    HW118053   0.267   2.795   5.728
 5718SOL    HW218054   0.143   2.688   5.731
 5719SOL     OW18055   2.890   1.577   6.672
 5719SOL    HW118056   2.925   1.644   6.606
 5719SOL    HW218057   2.929   1.596   6.762
 5720SOL     OW18058   1.654   5.345   5.363
 5720SOL    HW118059   1.679   5.392   5.448
 5720SOL    HW218060   1.666   5.247   5.375
 5721SOL     OW18061   0.363   3.816   1.248
 5721SOL    HW118062   0.420   3.886   1.290
 5721SOL    HW218063   0.267   3.837   1.264
 5722SOL     OW18064   6.186   1.627   5.689
 5722SOL    HW118065   6.228   1.705   5.734
 5722SOL    HW218066   6.088   1.644   5.678
 5723SOL     OW18067   4.677   3.676   0.307
 5723SOL    HW118068   4.769   3.654   0.340
 5723SOL    HW218069   4.621   3.593   0.306
 5724SOL     OW18070   5.218   3.259   5.043
 5724SOL    HW118071   5.288   3.216   4.986
 5724SOL    HW218072   5.133   3.205   5.038
 5725SOL     OW18073   5.215   4.832   3.547
 5725SOL    HW118074   5.257   4.748   3.581
 5725SOL    HW218075   5.286   4.901   3.532
 5726SOL     OW18076   0.216   4.874   5.375
 5726SOL    HW118077   0.177   4.787   5.405
 5726SOL    HW218078   0.221   4.938   5.452
 5727SOL     OW18079   6.654   1.286   4.123
 5727SOL    HW118080   6.664   1.187   4.121
 5727SOL    HW218081   6.573   1.313   4.070
 5728SOL     OW18082   3.845   1.102   6.184
 5728SOL    HW118083   3.881   1.191   6.155
 5728SOL    HW218084   3.820   1.107   6.281
 5729SOL     OW18085   1.144   1.100   0.633
 5729SOL    HW118086   1.136   1.077   0.729
 5729SOL    HW218087   1.232   1.144   0.617
 5730SOL     OW18088   4.984   5.504   6.018
 5730SOL    HW118089   4.983   5.579   6.085
 5730SOL    HW218090   5.002   5.418   6.065
 5731SOL     OW18091   0.562   6.951   3.812
 5731SOL    HW118092   0.651   6.976   3.774
 5731SOL    HW218093   0.540   7.012   3.888
 5732SOL     OW18094   6.134   5.182   4.417
 5732SOL    HW118095   6.232   5.161   4.409
 5732SOL    HW218096   6.101   5.220   4.331
 5733SOL     OW18097   3.874   6.799   5.073
 5733SOL    HW118098   3.915   6.789   5.163
 5733SOL    HW218099   3.776   6.818   5.082
 5734SOL     OW18100   1.017   6.727   5.914
 5734SOL    HW118101   1.068   6.656   5.963
 5734SOL    HW218102   0.937   6.687   5.871
 5735SOL     OW18103   3.947   2.153   1.924
 5735SOL    HW118104   3.910   2.081   1.865
 5735SOL    HW218105   3.872   2.197   1.974
 5736SOL     OW18106   6.023   4.252   0.416
 5736SOL    HW118107   6.088   4.266   0.341
 5736SOL    HW218108   5.956   4.327   0.416
 5737SOL     OW18109   4.766   6.349   0.568
 5737SOL    HW118110   4.830   6.313   0.500
 5737SOL    HW218111   4.759   6.285   0.645
 5738SOL     OW18112   2.936   3.237   6.486
 5738SOL    HW118113   2.917   3.305   6.557
 5738SOL    HW218114   2.900   3.148   6.515
 5739SOL     OW18115   1.208   0.429   5.581
 5739SOL    HW118116   1.235   0.482   5.500
 5739SOL    HW218117   1.267   0.454   5.658
 5740SOL     OW18118   4.241   3.735   1.411
 5740SOL    HW118119   4.246   3.732   1.511
 5740SOL    HW218120   4.329   3.706   1.373
 5741SOL     OW18121   0.186   3.932   4.307
 5741SOL    HW118122   0.184   4.000   4.380
 5741SOL    HW218123   0.237   3.852   4.337
 5742SOL     OW18124   4.696   6.649   2.912
 5742SOL    HW118125   4.727   6.705   2.989
 5742SOL    HW218126   4.598   6.662   2.899
 5743SOL     OW18127   2.639   5.221   5.601
 5743SOL    HW118128   2.562   5.201   5.661
 5743SOL    HW218129   2.633   5.163   5.519
 5744SOL     OW18130   5.083   1.559   2.063
 5744SOL    HW118131   5.038   1.539   2.151
 5744SOL    HW218132   5.107   1.656   2.059
 5745SOL     OW18133   2.033   0.672   4.145
 5745SOL    HW118134   2.062   0.688   4.240
 5745SOL    HW218135   1.933   0.674   4.140
 5746SOL     OW18136   5.497   6.473   1.488
 5746SOL    HW118137   5.523   6.476   1.392
 5746SOL    HW218138   5.405   6.511   1.499
 5747SOL     OW18139   0.089   4.352   2.829
 5747SOL    HW118140   0.012   4.405   2.791
 5747SOL    HW218141   0.065   4.319   2.920
 5748SOL     OW18142   1.695   5.636   0.461
 5748SOL    HW118143   1.626   5.569   0.436
 5748SOL    HW218144   1.688   5.656   0.559
 5749SOL     OW18145   1.479   6.623   4.557
 5749SOL    HW118146   1.482   6.546   4.621
 5749SOL    HW218147   1.572   6.642   4.524
 5750SOL     OW18148   6.937   6.131   4.329
 5750SOL    HW118149   6.948   6.078   4.246
 5750SOL    HW218150   6.997   6.211   4.326
 5751SOL     OW18151   2.847   2.308   4.640
 5751SOL    HW118152   2.852   2.314   4.740
 5751SOL    HW218153   2.770   2.363   4.608
 5752SOL     OW18154   6.519   0.800   0.408
 5752SOL    HW118155   6.513   0.887   0.359
 5752SOL    HW218156   6.600   0.801   0.467
 5753SOL     OW18157   3.866   2.981   4.606
 5753SOL    HW118158   3.790   2.992   4.542
 5753SOL    HW218159   3.950   3.015   4.565
 5754SOL     OW18160   0.017   5.008   1.318
 5754SOL    HW118161   6.981   4.978   1.393
 5754SOL    HW218162   0.071   5.087   1.348
 5755SOL     OW18163   2.103   3.617   6.003
 5755SOL    HW118164   2.055   3.565   5.932
 5755SOL    HW218165   2.118   3.558   6.082
 5756SOL     OW18166   6.005   0.135   3.480
 5756SOL    HW118167   6.032   0.231   3.483
 5756SOL    HW218168   6.087   0.077   3.484
 5757SOL     OW18169   6.589   6.243   2.966
 5757SOL    HW118170   6.596   6.235   3.065
 5757SOL    HW218171   6.502   6.206   2.935
 5758SOL     OW18172   2.534   0.834   4.463
 5758SOL    HW118173   2.440   0.865   4.445
 5758SOL    HW218174   2.540   0.801   4.557
 5759SOL     OW18175   5.068   1.686   6.654
 5759SOL    HW118176   5.061   1.720   6.560
 5759SOL    HW218177   5.097   1.591   6.653
 5760SOL     OW18178   0.105   4.443   1.010
 5760SOL    HW118179   0.113   4.473   0.915
 5760SOL    HW218180   0.156   4.358   1.022
 5761SOL     OW18181   5.677   6.464   6.329
 5761SOL    HW118182   5.663   6.487   6.233
 5761SOL    HW218183   5.774   6.466   6.351
 5762SOL     OW18184   4.775   5.653   0.168
 5762SOL    HW118185   4.734   5.579   0.115
 5762SOL    HW218186   4.818   5.718   0.106
 5763SOL     OW18187   0.258   6.936   0.274
 5763SOL    HW118188   0.266   0.005   0.312
 5763SOL    HW218189   0.268   6.939   0.175
 5764SOL     OW18190   5.187   5.325   5.199
 5764SOL    HW118191   5.196   5.275   5.285
 5764SOL    HW218192   5.127   5.404   5.213
 5765SOL     OW18193   6.259   3.423   0.151
 5765SOL    HW118194   6.353   3.453   0.165
 5765SOL    HW218195   6.228   3.452   0.060
 5766SOL     OW18196   1.822   2.517   6.736
 5766SOL    HW118197   1.890   2.490   6.667
 5766SOL    HW218198   1.733   2.528   6.691
 5767SOL     OW18199   2.262   0.949   0.211
 5767SOL    HW118200   2.274   0.925   0.115
 5767SOL    HW218201   2.297   0.875   0.269
 5768SOL     OW18202   0.907   6.129   3.011
 5768SOL    HW118203   0.864   6.218   2.994
 5768SOL    HW218204   0.837   6.057   3.007
 5769SOL     OW18205   2.322   5.798   4.219
 5769SOL    HW118206   2.224   5.802   4.203
 5769SOL    HW218207   2.352   5.702   4.221
 5770SOL     OW18208   5.976   7.022   0.495
 5770SOL    HW118209   6.049   0.022   0.559
 5770SOL    HW218210   5.888   0.001   0.542
 5771SOL     OW18211   1.849   6.808   3.584
 5771SOL    HW118212   1.795   6.727   3.558
 5771SOL    HW218213   1.942   6.796   3.551
 5772SOL     OW18214   6.141   1.795   0.949
 5772SOL    HW118215   6.234   1.830   0.955
 5772SOL    HW218216   6.088   1.852   0.887
 5773SOL     OW18217   4.410   1.126   3.807
 5773SOL    HW118218   4.449   1.181   3.734
 5773SOL    HW218219   4.358   1.050   3.767
 5774SOL     OW18220   3.238   5.405   3.669
 5774SOL    HW118221   3.200   5.487   3.711
 5774SOL    HW218222   3.214   5.404   3.572
 5775SOL     OW18223   1.508   0.969   2.167
 5775SOL    HW118224   1.523   0.948   2.263
 5775SOL    HW218225   1.560   0.906   2.110
 5776SOL     OW18226   0.136   0.652   5.769
 5776SOL    HW118227   0.113   0.708   5.849
 5776SOL    HW218228   0.108   0.558   5.785
 5777SOL     OW18229   6.443   0.163   4.943
 5777SOL    HW118230   6.489   0.211   4.868
 5777SOL    HW218231   6.390   0.086   4.905
 5778SOL     OW18232   1.393   0.245   1.536
 5778SOL    HW118233   1.314   0.291   1.576
 5778SOL    HW218234   1.382   0.240   1.437
 5779SOL     OW18235   4.508   2.209   0.688
 5779SOL    HW118236   4.436   2.228   0.756
 5779SOL    HW218237   4.596   2.240   0.724
 5780SOL     OW18238   6.159   5.049   3.053
 5780SOL    HW118239   6.099   4.985   3.005
 5780SOL    HW218240   6.253   5.034   3.025
 5781SOL     OW18241   6.837   3.950   4.544
 5781SOL    HW118242   6.920   4.005   4.550
 5781SOL    HW218243   6.776   3.974   4.619
 5782SOL     OW18244   0.814   0.925   0.433
 5782SOL    HW118245   0.869   0.843   0.444
 5782SOL    HW218246   0.747   0.931   0.507
 5783SOL     OW18247   1.760   0.975   1.442
 5783SOL    HW118248   1.806   0.939   1.361
 5783SOL    HW218249   1.662   0.980   1.425
 5784SOL     OW18250   6.873   6.430   0.165
 5784SOL    HW118251   6.909   6.507   0.217
 5784SOL    HW218252   6.773   6.435   0.164
 5785SOL     OW18253   1.615   1.896   0.751
 5785SOL    HW118254   1.683   1.864   0.686
 5785SOL    HW218255   1.596   1.823   0.818
 5786SOL     OW18256   0.558   4.190   0.740
 5786SOL    HW118257   0.628   4.213   0.807
 5786SOL    HW218258   0.581   4.234   0.653
 5787SOL     OW18259   4.057   2.835   5.606
 5787SOL    HW118260   4.046   2.807   5.511
 5787SOL    HW218261   4.115   2.769   5.654
 5788SOL     OW18262   2.794   1.574   1.397
 5788SOL    HW118263   2.861   1.568   1.471
 5788SOL    HW218264   2.826   1.522   1.318
 5789SOL     OW18265   3.352   4.234   6.767
 5789SOL    HW118266   3.310   4.266   6.682
 5789SOL    HW218267   3.355   4.134   6.768
 5790SOL     OW18268   0.310   4.547   4.941
 5790SOL    HW118269   0.307   4.642   4.911
 5790SOL    HW218270   0.328   4.543   5.039
 5791SOL     OW18271   2.973   1.833   2.108
 5791SOL    HW118272   3.007   1.927   2.115
 5791SOL    HW218273   2.886   1.833   2.060
 5792SOL     OW18274   5.290   2.526   2.269
 5792SOL    HW118275   5.256   2.540   2.176
 5792SOL    HW218276   5.365   2.590   2.286
 5793SOL     OW18277   6.052   0.814   4.514
 5793SOL    HW118278   6.136   0.839   4.562
 5793SOL    HW218279   6.031   0.883   4.445
 5794SOL     OW18280   2.807   0.403   6.116
 5794SOL    HW118281   2.708   0.391   6.111
 5794SOL    HW218282   2.844   0.349   6.192
 5795SOL     OW18283   0.171   6.176   0.725
 5795SOL    HW118284   0.227   6.189   0.643
 5795SOL    HW218285   0.224   6.204   0.806
 5796SOL     OW18286   4.855   1.400   6.620
 5796SOL    HW118287   4.827   1.405   6.524
 5796SOL    HW218288   4.954   1.406   6.626
 5797SOL     OW18289   5.095   2.201   0.091
 5797SOL    HW118290   5.095   2.155   0.179
 5797SOL    HW218291   5.166   2.162   0.033
 5798SOL     OW18292   6.894   5.213   4.767
 5798SOL    HW118293   6.948   5.207   4.851
 5798SOL    HW218294   6.805   5.171   4.780
 5799SOL     OW18295   0.111   0.257   4.606
 5799SOL    HW118296   0.097   0.311   4.689
 5799SOL    HW218297   0.162   0.173   4.628
 5800SOL     OW18298   0.742   6.919   2.158
 5800SOL    HW118299   0.669   6.916   2.090
 5800SOL    HW218300   0.789   7.007   2.152
 5801SOL     OW18301   1.628   2.228   3.084
 5801SOL    HW118302   1.676   2.165   3.023
 5801SOL    HW218303   1.546   2.183   3.120
 5802SOL     OW18304   6.311   3.027   2.645
 5802SOL    HW118305   6.344   2.934   2.627
 5802SOL    HW218306   6.365   3.067   2.719
 5803SOL     OW18307   1.835   5.950   3.014
 5803SOL    HW118308   1.878   5.930   2.926
 5803SOL    HW218309   1.844   6.047   3.034
 5804SOL     OW18310   0.195   5.491   3.207
 5804SOL    HW118311   0.148   5.526   3.126
 5804SOL    HW218312   0.160   5.400   3.229
 5805SOL     OW18313   1.760   3.098   0.990
 5805SOL    HW118314   1.712   3.181   0.962
 5805SOL    HW218315   1.697   3.021   0.992
 5806SOL     OW18316   6.501   5.571   4.975
 5806SOL    HW118317   6.525   5.651   4.920
 5806SOL    HW218318   6.407   5.543   4.954
 5807SOL     OW18319   1.209   5.422   0.474
 5807SOL    HW118320   1.237   5.328   0.452
 5807SOL    HW218321   1.109   5.428   0.472
 5808SOL     OW18322   6.967   6.438   4.146
 5808SOL    HW118323   7.020   6.440   4.230
 5808SOL    HW218324   0.005   6.445   4.067
 5809SOL     OW18325   6.585   1.696   5.264
 5809SOL    HW118326   6.551   1.623   5.323
 5809SOL    HW218327   6.670   1.733   5.301
 5810SOL     OW18328   5.065   1.119   5.829
 5810SOL    HW118329   5.000   1.167   5.888
 5810SOL    HW218330   5.040   1.022   5.824
 5811SOL     OW18331   3.313   1.470   5.107
 5811SOL    HW118332   3.400   1.511   5.134
 5811SOL    HW218333   3.329   1.401   5.036
 5812SOL     OW18334   5.134   3.239   5.837
 5812SOL    HW118335   5.171   3.281   5.755
 5812SOL    HW218336   5.108   3.144   5.818
 5813SOL     OW18337   2.622   0.644   0.835
 5813SOL    HW118338   2.700   0.707   0.839
 5813SOL    HW218339   2.619   0.590   0.919
 5814SOL     OW18340   6.628   2.932   2.067
 5814SOL    HW118341   6.602   3.000   1.999
 5814SOL    HW218342   6.587   2.844   2.044
 5815SOL     OW18343   3.842   1.422   3.836
 5815SOL    HW118344   3.827   1.323   3.841
 5815SOL    HW218345   3.867   1.456   3.926
 5816SOL     OW18346   4.919   4.350   0.302
 5816SOL    HW118347   4.950   4.258   0.276
 5816SOL    HW218348   4.857   4.385   0.232
 5817SOL     OW18349   6.156   5.036   5.682
 5817SOL    HW118350   6.073   5.045   5.627
 5817SOL    HW218351   6.203   5.125   5.687
 5818SOL     OW18352   6.584   5.662   5.698
 5818SOL    HW118353   6.642   5.741   5.679
 5818SOL    HW218354   6.495   5.675   5.655
 5819SOL     OW18355   4.144   6.940   6.858
 5819SOL    HW118356   4.154   0.009   6.820
 5819SOL    HW218357   4.166   6.872   6.788
 5820SOL     OW18358   4.114   4.765   2.821
 5820SOL    HW118359   4.158   4.712   2.748
 5820SOL    HW218360   4.161   4.749   2.908
 5821SOL     OW18361   7.021   0.668   1.608
 5821SOL    HW118362   0.021   0.597   1.674
 5821SOL    HW218363   0.047   0.652   1.522
 5822SOL     OW18364   1.636   2.269   1.428
 5822SOL    HW118365   1.699   2.336   1.468
 5822SOL    HW218366   1.688   2.205   1.371
 5823SOL     OW18367   2.901   0.547   4.571
 5823SOL    HW118368   2.886   0.591   4.482
 5823SOL    HW218369   2.961   0.604   4.627
 5824SOL     OW18370   0.037   5.935   2.771
 5824SOL    HW118371   0.028   6.027   2.732
 5824SOL    HW218372   0.021   5.939   2.869
 5825SOL     OW18373   0.318   6.651   4.569
 5825SOL    HW118374   0.377   6.726   4.601
 5825SOL    HW218375   0.225   6.666   4.602
 5826SOL     OW18376   0.134   5.803   6.688
 5826SOL    HW118377   0.074   5.771   6.615
 5826SOL    HW218378   0.208   5.736   6.701
 5827SOL     OW18379   1.656   3.651   4.640
 5827SOL    HW118380   1.682   3.746   4.627
 5827SOL    HW218381   1.702   3.615   4.722
 5828SOL     OW18382   5.171   1.708   2.695
 5828SOL    HW118383   5.115   1.785   2.662
 5828SOL    HW218384   5.179   1.640   2.623
 5829SOL     OW18385   1.784   0.181   4.366
 5829SOL    HW118386   1.775   0.243   4.288
 5829SOL    HW218387   1.881   0.166   4.385
 5830SOL     OW18388   5.654   6.991   5.983
 5830SOL    HW118389   5.582   6.945   6.035
 5830SOL    HW218390   5.715   6.922   5.943
 5831SOL     OW18391   1.116   0.756   5.807
 5831SOL    HW118392   1.170   0.777   5.889
 5831SOL    HW218393   1.022   0.733   5.834
 5832SOL     OW18394   3.348   4.593   0.032
 5832SOL    HW118395   3.321   4.689   0.039
 5832SOL    HW218396   3.414   4.582   6.981
 5833SOL     OW18397   4.218   3.612   5.193
 5833SOL    HW118398   4.233   3.618   5.094
 5833SOL    HW218399   4.257   3.526   5.226
 5834SOL     OW18400   0.054   3.822   6.934
 5834SOL    HW118401   0.120   3.840   7.007
 5834SOL    HW218402   0.083   3.742   6.882
 5835SOL     OW18403   5.812   2.386   3.378
 5835SOL    HW118404   5.713   2.372   3.371
 5835SOL    HW218405   5.830   2.476   3.416
 5836SOL     OW18406   3.432   0.288   1.501
 5836SOL    HW118407   3.360   0.231   1.540
 5836SOL    HW218408   3.399   0.381   1.490
 5837SOL     OW18409   3.451   3.395   0.135
 5837SOL    HW118410   3.527   3.333   0.151
 5837SOL    HW218411   3.391   3.357   0.065
 5838SOL     OW18412   2.957   1.842   1.014
 5838SOL    HW118413   2.929   1.776   0.944
 5838SOL    HW218414   2.894   1.836   1.092
 5839SOL     OW18415   0.482   2.178   1.256
 5839SOL    HW118416   0.532   2.094   1.278
 5839SOL    HW218417   0.384   2.164   1.271
 5840SOL     OW18418   1.319   4.315   6.230
 5840SOL    HW118419   1.355   4.335   6.139
 5840SOL    HW218420   1.295   4.218   6.236
 5841SOL     OW18421   5.021   1.534   2.318
 5841SOL    HW118422   4.983   1.442   2.320
 5841SOL    HW218423   4.954   1.600   2.352
 5842SOL     OW18424   4.719   2.748   1.842
 5842SOL    HW118425   4.706   2.846   1.829
 5842SOL    HW218426   4.743   2.706   1.754
 5843SOL     OW18427   1.464   4.591   2.046
 5843SOL    HW118428   1.452   4.688   2.066
 5843SOL    HW218429   1.533   4.580   1.974
 5844SOL     OW18430   1.526   6.172   5.690
 5844SOL    HW118431   1.509   6.241   5.760
 5844SOL    HW218432   1.476   6.088   5.713
 5845SOL     OW18433   0.538   0.557   1.956
 5845SOL    HW118434   0.467   0.487   1.955
 5845SOL    HW218435   0.539   0.605   1.869
 5846SOL     OW18436   6.133   3.705   6.157
 5846SOL    HW118437   6.048   3.756   6.170
 5846SOL    HW218438   6.174   3.730   6.068
 5847SOL     OW18439   2.666   2.287   2.014
 5847SOL    HW118440   2.766   2.293   2.018
 5847SOL    HW218441   2.633   2.231   2.089
 5848SOL     OW18442   1.605   5.339   3.301
 5848SOL    HW118443   1.596   5.436   3.279
 5848SOL    HW218444   1.673   5.297   3.240
 5849SOL     OW18445   1.897   0.458   5.122
 5849SOL    HW118446   1.915   0.401   5.202
 5849SOL    HW218447   1.803   0.493   5.127
 5850SOL     OW18448   6.738   3.526   1.942
 5850SOL    HW118449   6.804   3.500   1.871
 5850SOL    HW218450   6.770   3.491   2.030
 5851SOL     OW18451   5.176   3.168   3.480
 5851SOL    HW118452   5.243   3.145   3.409
 5851SOL    HW218453   5.205   3.249   3.530
 5852SOL     OW18454   5.493   6.384   3.071
 5852SOL    HW118455   5.522   6.325   3.147
 5852SOL    HW218456   5.485   6.478   3.104
 5853SOL     OW18457   4.026   5.194   5.141
 5853SOL    HW118458   4.003   5.104   5.104
 5853SOL    HW218459   3.944   5.234   5.183
 5854SOL     OW18460   4.145   4.134   5.905
 5854SOL    HW118461   4.131   4.106   6.000
 5854SOL    HW218462   4.142   4.054   5.846
 5855SOL     OW18463   1.835   0.671   4.581
 5855SOL    HW118464   1.912   0.701   4.525
 5855SOL    HW218465   1.826   0.571   4.574
 5856SOL     OW18466   1.888   5.423   3.439
 5856SOL    HW118467   1.822   5.350   3.453
 5856SOL    HW218468   1.959   5.392   3.375
 5857SOL     OW18469   6.052   2.968   5.707
 5857SOL    HW118470   6.096   3.057   5.696
 5857SOL    HW218471   6.069   2.933   5.799
 5858SOL     OW18472   2.478   2.435   2.472
 5858SOL    HW118473   2.493   2.454   2.375
 5858SOL    HW218474   2.383   2.406   2.486
 5859SOL     OW18475   6.582   6.339   1.777
 5859SOL    HW118476   6.653   6.383   1.831
 5859SOL    HW218477   6.619   6.257   1.732
 5860SOL     OW18478   0.085   4.336   3.231
 5860SOL    HW118479   0.027   4.299   3.159
 5860SOL    HW218480   0.038   4.329   3.319
 5861SOL     OW18481   5.377   1.478   4.340
 5861SOL    HW118482   5.280   1.498   4.324
 5861SOL    HW218483   5.388   1.442   4.432
 5862SOL     OW18484   5.857   5.540   0.881
 5862SOL    HW118485   5.921   5.470   0.851
 5862SOL    HW218486   5.838   5.529   0.979
 5863SOL     OW18487   2.991   2.092   5.151
 5863SOL    HW118488   3.051   2.057   5.224
 5863SOL    HW218489   3.035   2.168   5.105
 5864SOL     OW18490   3.663   3.933   2.540
 5864SOL    HW118491   3.630   4.024   2.514
 5864SOL    HW218492   3.647   3.869   2.465
 5865SOL     OW18493   6.001   0.132   5.769
 5865SOL    HW118494   6.019   0.113   5.866
 5865SOL    HW218495   5.906   0.108   5.748
 5866SOL     OW18496   3.624   3.497   1.075
 5866SOL    HW118497   3.718   3.530   1.079
 5866SOL    HW218498   3.594   3.491   0.980
 5867SOL     OW18499   2.329   3.754   0.834
 5867SOL    HW118500   2.253   3.689   0.838
 5867SOL    HW218501   2.296   3.842   0.801
 5868SOL     OW18502   1.359   1.486   5.464
 5868SOL    HW118503   1.316   1.474   5.375
 5868SOL    HW218504   1.362   1.584   5.486
 5869SOL     OW18505   1.723   6.537   3.514
 5869SOL    HW118506   1.785   6.505   3.442
 5869SOL    HW218507   1.670   6.460   3.549
 5870SOL     OW18508   4.906   6.763   4.605
 5870SOL    HW118509   4.996   6.736   4.570
 5870SOL    HW218510   4.879   6.850   4.564
 5871SOL     OW18511   3.417   3.065   1.610
 5871SOL    HW118512   3.426   3.010   1.693
 5871SOL    HW218513   3.349   3.022   1.550
 5872SOL     OW18514   4.824   6.809   1.044
 5872SOL    HW118515   4.742   6.752   1.034
 5872SOL    HW218516   4.902   6.761   1.004
 5873SOL     OW18517   3.523   0.975   2.126
 5873SOL    HW118518   3.569   1.004   2.210
 5873SOL    HW218519   3.424   0.990   2.135
 5874SOL     OW18520   2.364   4.711   5.720
 5874SOL    HW118521   2.435   4.670   5.663
 5874SOL    HW218522   2.393   4.709   5.816
 5875SOL     OW18523   4.549   1.322   0.003
 5875SOL    HW118524   4.458   1.286   0.023
 5875SOL    HW218525   4.617   1.250   0.017
 5876SOL     OW18526   3.704   3.018   1.628
 5876SOL    HW118527   3.720   2.958   1.707
 5876SOL    HW218528   3.612   3.002   1.593
 5877SOL     OW18529   0.251   6.622   1.460
 5877SOL    HW118530   0.215   6.537   1.422
 5877SOL    HW218531   0.230   6.627   1.557
 5878SOL     OW18532   0.059   5.360   4.240
 5878SOL    HW118533   0.122   5.341   4.314
 5878SOL    HW218534   0.100   5.332   4.153
 5879SOL     OW18535   1.410   4.175   6.595
 5879SOL    HW118536   1.409   4.183   6.694
 5879SOL    HW218537   1.336   4.115   6.565
 5880SOL     OW18538   4.409   4.341   6.468
 5880SOL    HW118539   4.458   4.254   6.473
 5880SOL    HW218540   4.473   4.413   6.440
 5881SOL     OW18541   1.000   6.857   2.770
 5881SOL    HW118542   0.999   6.759   2.793
 5881SOL    HW218543   1.005   6.868   2.671
 5882SOL     OW18544   0.230   5.587   1.443
 5882SOL    HW118545   0.242   5.491   1.417
 5882SOL    HW218546   0.318   5.634   1.438
 5883SOL     OW18547   0.804   1.185   6.636
 5883SOL    HW118548   0.763   1.109   6.686
 5883SOL    HW218549   0.883   1.153   6.584
 5884SOL     OW18550   3.130   1.702   4.789
 5884SOL    HW118551   3.089   1.773   4.846
 5884SOL    HW218552   3.072   1.621   4.790
 5885SOL     OW18553   0.839   0.045   2.855
 5885SOL    HW118554   0.894   0.129   2.861
 5885SOL    HW218555   0.898   6.991   2.832
 5886SOL     OW18556   0.844   2.101   4.850
 5886SOL    HW118557   0.930   2.099   4.800
 5886SOL    HW218558   0.812   2.008   4.867
 5887SOL     OW18559   2.479   1.854   2.666
 5887SOL    HW118560   2.494   1.775   2.606
 5887SOL    HW218561   2.461   1.822   2.759
 5888SOL     OW18562   2.823   0.902   1.611
 5888SOL    HW118563   2.873   0.818   1.588
 5888SOL    HW218564   2.787   0.895   1.704
 5889SOL     OW18565   1.345   6.769   0.521
 5889SOL    HW118566   1.324   6.774   0.423
 5889SOL    HW218567   1.371   6.675   0.544
 5890SOL     OW18568   2.082   1.086   3.456
 5890SOL    HW118569   2.071   1.009   3.519
 5890SOL    HW218570   2.147   1.062   3.384
 5891SOL     OW18571   3.491   3.124   6.400
 5891SOL    HW118572   3.548   3.182   6.459
 5891SOL    HW218573   3.515   3.028   6.416
 5892SOL     OW18574   0.762   5.311   1.532
 5892SOL    HW118575   0.667   5.343   1.526
 5892SOL    HW218576   0.763   5.211   1.534
 5893SOL     OW18577   2.219   3.909   4.088
 5893SOL    HW118578   2.181   3.844   4.154
 5893SOL    HW218579   2.221   3.867   3.997
 5894SOL     OW18580   6.796   5.019   4.156
 5894SOL    HW118581   6.788   5.050   4.251
 5894SOL    HW218582   6.867   5.073   4.110
 5895SOL     OW18583   5.598   3.997   3.780
 5895SOL    HW118584   5.553   4.082   3.808
 5895SOL    HW218585   5.584   3.927   3.850
 5896SOL     OW18586   3.810   0.751   0.525
 5896SOL    HW118587   3.779   0.846   0.536
 5896SOL    HW218588   3.863   0.724   0.606
 5897SOL     OW18589   4.226   0.670   1.398
 5897SOL    HW118590   4.229   0.637   1.492
 5897SOL    HW218591   4.203   0.594   1.336
 5898SOL     OW18592   2.256   6.394   3.706
 5898SOL    HW118593   2.209   6.382   3.794
 5898SOL    HW218594   2.355   6.397   3.722
 5899SOL     OW18595   5.799   6.035   6.443
 5899SOL    HW118596   5.809   6.101   6.368
 5899SOL    HW218597   5.747   5.956   6.411
 5900SOL     OW18598   5.769   5.328   3.625
 5900SOL    HW118599   5.806   5.237   3.605
 5900SOL    HW218600   5.839   5.397   3.606
 5901SOL     OW18601   2.232   0.526   0.173
 5901SOL    HW118602   2.203   0.511   0.079
 5901SOL    HW218603   2.162   0.576   0.223
 5902SOL     OW18604   6.490   2.525   5.618
 5902SOL    HW118605   6.491   2.581   5.701
 5902SOL    HW218606   6.402   2.479   5.609
 5903SOL     OW18607   5.014   4.992   0.089
 5903SOL    HW118608   4.974   5.037   0.168
 5903SOL    HW218609   4.962   4.910   0.068
 5904SOL     OW18610   1.349   4.400   1.502
 5904SOL    HW118611   1.420   4.336   1.530
 5904SOL    HW218612   1.373   4.492   1.531
 5905SOL     OW18613   5.893   6.443   3.345
 5905SOL    HW118614   5.917   6.414   3.437
 5905SOL    HW218615   5.799   6.478   3.345
 5906SOL     OW18616   3.665   2.124   4.125
 5906SOL    HW118617   3.590   2.165   4.177
 5906SOL    HW218618   3.702   2.045   4.174
 5907SOL     OW18619   1.304   5.280   0.742
 5907SOL    HW118620   1.279   5.225   0.663
 5907SOL    HW218621   1.342   5.367   0.712
 5908SOL     OW18622   0.240   2.600   0.078
 5908SOL    HW118623   0.324   2.547   0.063
 5908SOL    HW218624   0.252   2.692   0.039
 5909SOL     OW18625   6.385   5.527   0.913
 5909SOL    HW118626   6.313   5.596   0.906
 5909SOL    HW218627   6.344   5.438   0.932
 5910SOL     OW18628   0.252   3.467   4.199
 5910SOL    HW118629   0.226   3.533   4.270
 5910SOL    HW218630   0.169   3.426   4.160
 5911SOL     OW18631   6.683   6.550   6.670
 5911SOL    HW118632   6.617   6.524   6.741
 5911SOL    HW218633   6.741   6.624   6.703
 5912SOL     OW18634   6.481   1.576   5.820
 5912SOL    HW118635   6.400   1.628   5.792
 5912SOL    HW218636   6.483   1.488   5.771
 5913SOL     OW18637   5.064   3.210   6.250
 5913SOL    HW118638   5.149   3.196   6.199
 5913SOL    HW218639   5.086   3.225   6.347
 5914SOL     OW18640   1.111   4.650   5.709
 5914SOL    HW118641   1.156   4.731   5.672
 5914SOL    HW218642   1.169   4.610   5.781
 5915SOL     OW18643   4.817   5.788   1.057
 5915SOL    HW118644   4.901   5.758   1.103
 5915SOL    HW218645   4.810   5.888   1.060
 5916SOL     OW18646   5.409   6.880   3.775
 5916SOL    HW118647   5.370   6.970   3.757
 5916SOL    HW218648   5.419   6.829   3.690
 5917SOL     OW18649   2.912   3.517   4.377
 5917SOL    HW118650   3.011   3.519   4.391
 5917SOL    HW218651   2.868   3.479   4.459
 5918SOL     OW18652   1.599   3.864   6.100
 5918SOL    HW118653   1.562   3.831   6.187
 5918SOL    HW218654   1.698   3.851   6.099
 5919SOL     OW18655   3.556   3.301   3.227
 5919SOL    HW118656   3.526   3.215   3.269
 5919SOL    HW218657   3.655   3.300   3.214
 5920SOL     OW18658   4.848   0.853   6.620
 5920SOL    HW118659   4.947   0.841   6.633
 5920SOL    HW218660   4.800   0.774   6.656
 5921SOL     OW18661   3.724   5.548   6.569
 5921SOL    HW118662   3.630   5.541   6.602
 5921SOL    HW218663   3.728   5.610   6.491
 5922SOL     OW18664   5.217   4.803   2.717
 5922SOL    HW118665   5.191   4.860   2.795
 5922SOL    HW218666   5.224   4.708   2.748
 5923SOL     OW18667   6.523   1.314   1.795
 5923SOL    HW118668   6.527   1.287   1.699
 5923SOL    HW218669   6.487   1.407   1.803
 5924SOL     OW18670   5.951   0.195   2.930
 5924SOL    HW118671   6.045   0.170   2.952
 5924SOL    HW218672   5.889   0.122   2.958
 5925SOL     OW18673   3.890   0.049   2.264
 5925SOL    HW118674   3.886   0.088   2.172
 5925SOL    HW218675   3.977   0.002   2.277
 5926SOL     OW18676   4.170   5.383   1.679
 5926SOL    HW118677   4.191   5.455   1.613
 5926SOL    HW218678   4.080   5.399   1.719
 5927SOL     OW18679   1.432   3.958   2.412
 5927SOL    HW118680   1.406   3.968   2.316
 5927SOL    HW218681   1.530   3.941   2.419
 5928SOL     OW18682   4.208   0.489   1.190
 5928SOL    HW118683   4.116   0.523   1.175
 5928SOL    HW218684   4.248   0.460   1.102
 5929SOL     OW18685   6.891   0.010   6.632
 5929SOL    HW118686   6.849   6.945   6.608
 5929SOL    HW218687   6.826   0.083   6.614
 5930SOL     OW18688   6.586   3.851   2.723
 5930SOL    HW118689   6.519   3.798   2.669
 5930SOL    HW218690   6.673   3.802   2.724
 5931SOL     OW18691   0.488   5.436   3.034
 5931SOL    HW118692   0.547   5.405   3.109
 5931SOL    HW218693   0.395   5.447   3.068
 5932SOL     OW18694   3.310   0.385   0.375
 5932SOL    HW118695   3.241   0.458   0.368
 5932SOL    HW218696   3.264   0.297   0.390
 5933SOL     OW18697   0.020   5.338   3.002
 5933SOL    HW118698   0.024   5.273   2.926
 5933SOL    HW218699   0.042   5.290   3.087
 5934SOL     OW18700   3.505   2.951   4.805
 5934SOL    HW118701   3.488   2.945   4.707
 5934SOL    HW218702   3.422   2.930   4.855
 5935SOL     OW18703   5.372   4.988   6.528
 5935SOL    HW118704   5.406   5.018   6.438
 5935SOL    HW218705   5.445   4.938   6.575
 5936SOL     OW18706   3.692   2.234   1.259
 5936SOL    HW118707   3.671   2.236   1.357
 5936SOL    HW218708   3.741   2.318   1.235
 5937SOL     OW18709   6.497   3.804   2.293
 5937SOL    HW118710   6.597   3.794   2.288
 5937SOL    HW218711   6.471   3.897   2.264
 5938SOL     OW18712   6.817   5.788   3.007
 5938SOL    HW118713   6.813   5.887   2.990
 5938SOL    HW218714   6.773   5.768   3.094
 5939SOL     OW18715   2.466   6.491   3.387
 5939SOL    HW118716   2.532   6.561   3.414
 5939SOL    HW218717   2.373   6.523   3.407
 5940SOL     OW18718   4.391   5.585   1.749
 5940SOL    HW118719   4.448   5.508   1.778
 5940SOL    HW218720   4.398   5.597   1.650
 5941SOL     OW18721   5.815   2.880   2.405
 5941SOL    HW118722   5.845   2.916   2.493
 5941SOL    HW218723   5.882   2.813   2.373
 5942SOL     OW18724   5.408   3.952   0.270
 5942SOL    HW118725   5.458   4.017   0.326
 5942SOL    HW218726   5.310   3.965   0.283
 5943SOL     OW18727   3.482   4.628   6.090
 5943SOL    HW118728   3.406   4.674   6.135
 5943SOL    HW218729   3.454   4.598   5.998
 5944SOL     OW18730   6.659   2.782   1.043
 5944SOL    HW118731   6.661   2.745   1.136
 5944SOL    HW218732   6.577   2.838   1.031
 5945SOL     OW18733   6.429   5.154   4.869
 5945SOL    HW118734   6.358   5.086   4.880
 5945SOL    HW218735   6.426   5.219   4.946
 5946SOL     OW18736   3.753   3.554   6.181
 5946SOL    HW118737   3.695   3.483   6.142
 5946SOL    HW218738   3.849   3.527   6.172
 5947SOL     OW18739   2.958   3.220   2.064
 5947SOL    HW118740   2.975   3.135   2.112
 5947SOL    HW218741   2.948   3.295   2.130
 5948SOL     OW18742   4.232   4.693   3.057
 5948SOL    HW118743   4.249   4.594   3.056
 5948SOL    HW218744   4.185   4.717   3.142
 5949SOL     OW18745   5.087   3.844   1.871
 5949SOL    HW118746   5.096   3.943   1.862
 5949SOL    HW218747   5.048   3.806   1.787
 5950SOL     OW18748   5.053   0.981   5.377
 5950SOL    HW118749   5.097   1.069   5.359
 5950SOL    HW218750   5.066   0.921   5.297
 5951SOL     OW18751   1.135   5.721   3.980
 5951SOL    HW118752   1.140   5.728   4.079
 5951SOL    HW218753   1.042   5.693   3.953
 5952SOL     OW18754   5.895   4.633   3.387
 5952SOL    HW118755   5.803   4.635   3.347
 5952SOL    HW218756   5.888   4.640   3.487
 5953SOL     OW18757   6.493   3.310   5.846
 5953SOL    HW118758   6.395   3.333   5.850
 5953SOL    HW218759   6.540   3.379   5.791
 5954SOL     OW18760   6.348   5.432   5.305
 5954SOL    HW118761   6.380   5.410   5.397
 5954SOL    HW218762   6.256   5.395   5.292
 5955SOL     OW18763   4.871   5.717   2.199
 5955SOL    HW118764   4.796   5.658   2.231
 5955SOL    HW218765   4.846   5.758   2.112
 5956SOL     OW18766   4.698   1.986   4.705
 5956SOL    HW118767   4.766   1.957   4.638
 5956SOL    HW218768   4.608   1.993   4.661
 5957SOL     OW18769   3.951   1.204   5.402
 5957SOL    HW118770   3.897   1.285   5.382
 5957SOL    HW218771   4.046   1.231   5.420
 5958SOL     OW18772   5.630   6.258   2.807
 5958SOL    HW118773   5.616   6.319   2.885
 5958SOL    HW218774   5.587   6.296   2.726
 5959SOL     OW18775   4.382   2.978   5.404
 5959SOL    HW118776   4.300   3.034   5.408
 5959SOL    HW218777   4.365   2.890   5.449
 5960SOL     OW18778   4.132   5.404   4.994
 5960SOL    HW118779   4.080   5.332   5.040
 5960SOL    HW218780   4.069   5.465   4.946
 5961SOL     OW18781   4.901   1.762   2.777
 5961SOL    HW118782   4.862   1.823   2.845
 5961SOL    HW218783   4.832   1.694   2.750
 5962SOL     OW18784   5.817   6.625   0.468
 5962SOL    HW118785   5.858   6.537   0.493
 5962SOL    HW218786   5.883   6.678   0.414
 5963SOL     OW18787   4.101   3.566   6.404
 5963SOL    HW118788   4.091   3.590   6.308
 5963SOL    HW218789   4.135   3.472   6.412
 5964SOL     OW18790   0.485   5.522   5.603
 5964SOL    HW118791   0.518   5.439   5.559
 5964SOL    HW218792   0.414   5.500   5.669
 5965SOL     OW18793   2.007   1.944   6.962
 5965SOL    HW118794   2.021   1.857   7.008
 5965SOL    HW218795   2.091   1.970   6.914
 5966SOL     OW18796   2.140   6.009   4.898
 5966SOL    HW118797   2.227   5.975   4.934
 5966SOL    HW218798   2.068   5.990   4.965
 5967SOL     OW18799   4.119   6.559   6.207
 5967SOL    HW118800   4.189   6.509   6.257
 5967SOL    HW218801   4.120   6.655   6.236
 5968SOL     OW18802   5.098   2.336   0.558
 5968SOL    HW118803   5.063   2.293   0.641
 5968SOL    HW218804   5.022   2.354   0.495
 5969SOL     OW18805   6.306   6.920   6.940
 5969SOL    HW118806   6.283   7.016   6.924
 5969SOL    HW218807   6.235   6.878   6.996
 5970SOL     OW18808   0.130   4.017   2.714
 5970SOL    HW118809   0.108   4.010   2.811
 5970SOL    HW218810   0.137   4.113   2.689
 5971SOL     OW18811   0.339   1.176   2.558
 5971SOL    HW118812   0.417   1.134   2.604
 5971SOL    HW218813   0.320   1.127   2.472
 5972SOL     OW18814   5.902   5.567   6.320
 5972SOL    HW118815   5.803   5.561   6.324
 5972SOL    HW218816   5.929   5.632   6.249
 5973SOL     OW18817   1.611   3.705   2.800
 5973SOL    HW118818   1.639   3.737   2.709
 5973SOL    HW218819   1.513   3.683   2.798
 5974SOL     OW18820   5.813   6.236   6.862
 5974SOL    HW118821   5.764   6.317   6.895
 5974SOL    HW218822   5.749   6.160   6.851
 5975SOL     OW18823   4.381   0.313   0.600
 5975SOL    HW118824   4.421   0.404   0.591
 5975SOL    HW218825   4.453   0.248   0.627
 5976SOL     OW18826   3.740   2.564   6.348
 5976SOL    HW118827   3.830   2.556   6.305
 5976SOL    HW218828   3.678   2.611   6.286
 5977SOL     OW18829   1.533   5.781   6.475
 5977SOL    HW118830   1.540   5.879   6.494
 5977SOL    HW218831   1.510   5.767   6.378
 5978SOL     OW18832   4.376   5.259   1.798
 5978SOL    HW118833   4.399   5.171   1.758
 5978SOL    HW218834   4.287   5.289   1.765
 5979SOL     OW18835   5.275   0.701   3.314
 5979SOL    HW118836   5.222   0.668   3.236
 5979SOL    HW218837   5.369   0.670   3.307
 5980SOL     OW18838   3.393   3.625   1.153
 5980SOL    HW118839   3.368   3.677   1.071
 5980SOL    HW218840   3.480   3.579   1.139
 5981SOL     OW18841   5.535   2.149   1.395
 5981SOL    HW118842   5.493   2.150   1.486
 5981SOL    HW218843   5.634   2.158   1.404
 5982SOL     OW18844   6.026   3.124   2.167
 5982SOL    HW118845   6.064   3.149   2.256
 5982SOL    HW218846   5.943   3.070   2.180
 5983SOL     OW18847   1.573   1.481   3.829
 5983SOL    HW118848   1.552   1.384   3.842
 5983SOL    HW218849   1.511   1.536   3.885
 5984SOL     OW18850   6.733   5.452   3.727
 5984SOL    HW118851   6.782   5.472   3.812
 5984SOL    HW218852   6.635   5.466   3.741
 5985SOL     OW18853   6.751   2.660   4.313
 5985SOL    HW118854   6.784   2.592   4.249
 5985SOL    HW218855   6.652   2.668   4.306
 5986SOL     OW18856   3.579   3.979   4.373
 5986SOL    HW118857   3.665   4.018   4.404
 5986SOL    HW218858   3.508   3.997   4.441
 5987SOL     OW18859   5.506   0.152   3.983
 5987SOL    HW118860   5.579   0.084   3.976
 5987SOL    HW218861   5.418   0.106   3.997
 5988SOL     OW18862   4.710   0.482   6.051
 5988SOL    HW118863   4.746   0.390   6.035
 5988SOL    HW218864   4.634   0.499   5.989
 5989SOL     OW18865   2.257   5.724   6.459
 5989SOL    HW118866   2.304   5.811   6.451
 5989SOL    HW218867   2.316   5.658   6.505
 5990SOL     OW18868   3.890   3.557   0.745
 5990SOL    HW118869   3.985   3.574   0.769
 5990SOL    HW218870   3.881   3.465   0.707
 5991SOL     OW18871   3.811   5.271   6.601
 5991SOL    HW118872   3.879   5.234   6.664
 5991SOL    HW218873   3.787   5.364   6.630
 5992SOL     OW18874   3.644   0.557   2.000
 5992SOL    HW118875   3.635   0.499   1.919
 5992SOL    HW218876   3.577   0.631   1.996
 5993SOL     OW18877   3.851   5.185   6.065
 5993SOL    HW118878   3.796   5.189   5.982
 5993SOL    HW218879   3.938   5.233   6.051
 5994SOL     OW18880   5.692   2.538   2.133
 5994SOL    HW118881   5.746   2.585   2.063
 5994SOL    HW218882   5.650   2.606   2.193
 5995SOL     OW18883   4.905   3.657   2.742
 5995SOL    HW118884   4.878   3.714   2.821
 5995SOL    HW218885   4.868   3.565   2.753
 5996SOL     OW18886   1.184   5.962   1.561
 5996SOL    HW118887   1.237   5.879   1.579
 5996SOL    HW218888   1.143   5.956   1.469
 5997SOL     OW18889   0.403   5.656   2.826
 5997SOL    HW118890   0.398   5.659   2.926
 5997SOL    HW218891   0.361   5.738   2.787
 5998SOL     OW18892   5.916   1.481   3.360
 5998SOL    HW118893   5.828   1.478   3.313
 5998SOL    HW218894   5.922   1.405   3.425
 5999SOL     OW18895   2.134   2.534   1.754
 5999SOL    HW118896   2.166   2.441   1.736
 5999SOL    HW218897   2.212   2.596   1.759
 6000SOL     OW18898   3.011   7.019   0.846
 6000SOL    HW118899   3.078   7.007   0.773
 6000SOL    HW218900   2.939   0.059   0.816
 6001SOL     OW18901   0.452   3.887   6.724
 6001SOL    HW118902   0.444   3.791   6.698
 6001SOL    HW218903   0.369   3.915   6.772
 6002SOL     OW18904   6.137   1.348   0.757
 6002SOL    HW118905   6.134   1.282   0.832
 6002SOL    HW218906   6.193   1.426   0.784
 6003SOL     OW18907   5.821   2.022   4.725
 6003SOL    HW118908   5.766   2.077   4.787
 6003SOL    HW218909   5.845   2.075   4.644
 6004SOL     OW18910   6.984   3.864   2.885
 6004SOL    HW118911   0.038   3.826   2.834
 6004SOL    HW218912   7.015   3.888   2.978
 6005SOL     OW18913   4.653   5.409   3.979
 6005SOL    HW118914   4.701   5.352   4.045
 6005SOL    HW218915   4.653   5.364   3.890
 6006SOL     OW18916   2.244   1.382   5.160
 6006SOL    HW118917   2.312   1.430   5.215
 6006SOL    HW218918   2.251   1.412   5.065
 6007SOL     OW18919   5.368   4.185   5.364
 6007SOL    HW118920   5.340   4.097   5.326
 6007SOL    HW218921   5.443   4.171   5.429
 6008SOL     OW18922   2.512   4.548   5.529
 6008SOL    HW118923   2.584   4.553   5.460
 6008SOL    HW218924   2.446   4.477   5.504
 6009SOL     OW18925   2.139   1.209   3.102
 6009SOL    HW118926   2.174   1.130   3.052
 6009SOL    HW218927   2.086   1.267   3.041
 6010SOL     OW18928   0.813   4.793   4.154
 6010SOL    HW118929   0.768   4.791   4.244
 6010SOL    HW218930   0.888   4.860   4.156
 6011SOL     OW18931   5.029   2.919   3.656
 6011SOL    HW118932   5.005   2.822   3.660
 6011SOL    HW218933   5.062   2.940   3.564
 6012SOL     OW18934   5.608   1.079   0.145
 6012SOL    HW118935   5.586   1.024   0.064
 6012SOL    HW218936   5.696   1.050   0.182
 6013SOL     OW18937   4.734   2.163   2.699
 6013SOL    HW118938   4.649   2.154   2.751
 6013SOL    HW218939   4.718   2.138   2.604
 6014SOL     OW18940   4.047   3.289   2.819
 6014SOL    HW118941   4.065   3.328   2.729
 6014SOL    HW218942   4.001   3.200   2.809
 6015SOL     OW18943   6.151   3.664   3.925
 6015SOL    HW118944   6.118   3.726   3.854
 6015SOL    HW218945   6.194   3.716   3.999
 6016SOL     OW18946   6.831   2.054   5.496
 6016SOL    HW118947   6.764   2.128   5.499
 6016SOL    HW218948   6.808   1.990   5.423
 6017SOL     OW18949   6.663   4.516   3.624
 6017SOL    HW118950   6.665   4.417   3.609
 6017SOL    HW218951   6.599   4.537   3.699
 6018SOL     OW18952   4.438   0.327   6.567
 6018SOL    HW118953   4.519   0.271   6.552
 6018SOL    HW218954   4.365   0.297   6.505
 6019SOL     OW18955   6.981   1.893   4.249
 6019SOL    HW118956   6.995   1.989   4.275
 6019SOL    HW218957   0.046   1.851   4.226
 6020SOL     OW18958   0.925   5.182   0.687
 6020SOL    HW118959   0.999   5.132   0.642
 6020SOL    HW218960   0.947   5.195   0.784
 6021SOL     OW18961   4.280   0.350   3.200
 6021SOL    HW118962   4.302   0.290   3.276
 6021SOL    HW218963   4.296   0.445   3.226
 6022SOL     OW18964   5.220   1.777   4.035
 6022SOL    HW118965   5.219   1.830   3.950
 6022SOL    HW218966   5.296   1.712   4.033
 6023SOL     OW18967   5.809   0.837   1.777
 6023SOL    HW118968   5.768   0.783   1.850
 6023SOL    HW218969   5.737   0.869   1.715
 6024SOL     OW18970   1.833   4.728   2.811
 6024SOL    HW118971   1.883   4.812   2.830
 6024SOL    HW218972   1.735   4.749   2.803
 6025SOL     OW18973   3.424   1.587   3.231
 6025SOL    HW118974   3.337   1.632   3.214
 6025SOL    HW218975   3.449   1.600   3.327
 6026SOL     OW18976   0.096   4.391   5.200
 6026SOL    HW118977   0.148   4.329   5.141
 6026SOL    HW218978   0.007   4.351   5.220
 6027SOL     OW18979   0.314   3.418   5.759
 6027SOL    HW118980   0.377   3.451   5.688
 6027SOL    HW218981   0.237   3.481   5.768
 6028SOL     OW18982   6.616   5.314   0.327
 6028SOL    HW118983   6.573   5.314   0.237
 6028SOL    HW218984   6.546   5.324   0.398
 6029SOL     OW18985   2.367   6.742   5.257
 6029SOL    HW118986   2.383   6.652   5.217
 6029SOL    HW218987   2.367   6.811   5.184
 6030SOL     OW18988   3.897   5.287   2.237
 6030SOL    HW118989   3.801   5.269   2.218
 6030SOL    HW218990   3.926   5.233   2.317
 6031SOL     OW18991   3.048   5.347   3.899
 6031SOL    HW118992   3.126   5.300   3.859
 6031SOL    HW218993   2.976   5.357   3.830
 6032SOL     OW18994   2.303   4.439   2.477
 6032SOL    HW118995   2.235   4.390   2.423
 6032SOL    HW218996   2.264   4.462   2.566
 6033SOL     OW18997   2.746   2.319   2.452
 6033SOL    HW118998   2.667   2.380   2.455
 6033SOL    HW218999   2.780   2.303   2.544
 6034SOL     OW19000   1.625   6.742   5.695
 6034SOL    HW119001   1.539   6.779   5.732
 6034SOL    HW219002   1.650   6.659   5.745
 6035SOL     OW19003   0.070   0.972   2.421
 6035SOL    HW119004   7.014   1.031   2.408
 6035SOL    HW219005   0.071   0.937   2.514
 6036SOL     OW19006   5.222   4.469   3.342
 6036SOL    HW119007   5.178   4.556   3.365
 6036SOL    HW219008   5.176   4.428   3.264
 6037SOL     OW19009   4.493   5.810   0.168
 6037SOL    HW119010   4.563   5.763   0.221
 6037SOL    HW219011   4.402   5.782   0.200
 6038SOL     OW19012   1.799   2.600   5.842
 6038SOL    HW119013   1.737   2.530   5.807
 6038SOL    HW219014   1.813   2.586   5.940
 6039SOL     OW19015   2.986   3.362   2.441
 6039SOL    HW119016   3.048   3.297   2.487
 6039SOL    HW219017   2.915   3.390   2.506
 6040SOL     OW19018   1.279   1.441   0.440
 6040SOL    HW119019   1.182   1.418   0.427
 6040SOL    HW219020   1.294   1.471   0.534
 6041SOL     OW19021   3.215   0.753   4.700
 6041SOL    HW119022   3.121   0.786   4.703
 6041SOL    HW219023   3.221   0.664   4.746
 6042SOL     OW19024   4.569   6.374   2.244
 6042SOL    HW119025   4.624   6.383   2.327
 6042SOL    HW219026   4.512   6.292   2.250
 6043SOL     OW19027   0.836   4.654   5.658
 6043SOL    HW119028   0.935   4.657   5.668
 6043SOL    HW219029   0.812   4.670   5.562
 6044SOL     OW19030   1.510   2.525   1.245
 6044SOL    HW119031   1.556   2.544   1.332
 6044SOL    HW219032   1.578   2.490   1.180
 6045SOL     OW19033   5.953   4.165   2.499
 6045SOL    HW119034   5.912   4.240   2.552
 6045SOL    HW219035   6.045   4.147   2.533
 6046SOL     OW19036   3.575   2.235   0.149
 6046SOL    HW119037   3.506   2.266   0.084
 6046SOL    HW219038   3.575   2.296   0.228
 6047SOL     OW19039   4.877   1.849   2.132
 6047SOL    HW119040   4.834   1.778   2.077
 6047SOL    HW219041   4.847   1.939   2.099
 6048SOL     OW19042   4.779   5.782   5.362
 6048SOL    HW119043   4.811   5.805   5.270
 6048SOL    HW219044   4.694   5.730   5.355
 6049SOL     OW19045   4.774   3.156   0.263
 6049SOL    HW119046   4.721   3.164   0.178
 6049SOL    HW219047   4.721   3.105   0.330
 6050SOL     OW19048   4.123   5.565   5.267
 6050SOL    HW119049   4.027   5.589   5.286
 6050SOL    HW219050   4.163   5.633   5.206
 6051SOL     OW19051   2.313   0.105   3.771
 6051SOL    HW119052   2.251   0.031   3.745
 6051SOL    HW219053   2.264   0.192   3.766
 6052SOL     OW19054   6.517   0.955   0.176
 6052SOL    HW119055   6.440   0.893   0.163
 6052SOL    HW219056   6.503   1.037   0.120
 6053SOL     OW19057   3.789   1.954   6.915
 6053SOL    HW119058   3.790   1.856   6.935
 6053SOL    HW219059   3.749   1.970   6.824
 6054SOL     OW19060   2.467   3.090   0.451
 6054SOL    HW119061   2.524   3.100   0.532
 6054SOL    HW219062   2.375   3.060   0.478
 6055SOL     OW19063   4.865   0.419   4.967
 6055SOL    HW119064   4.885   0.493   4.903
 6055SOL    HW219065   4.821   0.457   5.049
 6056SOL     OW19066   5.084   3.374   4.372
 6056SOL    HW119067   5.134   3.370   4.285
 6056SOL    HW219068   5.037   3.287   4.387
 6057SOL     OW19069   6.003   2.275   3.749
 6057SOL    HW119070   5.966   2.203   3.689
 6057SOL    HW219071   6.084   2.316   3.706
 6058SOL     OW19072   4.927   3.521   1.643
 6058SOL    HW119073   4.914   3.435   1.691
 6058SOL    HW219074   4.854   3.533   1.575
 6059SOL     OW19075   5.294   4.964   5.216
 6059SOL    HW119076   5.248   4.878   5.192
 6059SOL    HW219077   5.231   5.023   5.266
 6060SOL     OW19078   3.108   3.582   0.079
 6060SOL    HW119079   3.152   3.561   0.166
 6060SOL    HW219080   3.160   3.654   0.032
 6061SOL     OW19081   3.689   2.602   1.120
 6061SOL    HW119082   3.610   2.662   1.130
 6061SOL    HW219083   3.730   2.585   1.210
 6062SOL     OW19084   2.436   0.691   5.056
 6062SOL    HW119085   2.430   0.679   4.957
 6062SOL    HW219086   2.532   0.686   5.084
 6063SOL     OW19087   3.987   2.798   6.064
 6063SOL    HW119088   4.087   2.799   6.059
 6063SOL    HW219089   3.949   2.823   5.975
 6064SOL     OW19090   1.850   6.003   0.954
 6064SOL    HW119091   1.752   6.004   0.937
 6064SOL    HW219092   1.898   6.033   0.871
 6065SOL     OW19093   0.154   6.792   2.296
 6065SOL    HW119094   0.105   6.833   2.220
 6065SOL    HW219095   0.116   6.826   2.382
 6066SOL     OW19096   4.824   1.192   6.013
 6066SOL    HW119097   4.858   1.233   6.097
 6066SOL    HW219098   4.751   1.128   6.034
 6067SOL     OW19099   5.733   0.685   5.428
 6067SOL    HW119100   5.820   0.729   5.453
 6067SOL    HW219101   5.747   0.628   5.347
 6068SOL     OW19102   5.512   3.362   4.342
 6068SOL    HW119103   5.426   3.316   4.324
 6068SOL    HW219104   5.499   3.432   4.413
 6069SOL     OW19105   6.056   3.508   5.628
 6069SOL    HW119106   6.043   3.438   5.699
 6069SOL    HW219107   6.070   3.464   5.540
 6070SOL     OW19108   2.847   2.435   0.856
 6070SOL    HW119109   2.836   2.422   0.757
 6070SOL    HW219110   2.929   2.387   0.887
 6071SOL     OW19111   5.379   5.515   3.934
 6071SOL    HW119112   5.458   5.524   3.873
 6071SOL    HW219113   5.386   5.582   4.008
 6072SOL     OW19114   6.920   0.478   1.306
 6072SOL    HW119115   6.850   0.547   1.287
 6072SOL    HW219116   6.917   0.408   1.236
 6073SOL     OW19117   5.875   3.187   0.091
 6073SOL    HW119118   5.777   3.198   0.074
 6073SOL    HW219119   5.901   3.092   0.076
 6074SOL     OW19120   1.026   6.384   3.393
 6074SOL    HW119121   1.081   6.305   3.368
 6074SOL    HW219122   0.952   6.356   3.455
 6075SOL     OW19123   6.427   1.168   6.032
 6075SOL    HW119124   6.434   1.069   6.046
 6075SOL    HW219125   6.371   1.187   5.951
 6076SOL     OW19126   3.187   5.729   4.082
 6076SOL    HW119127   3.278   5.703   4.115
 6076SOL    HW219128   3.161   5.817   4.122
 6077SOL     OW19129   6.130   5.888   0.807
 6077SOL    HW119130   6.154   5.844   0.893
 6077SOL    HW219131   6.170   5.980   0.804
 6078SOL     OW19132   4.652   5.017   0.125
 6078SOL    HW119133   4.658   4.918   0.134
 6078SOL    HW219134   4.696   5.060   0.204
 6079SOL     OW19135   4.365   4.160   6.150
 6079SOL    HW119136   4.279   4.109   6.145
 6079SOL    HW219137   4.415   4.134   6.233
 6080SOL     OW19138   0.373   0.028   1.395
 6080SOL    HW119139   0.420   6.967   1.423
 6080SOL    HW219140   0.417   0.107   1.436
 6081SOL     OW19141   0.123   3.402   5.515
 6081SOL    HW119142   0.122   3.338   5.591
 6081SOL    HW219143   0.042   3.387   5.457
 6082SOL     OW19144   2.371   1.313   3.896
 6082SOL    HW119145   2.402   1.346   3.807
 6082SOL    HW219146   2.417   1.364   3.969
 6083SOL     OW19147   6.572   5.606   6.655
 6083SOL    HW119148   6.497   5.661   6.692
 6083SOL    HW219149   6.615   5.555   6.730
 6084SOL     OW19150   0.902   6.934   4.041
 6084SOL    HW119151   0.813   6.889   4.053
 6084SOL    HW219152   0.962   6.910   4.117
 6085SOL     OW19153   0.597   5.361   0.397
 6085SOL    HW119154   0.643   5.405   0.321
 6085SOL    HW219155   0.545   5.428   0.450
 6086SOL     OW19156   4.006   0.547   5.914
 6086SOL    HW119157   4.082   0.484   5.895
 6086SOL    HW219158   3.946   0.506   5.982
 6087SOL     OW19159   3.660   5.403   1.056
 6087SOL    HW119160   3.680   5.312   1.092
 6087SOL    HW219161   3.739   5.463   1.071
 6088SOL     OW19162   5.208   5.809   3.791
 6088SOL    HW119163   5.189   5.733   3.854
 6088SOL    HW219164   5.243   5.887   3.842
 6089SOL     OW19165   4.958   3.210   1.690
 6089SOL    HW119166   4.996   3.118   1.691
 6089SOL    HW219167   4.994   3.260   1.612
 6090SOL     OW19168   1.985   5.904   5.118
 6090SOL    HW119169   1.944   5.814   5.136
 6090SOL    HW219170   2.018   5.943   5.204
 6091SOL     OW19171   2.045   1.131   6.990
 6091SOL    HW119172   2.128   1.132   6.934
 6091SOL    HW219173   2.053   1.061   0.038
 6092SOL     OW19174   4.284   6.923   3.042
 6092SOL    HW119175   4.253   6.852   3.106
 6092SOL    HW219176   4.204   6.963   2.997
 6093SOL     OW19177   1.829   3.517   1.833
 6093SOL    HW119178   1.841   3.419   1.821
 6093SOL    HW219179   1.915   3.564   1.815
 6094SOL     OW19180   2.427   6.666   1.781
 6094SOL    HW119181   2.341   6.718   1.785
 6094SOL    HW219182   2.406   6.568   1.786
 6095SOL     OW19183   5.157   4.031   0.348
 6095SOL    HW119184   5.067   4.013   0.309
 6095SOL    HW219185   5.160   3.998   0.442
 6096SOL     OW19186   6.275   6.499   3.560
 6096SOL    HW119187   6.363   6.457   3.540
 6096SOL    HW219188   6.214   6.489   3.482
 6097SOL     OW19189   2.388   6.555   2.472
 6097SOL    HW119190   2.319   6.521   2.536
 6097SOL    HW219191   2.479   6.529   2.504
 6098SOL     OW19192   1.964   2.104   5.271
 6098SOL    HW119193   2.034   2.037   5.294
 6098SOL    HW219194   2.007   2.192   5.251
 6099SOL     OW19195   6.104   6.292   0.141
 6099SOL    HW119196   6.190   6.276   0.189
 6099SOL    HW219197   6.070   6.384   0.162
 6100SOL     OW19198   5.118   5.698   0.209
 6100SOL    HW119199   5.216   5.698   0.228
 6100SOL    HW219200   5.071   5.646   0.280
 6101SOL     OW19201   6.626   2.859   3.970
 6101SOL    HW119202   6.725   2.870   3.955
 6101SOL    HW219203   6.612   2.806   4.053
 6102SOL     OW19204   3.506   6.706   3.182
 6102SOL    HW119205   3.453   6.626   3.212
 6102SOL    HW219206   3.484   6.784   3.240
 6103SOL     OW19207   6.242   1.837   2.313
 6103SOL    HW119208   6.163   1.860   2.370
 6103SOL    HW219209   6.276   1.921   2.268
 6104SOL     OW19210   6.224   0.687   5.457
 6104SOL    HW119211   6.186   0.662   5.546
 6104SOL    HW219212   6.301   0.627   5.435
 6105SOL     OW19213   3.121   6.610   6.242
 6105SOL    HW119214   3.063   6.690   6.226
 6105SOL    HW219215   3.198   6.611   6.179
 6106SOL     OW19216   1.874   4.076   6.391
 6106SOL    HW119217   1.822   4.020   6.456
 6106SOL    HW219218   1.956   4.027   6.363
 6107SOL     OW19219   3.415   5.645   4.216
 6107SOL    HW119220   3.483   5.580   4.248
 6107SOL    HW219221   3.452   5.738   4.223
 6108SOL     OW19222   1.855   3.264   2.197
 6108SOL    HW119223   1.811   3.174   2.196
 6108SOL    HW219224   1.785   3.336   2.201
 6109SOL     OW19225   5.393   2.500   4.944
 6109SOL    HW119226   5.434   2.418   4.985
 6109SOL    HW219227   5.299   2.509   4.977
 6110SOL     OW19228   3.946   4.244   0.739
 6110SOL    HW119229   3.979   4.192   0.661
 6110SOL    HW219230   4.023   4.272   0.796
 6111SOL     OW19231   1.972   4.065   2.302
 6111SOL    HW119232   1.887   4.029   2.340
 6111SOL    HW219233   1.958   4.089   2.206
 6112SOL     OW19234   4.113   0.400   2.824
 6112SOL    HW119235   4.186   0.354   2.874
 6112SOL    HW219236   4.099   0.355   2.736
 6113SOL     OW19237   2.492   1.048   6.139
 6113SOL    HW119238   2.406   1.100   6.139
 6113SOL    HW219239   2.476   0.957   6.102
 6114SOL     OW19240   4.976   5.495   1.194
 6114SOL    HW119241   5.003   5.502   1.098
 6114SOL    HW219242   5.052   5.461   1.248
 6115SOL     OW19243   5.241   6.868   4.024
 6115SOL    HW119244   5.221   6.966   4.032
 6115SOL    HW219245   5.292   6.851   3.939
 6116SOL     OW19246   3.871   0.876   6.026
 6116SOL    HW119247   3.851   0.954   6.086
 6116SOL    HW219248   3.794   0.860   5.965
 6117SOL     OW19249   1.493   1.075   4.164
 6117SOL    HW119250   1.593   1.068   4.168
 6117SOL    HW219251   1.466   1.169   4.183
 6118SOL     OW19252   6.912   1.014   2.644
 6118SOL    HW119253   6.875   1.073   2.573
 6118SOL    HW219254   6.898   0.918   2.620
 6119SOL     OW19255   1.238   3.949   6.551
 6119SOL    HW119256   1.210   3.889   6.476
 6119SOL    HW219257   1.162   3.960   6.614
 6120SOL     OW19258   3.696   6.394   5.020
 6120SOL    HW119259   3.600   6.370   5.037
 6120SOL    HW219260   3.700   6.478   4.967
 6121SOL     OW19261   1.001   3.401   5.427
 6121SOL    HW119262   0.968   3.316   5.467
 6121SOL    HW219263   1.094   3.418   5.457
 6122SOL     OW19264   4.210   5.411   0.923
 6122SOL    HW119265   4.196   5.449   0.832
 6122SOL    HW219266   4.242   5.483   0.984
 6123SOL     OW19267   5.348   6.940   6.930
 6123SOL    HW119268   5.263   6.902   6.967
 6123SOL    HW219269   5.425   6.881   6.955
 6124SOL     OW19270   2.459   6.805   6.159
 6124SOL    HW119271   2.468   6.707   6.141
 6124SOL    HW219272   2.484   6.824   6.254
 6125SOL     OW19273   1.950   5.263   0.581
 6125SOL    HW119274   1.960   5.272   0.680
 6125SOL    HW219275   1.944   5.354   0.540
 6126SOL     OW19276   1.246   7.019   4.429
 6126SOL    HW119277   1.291   0.058   4.365
 6126SOL    HW219278   1.217   0.047   4.510
 6127SOL     OW19279   3.545   0.096   0.804
 6127SOL    HW119280   3.504   0.113   0.894
 6127SOL    HW219281   3.508   0.162   0.738
 6128SOL     OW19282   5.908   3.927   0.724
 6128SOL    HW119283   6.002   3.960   0.734
 6128SOL    HW219284   5.891   3.903   0.629
 6129SOL     OW19285   6.707   3.257   3.213
 6129SOL    HW119286   6.681   3.342   3.168
 6129SOL    HW219287   6.737   3.277   3.307
 6130SOL     OW19288   6.533   2.591   3.616
 6130SOL    HW119289   6.541   2.563   3.712
 6130SOL    HW219290   6.623   2.584   3.572
 6131SOL     OW19291   0.381   1.281   5.205
 6131SOL    HW119292   0.452   1.247   5.143
 6131SOL    HW219293   0.292   1.276   5.160
 6132SOL     OW19294   4.896   2.535   6.692
 6132SOL    HW119295   4.912   2.630   6.665
 6132SOL    HW219296   4.816   2.531   6.753
 6133SOL     OW19297   1.558   2.830   1.851
 6133SOL    HW119298   1.471   2.809   1.806
 6133SOL    HW219299   1.554   2.799   1.946
 6134SOL     OW19300   3.891   4.313   6.699
 6134SOL    HW119301   3.792   4.312   6.684
 6134SOL    HW219302   3.937   4.320   6.610
 6135SOL     OW19303   0.460   1.029   1.682
 6135SOL    HW119304   0.454   1.126   1.656
 6135SOL    HW219305   0.494   1.022   1.776
 6136SOL     OW19306   1.019   2.525   2.100
 6136SOL    HW119307   1.054   2.611   2.136
 6136SOL    HW219308   1.030   2.523   2.001
 6137SOL     OW19309   6.268   2.676   2.990
 6137SOL    HW119310   6.245   2.591   2.943
 6137SOL    HW219311   6.295   2.656   3.085
 6138SOL     OW19312   3.665   6.322   3.226
 6138SOL    HW119313   3.745   6.354   3.176
 6138SOL    HW219314   3.693   6.286   3.315
 6139SOL     OW19315   1.145   6.833   6.189
 6139SOL    HW119316   1.186   6.752   6.148
 6139SOL    HW219317   1.103   6.889   6.117
 6140SOL     OW19318   0.243   6.136   1.390
 6140SOL    HW119319   0.179   6.061   1.375
 6140SOL    HW219320   0.283   6.164   1.303
 6141SOL     OW19321   6.495   6.689   6.489
 6141SOL    HW119322   6.431   6.645   6.552
 6141SOL    HW219323   6.568   6.625   6.466
 6142SOL     OW19324   1.418   6.252   0.255
 6142SOL    HW119325   1.398   6.307   0.174
 6142SOL    HW219326   1.473   6.306   0.319
 6143SOL     OW19327   6.815   3.852   1.372
 6143SOL    HW119328   6.777   3.800   1.296
 6143SOL    HW219329   6.780   3.945   1.371
 6144SOL     OW19330   5.580   4.616   2.724
 6144SOL    HW119331   5.519   4.648   2.797
 6144SOL    HW219332   5.666   4.585   2.764
 6145SOL     OW19333   5.130   4.901   2.962
 6145SOL    HW119334   5.110   4.950   3.047
 6145SOL    HW219335   5.128   4.802   2.980
 6146SOL     OW19336   3.188   5.670   3.441
 6146SOL    HW119337   3.194   5.770   3.437
 6146SOL    HW219338   3.106   5.644   3.492
 6147SOL     OW19339   2.051   2.164   4.469
 6147SOL    HW119340   2.021   2.101   4.397
 6147SOL    HW219341   2.034   2.258   4.439
 6148SOL     OW19342   5.832   6.706   4.063
 6148SOL    HW119343   5.926   6.741   4.058
 6148SOL    HW219344   5.769   6.775   4.027
 6149SOL     OW19345   2.877   5.961   0.803
 6149SOL    HW119346   2.901   5.869   0.834
 6149SOL    HW219347   2.778   5.973   0.809
 6150SOL     OW19348   4.477   5.756   6.920
 6150SOL    HW119349   4.492   5.828   6.852
 6150SOL    HW219350   4.490   5.794   7.012
 6151SOL     OW19351   5.736   4.255   6.355
 6151SOL    HW119352   5.727   4.332   6.291
 6151SOL    HW219353   5.821   4.207   6.339
 6152SOL     OW19354   5.868   5.194   4.497
 6152SOL    HW119355   5.963   5.176   4.471
 6152SOL    HW219356   5.834   5.273   4.446
 6153SOL     OW19357   5.065   4.594   1.212
 6153SOL    HW119358   4.997   4.621   1.281
 6153SOL    HW219359   5.153   4.634   1.236
 6154SOL     OW19360   6.072   1.981   2.468
 6154SOL    HW119361   5.983   2.025   2.458
 6154SOL    HW219362   6.095   1.974   2.566
 6155SOL     OW19363   1.461   1.916   4.066
 6155SOL    HW119364   1.492   2.004   4.100
 6155SOL    HW219365   1.419   1.864   4.141
 6156SOL     OW19366   4.099   4.678   1.083
 6156SOL    HW119367   4.040   4.598   1.093
 6156SOL    HW219368   4.106   4.726   1.171
 6157SOL     OW19369   0.253   0.562   5.113
 6157SOL    HW119370   0.272   0.469   5.146
 6157SOL    HW219371   0.162   0.564   5.071
 6158SOL     OW19372   3.788   1.903   5.720
 6158SOL    HW119373   3.754   1.837   5.652
 6158SOL    HW219374   3.887   1.891   5.731
 6159SOL     OW19375   5.044   2.837   2.268
 6159SOL    HW119376   4.995   2.846   2.355
 6159SOL    HW219377   5.140   2.818   2.285
 6160SOL     OW19378   5.172   1.439   6.298
 6160SOL    HW119379   5.158   1.538   6.300
 6160SOL    HW219380   5.265   1.419   6.267
 6161SOL     OW19381   4.563   1.540   5.011
 6161SOL    HW119382   4.465   1.529   5.028
 6161SOL    HW219383   4.586   1.638   5.014
 6162SOL     OW19384   0.948   6.065   3.562
 6162SOL    HW119385   0.911   5.975   3.586
 6162SOL    HW219386   0.953   6.073   3.462
 6163SOL     OW19387   5.990   7.000   0.867
 6163SOL    HW119388   6.047   0.019   0.938
 6163SOL    HW219389   5.911   6.956   0.909
 6164SOL     OW19390   4.155   3.450   1.959
 6164SOL    HW119391   4.138   3.393   2.039
 6164SOL    HW219392   4.130   3.545   1.981
 6165SOL     OW19393   4.730   1.033   0.012
 6165SOL    HW119394   4.829   1.026   0.028
 6165SOL    HW219395   4.682   1.017   0.097
 6166SOL     OW19396   5.402   1.398   6.187
 6166SOL    HW119397   5.416   1.392   6.089
 6166SOL    HW219398   5.481   1.358   6.235
 6167SOL     OW19399   1.423   5.230   3.676
 6167SOL    HW119400   1.464   5.158   3.621
 6167SOL    HW219401   1.333   5.254   3.639
 6168SOL     OW19402   0.844   4.426   1.827
 6168SOL    HW119403   0.869   4.412   1.731
 6168SOL    HW219404   0.830   4.338   1.872
 6169SOL     OW19405   1.279   2.052   1.079
 6169SOL    HW119406   1.269   2.059   0.979
 6169SOL    HW219407   1.342   2.122   1.111
 6170SOL     OW19408   0.826   4.202   5.950
 6170SOL    HW119409   0.877   4.122   5.918
 6170SOL    HW219410   0.884   4.255   6.012
 6171SOL     OW19411   0.965   2.873   0.898
 6171SOL    HW119412   0.965   2.793   0.959
 6171SOL    HW219413   0.884   2.872   0.840
 6172SOL     OW19414   1.775   2.930   2.700
 6172SOL    HW119415   1.680   2.898   2.695
 6172SOL    HW219416   1.777   3.029   2.686
 6173SOL     OW19417   6.743   5.651   1.549
 6173SOL    HW119418   6.643   5.645   1.547
 6173SOL    HW219419   6.782   5.578   1.492
 6174SOL     OW19420   5.283   5.271   2.851
 6174SOL    HW119421   5.342   5.191   2.840
 6174SOL    HW219422   5.190   5.249   2.821
 6175SOL     OW19423   4.537   0.526   3.551
 6175SOL    HW119424   4.480   0.510   3.470
 6175SOL    HW219425   4.609   0.457   3.555
 6176SOL     OW19426   5.066   3.870   6.386
 6176SOL    HW119427   5.061   3.940   6.316
 6176SOL    HW219428   5.124   3.795   6.355
 6177SOL     OW19429   5.811   1.305   0.890
 6177SOL    HW119430   5.894   1.285   0.838
 6177SOL    HW219431   5.833   1.369   0.964
 6178SOL     OW19432   4.903   4.713   2.087
 6178SOL    HW119433   4.947   4.771   2.019
 6178SOL    HW219434   4.819   4.674   2.050
 6179SOL     OW19435   6.190   4.791   2.863
 6179SOL    HW119436   6.170   4.774   2.766
 6179SOL    HW219437   6.288   4.807   2.875
 6180SOL     OW19438   3.480   4.334   0.635
 6180SOL    HW119439   3.571   4.312   0.600
 6180SOL    HW219440   3.416   4.343   0.559
 6181SOL     OW19441   4.335   6.840   1.001
 6181SOL    HW119442   4.244   6.802   1.018
 6181SOL    HW219443   4.329   6.914   0.935
 6182SOL     OW19444   5.412   3.557   5.672
 6182SOL    HW119445   5.376   3.609   5.594
 6182SOL    HW219446   5.358   3.578   5.753
 6183SOL     OW19447   1.102   2.411   3.126
 6183SOL    HW119448   1.048   2.492   3.151
 6183SOL    HW219449   1.085   2.338   3.192
 6184SOL     OW19450   2.524   6.878   6.412
 6184SOL    HW119451   2.567   6.790   6.436
 6184SOL    HW219452   2.477   6.914   6.493
 6185SOL     OW19453   0.736   3.563   5.934
 6185SOL    HW119454   0.645   3.530   5.960
 6185SOL    HW219455   0.787   3.589   6.016
 6186SOL     OW19456   0.655   0.339   0.510
 6186SOL    HW119457   0.688   0.432   0.492
 6186SOL    HW219458   0.680   0.279   0.434
 6187SOL     OW19459   4.932   4.221   3.744
 6187SOL    HW119460   4.874   4.203   3.824
 6187SOL    HW219461   5.028   4.220   3.773
 6188SOL     OW19462   2.510   1.275   6.684
 6188SOL    HW119463   2.428   1.284   6.627
 6188SOL    HW219464   2.584   1.235   6.630
 6189SOL     OW19465   4.530   4.538   2.776
 6189SOL    HW119466   4.534   4.473   2.700
 6189SOL    HW219467   4.530   4.487   2.863
 6190SOL     OW19468   1.188   4.024   5.234
 6190SOL    HW119469   1.205   3.959   5.308
 6190SOL    HW219470   1.244   4.106   5.248
 6191SOL     OW19471   3.064   1.718   0.137
 6191SOL    HW119472   2.997   1.670   0.079
 6191SOL    HW219473   3.102   1.795   0.085
 6192SOL     OW19474   3.324   2.473   5.655
 6192SOL    HW119475   3.241   2.456   5.708
 6192SOL    HW219476   3.301   2.521   5.571
 6193SOL     OW19477   4.772   0.435   1.777
 6193SOL    HW119478   4.837   0.474   1.842
 6193SOL    HW219479   4.801   0.455   1.684
 6194SOL     OW19480   1.347   0.226   1.275
 6194SOL    HW119481   1.297   0.310   1.257
 6194SOL    HW219482   1.301   0.149   1.230
 6195SOL     OW19483   4.264   6.050   5.529
 6195SOL    HW119484   4.322   6.123   5.492
 6195SOL    HW219485   4.321   5.975   5.561
 6196SOL     OW19486   5.510   3.134   1.682
 6196SOL    HW119487   5.428   3.117   1.736
 6196SOL    HW219488   5.557   3.047   1.665
 6197SOL     OW19489   3.460   4.918   0.926
 6197SOL    HW119490   3.464   4.829   0.971
 6197SOL    HW219491   3.438   4.906   0.830
 6198SOL     OW19492   4.103   6.928   1.412
 6198SOL    HW119493   4.200   6.905   1.420
 6198SOL    HW219494   4.093   7.016   1.366
 6199SOL     OW19495   0.983   1.408   0.419
 6199SOL    HW119496   0.947   1.327   0.466
 6199SOL    HW219497   0.971   1.397   0.320
 6200SOL     OW19498   0.968   1.038   5.448
 6200SOL    HW119499   0.963   1.121   5.503
 6200SOL    HW219500   1.040   0.978   5.483
 6201SOL     OW19501   0.318   4.050   5.288
 6201SOL    HW119502   0.259   3.996   5.349
 6201SOL    HW219503   0.267   4.074   5.206
 6202SOL     OW19504   4.012   1.463   2.218
 6202SOL    HW119505   3.980   1.536   2.157
 6202SOL    HW219506   4.015   1.377   2.167
 6203SOL     OW19507   6.624   5.630   2.413
 6203SOL    HW119508   6.722   5.613   2.401
 6203SOL    HW219509   6.601   5.622   2.510
 6204SOL     OW19510   0.063   5.004   4.052
 6204SOL    HW119511   0.135   5.044   4.109
 6204SOL    HW219512   0.021   5.076   3.997
 6205SOL     OW19513   6.405   5.600   0.290
 6205SOL    HW119514   6.460   5.537   0.344
 6205SOL    HW219515   6.456   5.685   0.276
 6206SOL     OW19516   5.372   2.053   3.361
 6206SOL    HW119517   5.465   2.037   3.392
 6206SOL    HW219518   5.371   2.061   3.261
 6207SOL     OW19519   1.047   5.129   4.977
 6207SOL    HW119520   0.961   5.177   4.960
 6207SOL    HW219521   1.067   5.131   5.075
 6208SOL     OW19522   5.280   2.599   5.619
 6208SOL    HW119523   5.244   2.608   5.526
 6208SOL    HW219524   5.323   2.684   5.647
 6209SOL     OW19525   3.967   6.341   6.855
 6209SOL    HW119526   3.889   6.303   6.806
 6209SOL    HW219527   4.007   6.416   6.801
 6210SOL     OW19528   5.562   3.841   4.000
 6210SOL    HW119529   5.544   3.755   4.047
 6210SOL    HW219530   5.497   3.911   4.031
 6211SOL     OW19531   2.819   6.462   5.981
 6211SOL    HW119532   2.828   6.377   5.930
 6211SOL    HW219533   2.820   6.442   6.079
 6212SOL     OW19534   2.584   4.883   4.299
 6212SOL    HW119535   2.582   4.893   4.199
 6212SOL    HW219536   2.493   4.856   4.332
 6213SOL     OW19537   6.511   0.531   0.342
 6213SOL    HW119538   6.496   0.630   0.344
 6213SOL    HW219539   6.581   0.506   0.409
 6214SOL     OW19540   4.379   5.489   4.030
 6214SOL    HW119541   4.469   5.449   4.046
 6214SOL    HW219542   4.390   5.585   4.004
 6215SOL     OW19543   4.432   2.130   6.880
 6215SOL    HW119544   4.470   2.199   6.941
 6215SOL    HW219545   4.420   2.044   6.929
 6216SOL     OW19546   6.713   1.377   2.426
 6216SOL    HW119547   6.634   1.359   2.367
 6216SOL    HW219548   6.710   1.471   2.459
 6217SOL     OW19549   0.840   3.655   2.563
 6217SOL    HW119550   0.828   3.689   2.469
 6217SOL    HW219551   0.815   3.728   2.627
 6218SOL     OW19552   3.877   6.534   6.609
 6218SOL    HW119553   3.810   6.493   6.547
 6218SOL    HW219554   3.831   6.558   6.695
 6219SOL     OW19555   1.790   1.918   4.422
 6219SOL    HW119556   1.702   1.890   4.461
 6219SOL    HW219557   1.824   1.845   4.363
 6220SOL     OW19558   2.517   1.346   4.561
 6220SOL    HW119559   2.506   1.341   4.660
 6220SOL    HW219560   2.477   1.265   4.519
 6221SOL     OW19561   5.561   6.331   0.624
 6221SOL    HW119562   5.557   6.335   0.524
 6221SOL    HW219563   5.611   6.410   0.659
 6222SOL     OW19564   1.305   6.371   1.500
 6222SOL    HW119565   1.333   6.276   1.487
 6222SOL    HW219566   1.333   6.425   1.420
 6223SOL     OW19567   1.456   4.723   3.685
 6223SOL    HW119568   1.478   4.630   3.656
 6223SOL    HW219569   1.509   4.747   3.766
 6224SOL     OW19570   3.447   1.414   6.088
 6224SOL    HW119571   3.511   1.489   6.101
 6224SOL    HW219572   3.405   1.421   5.998
 6225SOL     OW19573   4.151   3.317   6.282
 6225SOL    HW119574   4.248   3.298   6.273
 6225SOL    HW219575   4.105   3.236   6.321
 6226SOL     OW19576   0.328   2.091   5.409
 6226SOL    HW119577   0.346   2.147   5.490
 6226SOL    HW219578   0.307   1.997   5.437
 6227SOL     OW19579   3.579   5.272   5.506
 6227SOL    HW119580   3.505   5.205   5.502
 6227SOL    HW219581   3.643   5.255   5.431
 6228SOL     OW19582   1.000   3.525   2.146
 6228SOL    HW119583   0.919   3.551   2.198
 6228SOL    HW219584   0.999   3.427   2.129
 6229SOL     OW19585   1.003   1.816   3.984
 6229SOL    HW119586   0.914   1.854   3.962
 6229SOL    HW219587   1.072   1.852   3.921
 6230SOL     OW19588   0.733   1.897   3.917
 6230SOL    HW119589   0.739   1.997   3.921
 6230SOL    HW219590   0.678   1.864   3.994
 6231SOL     OW19591   6.207   6.356   0.465
 6231SOL    HW119592   6.274   6.305   0.411
 6231SOL    HW219593   6.225   6.341   0.562
 6232SOL     OW19594   6.422   1.155   1.046
 6232SOL    HW119595   6.456   1.084   0.984
 6232SOL    HW219596   6.426   1.243   0.999
 6233SOL     OW19597   6.660   1.977   1.549
 6233SOL    HW119598   6.661   1.922   1.465
 6233SOL    HW219599   6.602   1.931   1.617
 6234SOL     OW19600   0.024   0.632   5.504
 6234SOL    HW119601   0.065   0.660   5.591
 6234SOL    HW219602   6.974   0.695   5.479
 6235SOL     OW19603   0.036   0.038   1.060
 6235SOL    HW119604   0.068   6.974   1.099
 6235SOL    HW219605   0.041   0.034   0.960
 6236SOL     OW19606   0.924   4.179   1.336
 6236SOL    HW119607   0.880   4.095   1.305
 6236SOL    HW219608   0.951   4.234   1.257
 6237SOL     OW19609   4.127   0.446   6.209
 6237SOL    HW119610   4.085   0.536   6.203
 6237SOL    HW219611   4.226   0.454   6.192
 6238SOL     OW19612   4.477   5.240   2.591
 6238SOL    HW119613   4.407   5.208   2.654
 6238SOL    HW219614   4.539   5.165   2.568
 6239SOL     OW19615   3.294   0.726   1.445
 6239SOL    HW119616   3.283   0.821   1.476
 6239SOL    HW219617   3.391   0.707   1.428
 6240SOL     OW19618   2.519   4.002   5.584
 6240SOL    HW119619   2.460   4.063   5.531
 6240SOL    HW219620   2.577   3.950   5.522
 6241SOL     OW19621   3.203   0.336   1.730
 6241SOL    HW119622   3.291   0.335   1.777
 6241SOL    HW219623   3.147   0.259   1.761
 6242SOL     OW19624   4.126   0.483   4.078
 6242SOL    HW119625   4.163   0.565   4.122
 6242SOL    HW219626   4.195   0.410   4.083
 6243SOL     OW19627   6.567   6.824   5.296
 6243SOL    HW119628   6.651   6.774   5.316
 6243SOL    HW219629   6.580   6.881   5.214
 6244SOL     OW19630   5.871   2.551   2.928
 6244SOL    HW119631   5.869   2.498   3.013
 6244SOL    HW219632   5.788   2.606   2.921
 6245SOL     OW19633   1.514   3.606   0.481
 6245SOL    HW119634   1.604   3.563   0.475
 6245SOL    HW219635   1.458   3.579   0.403
 6246SOL     OW19636   1.352   2.161   5.927
 6246SOL    HW119637   1.364   2.133   5.831
 6246SOL    HW219638   1.417   2.233   5.948
 6247SOL     OW19639   0.440   5.890   4.114
 6247SOL    HW119640   0.453   5.873   4.016
 6247SOL    HW219641   0.353   5.936   4.129
 6248SOL     OW19642   3.328   3.989   0.037
 6248SOL    HW119643   3.312   4.076   0.084
 6248SOL    HW219644   3.422   3.959   0.055
 6249SOL     OW19645   6.741   3.833   0.515
 6249SOL    HW119646   6.769   3.928   0.504
 6249SOL    HW219647   6.792   3.775   0.451
 6250SOL     OW19648   6.746   0.520   0.509
 6250SOL    HW119649   6.802   0.437   0.507
 6250SOL    HW219650   6.800   0.595   0.549
 6251SOL     OW19651   3.996   5.997   5.518
 6251SOL    HW119652   4.089   6.021   5.546
 6251SOL    HW219653   3.965   5.919   5.572
 6252SOL     OW19654   2.241   5.963   5.446
 6252SOL    HW119655   2.242   6.039   5.380
 6252SOL    HW219656   2.335   5.937   5.467
 6253SOL     OW19657   2.643   5.222   4.217
 6253SOL    HW119658   2.548   5.236   4.243
 6253SOL    HW219659   2.648   5.149   4.149
 6254SOL     OW19660   5.616   1.699   1.472
 6254SOL    HW119661   5.561   1.773   1.434
 6254SOL    HW219662   5.645   1.638   1.399
 6255SOL     OW19663   2.724   0.746   0.384
 6255SOL    HW119664   2.721   0.657   0.339
 6255SOL    HW219665   2.818   0.780   0.385
 6256SOL     OW19666   3.535   5.137   1.750
 6256SOL    HW119667   3.526   5.206   1.678
 6256SOL    HW219668   3.574   5.179   1.832
 6257SOL     OW19669   4.844   2.364   0.438
 6257SOL    HW119670   4.878   2.432   0.374
 6257SOL    HW219671   4.828   2.278   0.390
 6258SOL     OW19672   3.120   0.958   3.179
 6258SOL    HW119673   3.136   0.881   3.240
 6258SOL    HW219674   3.201   0.974   3.123
 6259SOL     OW19675   1.563   2.564   6.622
 6259SOL    HW119676   1.497   2.557   6.696
 6259SOL    HW219677   1.596   2.658   6.615
 6260SOL     OW19678   3.298   5.904   0.432
 6260SOL    HW119679   3.357   5.981   0.407
 6260SOL    HW219680   3.355   5.829   0.468
 6261SOL     OW19681   4.199   1.217   6.872
 6261SOL    HW119682   4.184   1.274   6.953
 6261SOL    HW219683   4.280   1.160   6.886
 6262SOL     OW19684   2.410   6.049   1.627
 6262SOL    HW119685   2.415   6.146   1.653
 6262SOL    HW219686   2.363   5.998   1.699
 6263SOL     OW19687   0.214   6.815   4.271
 6263SOL    HW119688   0.177   6.890   4.217
 6263SOL    HW219689   0.140   6.761   4.311
 6264SOL     OW19690   2.074   0.510   1.682
 6264SOL    HW119691   2.111   0.420   1.704
 6264SOL    HW219692   2.133   0.580   1.722
 6265SOL     OW19693   3.581   3.885   0.127
 6265SOL    HW119694   3.574   3.786   0.119
 6265SOL    HW219695   3.676   3.910   0.148
 6266SOL     OW19696   4.429   1.027   3.473
 6266SOL    HW119697   4.361   0.991   3.537
 6266SOL    HW219698   4.438   1.126   3.485
 6267SOL     OW19699   2.561   6.850   5.586
 6267SOL    HW119700   2.493   6.792   5.540
 6267SOL    HW219701   2.560   6.941   5.545
 6268SOL     OW19702   2.648   0.519   2.798
 6268SOL    HW119703   2.631   0.421   2.784
 6268SOL    HW219704   2.595   0.550   2.877
 6269SOL     OW19705   0.248   6.926   1.929
 6269SOL    HW119706   0.323   6.872   1.892
 6269SOL    HW219707   0.277   7.021   1.940
 6270SOL     OW19708   1.068   0.631   6.194
 6270SOL    HW119709   1.122   0.547   6.182
 6270SOL    HW219710   1.130   0.709   6.204
 6271SOL     OW19711   5.789   2.769   6.307
 6271SOL    HW119712   5.854   2.692   6.308
 6271SOL    HW219713   5.697   2.734   6.293
 6272SOL     OW19714   0.602   2.647   0.266
 6272SOL    HW119715   0.674   2.578   0.274
 6272SOL    HW219716   0.512   2.602   0.272
 6273SOL     OW19717   0.519   6.217   2.556
 6273SOL    HW119718   0.593   6.265   2.509
 6273SOL    HW219719   0.452   6.284   2.588
 6274SOL     OW19720   3.197   6.633   5.485
 6274SOL    HW119721   3.145   6.595   5.409
 6274SOL    HW219722   3.276   6.575   5.505
 6275SOL     OW19723   2.194   6.275   6.572
 6275SOL    HW119724   2.282   6.317   6.549
 6275SOL    HW219725   2.209   6.197   6.632
 6276SOL     OW19726   2.252   4.813   3.901
 6276SOL    HW119727   2.282   4.741   3.964
 6276SOL    HW219728   2.162   4.790   3.864
 6277SOL     OW19729   4.995   3.285   0.947
 6277SOL    HW119730   4.932   3.235   1.007
 6277SOL    HW219731   4.955   3.289   0.855
 6278SOL     OW19732   5.032   6.990   4.845
 6278SOL    HW119733   4.956   0.001   4.899
 6278SOL    HW219734   5.027   0.004   4.752
 6279SOL     OW19735   4.047   6.630   6.952
 6279SOL    HW119736   4.048   6.712   7.010
 6279SOL    HW219737   3.952   6.607   6.930
 6280SOL     OW19738   0.701   1.294   6.361
 6280SOL    HW119739   0.717   1.301   6.459
 6280SOL    HW219740   0.609   1.258   6.344
 6281SOL     OW19741   0.151   5.082   4.332
 6281SOL    HW119742   0.216   5.150   4.299
 6281SOL    HW219743   0.081   5.128   4.387
 6282SOL     OW19744   6.855   5.317   6.015
 6282SOL    HW119745   6.777   5.348   5.961
 6282SOL    HW219746   6.823   5.288   6.105
 6283SOL     OW19747   6.999   3.704   4.572
 6283SOL    HW119748   6.975   3.802   4.570
 6283SOL    HW219749   6.980   3.668   4.663
 6284SOL     OW19750   1.606   4.947   5.098
 6284SOL    HW119751   1.578   4.932   5.003
 6284SOL    HW219752   1.608   5.045   5.117
 6285SOL     OW19753   7.012   3.390   4.420
 6285SOL    HW119754   0.042   3.355   4.497
 6285SOL    HW219755   6.946   3.458   4.453
 6286SOL     OW19756   6.310   2.101   4.061
 6286SOL    HW119757   6.227   2.152   4.038
 6286SOL    HW219758   6.389   2.145   4.016
 6287SOL     OW19759   3.406   4.928   4.695
 6287SOL    HW119760   3.386   4.965   4.604
 6287SOL    HW219761   3.321   4.916   4.745
 6288SOL     OW19762   4.833   4.434   2.436
 6288SOL    HW119763   4.887   4.369   2.382
 6288SOL    HW219764   4.861   4.527   2.412
 6289SOL     OW19765   2.596   4.616   7.003
 6289SOL    HW119766   2.573   4.519   6.997
 6289SOL    HW219767   2.694   4.627   7.018
 6290SOL     OW19768   6.037   5.061   5.950
 6290SOL    HW119769   5.999   5.152   5.940
 6290SOL    HW219770   6.084   5.035   5.865
 6291SOL     OW19771   3.784   3.354   3.957
 6291SOL    HW119772   3.771   3.407   3.873
 6291SOL    HW219773   3.719   3.386   4.027
 6292SOL     OW19774   1.665   2.110   4.725
 6292SOL    HW119775   1.623   2.039   4.669
 6292SOL    HW219776   1.764   2.096   4.728
 6293SOL     OW19777   4.565   1.388   1.044
 6293SOL    HW119778   4.562   1.291   1.070
 6293SOL    HW219779   4.482   1.433   1.077
 6294SOL     OW19780   3.917   0.094   4.516
 6294SOL    HW119781   3.967   0.146   4.447
 6294SOL    HW219782   3.980   0.031   4.562
 6295SOL     OW19783   5.325   4.534   4.765
 6295SOL    HW119784   5.288   4.534   4.672
 6295SOL    HW219785   5.419   4.500   4.764
 6296SOL     OW19786   6.708   5.907   5.586
 6296SOL    HW119787   6.729   5.935   5.679
 6296SOL    HW219788   6.769   5.954   5.522
 6297SOL     OW19789   5.349   0.540   5.175
 6297SOL    HW119790   5.365   0.629   5.133
 6297SOL    HW219791   5.273   0.494   5.128
 6298SOL     OW19792   1.400   3.597   0.238
 6298SOL    HW119793   1.327   3.542   0.199
 6298SOL    HW219794   1.374   3.694   0.235
 6299SOL     OW19795   6.296   2.062   2.108
 6299SOL    HW119796   6.365   2.059   2.036
 6299SOL    HW219797   6.207   2.086   2.067
 6300SOL     OW19798   0.016   1.737   7.019
 6300SOL    HW119799   0.011   1.800   6.941
 6300SOL    HW219800   0.072   1.658   6.994
 6301SOL     OW19801   3.347   0.263   6.949
 6301SOL    HW119802   3.374   0.258   6.853
 6301SOL    HW219803   3.398   0.337   6.994
 6302SOL     OW19804   1.497   1.221   3.890
 6302SOL    HW119805   1.447   1.178   3.965
 6302SOL    HW219806   1.565   1.157   3.854
 6303SOL     OW19807   1.011   0.891   4.753
 6303SOL    HW119808   1.016   0.806   4.702
 6303SOL    HW219809   0.999   0.967   4.690
 6304SOL     OW19810   2.612   0.872   1.331
 6304SOL    HW119811   2.576   0.886   1.423
 6304SOL    HW219812   2.601   0.956   1.278
 6305SOL     OW19813   6.002   6.745   0.669
 6305SOL    HW119814   6.100   6.726   0.660
 6305SOL    HW219815   5.962   6.757   0.579
 6306SOL     OW19816   0.085   4.058   4.564
 6306SOL    HW119817   0.118   4.151   4.546
 6306SOL    HW219818   0.147   4.012   4.628
 6307SOL     OW19819   3.529   4.180   4.660
 6307SOL    HW119820   3.473   4.098   4.653
 6307SOL    HW219821   3.625   4.154   4.675
 6308SOL     OW19822   2.259   2.433   4.133
 6308SOL    HW119823   2.272   2.505   4.064
 6308SOL    HW219824   2.313   2.455   4.214
 6309SOL     OW19825   6.129   5.349   4.625
 6309SOL    HW119826   6.030   5.345   4.637
 6309SOL    HW219827   6.154   5.300   4.541
 6310SOL     OW19828   2.032   5.919   2.517
 6310SOL    HW119829   2.119   5.964   2.495
 6310SOL    HW219830   1.958   5.963   2.465
 6311SOL     OW19831   5.669   1.595   5.706
 6311SOL    HW119832   5.706   1.593   5.799
 6311SOL    HW219833   5.656   1.501   5.673
 6312SOL     OW19834   0.116   6.470   5.494
 6312SOL    HW119835   0.150   6.558   5.526
 6312SOL    HW219836   0.026   6.453   5.534
 6313SOL     OW19837   0.238   6.108   3.876
 6313SOL    HW119838   0.330   6.104   3.837
 6313SOL    HW219839   0.243   6.093   3.975
 6314SOL     OW19840   4.130   0.074   1.719
 6314SOL    HW119841   4.046   0.111   1.680
 6314SOL    HW219842   4.125   0.079   1.819
 6315SOL     OW19843   2.809   2.106   5.669
 6315SOL    HW119844   2.748   2.171   5.714
 6315SOL    HW219845   2.898   2.148   5.655
 6316SOL     OW19846   5.513   2.112   6.545
 6316SOL    HW119847   5.568   2.135   6.626
 6316SOL    HW219848   5.483   2.196   6.501
 6317SOL     OW19849   4.959   4.826   1.687
 6317SOL    HW119850   4.936   4.765   1.611
 6317SOL    HW219851   4.992   4.913   1.651
 6318SOL     OW19852   4.283   0.359   5.849
 6318SOL    HW119853   4.370   0.402   5.871
 6318SOL    HW219854   4.291   0.310   5.762
 6319SOL     OW19855   6.244   1.836   5.012
 6319SOL    HW119856   6.294   1.869   5.092
 6319SOL    HW219857   6.260   1.738   5.001
 6320SOL     OW19858   6.243   6.184   5.169
 6320SOL    HW119859   6.301   6.143   5.099
 6320SOL    HW219860   6.207   6.271   5.136
 6321SOL     OW19861   4.169   3.493   1.035
 6321SOL    HW119862   4.163   3.441   1.120
 6321SOL    HW219863   4.198   3.433   0.961
 6322SOL     OW19864   1.331   2.651   0.691
 6322SOL    HW119865   1.363   2.742   0.716
 6322SOL    HW219866   1.241   2.634   0.731
 6323SOL     OW19867   2.241   2.025   1.331
 6323SOL    HW119868   2.274   2.117   1.354
 6323SOL    HW219869   2.279   1.958   1.395
 6324SOL     OW19870   4.951   1.215   0.685
 6324SOL    HW119871   4.911   1.291   0.736
 6324SOL    HW219872   4.926   1.222   0.589
 6325SOL     OW19873   1.744   3.204   2.664
 6325SOL    HW119874   1.686   3.146   2.607
 6325SOL    HW219875   1.700   3.294   2.675
 6326SOL     OW19876   5.112   4.852   1.421
 6326SOL    HW119877   5.166   4.926   1.380
 6326SOL    HW219878   5.027   4.841   1.370
 6327SOL     OW19879   0.532   1.193   5.004
 6327SOL    HW119880   0.593   1.161   4.931
 6327SOL    HW219881   0.499   1.114   5.056
 6328SOL     OW19882   3.729   3.661   0.348
 6328SOL    HW119883   3.722   3.649   0.249
 6328SOL    HW219884   3.713   3.757   0.372
 6329SOL     OW19885   1.662   2.642   3.405
 6329SOL    HW119886   1.588   2.600   3.353
 6329SOL    HW219887   1.643   2.740   3.418
 6330SOL     OW19888   5.825   0.196   1.730
 6330SOL    HW119889   5.909   0.248   1.747
 6330SOL    HW219890   5.797   0.208   1.634
 6331SOL     OW19891   6.544   3.062   5.161
 6331SOL    HW119892   6.603   3.061   5.081
 6331SOL    HW219893   6.475   2.990   5.152
 6332SOL     OW19894   0.414   2.857   1.097
 6332SOL    HW119895   0.378   2.802   1.021
 6332SOL    HW219896   0.500   2.816   1.129
 6333SOL     OW19897   4.684   6.864   5.288
 6333SOL    HW119898   4.706   6.932   5.217
 6333SOL    HW219899   4.587   6.839   5.281
 6334SOL     OW19900   2.599   1.205   2.480
 6334SOL    HW119901   2.649   1.239   2.401
 6334SOL    HW219902   2.541   1.278   2.517
 6335SOL     OW19903   4.459   0.939   0.795
 6335SOL    HW119904   4.410   1.025   0.808
 6335SOL    HW219905   4.448   0.908   0.700
 6336SOL     OW19906   1.649   2.413   6.997
 6336SOL    HW119907   1.677   2.333   0.027
 6336SOL    HW219908   1.694   2.411   6.908
 6337SOL     OW19909   4.876   5.119   5.404
 6337SOL    HW119910   4.860   5.216   5.386
 6337SOL    HW219911   4.822   5.091   5.484
 6338SOL     OW19912   3.145   2.197   3.609
 6338SOL    HW119913   3.163   2.294   3.626
 6338SOL    HW219914   3.221   2.142   3.644
 6339SOL     OW19915   0.779   4.128   3.799
 6339SOL    HW119916   0.829   4.098   3.718
 6339SOL    HW219917   0.686   4.154   3.773
 6340SOL     OW19918   1.556   5.177   1.707
 6340SOL    HW119919   1.653   5.203   1.713
 6340SOL    HW219920   1.500   5.259   1.715
 6341SOL     OW19921   6.541   3.982   4.422
 6341SOL    HW119922   6.448   4.017   4.433
 6341SOL    HW219923   6.601   4.025   4.491
 6342SOL     OW19924   2.577   0.950   1.793
 6342SOL    HW119925   2.566   1.047   1.774
 6342SOL    HW219926   2.527   0.896   1.725
 6343SOL     OW19927   4.594   1.052   6.140
 6343SOL    HW119928   4.574   1.148   6.119
 6343SOL    HW219929   4.625   1.045   6.235
 6344SOL     OW19930   4.887   1.976   4.476
 6344SOL    HW119931   4.814   2.035   4.442
 6344SOL    HW219932   4.975   2.022   4.467
 6345SOL     OW19933   5.757   2.586   2.589
 6345SOL    HW119934   5.776   2.563   2.493
 6345SOL    HW219935   5.688   2.658   2.592
 6346SOL     OW19936   6.830   5.484   4.274
 6346SOL    HW119937   6.844   5.483   4.373
 6346SOL    HW219938   6.912   5.452   4.228
 6347SOL     OW19939   2.275   0.550   1.034
 6347SOL    HW119940   2.356   0.507   0.994
 6347SOL    HW219941   2.256   0.636   0.987
 6348SOL     OW19942   1.680   2.820   6.006
 6348SOL    HW119943   1.732   2.765   5.941
 6348SOL    HW219944   1.741   2.857   6.076
 6349SOL     OW19945   1.888   0.275   1.144
 6349SOL    HW119946   1.922   0.247   1.234
 6349SOL    HW219947   1.789   0.259   1.140
 6350SOL     OW19948   0.714   5.244   4.174
 6350SOL    HW119949   0.773   5.250   4.093
 6350SOL    HW219950   0.769   5.258   4.256
 6351SOL     OW19951   6.029   3.264   3.913
 6351SOL    HW119952   6.054   3.209   3.992
 6351SOL    HW219953   6.109   3.276   3.854
 6352SOL     OW19954   3.172   6.632   4.593
 6352SOL    HW119955   3.191   6.702   4.525
 6352SOL    HW219956   3.115   6.671   4.665
 6353SOL     OW19957   0.936   6.495   6.136
 6353SOL    HW119958   0.871   6.434   6.181
 6353SOL    HW219959   0.954   6.461   6.043
 6354SOL     OW19960   2.774   5.095   3.496
 6354SOL    HW119961   2.745   5.111   3.590
 6354SOL    HW219962   2.807   5.001   3.486
 6355SOL     OW19963   2.096   5.219   6.812
 6355SOL    HW119964   2.127   5.179   6.898
 6355SOL    HW219965   2.174   5.254   6.761
 6356SOL     OW19966   4.447   6.055   1.826
 6356SOL    HW119967   4.499   6.076   1.909
 6356SOL    HW219968   4.386   5.978   1.844
 6357SOL     OW19969   6.477   3.460   2.795
 6357SOL    HW119970   6.386   3.485   2.827
 6357SOL    HW219971   6.541   3.535   2.814
 6358SOL     OW19972   0.082   2.342   6.603
 6358SOL    HW119973   0.055   2.252   6.568
 6358SOL    HW219974   0.010   2.408   6.585
 6359SOL     OW19975   6.190   0.621   0.595
 6359SOL    HW119976   6.178   0.524   0.575
 6359SOL    HW219977   6.115   0.673   0.553
 6360SOL     OW19978   1.120   4.097   4.972
 6360SOL    HW119979   1.170   4.183   4.955
 6360SOL    HW219980   1.146   4.061   5.062
 6361SOL     OW19981   1.329   6.842   0.971
 6361SOL    HW119982   1.420   6.839   0.931
 6361SOL    HW219983   1.325   6.781   1.050
 6362SOL     OW19984   0.318   5.528   0.008
 6362SOL    HW119985   0.312   5.505   6.933
 6362SOL    HW219986   0.411   5.558   0.029
 6363SOL     OW19987   2.410   5.525   3.752
 6363SOL    HW119988   2.430   5.620   3.727
 6363SOL    HW219989   2.434   5.510   3.847
 6364SOL     OW19990   2.398   1.701   5.481
 6364SOL    HW119991   2.428   1.785   5.435
 6364SOL    HW219992   2.301   1.707   5.501
 6365SOL     OW19993   5.239   0.139   4.047
 6365SOL    HW119994   5.143   0.167   4.044
 6365SOL    HW219995   5.292   0.207   4.098
 6366SOL     OW19996   0.658   5.677   5.185
 6366SOL    HW119997   0.594   5.691   5.260
 6366SOL    HW219998   0.746   5.645   5.221
 6367SOL     OW19999   3.938   1.307   4.395
 6367SOL    HW120000   3.868   1.378   4.393
 6367SOL    HW220001   4.018   1.338   4.344
 6368SOL     OW20002   3.584   4.914   3.661
 6368SOL    HW120003   3.577   5.008   3.627
 6368SOL    HW220004   3.557   4.850   3.588
 6369SOL     OW20005   2.630   6.832   4.756
 6369SOL    HW120006   2.631   6.755   4.692
 6369SOL    HW220007   2.556   6.895   4.730
 6370SOL     OW20008   0.076   2.844   3.371
 6370SOL    HW120009   0.089   2.918   3.437
 6370SOL    HW220010   7.017   2.863   3.316
 6371SOL     OW20011   5.390   4.868   3.017
 6371SOL    HW120012   5.455   4.919   2.961
 6371SOL    HW220013   5.297   4.897   2.994
 6372SOL     OW20014   2.010   1.359   1.284
 6372SOL    HW120015   1.935   1.424   1.293
 6372SOL    HW220016   2.092   1.407   1.252
 6373SOL     OW20017   4.348   4.597   2.374
 6373SOL    HW120018   4.286   4.626   2.301
 6373SOL    HW220019   4.414   4.531   2.337
 6374SOL     OW20020   4.168   3.482   2.994
 6374SOL    HW120021   4.238   3.531   2.943
 6374SOL    HW220022   4.131   3.408   2.938
 6375SOL     OW20023   0.025   1.837   3.127
 6375SOL    HW120024   0.055   1.915   3.074
 6375SOL    HW220025   6.975   1.789   3.079
 6376SOL     OW20026   5.151   2.649   5.393
 6376SOL    HW120027   5.217   2.689   5.329
 6376SOL    HW220028   5.114   2.565   5.353
 6377SOL     OW20029   0.111   1.216   5.258
 6377SOL    HW120030   0.083   1.122   5.241
 6377SOL    HW220031   0.103   1.236   5.356
 6378SOL     OW20032   4.601   4.424   3.681
 6378SOL    HW120033   4.648   4.495   3.734
 6378SOL    HW220034   4.518   4.463   3.640
 6379SOL     OW20035   1.591   4.186   4.939
 6379SOL    HW120036   1.682   4.199   4.980
 6379SOL    HW220037   1.597   4.202   4.840
 6380SOL     OW20038   0.283   1.538   5.080
 6380SOL    HW120039   0.282   1.638   5.081
 6380SOL    HW220040   0.363   1.504   5.130
 6381SOL     OW20041   3.828   2.927   1.266
 6381SOL    HW120042   3.807   2.830   1.279
 6381SOL    HW220043   3.858   2.943   1.172
 6382SOL     OW20044   2.852   1.695   0.803
 6382SOL    HW120045   2.850   1.760   0.727
 6382SOL    HW220046   2.787   1.621   0.786
 6383SOL     OW20047   2.355   2.580   2.967
 6383SOL    HW120048   2.270   2.628   2.992
 6383SOL    HW220049   2.366   2.584   2.867
 6384SOL     OW20050   6.232   3.838   3.065
 6384SOL    HW120051   6.316   3.871   3.021
 6384SOL    HW220052   6.191   3.912   3.118
 6385SOL     OW20053   0.063   3.667   3.388
 6385SOL    HW120054   0.026   3.656   3.481
 6385SOL    HW220055   0.161   3.688   3.394
 6386SOL     OW20056   2.419   3.662   6.362
 6386SOL    HW120057   2.397   3.645   6.266
 6386SOL    HW220058   2.516   3.642   6.378
 6387SOL     OW20059   6.761   2.134   6.261
 6387SOL    HW120060   6.754   2.162   6.356
 6387SOL    HW220061   6.729   2.040   6.251
 6388SOL     OW20062   4.133   6.543   1.656
 6388SOL    HW120063   4.107   6.551   1.753
 6388SOL    HW220064   4.228   6.572   1.645
 6389SOL     OW20065   0.073   5.832   1.672
 6389SOL    HW120066   0.036   5.742   1.650
 6389SOL    HW220067   0.039   5.900   1.607
 6390SOL     OW20068   0.508   0.658   5.920
 6390SOL    HW120069   0.555   0.584   5.968
 6390SOL    HW220070   0.442   0.701   5.981
 6391SOL     OW20071   1.891   0.166   6.081
 6391SOL    HW120072   1.986   0.196   6.084
 6391SOL    HW220073   1.869   0.131   5.990
 6392SOL     OW20074   2.723   5.586   2.982
 6392SOL    HW120075   2.809   5.601   3.030
 6392SOL    HW220076   2.677   5.674   2.966
 6393SOL     OW20077   0.513   6.000   1.565
 6393SOL    HW120078   0.461   5.925   1.607
 6393SOL    HW220079   0.450   6.058   1.513
 6394SOL     OW20080   2.418   5.234   0.469
 6394SOL    HW120081   2.422   5.261   0.373
 6394SOL    HW220082   2.340   5.173   0.483
 6395SOL     OW20083   0.121   2.731   1.316
 6395SOL    HW120084   0.179   2.811   1.299
 6395SOL    HW220085   0.075   2.706   1.231
 6396SOL     OW20086   5.330   3.491   0.045
 6396SOL    HW120087   5.365   3.580   0.074
 6396SOL    HW220088   5.295   3.498   6.975
 6397SOL     OW20089   5.721   1.536   1.261
 6397SOL    HW120090   5.769   1.451   1.241
 6397SOL    HW220091   5.757   1.609   1.203
 6398SOL     OW20092   2.883   6.668   1.594
 6398SOL    HW120093   2.810   6.729   1.622
 6398SOL    HW220094   2.922   6.700   1.508
 6399SOL     OW20095   2.050   6.900   6.853
 6399SOL    HW120096   1.998   6.892   6.768
 6399SOL    HW220097   2.146   6.920   6.833
 6400SOL     OW20098   2.704   5.483   2.022
 6400SOL    HW120099   2.610   5.453   2.009
 6400SOL    HW220100   2.766   5.404   2.018
 6401SOL     OW20101   5.406   6.085   3.566
 6401SOL    HW120102   5.434   6.000   3.521
 6401SOL    HW220103   5.316   6.112   3.533
 6402SOL     OW20104   2.593   2.422   2.971
 6402SOL    HW120105   2.526   2.368   3.021
 6402SOL    HW220106   2.571   2.519   2.982
 6403SOL     OW20107   0.028   5.144   6.196
 6403SOL    HW120108   6.965   5.164   6.149
 6403SOL    HW220109   0.087   5.224   6.192
 6404SOL     OW20110   4.215   0.627   2.732
 6404SOL    HW120111   4.143   0.696   2.733
 6404SOL    HW220112   4.189   0.550   2.790
 6405SOL     OW20113   3.730   0.225   4.096
 6405SOL    HW120114   3.640   0.244   4.057
 6405SOL    HW220115   3.759   0.132   4.072
 6406SOL     OW20116   0.695   3.082   3.049
 6406SOL    HW120117   0.780   3.135   3.053
 6406SOL    HW220118   0.690   3.021   3.128
 6407SOL     OW20119   2.608   6.804   3.872
 6407SOL    HW120120   2.703   6.804   3.841
 6407SOL    HW220121   2.599   6.866   3.950
 6408SOL     OW20122   5.372   1.256   0.377
 6408SOL    HW120123   5.359   1.219   0.285
 6408SOL    HW220124   5.341   1.189   0.444
 6409SOL     OW20125   6.249   4.268   3.786
 6409SOL    HW120126   6.343   4.260   3.819
 6409SOL    HW220127   6.191   4.204   3.837
 6410SOL     OW20128   2.200   1.457   6.200
 6410SOL    HW120129   2.204   1.497   6.292
 6410SOL    HW220130   2.220   1.528   6.132
 6411SOL     OW20131   0.728   2.905   3.270
 6411SOL    HW120132   0.748   2.927   3.366
 6411SOL    HW220133   0.653   2.840   3.266
 6412SOL     OW20134   1.410   2.264   4.839
 6412SOL    HW120135   1.424   2.292   4.934
 6412SOL    HW220136   1.347   2.327   4.794
 6413SOL     OW20137   3.865   4.902   3.562
 6413SOL    HW120138   3.929   4.905   3.639
 6413SOL    HW220139   3.773   4.885   3.597
 6414SOL     OW20140   6.248   0.869   0.153
 6414SOL    HW120141   6.235   0.813   0.235
 6414SOL    HW220142   6.183   0.945   0.153
 6415SOL     OW20143   2.130   3.292   2.921
 6415SOL    HW120144   2.120   3.375   2.975
 6415SOL    HW220145   2.095   3.308   2.829
 6416SOL     OW20146   1.272   0.760   6.739
 6416SOL    HW120147   1.203   0.787   6.673
 6416SOL    HW220148   1.291   0.836   6.801
 6417SOL     OW20149   5.695   4.978   1.004
 6417SOL    HW120150   5.718   4.909   0.936
 6417SOL    HW220151   5.770   5.043   1.012
 6418SOL     OW20152   4.979   3.611   2.453
 6418SOL    HW120153   4.946   3.622   2.547
 6418SOL    HW220154   4.983   3.700   2.408
 6419SOL     OW20155   1.462   4.776   3.119
 6419SOL    HW120156   1.452   4.677   3.128
 6419SOL    HW220157   1.428   4.805   3.030
 6420SOL     OW20158   2.728   6.114   4.117
 6420SOL    HW120159   2.661   6.054   4.161
 6420SOL    HW220160   2.686   6.158   4.038
 6421SOL     OW20161   4.908   6.968   2.737
 6421SOL    HW120162   4.990   7.013   2.772
 6421SOL    HW220163   4.877   7.017   2.655
 6422SOL     OW20164   6.948   1.015   5.146
 6422SOL    HW120165   6.975   1.058   5.060
 6422SOL    HW220166   6.884   1.074   5.195
 6423SOL     OW20167   5.130   5.261   3.281
 6423SOL    HW120168   5.103   5.176   3.237
 6423SOL    HW220169   5.195   5.311   3.223
 6424SOL     OW20170   0.014   5.141   5.380
 6424SOL    HW120171   0.056   5.053   5.359
 6424SOL    HW220172   7.000   5.181   5.296
 6425SOL     OW20173   6.423   5.909   3.237
 6425SOL    HW120174   6.328   5.880   3.246
 6425SOL    HW220175   6.445   5.921   3.140
 6426SOL     OW20176   1.016   5.026   3.093
 6426SOL    HW120177   0.928   5.060   3.058
 6426SOL    HW220178   1.031   5.061   3.185
 6427SOL     OW20179   3.363   3.995   4.574
 6427SOL    HW120180   3.311   3.995   4.488
 6427SOL    HW220181   3.301   4.008   4.651
 6428SOL     OW20182   5.800   3.538   6.294
 6428SOL    HW120183   5.749   3.472   6.349
 6428SOL    HW220184   5.748   3.624   6.289
 6429SOL     OW20185   0.650   2.029   5.870
 6429SOL    HW120186   0.599   2.085   5.936
 6429SOL    HW220187   0.638   1.932   5.893
 6430SOL     OW20188   5.915   1.206   3.460
 6430SOL    HW120189   5.928   1.107   3.455
 6430SOL    HW220190   5.818   1.228   3.456
 6431SOL     OW20191   4.700   6.626   3.965
 6431SOL    HW120192   4.617   6.581   3.995
 6431SOL    HW220193   4.779   6.583   4.008
 6432SOL     OW20194   4.528   4.595   6.323
 6432SOL    HW120195   4.505   4.689   6.299
 6432SOL    HW220196   4.559   4.547   6.241
 6433SOL     OW20197   1.466   5.498   5.751
 6433SOL    HW120198   1.385   5.445   5.725
 6433SOL    HW220199   1.538   5.436   5.781
 6434SOL     OW20200   2.545   5.313   6.185
 6434SOL    HW120201   2.624   5.363   6.222
 6434SOL    HW220202   2.506   5.255   6.257
 6435SOL     OW20203   5.187   6.509   1.181
 6435SOL    HW120204   5.213   6.519   1.085
 6435SOL    HW220205   5.092   6.478   1.187
 6436SOL     OW20206   1.123   2.705   2.786
 6436SOL    HW120207   1.126   2.609   2.815
 6436SOL    HW220208   1.179   2.760   2.848
 6437SOL     OW20209   2.441   1.003   0.543
 6437SOL    HW120210   2.420   0.934   0.474
 6437SOL    HW220211   2.457   0.959   0.631
 6438SOL     OW20212   6.542   4.344   5.263
 6438SOL    HW120213   6.603   4.315   5.189
 6438SOL    HW220214   6.480   4.270   5.286
 6439SOL     OW20215   5.752   1.224   1.737
 6439SOL    HW120216   5.676   1.163   1.716
 6439SOL    HW220217   5.837   1.170   1.743
 6440SOL     OW20218   2.225   1.674   6.065
 6440SOL    HW120219   2.143   1.706   6.018
 6440SOL    HW220220   2.301   1.737   6.046
 6441SOL     OW20221   7.013   6.907   2.090
 6441SOL    HW120222   0.066   6.876   2.032
 6441SOL    HW220223   7.013   7.007   2.094
 6442SOL     OW20224   2.616   1.213   4.143
 6442SOL    HW120225   2.683   1.286   4.133
 6442SOL    HW220226   2.582   1.187   4.052
 6443SOL     OW20227   3.802   2.223   5.383
 6443SOL    HW120228   3.816   2.170   5.466
 6443SOL    HW220229   3.705   2.246   5.375
 6444SOL     OW20230   5.357   3.454   4.657
 6444SOL    HW120231   5.260   3.466   4.680
 6444SOL    HW220232   5.378   3.508   4.575
 6445SOL     OW20233   3.759   3.096   4.841
 6445SOL    HW120234   3.810   3.039   4.777
 6445SOL    HW220235   3.663   3.068   4.840
 6446SOL     OW20236   1.202   1.395   7.006
 6446SOL    HW120237   1.290   1.348   6.994
 6446SOL    HW220238   1.213   1.491   6.979
 6447SOL     OW20239   5.568   4.813   3.536
 6447SOL    HW120240   5.586   4.738   3.472
 6447SOL    HW220241   5.527   4.776   3.619
 6448SOL     OW20242   4.265   5.834   1.819
 6448SOL    HW120243   4.186   5.809   1.875
 6448SOL    HW220244   4.319   5.752   1.798
 6449SOL     OW20245   3.341   6.128   1.104
 6449SOL    HW120246   3.409   6.055   1.102
 6449SOL    HW220247   3.364   6.196   1.034
 6450SOL     OW20248   0.867   3.915   1.230
 6450SOL    HW120249   0.792   3.858   1.263
 6450SOL    HW220250   0.951   3.889   1.277
 6451SOL     OW20251   2.143   0.609   5.164
 6451SOL    HW120252   2.071   0.554   5.121
 6451SOL    HW220253   2.220   0.550   5.187
 6452SOL     OW20254   4.742   5.032   3.054
 6452SOL    HW120255   4.724   5.073   3.143
 6452SOL    HW220256   4.713   5.096   2.982
 6453SOL     OW20257   2.577   6.437   2.055
 6453SOL    HW120258   2.539   6.385   2.131
 6453SOL    HW220259   2.656   6.389   2.018
 6454SOL     OW20260   0.628   2.304   3.075
 6454SOL    HW120261   0.695   2.370   3.109
 6454SOL    HW220262   0.672   2.244   3.007
 6455SOL     OW20263   6.990   3.425   4.139
 6455SOL    HW120264   6.988   3.343   4.083
 6455SOL    HW220265   6.999   3.399   4.236
 6456SOL     OW20266   0.989   0.962   3.821
 6456SOL    HW120267   0.974   0.884   3.761
 6456SOL    HW220268   0.943   0.946   3.909
 6457SOL     OW20269   5.230   1.681   1.352
 6457SOL    HW120270   5.153   1.704   1.293
 6457SOL    HW220271   5.300   1.753   1.347
 6458SOL     OW20272   1.133   5.714   4.706
 6458SOL    HW120273   1.038   5.717   4.738
 6458SOL    HW220274   1.165   5.807   4.689
 6459SOL     OW20275   6.341   2.785   1.105
 6459SOL    HW120276   6.387   2.868   1.074
 6459SOL    HW220277   6.300   2.801   1.194
 6460SOL     OW20278   5.534   6.175   6.272
 6460SOL    HW120279   5.514   6.133   6.183
 6460SOL    HW220280   5.452   6.221   6.305
 6461SOL     OW20281   2.097   4.223   6.518
 6461SOL    HW120282   2.007   4.186   6.494
 6461SOL    HW220283   2.143   4.160   6.580
 6462SOL     OW20284   2.283   2.788   4.307
 6462SOL    HW120285   2.246   2.827   4.392
 6462SOL    HW220286   2.326   2.701   4.327
 6463SOL     OW20287   6.024   2.409   0.063
 6463SOL    HW120288   6.052   2.455   0.147
 6463SOL    HW220289   5.924   2.400   0.062
 6464SOL     OW20290   1.358   4.920   4.711
 6464SOL    HW120291   1.330   4.827   4.690
 6464SOL    HW220292   1.279   4.972   4.744
 6465SOL     OW20293   6.848   3.026   2.683
 6465SOL    HW120294   6.803   3.111   2.711
 6465SOL    HW220295   6.874   2.974   2.764
 6466SOL     OW20296   0.648   0.898   6.098
 6466SOL    HW120297   0.612   0.971   6.157
 6466SOL    HW220298   0.576   0.864   6.038
 6467SOL     OW20299   4.157   1.373   0.055
 6467SOL    HW120300   4.128   1.468   0.047
 6467SOL    HW220301   4.210   1.362   0.139
 6468SOL     OW20302   2.825   6.760   0.768
 6468SOL    HW120303   2.894   6.759   0.840
 6468SOL    HW220304   2.819   6.852   0.728
 6469SOL     OW20305   4.033   1.875   3.794
 6469SOL    HW120306   4.020   1.830   3.705
 6469SOL    HW220307   4.061   1.970   3.779
 6470SOL     OW20308   5.863   2.862   0.892
 6470SOL    HW120309   5.871   2.762   0.896
 6470SOL    HW220310   5.796   2.887   0.823
 6471SOL     OW20311   0.105   6.380   5.880
 6471SOL    HW120312   0.014   6.404   5.913
 6471SOL    HW220313   0.097   6.315   5.804
 6472SOL     OW20314   0.057   5.898   1.931
 6472SOL    HW120315   0.060   5.872   1.834
 6472SOL    HW220316   0.077   5.818   1.987
 6473SOL     OW20317   2.771   1.838   4.459
 6473SOL    HW120318   2.748   1.927   4.498
 6473SOL    HW220319   2.867   1.818   4.477
 6474SOL     OW20320   3.051   4.874   6.314
 6474SOL    HW120321   3.064   4.971   6.294
 6474SOL    HW220322   3.085   4.854   6.406
 6475SOL     OW20323   6.043   4.939   3.531
 6475SOL    HW120324   6.093   4.924   3.446
 6475SOL    HW220325   6.044   5.036   3.553
 6476SOL     OW20326   4.453   3.644   0.934
 6476SOL    HW120327   4.368   3.610   0.973
 6476SOL    HW220328   4.455   3.744   0.939
 6477SOL     OW20329   5.955   4.591   0.673
 6477SOL    HW120330   6.011   4.674   0.664
 6477SOL    HW220331   6.000   4.528   0.737
 6478SOL     OW20332   3.395   0.475   2.113
 6478SOL    HW120333   3.388   0.395   2.053
 6478SOL    HW220334   3.402   0.558   2.058
 6479SOL     OW20335   4.184   5.208   3.576
 6479SOL    HW120336   4.278   5.242   3.569
 6479SOL    HW220337   4.143   5.205   3.485
 6480SOL     OW20338   3.152   1.006   6.893
 6480SOL    HW120339   3.064   0.959   6.881
 6480SOL    HW220340   3.166   1.071   6.817
 6481SOL     OW20341   3.486   1.994   2.081
 6481SOL    HW120342   3.453   1.998   2.175
 6481SOL    HW220343   3.514   2.085   2.051
 6482SOL     OW20344   6.413   0.882   5.661
 6482SOL    HW120345   6.464   0.811   5.611
 6482SOL    HW220346   6.366   0.840   5.738
 6483SOL     OW20347   1.104   6.905   3.022
 6483SOL    HW120348   1.192   6.952   3.023
 6483SOL    HW220349   1.079   6.883   2.927
 6484SOL     OW20350   3.197   0.274   0.934
 6484SOL    HW120351   3.139   0.319   1.002
 6484SOL    HW220352   3.252   0.203   0.979
 6485SOL     OW20353   2.323   4.714   3.526
 6485SOL    HW120354   2.279   4.653   3.591
 6485SOL    HW220355   2.378   4.781   3.575
 6486SOL     OW20356   1.381   4.093   3.605
 6486SOL    HW120357   1.296   4.126   3.565
 6486SOL    HW220358   1.450   4.166   3.599
 6487SOL     OW20359   0.392   6.326   4.981
 6487SOL    HW120360   0.344   6.322   4.894
 6487SOL    HW220361   0.480   6.279   4.973
 6488SOL     OW20362   3.667   5.945   4.582
 6488SOL    HW120363   3.765   5.960   4.567
 6488SOL    HW220364   3.642   5.976   4.674
 6489SOL     OW20365   2.884   2.911   6.024
 6489SOL    HW120366   2.862   2.906   6.122
 6489SOL    HW220367   2.898   3.006   5.998
 6490SOL     OW20368   3.771   1.114   6.862
 6490SOL    HW120369   3.690   1.075   6.906
 6490SOL    HW220370   3.746   1.200   6.819
 6491SOL     OW20371   3.930   0.882   0.972
 6491SOL    HW120372   3.961   0.793   1.005
 6491SOL    HW220373   3.944   0.888   0.873
 6492SOL     OW20374   4.230   4.705   6.676
 6492SOL    HW120375   4.180   4.740   6.756
 6492SOL    HW220376   4.270   4.617   6.698
 6493SOL     OW20377   1.663   4.105   5.228
 6493SOL    HW120378   1.747   4.083   5.278
 6493SOL    HW220379   1.610   4.172   5.281
 6494SOL     OW20380   6.935   0.368   3.558
 6494SOL    HW120381   7.004   0.407   3.619
 6494SOL    HW220382   6.845   0.406   3.581
 6495SOL     OW20383   6.305   0.390   4.403
 6495SOL    HW120384   6.319   0.477   4.450
 6495SOL    HW220385   6.232   0.339   4.449
 6496SOL     OW20386   6.343   1.289   3.360
 6496SOL    HW120387   6.431   1.325   3.390
 6496SOL    HW220388   6.307   1.349   3.287
 6497SOL     OW20389   0.688   1.509   0.975
 6497SOL    HW120390   0.688   1.609   0.966
 6497SOL    HW220391   0.753   1.483   1.046
 6498SOL     OW20392   1.582   3.553   3.764
 6498SOL    HW120393   1.680   3.537   3.752
 6498SOL    HW220394   1.567   3.641   3.809
 6499SOL     OW20395   5.751   3.100   5.488
 6499SOL    HW120396   5.687   3.094   5.412
 6499SOL    HW220397   5.823   3.031   5.476
 6500SOL     OW20398   6.542   3.601   4.917
 6500SOL    HW120399   6.581   3.635   4.832
 6500SOL    HW220400   6.475   3.667   4.952
 6501SOL     OW20401   7.023   1.807   6.449
 6501SOL    HW120402   0.029   1.793   6.543
 6501SOL    HW220403   0.074   1.785   6.386
 6502SOL     OW20404   6.755   2.405   2.324
 6502SOL    HW120405   6.693   2.373   2.395
 6502SOL    HW220406   6.822   2.468   2.364
 6503SOL     OW20407   5.358   0.991   3.285
 6503SOL    HW120408   5.335   0.924   3.215
 6503SOL    HW220409   5.377   0.945   3.371
 6504SOL     OW20410   4.427   6.723   5.265
 6504SOL    HW120411   4.458   6.701   5.173
 6504SOL    HW220412   4.354   6.661   5.292
 6505SOL     OW20413   5.537   5.742   6.750
 6505SOL    HW120414   5.452   5.694   6.727
 6505SOL    HW220415   5.567   5.715   6.841
 6506SOL     OW20416   6.675   2.575   2.698
 6506SOL    HW120417   6.687   2.671   2.673
 6506SOL    HW220418   6.763   2.536   2.725
 6507SOL     OW20419   1.246   5.365   5.678
 6507SOL    HW120420   1.151   5.336   5.692
 6507SOL    HW220421   1.306   5.309   5.735
 6508SOL     OW20422   1.875   0.933   2.516
 6508SOL    HW120423   1.949   0.987   2.555
 6508SOL    HW220424   1.911   0.846   2.482
 6509SOL     OW20425   3.460   1.381   4.862
 6509SOL    HW120426   3.472   1.399   4.765
 6509SOL    HW220427   3.499   1.291   4.885
 6510SOL     OW20428   6.123   5.662   0.384
 6510SOL    HW120429   6.202   5.621   0.339
 6510SOL    HW220430   6.040   5.613   0.357
 6511SOL     OW20431   4.110   1.814   4.672
 6511SOL    HW120432   4.047   1.879   4.715
 6511SOL    HW220433   4.146   1.751   4.741
 6512SOL     OW20434   3.927   6.795   2.092
 6512SOL    HW120435   3.827   6.795   2.104
 6512SOL    HW220436   3.969   6.847   2.167
 6513SOL     OW20437   2.298   4.828   2.883
 6513SOL    HW120438   2.268   4.889   2.956
 6513SOL    HW220439   2.262   4.860   2.795
 6514SOL     OW20440   6.388   1.087   3.857
 6514SOL    HW120441   6.484   1.110   3.837
 6514SOL    HW220442   6.338   1.170   3.879
 6515SOL     OW20443   0.470   5.119   4.082
 6515SOL    HW120444   0.552   5.170   4.109
 6515SOL    HW220445   0.489   5.021   4.088
 6516SOL     OW20446   0.593   3.393   1.823
 6516SOL    HW120447   0.643   3.344   1.751
 6516SOL    HW220448   0.494   3.383   1.808
 6517SOL     OW20449   6.377   1.099   1.612
 6517SOL    HW120450   6.317   1.060   1.542
 6517SOL    HW220451   6.325   1.114   1.696
 6518SOL     OW20452   0.218   0.970   7.021
 6518SOL    HW120453   0.143   1.035   0.011
 6518SOL    HW220454   0.186   0.892   6.967
 6519SOL     OW20455   0.983   2.643   3.237
 6519SOL    HW120456   1.038   2.644   3.320
 6519SOL    HW220457   0.981   2.735   3.198
 6520SOL     OW20458   5.906   5.343   1.360
 6520SOL    HW120459   5.926   5.366   1.455
 6520SOL    HW220460   5.808   5.324   1.350
 6521SOL     OW20461   1.811   2.866   4.176
 6521SOL    HW120462   1.787   2.940   4.113
 6521SOL    HW220463   1.732   2.807   4.191
 6522SOL     OW20464   3.483   5.355   5.748
 6522SOL    HW120465   3.413   5.295   5.785
 6522SOL    HW220466   3.533   5.307   5.676
 6523SOL     OW20467   3.277   1.915   6.813
 6523SOL    HW120468   3.308   1.867   6.731
 6523SOL    HW220469   3.331   1.884   6.892
 6524SOL     OW20470   3.590   3.434   1.767
 6524SOL    HW120471   3.559   3.401   1.678
 6524SOL    HW220472   3.539   3.516   1.792
 6525SOL     OW20473   2.299   5.179   2.681
 6525SOL    HW120474   2.271   5.083   2.684
 6525SOL    HW220475   2.310   5.213   2.775
 6526SOL     OW20476   2.304   6.973   6.551
 6526SOL    HW120477   2.266   0.035   6.513
 6526SOL    HW220478   2.290   6.972   6.650
 6527SOL     OW20479   0.309   1.802   5.106
 6527SOL    HW120480   0.407   1.820   5.112
 6527SOL    HW220481   0.269   1.860   5.036
 6528SOL     OW20482   6.850   0.850   5.704
 6528SOL    HW120483   6.912   0.887   5.773
 6528SOL    HW220484   6.849   0.750   5.710
 6529SOL     OW20485   1.996   0.555   2.819
 6529SOL    HW120486   2.094   0.561   2.796
 6529SOL    HW220487   1.984   0.493   2.896
 6530SOL     OW20488   0.008   2.715   0.689
 6530SOL    HW120489   7.006   2.622   0.715
 6530SOL    HW220490   6.986   2.780   0.751
 6531SOL     OW20491   5.015   3.062   5.302
 6531SOL    HW120492   5.040   2.988   5.240
 6531SOL    HW220493   5.013   3.149   5.253
 6532SOL     OW20494   6.365   1.222   1.316
 6532SOL    HW120495   6.281   1.182   1.352
 6532SOL    HW220496   6.368   1.207   1.217
 6533SOL     OW20497   4.287   0.012   0.793
 6533SOL    HW120498   4.238   7.001   0.712
 6533SOL    HW220499   4.384   0.021   0.772
 6534SOL     OW20500   4.239   4.751   1.340
 6534SOL    HW120501   4.318   4.777   1.285
 6534SOL    HW220502   4.250   4.658   1.374
 6535SOL     OW20503   6.176   3.895   4.578
 6535SOL    HW120504   6.080   3.914   4.601
 6535SOL    HW220505   6.206   3.813   4.627
 6536SOL     OW20506   0.710   1.055   5.880
 6536SOL    HW120507   0.728   0.977   5.940
 6536SOL    HW220508   0.757   1.135   5.915
 6537SOL     OW20509   6.943   5.506   6.813
 6537SOL    HW120510   6.867   5.446   6.839
 6537SOL    HW220511   6.915   5.601   6.824
 6538SOL     OW20512   2.588   3.858   6.210
 6538SOL    HW120513   2.552   3.769   6.182
 6538SOL    HW220514   2.644   3.847   6.292
 6539SOL     OW20515   4.062   0.769   6.178
 6539SOL    HW120516   4.096   0.837   6.244
 6539SOL    HW220517   4.003   0.815   6.111
 6540SOL     OW20518   4.404   1.958   5.612
 6540SOL    HW120519   4.468   1.964   5.536
 6540SOL    HW220520   4.394   2.048   5.655
 6541SOL     OW20521   4.328   2.342   4.812
 6541SOL    HW120522   4.275   2.265   4.775
 6541SOL    HW220523   4.273   2.389   4.881
 6542SOL     OW20524   6.535   3.067   4.160
 6542SOL    HW120525   6.549   2.969   4.172
 6542SOL    HW220526   6.438   3.089   4.172
 6543SOL     OW20527   5.181   2.546   5.948
 6543SOL    HW120528   5.144   2.602   5.874
 6543SOL    HW220529   5.175   2.596   6.034
 6544SOL     OW20530   1.210   6.202   3.279
 6544SOL    HW120531   1.285   6.137   3.287
 6544SOL    HW220532   1.218   6.252   3.193
 6545SOL     OW20533   4.374   1.645   0.052
 6545SOL    HW120534   4.275   1.658   0.047
 6545SOL    HW220535   4.398   1.559   0.006
 6546SOL     OW20536   3.025   4.237   0.103
 6546SOL    HW120537   3.065   4.146   0.091
 6546SOL    HW220538   3.083   4.306   0.060
 6547SOL     OW20539   4.598   0.951   5.883
 6547SOL    HW120540   4.608   1.008   5.964
 6547SOL    HW220541   4.631   0.858   5.904
 6548SOL     OW20542   0.640   4.254   0.490
 6548SOL    HW120543   0.585   4.200   0.425
 6548SOL    HW220544   0.730   4.212   0.499
 6549SOL     OW20545   5.077   1.122   1.328
 6549SOL    HW120546   5.138   1.054   1.288
 6549SOL    HW220547   5.121   1.212   1.324
 6550SOL     OW20548   0.095   6.491   3.502
 6550SOL    HW120549   0.022   6.474   3.567
 6550SOL    HW220550   0.179   6.447   3.534
 6551SOL     OW20551   1.876   4.683   2.514
 6551SOL    HW120552   1.843   4.705   2.605
 6551SOL    HW220553   1.811   4.716   2.445
 6552SOL     OW20554   1.856   6.913   0.028
 6552SOL    HW120555   1.909   6.909   6.966
 6552SOL    HW220556   1.796   6.993   0.026
 6553SOL     OW20557   6.994   1.812   3.572
 6553SOL    HW120558   0.070   1.797   3.565
 6553SOL    HW220559   6.974   1.909   3.556
 6554SOL     OW20560   0.373   0.420   4.702
 6554SOL    HW120561   0.467   0.386   4.697
 6554SOL    HW220562   0.337   0.429   4.609
 6555SOL     OW20563   5.997   1.910   3.235
 6555SOL    HW120564   5.899   1.891   3.228
 6555SOL    HW220565   6.041   1.837   3.289
 6556SOL     OW20566   5.158   4.685   4.069
 6556SOL    HW120567   5.253   4.661   4.052
 6556SOL    HW220568   5.143   4.698   4.167
 6557SOL     OW20569   3.417   6.668   2.698
 6557SOL    HW120570   3.462   6.685   2.610
 6557SOL    HW220571   3.467   6.598   2.748
 6558SOL     OW20572   6.906   5.217   6.906
 6558SOL    HW120573   6.854   5.152   6.961
 6558SOL    HW220574   6.892   5.199   6.809
 6559SOL     OW20575   0.438   3.162   6.444
 6559SOL    HW120576   0.484   3.120   6.522
 6559SOL    HW220577   0.462   3.113   6.360
 6560SOL     OW20578   4.503   4.979   1.435
 6560SOL    HW120579   4.492   4.939   1.344
 6560SOL    HW220580   4.500   5.079   1.428
 6561SOL     OW20581   3.395   3.793   1.358
 6561SOL    HW120582   3.485   3.805   1.399
 6561SOL    HW220583   3.398   3.718   1.292
 6562SOL     OW20584   5.785   3.488   0.825
 6562SOL    HW120585   5.835   3.485   0.738
 6562SOL    HW220586   5.687   3.485   0.808
 6563SOL     OW20587   5.467   6.381   6.810
 6563SOL    HW120588   5.385   6.437   6.810
 6563SOL    HW220589   5.461   6.313   6.736
 6564SOL     OW20590   6.913   4.247   3.021
 6564SOL    HW120591   6.861   4.171   2.982
 6564SOL    HW220592   6.850   4.308   3.070
 6565SOL     OW20593   5.283   1.825   3.520
 6565SOL    HW120594   5.183   1.832   3.518
 6565SOL    HW220595   5.322   1.894   3.458
 6566SOL     OW20596   3.894   6.272   2.308
 6566SOL    HW120597   3.814   6.285   2.366
 6566SOL    HW220598   3.884   6.188   2.255
 6567SOL     OW20599   4.335   0.813   3.052
 6567SOL    HW120600   4.362   0.795   2.958
 6567SOL    HW220601   4.236   0.804   3.061
 6568SOL     OW20602   3.215   0.764   3.375
 6568SOL    HW120603   3.254   0.684   3.329
 6568SOL    HW220604   3.202   0.744   3.472
 6569SOL     OW20605   2.924   3.508   6.877
 6569SOL    HW120606   2.980   3.510   6.960
 6569SOL    HW220607   2.869   3.424   6.876
 6570SOL     OW20608   3.853   0.514   2.190
 6570SOL    HW120609   3.872   0.599   2.239
 6570SOL    HW220610   3.762   0.519   2.148
 6571SOL     OW20611   3.323   5.290   1.663
 6571SOL    HW120612   3.281   5.304   1.573
 6571SOL    HW220613   3.326   5.192   1.684
 6572SOL     OW20614   6.467   4.736   5.628
 6572SOL    HW120615   6.376   4.726   5.668
 6572SOL    HW220616   6.464   4.799   5.551
 6573SOL     OW20617   1.675   1.842   1.953
 6573SOL    HW120618   1.641   1.751   1.976
 6573SOL    HW220619   1.692   1.894   2.036
 6574SOL     OW20620   2.971   5.680   2.423
 6574SOL    HW120621   3.027   5.760   2.444
 6574SOL    HW220622   2.954   5.628   2.506
 6575SOL     OW20623   0.860   6.788   3.413
 6575SOL    HW120624   0.901   6.737   3.337
 6575SOL    HW220625   0.763   6.765   3.420
 6576SOL     OW20626   2.043   5.962   6.425
 6576SOL    HW120627   2.129   5.998   6.391
 6576SOL    HW220628   2.049   5.862   6.435
 6577SOL     OW20629   0.731   1.245   4.378
 6577SOL    HW120630   0.669   1.322   4.368
 6577SOL    HW220631   0.796   1.245   4.302
 6578SOL     OW20632   1.188   5.298   3.542
 6578SOL    HW120633   1.163   5.239   3.466
 6578SOL    HW220634   1.132   5.380   3.541
 6579SOL     OW20635   6.724   3.682   4.714
 6579SOL    HW120636   6.758   3.588   4.725
 6579SOL    HW220637   6.717   3.704   4.617
 6580SOL     OW20638   0.887   2.608   1.047
 6580SOL    HW120639   0.830   2.526   1.050
 6580SOL    HW220640   0.832   2.688   1.073
 6581SOL     OW20641   3.047   0.591   6.836
 6581SOL    HW120642   3.043   0.496   6.868
 6581SOL    HW220643   3.053   0.592   6.736
 6582SOL     OW20644   1.341   1.157   2.345
 6582SOL    HW120645   1.329   1.236   2.285
 6582SOL    HW220646   1.395   1.087   2.298
 6583SOL     OW20647   4.416   0.957   5.181
 6583SOL    HW120648   4.493   0.895   5.197
 6583SOL    HW220649   4.444   1.027   5.115
 6584SOL     OW20650   4.755   2.667   1.286
 6584SOL    HW120651   4.667   2.656   1.240
 6584SOL    HW220652   4.740   2.686   1.383
 6585SOL     OW20653   5.581   6.808   7.020
 6585SOL    HW120654   5.667   6.785   6.975
 6585SOL    HW220655   5.556   6.735   0.061
 6586SOL     OW20656   0.010   1.563   5.033
 6586SOL    HW120657   0.019   1.597   4.939
 6586SOL    HW220658   0.100   1.537   5.067
 6587SOL     OW20659   1.902   6.264   5.040
 6587SOL    HW120660   1.833   6.275   4.969
 6587SOL    HW220661   1.856   6.253   5.129
 6588SOL     OW20662   0.880   3.413   1.456
 6588SOL    HW120663   0.810   3.371   1.514
 6588SOL    HW220664   0.964   3.424   1.510
 6589SOL     OW20665   5.352   1.156   0.121
 6589SOL    HW120666   5.447   1.127   0.124
 6589SOL    HW220667   5.309   1.120   0.038
 6590SOL     OW20668   0.988   1.062   6.182
 6590SOL    HW120669   1.083   1.034   6.169
 6590SOL    HW220670   0.932   0.981   6.203
 6591SOL     OW20671   5.451   5.615   2.641
 6591SOL    HW120672   5.525   5.675   2.671
 6591SOL    HW220673   5.486   5.523   2.626
 6592SOL     OW20674   5.536   6.927   3.468
 6592SOL    HW120675   5.566   6.873   3.546
 6592SOL    HW220676   5.506   6.867   3.394
 6593SOL     OW20677   2.128   2.110   2.337
 6593SOL    HW120678   2.125   2.204   2.373
 6593SOL    HW220679   2.207   2.100   2.276
 6594SOL     OW20680   3.655   1.841   0.288
 6594SOL    HW120681   3.646   1.795   0.200
 6594SOL    HW220682   3.600   1.924   0.289
 6595SOL     OW20683   0.851   3.643   6.558
 6595SOL    HW120684   0.797   3.616   6.637
 6595SOL    HW220685   0.838   3.740   6.540
 6596SOL     OW20686   3.484   6.283   4.480
 6596SOL    HW120687   3.402   6.333   4.452
 6596SOL    HW220688   3.458   6.204   4.536
 6597SOL     OW20689   1.347   5.387   1.724
 6597SOL    HW120690   1.357   5.479   1.760
 6597SOL    HW220691   1.267   5.343   1.765
 6598SOL     OW20692   1.427   5.993   4.358
 6598SOL    HW120693   1.358   6.059   4.389
 6598SOL    HW220694   1.401   5.959   4.267
 6599SOL     OW20695   4.671   6.576   6.487
 6599SOL    HW120696   4.679   6.521   6.570
 6599SOL    HW220697   4.759   6.579   6.440
 6600SOL     OW20698   4.849   5.003   5.106
 6600SOL    HW120699   4.847   5.013   5.206
 6600SOL    HW220700   4.761   4.969   5.074
 6601SOL     OW20701   1.554   2.145   5.363
 6601SOL    HW120702   1.584   2.222   5.418
 6601SOL    HW220703   1.587   2.156   5.269
 6602SOL     OW20704   1.457   0.889   1.800
 6602SOL    HW120705   1.514   0.919   1.876
 6602SOL    HW220706   1.492   0.803   1.764
 6603SOL     OW20707   6.989   2.683   3.700
 6603SOL    HW120708   6.946   2.764   3.740
 6603SOL    HW220709   0.057   2.670   3.740
 6604SOL     OW20710   1.955   0.303   0.551
 6604SOL    HW120711   1.913   0.253   0.627
 6604SOL    HW220712   2.050   0.276   0.542
 6605SOL     OW20713   5.235   4.260   2.118
 6605SOL    HW120714   5.316   4.319   2.114
 6605SOL    HW220715   5.217   4.223   2.027
 6606SOL     OW20716   6.979   6.127   1.687
 6606SOL    HW120717   0.056   6.118   1.693
 6606SOL    HW220718   6.949   6.105   1.594
 6607SOL     OW20719   1.826   3.549   2.510
 6607SOL    HW120720   1.917   3.539   2.470
 6607SOL    HW220721   1.758   3.512   2.447
 6608SOL     OW20722   5.907   6.410   1.141
 6608SOL    HW120723   5.876   6.430   1.234
 6608SOL    HW220724   5.932   6.495   1.094
 6609SOL     OW20725   4.743   0.547   6.406
 6609SOL    HW120726   4.778   0.453   6.401
 6609SOL    HW220727   4.792   0.597   6.477
 6610SOL     OW20728   2.954   6.666   6.711
 6610SOL    HW120729   2.885   6.612   6.664
 6610SOL    HW220730   2.920   6.758   6.726
 6611SOL     OW20731   4.968   2.441   3.969
 6611SOL    HW120732   4.907   2.519   3.963
 6611SOL    HW220733   4.935   2.368   3.909
 6612SOL     OW20734   5.557   2.449   5.640
 6612SOL    HW120735   5.573   2.543   5.608
 6612SOL    HW220736   5.489   2.450   5.713
 6613SOL     OW20737   6.317   6.632   5.369
 6613SOL    HW120738   6.380   6.701   5.334
 6613SOL    HW220739   6.226   6.645   5.329
 6614SOL     OW20740   5.068   6.458   0.633
 6614SOL    HW120741   5.024   6.420   0.552
 6614SOL    HW220742   4.998   6.474   0.703
 6615SOL     OW20743   1.468   5.598   2.070
 6615SOL    HW120744   1.429   5.663   2.005
 6615SOL    HW220745   1.428   5.612   2.160
 6616SOL     OW20746   4.655   0.754   6.259
 6616SOL    HW120747   4.693   0.677   6.311
 6616SOL    HW220748   4.559   0.738   6.240
 6617SOL     OW20749   4.598   4.930   3.382
 6617SOL    HW120750   4.545   4.903   3.302
 6617SOL    HW220751   4.612   4.851   3.441
 6618SOL     OW20752   0.705   2.750   2.294
 6618SOL    HW120753   0.723   2.652   2.283
 6618SOL    HW220754   0.707   2.773   2.391
 6619SOL     OW20755   6.002   6.363   3.576
 6619SOL    HW120756   6.048   6.419   3.645
 6619SOL    HW220757   6.008   6.267   3.602
 6620SOL     OW20758   2.008   2.926   5.392
 6620SOL    HW120759   2.023   2.906   5.295
 6620SOL    HW220760   2.030   3.022   5.409
 6621SOL     OW20761   3.134   2.872   5.836
 6621SOL    HW120762   3.152   2.971   5.839
 6621SOL    HW220763   3.073   2.852   5.759
 6622SOL     OW20764   5.965   6.671   1.028
 6622SOL    HW120765   6.014   6.605   0.971
 6622SOL    HW220766   5.875   6.690   0.988
 6623SOL     OW20767   2.896   3.133   5.657
 6623SOL    HW120768   2.816   3.077   5.676
 6623SOL    HW220769   2.868   3.229   5.649
 6624SOL     OW20770   0.268   5.009   6.103
 6624SOL    HW120771   0.181   5.049   6.130
 6624SOL    HW220772   0.335   5.082   6.086
 6625SOL     OW20773   5.247   1.908   5.649
 6625SOL    HW120774   5.270   1.870   5.559
 6625SOL    HW220775   5.321   1.967   5.680
 6626SOL     OW20776   4.350   5.050   4.987
 6626SOL    HW120777   4.370   5.115   5.059
 6626SOL    HW220778   4.314   4.965   5.027
 6627SOL     OW20779   2.223   6.146   4.688
 6627SOL    HW120780   2.174   6.074   4.738
 6627SOL    HW220781   2.168   6.229   4.686
 6628SOL     OW20782   4.613   4.938   4.993
 6628SOL    HW120783   4.655   4.929   4.903
 6628SOL    HW220784   4.523   4.981   4.984
 6629SOL     OW20785   4.471   6.127   0.059
 6629SOL    HW120786   4.481   6.040   0.108
 6629SOL    HW220787   4.506   6.117   6.989
 6630SOL     OW20788   4.279   1.722   1.654
 6630SOL    HW120789   4.291   1.637   1.705
 6630SOL    HW220790   4.201   1.713   1.592
 6631SOL     OW20791   2.616   5.400   3.162
 6631SOL    HW120792   2.521   5.432   3.174
 6631SOL    HW220793   2.654   5.440   3.079
 6632SOL     OW20794   0.274   0.123   1.166
 6632SOL    HW120795   0.180   0.103   1.136
 6632SOL    HW220796   0.292   0.080   1.254
 6633SOL     OW20797   1.017   4.575   6.192
 6633SOL    HW120798   0.946   4.620   6.139
 6633SOL    HW220799   1.039   4.486   6.150
 6634SOL     OW20800   5.299   2.318   4.386
 6634SOL    HW120801   5.280   2.399   4.441
 6634SOL    HW220802   5.283   2.340   4.289
 6635SOL     OW20803   4.767   4.773   3.053
 6635SOL    HW120804   4.795   4.708   2.982
 6635SOL    HW220805   4.735   4.857   3.010
 6636SOL     OW20806   5.156   2.007   6.013
 6636SOL    HW120807   5.098   1.930   5.985
 6636SOL    HW220808   5.250   1.990   5.986
 6637SOL     OW20809   1.329   6.837   6.990
 6637SOL    HW120810   1.239   6.836   0.010
 6637SOL    HW220811   1.328   6.779   6.908
 6638SOL     OW20812   3.069   3.952   3.853
 6638SOL    HW120813   3.155   3.974   3.900
 6638SOL    HW220814   3.050   4.022   3.784
 6639SOL     OW20815   5.312   5.084   6.275
 6639SOL    HW120816   5.255   5.076   6.194
 6639SOL    HW220817   5.399   5.127   6.251
 6640SOL     OW20818   1.333   1.690   4.855
 6640SOL    HW120819   1.376   1.688   4.764
 6640SOL    HW220820   1.237   1.717   4.846
 6641SOL     OW20821   1.953   2.286   6.320
 6641SOL    HW120822   1.896   2.216   6.363
 6641SOL    HW220823   2.036   2.243   6.284
 6642SOL     OW20824   2.082   5.698   6.678
 6642SOL    HW120825   2.159   5.730   6.624
 6642SOL    HW220826   2.112   5.680   6.772
 6643SOL     OW20827   6.184   5.079   0.153
 6643SOL    HW120828   6.100   5.069   0.099
 6643SOL    HW220829   6.192   5.174   0.184
 6644SOL     OW20830   2.362   5.693   1.576
 6644SOL    HW120831   2.376   5.630   1.499
 6644SOL    HW220832   2.431   5.677   1.645
 6645SOL     OW20833   6.246   4.897   0.362
 6645SOL    HW120834   6.259   4.808   0.319
 6645SOL    HW220835   6.218   4.964   0.293
 6646SOL     OW20836   4.225   0.884   4.600
 6646SOL    HW120837   4.250   0.793   4.634
 6646SOL    HW220838   4.303   0.925   4.553
 6647SOL     OW20839   4.826   1.384   1.468
 6647SOL    HW120840   4.778   1.305   1.430
 6647SOL    HW220841   4.908   1.353   1.516
 6648SOL     OW20842   4.438   6.568   3.623
 6648SOL    HW120843   4.498   6.488   3.622
 6648SOL    HW220844   4.403   6.582   3.716
 6649SOL     OW20845   5.148   1.100   6.710
 6649SOL    HW120846   5.098   1.181   6.679
 6649SOL    HW220847   5.235   1.128   6.749
 6650SOL     OW20848   4.251   1.532   5.359
 6650SOL    HW120849   4.246   1.628   5.387
 6650SOL    HW220850   4.322   1.485   5.412
 6651SOL     OW20851   2.129   1.704   5.522
 6651SOL    HW120852   2.126   1.795   5.563
 6651SOL    HW220853   2.064   1.700   5.446
 6652SOL     OW20854   1.114   4.280   0.565
 6652SOL    HW120855   1.193   4.307   0.509
 6652SOL    HW220856   1.119   4.326   0.653
 6653SOL     OW20857   3.221   3.757   2.529
 6653SOL    HW120858   3.137   3.720   2.490
 6653SOL    HW220859   3.290   3.685   2.535
 6654SOL     OW20860   1.364   4.925   1.357
 6654SOL    HW120861   1.425   4.940   1.434
 6654SOL    HW220862   1.417   4.895   1.278
 6655SOL     OW20863   1.167   0.122   3.781
 6655SOL    HW120864   1.175   0.220   3.762
 6655SOL    HW220865   1.071   0.096   3.783
 6656SOL     OW20866   5.966   1.798   4.083
 6656SOL    HW120867   6.061   1.801   4.053
 6656SOL    HW220868   5.906   1.805   4.003
 6657SOL     OW20869   5.929   5.294   6.287
 6657SOL    HW120870   5.997   5.252   6.348
 6657SOL    HW220871   5.932   5.393   6.297
 6658SOL     OW20872   6.829   1.340   4.673
 6658SOL    HW120873   6.761   1.389   4.728
 6658SOL    HW220874   6.784   1.303   4.591
 6659SOL     OW20875   1.885   2.693   0.648
 6659SOL    HW120876   1.881   2.774   0.706
 6659SOL    HW220877   1.818   2.702   0.573
 6660SOL     OW20878   0.974   4.735   1.181
 6660SOL    HW120879   0.950   4.729   1.084
 6660SOL    HW220880   1.071   4.717   1.192
 6661SOL     OW20881   1.320   6.222   4.835
 6661SOL    HW120882   1.355   6.207   4.928
 6661SOL    HW220883   1.279   6.138   4.801
 6662SOL     OW20884   1.409   0.279   6.831
 6662SOL    HW120885   1.381   0.202   6.887
 6662SOL    HW220886   1.479   0.250   6.766
 6663SOL     OW20887   6.550   4.882   4.401
 6663SOL    HW120888   6.638   4.931   4.407
 6663SOL    HW220889   6.562   4.801   4.344
 6664SOL     OW20890   1.950   6.449   0.721
 6664SOL    HW120891   2.036   6.429   0.674
 6664SOL    HW220892   1.884   6.484   0.655
 6665SOL     OW20893   2.057   5.796   4.442
 6665SOL    HW120894   2.135   5.743   4.476
 6665SOL    HW220895   1.972   5.751   4.468
 6666SOL     OW20896   6.303   0.265   5.904
 6666SOL    HW120897   6.252   0.198   5.957
 6666SOL    HW220898   6.385   0.223   5.866
 6667SOL     OW20899   6.724   6.027   6.671
 6667SOL    HW120900   6.653   6.068   6.613
 6667SOL    HW220901   6.808   6.081   6.663
 6668SOL     OW20902   6.842   5.194   1.164
 6668SOL    HW120903   6.866   5.111   1.215
 6668SOL    HW220904   6.744   5.195   1.145
 6669SOL     OW20905   1.652   2.614   2.839
 6669SOL    HW120906   1.587   2.546   2.872
 6669SOL    HW220907   1.603   2.694   2.804
 6670SOL     OW20908   3.706   1.668   5.583
 6670SOL    HW120909   3.625   1.680   5.525
 6670SOL    HW220910   3.686   1.603   5.656
 6671SOL     OW20911   5.716   6.503   0.764
 6671SOL    HW120912   5.679   6.474   0.852
 6671SOL    HW220913   5.741   6.600   0.768
 6672SOL     OW20914   6.214   2.599   6.678
 6672SOL    HW120915   6.193   2.647   6.592
 6672SOL    HW220916   6.131   2.590   6.732
 6673SOL     OW20917   4.785   5.275   4.156
 6673SOL    HW120918   4.768   5.180   4.128
 6673SOL    HW220919   4.790   5.280   4.255
 6674SOL     OW20920   0.551   4.454   6.179
 6674SOL    HW120921   0.578   4.363   6.210
 6674SOL    HW220922   0.501   4.446   6.092
 6675SOL     OW20923   4.707   3.492   1.479
 6675SOL    HW120924   4.734   3.469   1.386
 6675SOL    HW220925   4.623   3.443   1.503
 6676SOL     OW20926   0.668   3.745   5.593
 6676SOL    HW120927   0.760   3.706   5.593
 6676SOL    HW220928   0.615   3.704   5.519
 6677SOL     OW20929   1.330   1.484   6.145
 6677SOL    HW120930   1.240   1.519   6.119
 6677SOL    HW220931   1.367   1.538   6.220
 6678SOL     OW20932   3.073   3.174   6.824
 6678SOL    HW120933   3.100   3.080   6.804
 6678SOL    HW220934   3.111   3.236   6.754
 6679SOL     OW20935   3.175   1.018   3.851
 6679SOL    HW120936   3.154   1.033   3.755
 6679SOL    HW220937   3.093   1.033   3.906
 6680SOL     OW20938   4.978   6.601   6.939
 6680SOL    HW120939   4.961   6.582   0.013
 6680SOL    HW220940   4.953   6.522   6.885
 6681SOL     OW20941   3.468   6.118   1.437
 6681SOL    HW120942   3.542   6.152   1.494
 6681SOL    HW220943   3.399   6.189   1.426
 6682SOL     OW20944   0.406   4.541   2.522
 6682SOL    HW120945   0.316   4.499   2.533
 6682SOL    HW220946   0.468   4.476   2.479
 6683SOL     OW20947   5.586   3.106   5.257
 6683SOL    HW120948   5.509   3.169   5.249
 6683SOL    HW220949   5.591   3.050   5.174
 6684SOL     OW20950   3.034   0.407   1.529
 6684SOL    HW120951   3.037   0.384   1.431
 6684SOL    HW220952   3.118   0.375   1.573
 6685SOL     OW20953   6.729   3.537   5.974
 6685SOL    HW120954   6.640   3.516   5.931
 6685SOL    HW220955   6.764   3.455   6.018
 6686SOL     OW20956   5.389   5.975   4.348
 6686SOL    HW120957   5.422   5.954   4.256
 6686SOL    HW220958   5.331   6.056   4.345
 6687SOL     OW20959   1.164   3.421   0.228
 6687SOL    HW120960   1.122   3.499   0.274
 6687SOL    HW220961   1.162   3.341   0.288
 6688SOL     OW20962   6.880   3.921   2.457
 6688SOL    HW120963   6.887   3.888   2.551
 6688SOL    HW220964   6.960   3.892   2.405
 6689SOL     OW20965   4.239   2.908   0.643
 6689SOL    HW120966   4.189   2.916   0.729
 6689SOL    HW220967   4.208   2.979   0.580
 6690SOL     OW20968   1.685   1.643   0.854
 6690SOL    HW120969   1.608   1.607   0.906
 6690SOL    HW220970   1.763   1.658   0.915
 6691SOL     OW20971   2.958   6.577   2.195
 6691SOL    HW120972   2.986   6.621   2.281
 6691SOL    HW220973   3.039   6.553   2.142
 6692SOL     OW20974   3.781   3.647   5.620
 6692SOL    HW120975   3.749   3.552   5.619
 6692SOL    HW220976   3.796   3.678   5.526
 6693SOL     OW20977   4.288   3.410   5.378
 6693SOL    HW120978   4.387   3.421   5.366
 6693SOL    HW220979   4.266   3.313   5.386
 6694SOL     OW20980   3.573   5.567   0.805
 6694SOL    HW120981   3.565   5.516   0.890
 6694SOL    HW220982   3.664   5.608   0.799
 6695SOL     OW20983   2.879   2.019   0.804
 6695SOL    HW120984   2.786   2.004   0.769
 6695SOL    HW220985   2.897   1.954   0.878
 6696SOL     OW20986   2.614   3.161   5.753
 6696SOL    HW120987   2.556   3.152   5.672
 6696SOL    HW220988   2.637   3.257   5.766
 6697SOL     OW20989   4.763   2.610   2.679
 6697SOL    HW120990   4.816   2.537   2.724
 6697SOL    HW220991   4.667   2.583   2.674
 6698SOL     OW20992   2.574   2.607   1.623
 6698SOL    HW120993   2.514   2.685   1.638
 6698SOL    HW220994   2.519   2.525   1.610
 6699SOL     OW20995   2.614   5.740   6.136
 6699SOL    HW120996   2.588   5.823   6.087
 6699SOL    HW220997   2.598   5.660   6.078
 6700SOL     OW20998   0.134   6.373   1.458
 6700SOL    HW120999   0.150   6.406   1.551
 6700SOL    HW221000   0.180   6.286   1.446
 6701SOL     OW21001   5.126   3.768   2.151
 6701SOL    HW121002   5.087   3.683   2.115
 6701SOL    HW221003   5.170   3.818   2.077
 6702SOL     OW21004   3.153   1.961   1.560
 6702SOL    HW121005   3.150   2.000   1.468
 6702SOL    HW221006   3.204   2.022   1.621
 6703SOL     OW21007   6.075   2.198   6.752
 6703SOL    HW121008   6.031   2.117   6.791
 6703SOL    HW221009   6.009   2.273   6.747
 6704SOL     OW21010   3.108   1.696   3.243
 6704SOL    HW121011   3.044   1.623   3.216
 6704SOL    HW221012   3.159   1.725   3.162
 6705SOL     OW21013   0.048   2.832   1.556
 6705SOL    HW121014   6.992   2.786   1.597
 6705SOL    HW221015   0.061   2.799   1.463
 6706SOL     OW21016   1.711   3.786   2.531
 6706SOL    HW121017   1.770   3.707   2.548
 6706SOL    HW221018   1.651   3.768   2.453
 6707SOL     OW21019   6.839   6.056   3.131
 6707SOL    HW121020   6.817   6.129   3.066
 6707SOL    HW221021   6.822   6.087   3.224
 6708SOL     OW21022   6.771   5.554   1.808
 6708SOL    HW121023   6.812   5.627   1.754
 6708SOL    HW221024   6.715   5.495   1.749
 6709SOL     OW21025   2.858   6.158   3.318
 6709SOL    HW121026   2.938   6.108   3.284
 6709SOL    HW221027   2.774   6.115   3.285
 6710SOL     OW21028   3.712   0.553   5.750
 6710SOL    HW121029   3.811   0.539   5.754
 6710SOL    HW221030   3.686   0.585   5.659
 6711SOL     OW21031   4.495   5.399   5.961
 6711SOL    HW121032   4.557   5.327   5.994
 6711SOL    HW221033   4.473   5.461   6.037
 6712SOL     OW21034   5.509   4.171   0.083
 6712SOL    HW121035   5.566   4.239   0.128
 6712SOL    HW221036   5.531   4.080   0.117
 6713SOL     OW21037   2.250   0.136   2.665
 6713SOL    HW121038   2.327   0.133   2.601
 6713SOL    HW221039   2.178   0.074   2.634
 6714SOL     OW21040   6.117   0.939   5.973
 6714SOL    HW121041   6.124   0.907   5.879
 6714SOL    HW221042   6.093   1.036   5.974
 6715SOL     OW21043   0.633   0.003   0.018
 6715SOL    HW121044   0.613   6.931   0.043
 6715SOL    HW221045   0.686   0.046   0.090
 6716SOL     OW21046   0.493   5.723   1.459
 6716SOL    HW121047   0.590   5.749   1.461
 6716SOL    HW221048   0.456   5.740   1.367
 6717SOL     OW21049   3.940   3.411   0.086
 6717SOL    HW121050   3.851   3.410   0.042
 6717SOL    HW221051   3.928   3.411   0.186
 6718SOL     OW21052   5.260   0.553   0.932
 6718SOL    HW121053   5.212   0.521   1.013
 6718SOL    HW221054   5.196   0.561   0.855
 6719SOL     OW21055   2.856   0.527   6.623
 6719SOL    HW121056   2.812   0.603   6.575
 6719SOL    HW221057   2.792   0.490   6.691
 6720SOL     OW21058   1.471   6.765   4.086
 6720SOL    HW121059   1.551   6.813   4.049
 6720SOL    HW221060   1.502   6.689   4.143
 6721SOL     OW21061   6.743   0.557   6.803
 6721SOL    HW121062   6.799   0.567   6.721
 6721SOL    HW221063   6.646   0.560   6.777
 6722SOL     OW21064   6.534   2.821   1.426
 6722SOL    HW121065   6.562   2.838   1.520
 6722SOL    HW221066   6.456   2.880   1.404
 6723SOL     OW21067   2.624   6.132   3.163
 6723SOL    HW121068   2.658   6.223   3.140
 6723SOL    HW221069   2.527   6.139   3.188
 6724SOL     OW21070   1.657   3.372   5.539
 6724SOL    HW121071   1.644   3.273   5.537
 6724SOL    HW221072   1.617   3.409   5.623
 6725SOL     OW21073   0.396   3.570   1.130
 6725SOL    HW121074   0.380   3.664   1.160
 6725SOL    HW221075   0.472   3.530   1.182
 6726SOL     OW21076   0.659   2.022   5.342
 6726SOL    HW121077   0.622   2.114   5.329
 6726SOL    HW221078   0.696   2.014   5.435
 6727SOL     OW21079   6.859   4.315   5.289
 6727SOL    HW121080   6.831   4.284   5.380
 6727SOL    HW221081   6.801   4.391   5.260
 6728SOL     OW21082   3.709   1.719   3.137
 6728SOL    HW121083   3.680   1.696   3.230
 6728SOL    HW221084   3.635   1.699   3.073
 6729SOL     OW21085   6.753   1.034   2.872
 6729SOL    HW121086   6.824   1.045   2.802
 6729SOL    HW221087   6.795   0.998   2.956
 6730SOL     OW21088   2.885   6.889   0.169
 6730SOL    HW121089   2.984   6.887   0.182
 6730SOL    HW221090   2.846   6.965   0.221
 6731SOL     OW21091   0.814   5.748   1.455
 6731SOL    HW121092   0.793   5.675   1.520
 6731SOL    HW221093   0.813   5.711   1.362
 6732SOL     OW21094   5.581   4.502   5.152
 6732SOL    HW121095   5.558   4.589   5.110
 6732SOL    HW221096   5.666   4.467   5.112
 6733SOL     OW21097   4.242   5.550   0.377
 6733SOL    HW121098   4.225   5.617   0.304
 6733SOL    HW221099   4.326   5.574   0.425
 6734SOL     OW21100   6.248   2.347   5.029
 6734SOL    HW121101   6.324   2.299   4.987
 6734SOL    HW221102   6.272   2.371   5.123
 6735SOL     OW21103   6.739   4.320   4.733
 6735SOL    HW121104   6.797   4.367   4.667
 6735SOL    HW221105   6.644   4.326   4.705
 6736SOL     OW21106   3.274   3.739   6.915
 6736SOL    HW121107   3.311   3.831   6.929
 6736SOL    HW221108   3.347   3.679   6.883
 6737SOL     OW21109   1.910   2.413   0.612
 6737SOL    HW121110   1.982   2.387   0.547
 6737SOL    HW221111   1.914   2.511   0.628
 6738SOL     OW21112   1.802   5.522   2.809
 6738SOL    HW121113   1.777   5.534   2.713
 6738SOL    HW221114   1.769   5.434   2.841
 6739SOL     OW21115   3.455   6.000   5.234
 6739SOL    HW121116   3.380   6.067   5.236
 6739SOL    HW221117   3.489   5.985   5.327
 6740SOL     OW21118   2.001   0.361   4.723
 6740SOL    HW121119   2.019   0.446   4.771
 6740SOL    HW221120   1.908   0.363   4.686
 6741SOL     OW21121   4.520   1.106   5.389
 6741SOL    HW121122   4.548   1.040   5.459
 6741SOL    HW221123   4.475   1.057   5.314
 6742SOL     OW21124   6.684   6.009   2.598
 6742SOL    HW121125   6.759   6.055   2.644
 6742SOL    HW221126   6.605   6.070   2.594
 6743SOL     OW21127   3.585   4.775   0.410
 6743SOL    HW121128   3.603   4.868   0.444
 6743SOL    HW221129   3.667   4.719   0.420
 6744SOL     OW21130   6.122   4.168   6.407
 6744SOL    HW121131   6.064   4.093   6.438
 6744SOL    HW221132   6.064   4.246   6.383
 6745SOL     OW21133   6.846   0.172   2.718
 6745SOL    HW121134   6.804   0.261   2.734
 6745SOL    HW221135   6.798   0.103   2.772
 6746SOL     OW21136   0.881   1.000   3.404
 6746SOL    HW121137   0.879   0.985   3.305
 6746SOL    HW221138   0.963   0.958   3.442
 6747SOL     OW21139   5.828   1.098   4.974
 6747SOL    HW121140   5.900   1.164   4.994
 6747SOL    HW221141   5.746   1.147   4.944
 6748SOL     OW21142   1.786   1.101   3.836
 6748SOL    HW121143   1.847   1.152   3.774
 6748SOL    HW221144   1.734   1.034   3.783
 6749SOL     OW21145   2.730   6.745   7.019
 6749SOL    HW121146   2.792   6.801   0.051
 6749SOL    HW221147   2.667   6.696   0.057
 6750SOL     OW21148   4.037   2.144   5.216
 6750SOL    HW121149   4.025   2.155   5.117
 6750SOL    HW221150   3.949   2.159   5.262
 6751SOL     OW21151   4.143   0.319   3.698
 6751SOL    HW121152   4.180   0.396   3.751
 6751SOL    HW221153   4.044   0.317   3.707
 6752SOL     OW21154   0.510   2.584   2.561
 6752SOL    HW121155   0.548   2.493   2.544
 6752SOL    HW221156   0.454   2.582   2.644
 6753SOL     OW21157   4.212   0.904   6.357
 6753SOL    HW121158   4.232   0.977   6.292
 6753SOL    HW221159   4.253   0.926   6.445
 6754SOL     OW21160   0.352   1.753   0.081
 6754SOL    HW121161   0.307   1.664   0.080
 6754SOL    HW221162   0.445   1.743   0.116
 6755SOL     OW21163   3.625   0.542   3.474
 6755SOL    HW121164   3.602   0.573   3.382
 6755SOL    HW221165   3.683   0.611   3.518
 6756SOL     OW21166   3.915   4.953   5.068
 6756SOL    HW121167   3.816   4.946   5.075
 6756SOL    HW221168   3.958   4.892   5.135
 6757SOL     OW21169   4.096   1.103   2.378
 6757SOL    HW121170   4.048   1.058   2.453
 6757SOL    HW221171   4.098   1.041   2.299
 6758SOL     OW21172   6.457   2.312   1.677
 6758SOL    HW121173   6.469   2.401   1.722
 6758SOL    HW221174   6.492   2.240   1.737
 6759SOL     OW21175   0.768   4.438   4.385
 6759SOL    HW121176   0.808   4.464   4.473
 6759SOL    HW221177   0.785   4.341   4.368
 6760SOL     OW21178   6.139   4.426   3.591
 6760SOL    HW121179   6.110   4.404   3.497
 6760SOL    HW221180   6.149   4.342   3.643
 6761SOL     OW21181   6.376   2.424   6.040
 6761SOL    HW121182   6.434   2.504   6.058
 6761SOL    HW221183   6.337   2.392   6.126
 6762SOL     OW21184   0.338   5.318   3.761
 6762SOL    HW121185   0.394   5.397   3.736
 6762SOL    HW221186   0.245   5.331   3.727
 6763SOL     OW21187   0.374   4.719   3.003
 6763SOL    HW121188   0.429   4.801   3.018
 6763SOL    HW221189   0.359   4.673   3.091
 6764SOL     OW21190   2.355   5.026   6.768
 6764SOL    HW121191   2.392   4.960   6.701
 6764SOL    HW221192   2.360   5.118   6.730
 6765SOL     OW21193   5.456   4.284   3.769
 6765SOL    HW121194   5.483   4.340   3.690
 6765SOL    HW221195   5.502   4.318   3.851
 6766SOL     OW21196   5.170   6.830   6.305
 6766SOL    HW121197   5.232   6.767   6.352
 6766SOL    HW221198   5.164   6.916   6.356
 6767SOL     OW21199   1.226   1.866   0.656
 6767SOL    HW121200   1.304   1.876   0.594
 6767SOL    HW221201   1.185   1.776   0.644
 6768SOL     OW21202   0.795   6.312   3.590
 6768SOL    HW121203   0.865   6.241   3.598
 6768SOL    HW221204   0.761   6.336   3.681
 6769SOL     OW21205   2.338   6.990   5.705
 6769SOL    HW121206   2.355   6.909   5.649
 6769SOL    HW221207   2.317   6.962   5.799
 6770SOL     OW21208   4.856   2.048   3.667
 6770SOL    HW121209   4.802   1.976   3.623
 6770SOL    HW221210   4.953   2.022   3.666
 6771SOL     OW21211   3.977   1.015   1.904
 6771SOL    HW121212   3.898   0.977   1.952
 6771SOL    HW221213   4.014   0.947   1.841
 6772SOL     OW21214   4.507   2.144   2.824
 6772SOL    HW121215   4.484   2.238   2.800
 6772SOL    HW221216   4.481   2.126   2.919
 6773SOL     OW21217   0.400   6.275   1.716
 6773SOL    HW121218   0.366   6.368   1.705
 6773SOL    HW221219   0.332   6.220   1.764
 6774SOL     OW21220   1.495   3.299   4.424
 6774SOL    HW121221   1.422   3.304   4.492
 6774SOL    HW221222   1.456   3.284   4.334
 6775SOL     OW21223   1.032   2.209   3.286
 6775SOL    HW121224   0.965   2.247   3.349
 6775SOL    HW221225   0.998   2.123   3.248
 6776SOL     OW21226   4.331   4.355   0.698
 6776SOL    HW121227   4.425   4.357   0.666
 6776SOL    HW221228   4.289   4.267   0.676
 6777SOL     OW21229   4.756   5.711   0.770
 6777SOL    HW121230   4.711   5.797   0.745
 6777SOL    HW221231   4.774   5.710   0.869
 6778SOL     OW21232   6.251   3.943   2.008
 6778SOL    HW121233   6.181   3.904   1.949
 6778SOL    HW221234   6.336   3.891   1.998
 6779SOL     OW21235   5.591   4.331   5.874
 6779SOL    HW121236   5.540   4.375   5.948
 6779SOL    HW221237   5.586   4.388   5.792
 6780SOL     OW21238   0.417   3.143   3.090
 6780SOL    HW121239   0.514   3.166   3.080
 6780SOL    HW221240   0.393   3.072   3.025
 6781SOL     OW21241   6.697   1.663   4.508
 6781SOL    HW121242   6.660   1.574   4.483
 6781SOL    HW221243   6.758   1.696   4.435
 6782SOL     OW21244   0.611   1.096   2.970
 6782SOL    HW121245   0.517   1.065   2.959
 6782SOL    HW221246   0.645   1.131   2.883
 6783SOL     OW21247   1.010   2.553   6.281
 6783SOL    HW121248   1.044   2.602   6.201
 6783SOL    HW221249   1.084   2.501   6.323
 6784SOL     OW21250   2.587   3.804   0.418
 6784SOL    HW121251   2.645   3.835   0.342
 6784SOL    HW221252   2.642   3.797   0.501
 6785SOL     OW21253   5.564   4.750   4.972
 6785SOL    HW121254   5.567   4.686   4.896
 6785SOL    HW221255   5.469   4.779   4.987
 6786SOL     OW21256   0.944   2.421   0.058
 6786SOL    HW121257   0.875   2.425   0.130
 6786SOL    HW221258   1.003   2.501   0.063
 6787SOL     OW21259   3.420   2.612   0.828
 6787SOL    HW121260   3.410   2.693   0.886
 6787SOL    HW221261   3.335   2.595   0.778
 6788SOL     OW21262   0.400   4.483   2.155
 6788SOL    HW121263   0.490   4.448   2.130
 6788SOL    HW221264   0.338   4.406   2.172
 6789SOL     OW21265   0.086   4.268   3.855
 6789SOL    HW121266   0.010   4.214   3.891
 6789SOL    HW221267   0.169   4.213   3.854
 6790SOL     OW21268   0.986   4.028   6.775
 6790SOL    HW121269   1.003   3.930   6.787
 6790SOL    HW221270   1.014   4.077   6.857
 6791SOL     OW21271   4.045   2.122   2.390
 6791SOL    HW121272   4.086   2.204   2.350
 6791SOL    HW221273   3.953   2.109   2.352
 6792SOL     OW21274   5.288   0.326   5.525
 6792SOL    HW121275   5.212   0.295   5.468
 6792SOL    HW221276   5.308   0.422   5.504
 6793SOL     OW21277   3.447   1.025   6.665
 6793SOL    HW121278   3.438   0.926   6.652
 6793SOL    HW221279   3.520   1.059   6.606
 6794SOL     OW21280   5.337   1.413   5.127
 6794SOL    HW121281   5.425   1.418   5.174
 6794SOL    HW221282   5.352   1.424   5.029
 6795SOL     OW21283   1.416   5.533   0.664
 6795SOL    HW121284   1.431   5.632   0.673
 6795SOL    HW221285   1.383   5.513   0.572
 6796SOL     OW21286   6.363   0.188   2.265
 6796SOL    HW121287   6.439   0.185   2.200
 6796SOL    HW221288   6.342   0.095   2.296
 6797SOL     OW21289   6.740   1.976   1.941
 6797SOL    HW121290   6.822   1.933   1.904
 6797SOL    HW221291   6.764   2.035   2.018
 6798SOL     OW21292   6.736   0.038   1.797
 6798SOL    HW121293   6.701   6.978   1.842
 6798SOL    HW221294   6.659   0.091   1.762
 6799SOL     OW21295   6.037   0.307   2.321
 6799SOL    HW121296   6.063   0.212   2.307
 6799SOL    HW221297   5.937   0.316   2.315
 6800SOL     OW21298   2.563   2.485   2.212
 6800SOL    HW121299   2.650   2.533   2.219
 6800SOL    HW221300   2.576   2.398   2.166
 6801SOL     OW21301   1.194   6.711   4.059
 6801SOL    HW121302   1.157   6.758   3.979
 6801SOL    HW221303   1.286   6.746   4.079
 6802SOL     OW21304   3.045   6.272   1.533
 6802SOL    HW121305   3.091   6.334   1.470
 6802SOL    HW221306   2.953   6.306   1.552
 6803SOL     OW21307   4.325   4.416   6.716
 6803SOL    HW121308   4.340   4.373   6.627
 6803SOL    HW221309   4.321   4.345   6.787
 6804SOL     OW21310   4.327   5.104   2.809
 6804SOL    HW121311   4.336   5.009   2.839
 6804SOL    HW221312   4.296   5.160   2.886
 6805SOL     OW21313   0.373   5.254   6.398
 6805SOL    HW121314   0.333   5.335   6.354
 6805SOL    HW221315   0.381   5.181   6.330
 6806SOL     OW21316   6.680   1.026   4.266
 6806SOL    HW121317   6.642   0.966   4.336
 6806SOL    HW221318   6.779   1.014   4.262
 6807SOL     OW21319   3.635   3.590   2.593
 6807SOL    HW121320   3.621   3.629   2.683
 6807SOL    HW221321   3.675   3.499   2.602
 6808SOL     OW21322   6.993   1.448   5.441
 6808SOL    HW121323   6.927   1.449   5.516
 6808SOL    HW221324   6.983   1.531   5.386
 6809SOL     OW21325   6.549   3.431   1.210
 6809SOL    HW121326   6.575   3.343   1.170
 6809SOL    HW221327   6.450   3.443   1.202
 6810SOL     OW21328   2.587   1.207   1.852
 6810SOL    HW121329   2.672   1.226   1.900
 6810SOL    HW221330   2.518   1.175   1.917
 6811SOL     OW21331   6.337   3.549   2.250
 6811SOL    HW121332   6.396   3.477   2.286
 6811SOL    HW221333   6.389   3.634   2.243
 6812SOL     OW21334   3.755   4.139   5.173
 6812SOL    HW121335   3.826   4.068   5.178
 6812SOL    HW221336   3.700   4.126   5.091
 6813SOL     OW21337   5.746   3.113   2.758
 6813SOL    HW121338   5.789   3.183   2.700
 6813SOL    HW221339   5.732   3.149   2.850
 6814SOL     OW21340   4.643   2.113   6.383
 6814SOL    HW121341   4.714   2.158   6.329
 6814SOL    HW221342   4.649   2.143   6.478
 6815SOL     OW21343   2.270   6.527   6.475
 6815SOL    HW121344   2.195   6.564   6.528
 6815SOL    HW221345   2.317   6.601   6.427
 6816SOL     OW21346   6.741   0.990   5.965
 6816SOL    HW121347   6.767   0.904   6.009
 6816SOL    HW221348   6.763   0.986   5.867
 6817SOL     OW21349   2.250   3.000   3.576
 6817SOL    HW121350   2.193   3.082   3.572
 6817SOL    HW221351   2.295   2.995   3.665
 6818SOL     OW21352   1.973   6.762   0.714
 6818SOL    HW121353   2.030   6.756   0.796
 6818SOL    HW221354   1.951   6.670   0.682
 6819SOL     OW21355   4.142   1.548   3.286
 6819SOL    HW121356   4.068   1.614   3.301
 6819SOL    HW221357   4.120   1.462   3.331
 6820SOL     OW21358   1.335   5.990   1.884
 6820SOL    HW121359   1.255   6.014   1.939
 6820SOL    HW221360   1.334   6.040   1.798
 6821SOL     OW21361   4.362   2.713   5.506
 6821SOL    HW121362   4.281   2.654   5.508
 6821SOL    HW221363   4.437   2.667   5.554
 6822SOL     OW21364   5.821   2.427   5.763
 6822SOL    HW121365   5.736   2.439   5.712
 6822SOL    HW221366   5.824   2.334   5.800
 6823SOL     OW21367   6.088   4.238   6.089
 6823SOL    HW121368   6.002   4.288   6.088
 6823SOL    HW221369   6.164   4.302   6.102
 6824SOL     OW21370   1.360   1.549   0.667
 6824SOL    HW121371   1.392   1.485   0.737
 6824SOL    HW221372   1.439   1.589   0.619
 6825SOL     OW21373   6.009   0.638   0.245
 6825SOL    HW121374   6.108   0.632   0.238
 6825SOL    HW221375   5.984   0.676   0.335
 6826SOL     OW21376   1.851   3.499   3.792
 6826SOL    HW121377   1.917   3.574   3.793
 6826SOL    HW221378   1.862   3.443   3.874
 6827SOL     OW21379   5.485   5.317   6.577
 6827SOL    HW121380   5.534   5.325   6.490
 6827SOL    HW221381   5.387   5.324   6.560
 6828SOL     OW21382   3.721   1.825   2.089
 6828SOL    HW121383   3.675   1.914   2.091
 6828SOL    HW221384   3.809   1.832   2.136
 6829SOL     OW21385   5.386   6.329   5.297
 6829SOL    HW121386   5.485   6.323   5.305
 6829SOL    HW221387   5.354   6.414   5.341
 6830SOL     OW21388   5.012   0.455   3.609
 6830SOL    HW121389   5.074   0.418   3.677
 6830SOL    HW221390   4.923   0.411   3.617
 6831SOL     OW21391   1.994   1.331   5.518
 6831SOL    HW121392   2.073   1.370   5.566
 6831SOL    HW221393   1.998   1.356   5.421
 6832SOL     OW21394   2.517   4.125   0.851
 6832SOL    HW121395   2.504   4.209   0.799
 6832SOL    HW221396   2.612   4.096   0.846
 6833SOL     OW21397   2.357   4.505   6.233
 6833SOL    HW121398   2.417   4.486   6.311
 6833SOL    HW221399   2.298   4.582   6.256
 6834SOL     OW21400   6.388   6.940   0.551
 6834SOL    HW121401   6.466   6.881   0.533
 6834SOL    HW221402   6.370   6.997   0.470
 6835SOL     OW21403   3.556   1.361   4.595
 6835SOL    HW121404   3.650   1.388   4.615
 6835SOL    HW221405   3.552   1.262   4.582
 6836SOL     OW21406   2.750   4.317   6.495
 6836SOL    HW121407   2.814   4.242   6.514
 6836SOL    HW221408   2.798   4.404   6.502
 6837SOL     OW21409   0.522   2.120   3.378
 6837SOL    HW121410   0.617   2.091   3.390
 6837SOL    HW221411   0.466   2.080   3.452
 6838SOL     OW21412   2.902   5.095   6.599
 6838SOL    HW121413   3.000   5.089   6.619
 6838SOL    HW221414   2.876   5.021   6.537
 6839SOL     OW21415   5.128   1.130   5.127
 6839SOL    HW121416   5.061   1.056   5.122
 6839SOL    HW221417   5.082   1.217   5.112
 6840SOL     OW21418   3.068   6.516   5.287
 6840SOL    HW121419   2.979   6.471   5.298
 6840SOL    HW221420   3.082   6.538   5.190
 6841SOL     OW21421   3.765   4.824   0.702
 6841SOL    HW121422   3.720   4.735   0.696
 6841SOL    HW221423   3.714   4.891   0.649
 6842SOL     OW21424   2.415   2.645   0.369
 6842SOL    HW121425   2.358   2.685   0.297
 6842SOL    HW221426   2.511   2.669   0.353
 6843SOL     OW21427   5.704   0.027   1.943
 6843SOL    HW121428   5.756   0.084   1.881
 6843SOL    HW221429   5.696   6.958   1.906
 6844SOL     OW21430   5.666   6.759   3.654
 6844SOL    HW121431   5.758   6.789   3.626
 6844SOL    HW221432   5.662   6.659   3.651
 6845SOL     OW21433   5.533   4.513   2.479
 6845SOL    HW121434   5.539   4.574   2.558
 6845SOL    HW221435   5.522   4.419   2.511
 6846SOL     OW21436   4.066   3.132   1.375
 6846SOL    HW121437   4.136   3.176   1.432
 6846SOL    HW221438   4.040   3.195   1.302
 6847SOL     OW21439   6.794   4.500   2.813
 6847SOL    HW121440   6.841   4.539   2.892
 6847SOL    HW221441   6.698   4.526   2.813
 6848SOL     OW21442   3.168   6.325   3.334
 6848SOL    HW121443   3.181   6.265   3.413
 6848SOL    HW221444   3.105   6.282   3.269
 6849SOL     OW21445   3.433   5.483   4.835
 6849SOL    HW121446   3.348   5.508   4.788
 6849SOL    HW221447   3.411   5.442   4.924
 6850SOL     OW21448   5.459   3.570   1.886
 6850SOL    HW121449   5.479   3.601   1.979
 6850SOL    HW221450   5.441   3.471   1.887
 6851SOL     OW21451   1.322   2.870   3.812
 6851SOL    HW121452   1.389   2.882   3.739
 6851SOL    HW221453   1.257   2.798   3.785
 6852SOL     OW21454   1.753   4.663   0.927
 6852SOL    HW121455   1.797   4.737   0.877
 6852SOL    HW221456   1.679   4.624   0.872
 6853SOL     OW21457   6.834   4.107   0.243
 6853SOL    HW121458   6.818   4.033   0.177
 6853SOL    HW221459   6.782   4.188   0.215
 6854SOL     OW21460   5.955   2.193   6.061
 6854SOL    HW121461   6.028   2.246   6.019
 6854SOL    HW221462   5.979   2.096   6.061
 6855SOL     OW21463   2.905   5.836   3.024
 6855SOL    HW121464   2.823   5.893   3.021
 6855SOL    HW221465   2.885   5.750   3.070
 6856SOL     OW21466   5.309   4.516   5.530
 6856SOL    HW121467   5.297   4.455   5.608
 6856SOL    HW221468   5.399   4.501   5.489
 6857SOL     OW21469   2.858   1.593   6.999
 6857SOL    HW121470   2.779   1.636   6.954
 6857SOL    HW221471   2.832   1.503   0.010
 6858SOL     OW21472   3.602   3.499   4.166
 6858SOL    HW121473   3.544   3.517   4.086
 6858SOL    HW221474   3.553   3.529   4.248
 6859SOL     OW21475   1.158   0.232   0.994
 6859SOL    HW121476   1.122   0.159   1.053
 6859SOL    HW221477   1.100   0.313   1.001
 6860SOL     OW21478   5.793   5.633   1.140
 6860SOL    HW121479   5.738   5.645   1.223
 6860SOL    HW221480   5.888   5.618   1.164
 6861SOL     OW21481   5.840   4.202   1.089
 6861SOL    HW121482   5.756   4.152   1.114
 6861SOL    HW221483   5.825   4.300   1.099
 6862SOL     OW21484   2.066   4.680   4.854
 6862SOL    HW121485   2.020   4.766   4.878
 6862SOL    HW221486   2.082   4.626   4.937
 6863SOL     OW21487   6.097   1.515   5.430
 6863SOL    HW121488   6.033   1.576   5.384
 6863SOL    HW221489   6.090   1.527   5.529
 6864SOL     OW21490   3.410   6.079   3.987
 6864SOL    HW121491   3.377   6.165   4.028
 6864SOL    HW221492   3.344   6.049   3.918
 6865SOL     OW21493   0.323   5.805   3.148
 6865SOL    HW121494   0.350   5.900   3.132
 6865SOL    HW221495   0.227   5.801   3.175
 6866SOL     OW21496   6.807   4.702   2.445
 6866SOL    HW121497   6.821   4.650   2.360
 6866SOL    HW221498   6.879   4.680   2.510
 6867SOL     OW21499   1.599   5.189   1.271
 6867SOL    HW121500   1.589   5.287   1.250
 6867SOL    HW221501   1.509   5.147   1.277
 6868SOL     OW21502   1.064   5.232   6.097
 6868SOL    HW121503   1.028   5.247   6.189
 6868SOL    HW221504   1.131   5.158   6.099
 6869SOL     OW21505   5.505   0.730   4.796
 6869SOL    HW121506   5.467   0.680   4.718
 6869SOL    HW221507   5.582   0.679   4.834
 6870SOL     OW21508   6.914   5.138   2.050
 6870SOL    HW121509   6.922   5.073   2.126
 6870SOL    HW221510   6.948   5.228   2.079
 6871SOL     OW21511   6.039   4.262   2.884
 6871SOL    HW121512   5.941   4.266   2.864
 6871SOL    HW221513   6.070   4.167   2.879
 6872SOL     OW21514   0.682   3.323   0.993
 6872SOL    HW121515   0.664   3.226   1.010
 6872SOL    HW221516   0.770   3.334   0.947
 6873SOL     OW21517   6.550   3.889   5.129
 6873SOL    HW121518   6.633   3.942   5.112
 6873SOL    HW221519   6.523   3.898   5.224
 6874SOL     OW21520   1.006   5.351   2.320
 6874SOL    HW121521   0.979   5.410   2.245
 6874SOL    HW221522   1.103   5.328   2.312
 6875SOL     OW21523   1.317   2.572   3.201
 6875SOL    HW121524   1.233   2.625   3.196
 6875SOL    HW221525   1.300   2.479   3.168
 6876SOL     OW21526   4.119   6.441   4.763
 6876SOL    HW121527   4.105   6.390   4.848
 6876SOL    HW221528   4.170   6.385   4.698
 6877SOL     OW21529   2.686   4.172   0.196
 6877SOL    HW121530   2.700   4.086   0.245
 6877SOL    HW221531   2.591   4.178   0.165
 6878SOL     OW21532   3.028   2.240   5.537
 6878SOL    HW121533   3.123   2.212   5.528
 6878SOL    HW221534   2.990   2.259   5.447
 6879SOL     OW21535   1.063   1.982   0.209
 6879SOL    HW121536   1.075   2.075   0.175
 6879SOL    HW221537   1.048   1.920   0.133
 6880SOL     OW21538   1.997   3.660   5.074
 6880SOL    HW121539   2.001   3.759   5.059
 6880SOL    HW221540   2.084   3.627   5.109
 6881SOL     OW21541   0.774   3.867   2.319
 6881SOL    HW121542   0.720   3.927   2.260
 6881SOL    HW221543   0.869   3.869   2.290
 6882SOL     OW21544   3.544   0.201   6.135
 6882SOL    HW121545   3.516   0.295   6.116
 6882SOL    HW221546   3.470   0.139   6.109
 6883SOL     OW21547   4.079   1.588   0.322
 6883SOL    HW121548   4.020   1.663   0.352
 6883SOL    HW221549   4.069   1.576   0.223
 6884SOL     OW21550   1.676   3.943   4.403
 6884SOL    HW121551   1.760   3.920   4.452
 6884SOL    HW221552   1.600   3.950   4.467
 6885SOL     OW21553   3.875   6.133   4.660
 6885SOL    HW121554   3.912   6.060   4.717
 6885SOL    HW221555   3.893   6.113   4.563
 6886SOL     OW21556   6.774   0.768   4.112
 6886SOL    HW121557   6.751   0.745   4.206
 6886SOL    HW221558   6.813   0.860   4.108
 6887SOL     OW21559   5.202   6.737   5.220
 6887SOL    HW121560   5.288   6.785   5.199
 6887SOL    HW221561   5.220   6.666   5.288
 6888SOL     OW21562   5.376   6.397   6.346
 6888SOL    HW121563   5.463   6.445   6.358
 6888SOL    HW221564   5.326   6.436   6.269
 6889SOL     OW21565   1.972   2.553   5.132
 6889SOL    HW121566   2.058   2.603   5.136
 6889SOL    HW221567   1.925   2.559   5.220
 6890SOL     OW21568   3.359   0.113   1.054
 6890SOL    HW121569   3.436   0.148   1.108
 6890SOL    HW221570   3.361   0.013   1.053
 6891SOL     OW21571   2.311   4.775   4.389
 6891SOL    HW121572   2.214   4.757   4.406
 6891SOL    HW221573   2.356   4.690   4.362
 6892SOL     OW21574   3.456   1.565   3.495
 6892SOL    HW121575   3.382   1.596   3.554
 6892SOL    HW221576   3.542   1.565   3.547
 6893SOL     OW21577   5.368   5.393   6.874
 6893SOL    HW121578   5.458   5.366   6.908
 6893SOL    HW221579   5.335   5.325   6.808
 6894SOL     OW21580   6.293   4.586   0.552
 6894SOL    HW121581   6.301   4.534   0.637
 6894SOL    HW221582   6.274   4.682   0.573
 6895SOL     OW21583   2.582   5.613   6.363
 6895SOL    HW121584   2.660   5.550   6.358
 6895SOL    HW221585   2.570   5.656   6.274
 6896SOL     OW21586   1.416   6.719   3.550
 6896SOL    HW121587   1.446   6.714   3.645
 6896SOL    HW221588   1.339   6.657   3.535
 6897SOL     OW21589   2.872   2.982   0.023
 6897SOL    HW121590   2.846   2.940   0.110
 6897SOL    HW221591   2.866   3.082   0.032
 6898SOL     OW21592   3.844   1.320   2.424
 6898SOL    HW121593   3.819   1.255   2.351
 6898SOL    HW221594   3.887   1.401   2.384
 6899SOL     OW21595   5.231   6.595   1.445
 6899SOL    HW121596   5.229   6.549   1.356
 6899SOL    HW221597   5.201   6.689   1.434
 6900SOL     OW21598   6.721   0.126   5.629
 6900SOL    HW121599   6.715   0.125   5.529
 6900SOL    HW221600   6.790   0.192   5.657
 6901SOL     OW21601   0.322   6.749   6.066
 6901SOL    HW121602   0.323   6.678   5.996
 6901SOL    HW221603   0.415   6.763   6.101
 6902SOL     OW21604   5.473   6.833   0.579
 6902SOL    HW121605   5.512   6.922   0.558
 6902SOL    HW221606   5.532   6.761   0.543
 6903SOL     OW21607   3.941   5.372   4.621
 6903SOL    HW121608   3.892   5.406   4.540
 6903SOL    HW221609   3.874   5.351   4.693
 6904SOL     OW21610   6.005   2.037   4.220
 6904SOL    HW121611   5.970   1.949   4.187
 6904SOL    HW221612   6.053   2.023   4.307
 6905SOL     OW21613   6.283   6.542   7.010
 6905SOL    HW121614   6.295   6.557   0.085
 6905SOL    HW221615   6.372   6.541   6.965
 6906SOL     OW21616   4.358   1.285   4.038
 6906SOL    HW121617   4.351   1.223   3.960
 6906SOL    HW221618   4.428   1.354   4.020
 6907SOL     OW21619   5.149   2.187   1.116
 6907SOL    HW121620   5.092   2.268   1.124
 6907SOL    HW221621   5.191   2.168   1.205
 6908SOL     OW21622   1.319   6.132   6.615
 6908SOL    HW121623   1.311   6.077   6.532
 6908SOL    HW221624   1.396   6.099   6.669
 6909SOL     OW21625   6.435   3.971   1.538
 6909SOL    HW121626   6.354   4.029   1.540
 6909SOL    HW221627   6.409   3.875   1.527
 6910SOL     OW21628   0.291   2.403   3.790
 6910SOL    HW121629   0.378   2.388   3.837
 6910SOL    HW221630   0.304   2.391   3.691
 6911SOL     OW21631   4.592   6.334   3.600
 6911SOL    HW121632   4.534   6.263   3.641
 6911SOL    HW221633   4.612   6.309   3.505
 6912SOL     OW21634   3.619   5.009   0.585
 6912SOL    HW121635   3.685   5.072   0.544
 6912SOL    HW221636   3.550   5.060   0.637
 6913SOL     OW21637   5.152   4.714   5.204
 6913SOL    HW121638   5.197   4.663   5.278
 6913SOL    HW221639   5.056   4.687   5.198
 6914SOL     OW21640   5.428   4.327   6.775
 6914SOL    HW121641   5.411   4.240   6.822
 6914SOL    HW221642   5.361   4.340   6.702
 6915SOL     OW21643   6.142   3.938   1.561
 6915SOL    HW121644   6.055   3.969   1.523
 6915SOL    HW221645   6.145   3.959   1.659
 6916SOL     OW21646   6.217   3.799   6.806
 6916SOL    HW121647   6.215   3.868   6.879
 6916SOL    HW221648   6.239   3.843   6.719
 6917SOL     OW21649   2.992   5.599   1.075
 6917SOL    HW121650   2.914   5.647   1.116
 6917SOL    HW221651   3.064   5.589   1.143
 6918SOL     OW21652   0.398   3.254   4.281
 6918SOL    HW121653   0.448   3.235   4.197
 6918SOL    HW221654   0.339   3.334   4.267
 6919SOL     OW21655   0.357   6.647   2.485
 6919SOL    HW121656   0.330   6.679   2.394
 6919SOL    HW221657   0.404   6.721   2.534
 6920SOL     OW21658   4.760   5.366   5.418
 6920SOL    HW121659   4.735   5.337   5.326
 6920SOL    HW221660   4.682   5.356   5.479
 6921SOL     OW21661   5.236   6.197   3.285
 6921SOL    HW121662   5.185   6.172   3.368
 6921SOL    HW221663   5.294   6.121   3.257
 6922SOL     OW21664   2.103   5.570   6.302
 6922SOL    HW121665   2.160   5.627   6.360
 6922SOL    HW221666   2.007   5.598   6.311
 6923SOL     OW21667   4.998   5.026   3.190
 6923SOL    HW121668   4.921   5.010   3.129
 6923SOL    HW221669   4.965   5.057   3.279
 6924SOL     OW21670   1.711   4.374   6.982
 6924SOL    HW121671   1.640   4.444   6.968
 6924SOL    HW221672   1.719   4.319   6.900
 6925SOL     OW21673   3.949   5.955   4.844
 6925SOL    HW121674   3.959   5.862   4.808
 6925SOL    HW221675   4.024   5.975   4.906
 6926SOL     OW21676   2.934   3.641   2.122
 6926SOL    HW121677   2.964   3.733   2.097
 6926SOL    HW221678   2.851   3.618   2.070
 6927SOL     OW21679   5.147   3.227   6.503
 6927SOL    HW121680   5.053   3.209   6.535
 6927SOL    HW221681   5.206   3.150   6.527
 6928SOL     OW21682   5.972   6.325   0.703
 6928SOL    HW121683   5.951   6.263   0.628
 6928SOL    HW221684   5.891   6.381   0.723
 6929SOL     OW21685   5.101   5.360   0.894
 6929SOL    HW121686   5.067   5.276   0.851
 6929SOL    HW221687   5.145   5.417   0.826
 6930SOL     OW21688   0.032   6.913   2.491
 6930SOL    HW121689   7.000   6.987   2.453
 6930SOL    HW221690   0.098   6.950   2.556
 6931SOL     OW21691   1.953   0.666   2.466
 6931SOL    HW121692   2.050   0.653   2.446
 6931SOL    HW221693   1.913   0.580   2.497
 6932SOL     OW21694   3.687   7.020   0.387
 6932SOL    HW121695   3.629   6.939   0.393
 6932SOL    HW221696   3.764   7.011   0.450
 6933SOL     OW21697   2.859   5.947   4.967
 6933SOL    HW121698   2.871   5.856   5.007
 6933SOL    HW221699   2.765   5.977   4.978
 6934SOL     OW21700   5.194   3.932   6.029
 6934SOL    HW121701   5.134   3.988   6.086
 6934SOL    HW221702   5.140   3.887   5.957
 6935SOL     OW21703   4.340   5.741   3.532
 6935SOL    HW121704   4.433   5.765   3.559
 6935SOL    HW221705   4.308   5.663   3.586
 6936SOL     OW21706   6.737   2.415   3.357
 6936SOL    HW121707   6.788   2.489   3.398
 6936SOL    HW221708   6.680   2.450   3.282
 6937SOL     OW21709   0.094   6.126   0.377
 6937SOL    HW121710   0.170   6.175   0.421
 6937SOL    HW221711   0.129   6.042   0.334
 6938SOL     OW21712   5.045   3.758   5.892
 6938SOL    HW121713   5.058   3.729   5.798
 6938SOL    HW221714   4.964   3.712   5.930
 6939SOL     OW21715   0.312   4.650   1.876
 6939SOL    HW121716   0.402   4.684   1.852
 6939SOL    HW221717   0.315   4.550   1.884
 6940SOL     OW21718   4.852   1.256   0.425
 6940SOL    HW121719   4.816   1.164   0.441
 6940SOL    HW221720   4.802   1.299   0.350
 6941SOL     OW21721   3.191   3.031   3.019
 6941SOL    HW121722   3.192   2.978   2.934
 6941SOL    HW221723   3.284   3.052   3.047
 6942SOL     OW21724   6.136   2.380   1.269
 6942SOL    HW121725   6.064   2.447   1.249
 6942SOL    HW221726   6.166   2.391   1.363
 6943SOL     OW21727   4.609   6.064   6.850
 6943SOL    HW121728   4.564   6.012   6.777
 6943SOL    HW221729   4.660   6.141   6.810
 6944SOL     OW21730   1.477   3.429   6.570
 6944SOL    HW121731   1.387   3.423   6.526
 6944SOL    HW221732   1.541   3.367   6.524
 6945SOL     OW21733   6.511   2.998   6.455
 6945SOL    HW121734   6.468   3.075   6.501
 6945SOL    HW221735   6.541   3.026   6.364
 6946SOL     OW21736   6.258   6.422   1.408
 6946SOL    HW121737   6.300   6.475   1.335
 6946SOL    HW221738   6.202   6.483   1.465
 6947SOL     OW21739   3.406   6.478   5.450
 6947SOL    HW121740   3.501   6.500   5.470
 6947SOL    HW221741   3.399   6.387   5.411
 6948SOL     OW21742   6.168   0.265   6.621
 6948SOL    HW121743   6.105   0.213   6.564
 6948SOL    HW221744   6.157   0.363   6.602
 6949SOL     OW21745   5.207   6.829   3.364
 6949SOL    HW121746   5.119   6.781   3.368
 6949SOL    HW221747   5.192   6.927   3.376
 6950SOL     OW21748   2.557   0.572   3.808
 6950SOL    HW121749   2.503   0.568   3.893
 6950SOL    HW221750   2.649   0.538   3.826
 6951SOL     OW21751   6.733   6.221   5.816
 6951SOL    HW121752   6.634   6.232   5.811
 6951SOL    HW221753   6.778   6.289   5.759
 6952SOL     OW21754   0.249   5.625   4.005
 6952SOL    HW121755   0.313   5.676   3.947
 6952SOL    HW221756   0.291   5.539   4.034
 6953SOL     OW21757   4.897   0.108   0.114
 6953SOL    HW121758   4.963   0.099   0.189
 6953SOL    HW221759   4.876   0.205   0.100
 6954SOL     OW21760   0.287   3.345   3.543
 6954SOL    HW121761   0.367   3.354   3.602
 6954SOL    HW221762   0.304   3.274   3.475
 6955SOL     OW21763   6.338   0.695   1.790
 6955SOL    HW121764   6.406   0.692   1.716
 6955SOL    HW221765   6.370   0.640   1.867
 6956SOL     OW21766   4.756   6.845   3.543
 6956SOL    HW121767   4.779   6.852   3.640
 6956SOL    HW221768   4.660   6.820   3.533
 6957SOL     OW21769   6.039   5.372   0.750
 6957SOL    HW121770   6.110   5.352   0.819
 6957SOL    HW221771   6.076   5.354   0.659
 6958SOL     OW21772   3.148   4.141   5.071
 6958SOL    HW121773   3.247   4.130   5.088
 6958SOL    HW221774   3.116   4.226   5.113
 6959SOL     OW21775   1.936   1.628   4.465
 6959SOL    HW121776   1.873   1.619   4.388
 6959SOL    HW221777   1.891   1.596   4.549
 6960SOL     OW21778   1.491   5.841   1.229
 6960SOL    HW121779   1.576   5.828   1.279
 6960SOL    HW221780   1.492   5.784   1.147
 6961SOL     OW21781   6.035   2.321   4.336
 6961SOL    HW121782   5.971   2.245   4.322
 6961SOL    HW221783   5.987   2.407   4.324
 6962SOL     OW21784   5.634   6.268   2.089
 6962SOL    HW121785   5.566   6.203   2.054
 6962SOL    HW221786   5.638   6.261   2.188
 6963SOL     OW21787   6.060   5.585   1.235
 6963SOL    HW121788   6.092   5.490   1.237
 6963SOL    HW221789   6.027   5.611   1.326
 6964SOL     OW21790   3.377   6.627   5.119
 6964SOL    HW121791   3.344   6.638   5.026
 6964SOL    HW221792   3.412   6.534   5.132
 6965SOL     OW21793   0.523   3.090   0.363
 6965SOL    HW121794   0.458   3.114   0.435
 6965SOL    HW221795   0.478   3.098   0.274
 6966SOL     OW21796   6.924   2.083   3.469
 6966SOL    HW121797   6.829   2.055   3.453
 6966SOL    HW221798   6.964   2.116   3.384
 6967SOL     OW21799   1.566   0.204   5.589
 6967SOL    HW121800   1.619   0.266   5.532
 6967SOL    HW221801   1.605   0.112   5.584
 6968SOL     OW21802   4.453   6.560   2.605
 6968SOL    HW121803   4.385   6.591   2.539
 6968SOL    HW221804   4.540   6.544   2.559
 6969SOL     OW21805   2.464   2.569   1.115
 6969SOL    HW121806   2.504   2.492   1.064
 6969SOL    HW221807   2.409   2.534   1.191
 6970SOL     OW21808   2.973   3.998   6.307
 6970SOL    HW121809   2.963   4.085   6.356
 6970SOL    HW221810   2.923   4.003   6.220
 6971SOL     OW21811   6.217   4.397   1.713
 6971SOL    HW121812   6.307   4.353   1.703
 6971SOL    HW221813   6.207   4.468   1.643
 6972SOL     OW21814   5.788   4.984   3.230
 6972SOL    HW121815   5.797   4.942   3.139
 6972SOL    HW221816   5.702   4.954   3.271
 6973SOL     OW21817   0.292   3.250   5.276
 6973SOL    HW121818   0.378   3.296   5.300
 6973SOL    HW221819   0.247   3.219   5.360
 6974SOL     OW21820   3.291   2.975   2.782
 6974SOL    HW121821   3.346   2.899   2.747
 6974SOL    HW221822   3.306   3.056   2.727
 6975SOL     OW21823   2.188   5.653   6.051
 6975SOL    HW121824   2.175   5.618   6.144
 6975SOL    HW221825   2.282   5.636   6.021
 6976SOL     OW21826   4.619   5.895   4.926
 6976SOL    HW121827   4.596   5.905   5.023
 6976SOL    HW221828   4.671   5.976   4.896
 6977SOL     OW21829   4.375   2.574   1.765
 6977SOL    HW121830   4.460   2.603   1.722
 6977SOL    HW221831   4.395   2.530   1.853
 6978SOL     OW21832   4.234   1.720   2.410
 6978SOL    HW121833   4.203   1.631   2.443
 6978SOL    HW221834   4.281   1.709   2.322
 6979SOL     OW21835   1.525   4.523   1.225
 6979SOL    HW121836   1.528   4.440   1.280
 6979SOL    HW221837   1.617   4.559   1.214
 6980SOL     OW21838   1.185   1.113   3.948
 6980SOL    HW121839   1.221   1.053   4.019
 6980SOL    HW221840   1.123   1.061   3.888
 6981SOL     OW21841   3.877   2.859   5.838
 6981SOL    HW121842   3.918   2.874   5.748
 6981SOL    HW221843   3.783   2.827   5.828
 6982SOL     OW21844   1.394   0.429   5.053
 6982SOL    HW121845   1.312   0.426   5.111
 6982SOL    HW221846   1.377   0.379   4.968
 6983SOL     OW21847   4.304   2.376   3.804
 6983SOL    HW121848   4.327   2.345   3.712
 6983SOL    HW221849   4.384   2.420   3.845
 6984SOL     OW21850   2.647   1.425   3.914
 6984SOL    HW121851   2.642   1.403   3.817
 6984SOL    HW221852   2.636   1.523   3.927
 6985SOL     OW21853   4.410   5.263   1.456
 6985SOL    HW121854   4.403   5.308   1.367
 6985SOL    HW221855   4.321   5.225   1.481
 6986SOL     OW21856   1.884   6.458   6.044
 6986SOL    HW121857   1.884   6.363   6.075
 6986SOL    HW221858   1.965   6.505   6.079
 6987SOL     OW21859   0.280   1.543   6.024
 6987SOL    HW121860   0.304   1.479   6.097
 6987SOL    HW221861   0.340   1.623   6.028
 6988SOL     OW21862   0.027   0.809   5.975
 6988SOL    HW121863   7.022   0.746   6.048
 6988SOL    HW221864   0.052   0.897   6.014
 6989SOL     OW21865   0.355   3.829   3.339
 6989SOL    HW121866   0.331   3.733   3.325
 6989SOL    HW221867   0.305   3.865   3.418
 6990SOL     OW21868   5.003   2.607   1.191
 6990SOL    HW121869   4.914   2.629   1.230
 6990SOL    HW221870   5.052   2.546   1.253
 6991SOL     OW21871   3.570   4.915   3.959
 6991SOL    HW121872   3.470   4.916   3.957
 6991SOL    HW221873   3.605   4.921   3.865
 6992SOL     OW21874   5.081   6.196   5.619
 6992SOL    HW121875   5.126   6.227   5.703
 6992SOL    HW221876   5.007   6.133   5.641
 6993SOL     OW21877   6.581   0.709   3.461
 6993SOL    HW121878   6.560   0.668   3.373
 6993SOL    HW221879   6.550   0.804   3.462
 6994SOL     OW21880   0.273   1.763   4.539
 6994SOL    HW121881   0.213   1.840   4.515
 6994SOL    HW221882   0.274   1.697   4.464
 6995SOL     OW21883   6.836   4.523   6.110
 6995SOL    HW121884   6.857   4.620   6.099
 6995SOL    HW221885   6.920   4.469   6.099
 6996SOL     OW21886   2.207   0.501   6.437
 6996SOL    HW121887   2.138   0.569   6.412
 6996SOL    HW221888   2.166   0.432   6.496
 6997SOL     OW21889   5.637   6.028   5.407
 6997SOL    HW121890   5.628   6.116   5.360
 6997SOL    HW221891   5.690   6.039   5.490
 6998SOL     OW21892   1.842   1.815   1.302
 6998SOL    HW121893   1.744   1.834   1.288
 6998SOL    HW221894   1.878   1.879   1.370
 6999SOL     OW21895   2.383   2.999   5.820
 6999SOL    HW121896   2.471   3.044   5.813
 6999SOL    HW221897   2.325   3.049   5.885
 7000SOL     OW21898   6.350   6.258   1.611
 7000SOL    HW121899   6.325   6.317   1.534
 7000SOL    HW221900   6.448   6.240   1.608
 7001SOL     OW21901   2.279   3.014   5.327
 7001SOL    HW121902   2.368   3.011   5.283
 7001SOL    HW221903   2.209   2.981   5.263
 7002SOL     OW21904   2.279   5.158   3.447
 7002SOL    HW121905   2.345   5.108   3.503
 7002SOL    HW221906   2.191   5.110   3.451
 7003SOL     OW21907   3.675   5.562   0.081
 7003SOL    HW121908   3.728   5.487   0.122
 7003SOL    HW221909   3.586   5.527   0.053
 7004SOL     OW21910   1.320   4.431   2.488
 7004SOL    HW121911   1.359   4.375   2.415
 7004SOL    HW221912   1.221   4.439   2.475
 7005SOL     OW21913   1.568   6.889   0.165
 7005SOL    HW121914   1.594   6.956   0.095
 7005SOL    HW221915   1.491   6.834   0.132
 7006SOL     OW21916   4.688   5.042   3.911
 7006SOL    HW121917   4.753   5.006   3.977
 7006SOL    HW221918   4.595   5.027   3.944
 7007SOL     OW21919   4.675   0.166   3.958
 7007SOL    HW121920   4.628   0.107   3.893
 7007SOL    HW221921   4.770   0.179   3.928
 7008SOL     OW21922   1.163   4.355   4.718
 7008SOL    HW121923   1.127   4.269   4.755
 7008SOL    HW221924   1.254   4.371   4.755
 7009SOL     OW21925   6.113   6.264   2.007
 7009SOL    HW121926   6.079   6.187   2.061
 7009SOL    HW221927   6.189   6.308   2.055
 7010SOL     OW21928   5.289   4.717   4.966
 7010SOL    HW121929   5.274   4.641   4.903
 7010SOL    HW221930   5.225   4.710   5.043
 7011SOL     OW21931   4.158   6.810   6.298
 7011SOL    HW121932   4.142   6.909   6.302
 7011SOL    HW221933   4.229   6.785   6.364
 7012SOL     OW21934   1.906   1.852   1.670
 7012SOL    HW121935   1.977   1.807   1.724
 7012SOL    HW221936   1.949   1.912   1.603
 7013SOL     OW21937   0.960   0.471   0.878
 7013SOL    HW121938   0.861   0.479   0.862
 7013SOL    HW221939   1.009   0.523   0.809
 7014SOL     OW21940   3.876   3.292   1.210
 7014SOL    HW121941   3.791   3.287   1.262
 7014SOL    HW221942   3.917   3.382   1.221
 7015SOL     OW21943   5.904   4.177   1.970
 7015SOL    HW121944   6.000   4.159   1.991
 7015SOL    HW221945   5.859   4.217   2.050
 7016SOL     OW21946   3.603   4.763   1.334
 7016SOL    HW121947   3.691   4.773   1.287
 7016SOL    HW221948   3.615   4.781   1.431
 7017SOL     OW21949   2.785   5.934   2.586
 7017SOL    HW121950   2.873   5.921   2.632
 7017SOL    HW221951   2.799   5.986   2.502
 7018SOL     OW21952   6.040   4.083   3.868
 7018SOL    HW121953   5.961   4.140   3.850
 7018SOL    HW221954   6.039   4.054   3.963
 7019SOL     OW21955   2.580   4.336   6.902
 7019SOL    HW121956   2.596   4.249   6.949
 7019SOL    HW221957   2.498   4.329   6.845
 7020SOL     OW21958   6.065   6.666   6.880
 7020SOL    HW121959   6.027   6.620   6.799
 7020SOL    HW221960   6.162   6.647   6.887
 7021SOL     OW21961   1.540   1.318   6.077
 7021SOL    HW121962   1.455   1.358   6.109
 7021SOL    HW221963   1.579   1.261   6.149
 7022SOL     OW21964   4.444   6.309   0.374
 7022SOL    HW121965   4.370   6.293   0.309
 7022SOL    HW221966   4.435   6.399   0.415
 7023SOL     OW21967   0.490   1.591   3.661
 7023SOL    HW121968   0.410   1.603   3.602
 7023SOL    HW221969   0.537   1.507   3.636
 7024SOL     OW21970   2.174   3.880   5.267
 7024SOL    HW121971   2.252   3.911   5.212
 7024SOL    HW221972   2.175   3.780   5.272
 7025SOL     OW21973   2.682   0.836   6.776
 7025SOL    HW121974   2.690   0.745   6.817
 7025SOL    HW221975   2.721   0.903   6.838
 7026SOL     OW21976   3.392   2.281   1.610
 7026SOL    HW121977   3.460   2.313   1.676
 7026SOL    HW221978   3.300   2.299   1.645
 7027SOL     OW21979   2.810   5.196   4.454
 7027SOL    HW121980   2.791   5.218   4.359
 7027SOL    HW221981   2.744   5.242   4.514
 7028SOL     OW21982   4.316   0.746   3.958
 7028SOL    HW121983   4.260   0.822   3.992
 7028SOL    HW221984   4.377   0.715   4.031
 7029SOL     OW21985   5.117   4.714   5.559
 7029SOL    HW121986   5.157   4.806   5.560
 7029SOL    HW221987   5.189   4.647   5.540
 7030SOL     OW21988   1.153   1.294   5.517
 7030SOL    HW121989   1.225   1.364   5.521
 7030SOL    HW221990   1.169   1.226   5.588
 7031SOL     OW21991   2.616   6.314   5.108
 7031SOL    HW121992   2.673   6.268   5.176
 7031SOL    HW221993   2.659   6.400   5.081
 7032SOL     OW21994   3.640   0.780   2.728
 7032SOL    HW121995   3.549   0.757   2.693
 7032SOL    HW221996   3.710   0.735   2.672
 7033SOL     OW21997   1.633   2.380   3.533
 7033SOL    HW121998   1.697   2.321   3.582
 7033SOL    HW221999   1.673   2.470   3.522
 7034SOL     OW22000   5.889   0.672   2.814
 7034SOL    HW122001   5.983   0.686   2.785
 7034SOL    HW222002   5.877   0.576   2.842
 7035SOL     OW22003   1.920   6.605   1.513
 7035SOL    HW122004   2.007   6.556   1.506
 7035SOL    HW222005   1.866   6.568   1.588
 7036SOL     OW22006   0.346   0.647   2.342
 7036SOL    HW122007   0.279   0.645   2.269
 7036SOL    HW222008   0.352   0.739   2.380
 7037SOL     OW22009   1.932   0.896   6.231
 7037SOL    HW122010   1.891   0.806   6.214
 7037SOL    HW222011   1.930   0.949   6.146
 7038SOL     OW22012   1.821   3.190   4.895
 7038SOL    HW122013   1.782   3.132   4.823
 7038SOL    HW222014   1.801   3.286   4.876
 7039SOL     OW22015   2.852   4.536   1.499
 7039SOL    HW122016   2.936   4.530   1.446
 7039SOL    HW222017   2.869   4.587   1.583
 7040SOL     OW22018   6.449   2.259   4.862
 7040SOL    HW122019   6.482   2.202   4.787
 7040SOL    HW222020   6.527   2.296   4.913
 7041SOL     OW22021   0.318   1.602   2.012
 7041SOL    HW122022   0.278   1.676   2.065
 7041SOL    HW222023   0.405   1.632   1.972
 7042SOL     OW22024   5.445   4.863   5.399
 7042SOL    HW122025   5.394   4.891   5.317
 7042SOL    HW222026   5.385   4.867   5.479
 7043SOL     OW22027   1.953   3.574   2.841
 7043SOL    HW122028   1.965   3.640   2.767
 7043SOL    HW222029   1.935   3.483   2.803
 7044SOL     OW22030   4.476   4.540   3.358
 7044SOL    HW122031   4.498   4.619   3.301
 7044SOL    HW222032   4.518   4.458   3.319
 7045SOL     OW22033   5.347   5.032   3.442
 7045SOL    HW122034   5.276   5.101   3.427
 7045SOL    HW222035   5.413   5.067   3.509
 7046SOL     OW22036   3.323   1.786   2.783
 7046SOL    HW122037   3.256   1.786   2.709
 7046SOL    HW222038   3.414   1.805   2.746
 7047SOL     OW22039   0.157   2.628   2.173
 7047SOL    HW122040   0.245   2.621   2.220
 7047SOL    HW222041   0.126   2.537   2.145
 7048SOL     OW22042   6.131   6.243   2.691
 7048SOL    HW122043   6.112   6.324   2.636
 7048SOL    HW222044   6.047   6.214   2.738
 7049SOL     OW22045   3.614   1.728   1.157
 7049SOL    HW122046   3.526   1.696   1.194
 7049SOL    HW222047   3.623   1.826   1.173
 7050SOL     OW22048   4.165   3.753   1.918
 7050SOL    HW122049   4.214   3.825   1.968
 7050SOL    HW222050   4.089   3.719   1.974
 7051SOL     OW22051   6.927   0.244   2.082
 7051SOL    HW122052   6.907   0.208   2.173
 7051SOL    HW222053   6.899   0.340   2.077
 7052SOL     OW22054   5.445   2.382   4.012
 7052SOL    HW122055   5.369   2.421   3.959
 7052SOL    HW222056   5.532   2.408   3.970
 7053SOL     OW22057   0.433   3.136   4.926
 7053SOL    HW122058   0.495   3.116   5.001
 7053SOL    HW222059   0.436   3.062   4.858
 7054SOL     OW22060   0.816   6.800   0.348
 7054SOL    HW122061   0.784   6.772   0.439
 7054SOL    HW222062   0.782   6.735   0.280
 7055SOL     OW22063   2.829   6.734   5.505
 7055SOL    HW122064   2.908   6.795   5.500
 7055SOL    HW222065   2.788   6.741   5.596
 7056SOL     OW22066   6.770   5.616   2.117
 7056SOL    HW122067   6.817   5.618   2.029
 7056SOL    HW222068   6.674   5.639   2.103
 7057SOL     OW22069   1.158   5.322   4.137
 7057SOL    HW122070   1.240   5.328   4.079
 7057SOL    HW222071   1.180   5.272   4.220
 7058SOL     OW22072   6.013   5.332   5.959
 7058SOL    HW122073   6.017   5.419   5.910
 7058SOL    HW222074   5.974   5.346   6.050
 7059SOL     OW22075   6.934   0.960   4.265
 7059SOL    HW122076   6.948   0.912   4.352
 7059SOL    HW222077   7.021   0.999   4.235
 7060SOL     OW22078   4.140   0.054   2.004
 7060SOL    HW122079   4.187   6.988   2.002
 7060SOL    HW222080   4.179   0.111   2.076
 7061SOL     OW22081   1.276   3.070   3.999
 7061SOL    HW122082   1.297   2.986   3.949
 7061SOL    HW222083   1.227   3.134   3.939
 7062SOL     OW22084   4.273   1.252   5.243
 7062SOL    HW122085   4.300   1.209   5.329
 7062SOL    HW222086   4.218   1.333   5.263
 7063SOL     OW22087   1.119   0.219   1.863
 7063SOL    HW122088   1.195   0.194   1.802
 7063SOL    HW222089   1.113   0.318   1.871
 7064SOL     OW22090   3.857   2.213   1.486
 7064SOL    HW122091   3.892   2.121   1.502
 7064SOL    HW222092   3.875   2.270   1.566
 7065SOL     OW22093   3.904   3.888   6.102
 7065SOL    HW122094   3.823   3.947   6.107
 7065SOL    HW222095   3.881   3.804   6.053
 7066SOL     OW22096   4.743   0.452   0.526
 7066SOL    HW122097   4.792   0.529   0.486
 7066SOL    HW222098   4.809   0.389   0.568
 7067SOL     OW22099   2.144   1.895   4.839
 7067SOL    HW122100   2.116   1.862   4.929
 7067SOL    HW222101   2.187   1.820   4.788
 7068SOL     OW22102   0.246   4.038   3.852
 7068SOL    HW122103   0.198   3.950   3.843
 7068SOL    HW222104   0.291   4.043   3.941
 7069SOL     OW22105   5.534   1.207   4.907
 7069SOL    HW122106   5.492   1.298   4.894
 7069SOL    HW222107   5.494   1.143   4.842
 7070SOL     OW22108   6.804   6.175   5.039
 7070SOL    HW122109   6.739   6.150   4.968
 7070SOL    HW222110   6.772   6.257   5.086
 7071SOL     OW22111   2.358   5.841   6.728
 7071SOL    HW122112   2.412   5.764   6.693
 7071SOL    HW222113   2.383   5.859   6.823
 7072SOL     OW22114   1.481   5.900   6.926
 7072SOL    HW122115   1.497   5.844   6.845
 7072SOL    HW222116   1.486   5.996   6.902
 7073SOL     OW22117   5.032   0.071   4.602
 7073SOL    HW122118   4.946   0.057   4.553
 7073SOL    HW222119   5.108   0.071   4.537
 7074SOL     OW22120   4.499   2.553   2.623
 7074SOL    HW122121   4.425   2.517   2.680
 7074SOL    HW222122   4.467   2.561   2.528
 7075SOL     OW22123   1.783   4.474   5.054
 7075SOL    HW122124   1.862   4.501   5.000
 7075SOL    HW222125   1.791   4.377   5.078
 7076SOL     OW22126   5.733   1.762   6.553
 7076SOL    HW122127   5.817   1.722   6.515
 7076SOL    HW222128   5.681   1.806   6.480
 7077SOL     OW22129   2.511   4.573   4.327
 7077SOL    HW122130   2.472   4.504   4.267
 7077SOL    HW222131   2.606   4.589   4.303
 7078SOL     OW22132   0.129   6.732   1.770
 7078SOL    HW122133   0.129   6.765   1.675
 7078SOL    HW222134   0.141   6.810   1.831
 7079SOL     OW22135   6.725   6.333   4.191
 7079SOL    HW122136   6.711   6.323   4.290
 7079SOL    HW222137   6.810   6.383   4.175
 7080SOL     OW22138   2.756   1.718   4.735
 7080SOL    HW122139   2.664   1.757   4.736
 7080SOL    HW222140   2.783   1.697   4.641
 7081SOL     OW22141   2.977   6.943   6.811
 7081SOL    HW122142   2.993   6.863   6.869
 7081SOL    HW222143   3.065   6.985   6.788
 7082SOL     OW22144   6.506   4.160   6.687
 7082SOL    HW122145   6.419   4.192   6.648
 7082SOL    HW222146   6.523   4.066   6.659
 7083SOL     OW22147   2.846   0.354   0.352
 7083SOL    HW122148   2.932   0.367   0.303
 7083SOL    HW222149   2.864   0.340   0.449
 7084SOL     OW22150   0.273   6.083   5.899
 7084SOL    HW122151   0.261   6.148   5.974
 7084SOL    HW222152   0.206   6.103   5.827
 7085SOL     OW22153   0.771   1.743   2.106
 7085SOL    HW122154   0.866   1.770   2.122
 7085SOL    HW222155   0.725   1.727   2.194
 7086SOL     OW22156   5.367   0.582   5.439
 7086SOL    HW122157   5.363   0.561   5.341
 7086SOL    HW222158   5.372   0.681   5.451
 7087SOL     OW22159   6.253   3.061   4.125
 7087SOL    HW122160   6.164   3.106   4.139
 7087SOL    HW222161   6.242   2.963   4.136
 7088SOL     OW22162   5.884   2.728   3.683
 7088SOL    HW122163   5.876   2.718   3.584
 7088SOL    HW222164   5.960   2.790   3.703
 7089SOL     OW22165   3.034   2.099   4.666
 7089SOL    HW122166   3.009   2.021   4.609
 7089SOL    HW222167   2.981   2.179   4.638
 7090SOL     OW22168   2.220   0.417   6.946
 7090SOL    HW122169   2.242   0.322   6.969
 7090SOL    HW222170   2.224   0.429   6.847
 7091SOL     OW22171   0.672   1.621   6.726
 7091SOL    HW122172   0.765   1.636   6.693
 7091SOL    HW222173   0.660   1.524   6.749
 7092SOL     OW22174   4.488   3.098   5.676
 7092SOL    HW122175   4.415   3.085   5.743
 7092SOL    HW222176   4.454   3.077   5.584
 7093SOL     OW22177   3.072   3.957   3.209
 7093SOL    HW122178   3.040   4.039   3.257
 7093SOL    HW222179   3.085   3.978   3.112
 7094SOL     OW22180   6.944   6.215   6.051
 7094SOL    HW122181   6.911   6.306   6.079
 7094SOL    HW222182   6.873   6.169   5.999
 7095SOL     OW22183   3.841   3.937   5.767
 7095SOL    HW122184   3.815   3.990   5.847
 7095SOL    HW222185   3.787   3.852   5.764
 7096SOL     OW22186   6.404   0.529   3.954
 7096SOL    HW122187   6.339   0.520   3.877
 7096SOL    HW222188   6.444   0.620   3.953
 7097SOL     OW22189   6.001   2.119   1.378
 7097SOL    HW122190   5.994   2.019   1.378
 7097SOL    HW222191   6.069   2.147   1.310
 7098SOL     OW22192   1.595   6.433   5.033
 7098SOL    HW122193   1.513   6.473   5.073
 7098SOL    HW222194   1.675   6.486   5.062
 7099SOL     OW22195   3.482   1.174   5.434
 7099SOL    HW122196   3.388   1.206   5.435
 7099SOL    HW222197   3.521   1.187   5.343
 7100SOL     OW22198   5.231   2.781   1.169
 7100SOL    HW122199   5.160   2.711   1.166
 7100SOL    HW222200   5.200   2.861   1.118
 7101SOL     OW22201   2.298   0.652   4.589
 7101SOL    HW122202   2.343   0.712   4.655
 7101SOL    HW222203   2.338   0.560   4.596
 7102SOL     OW22204   5.251   6.767   0.709
 7102SOL    HW122205   5.339   6.794   0.670
 7102SOL    HW222206   5.194   6.728   0.637
 7103SOL     OW22207   4.818   4.393   1.517
 7103SOL    HW122208   4.754   4.316   1.521
 7103SOL    HW222209   4.835   4.427   1.610
 7104SOL     OW22210   0.196   2.648   3.871
 7104SOL    HW122211   0.234   2.555   3.866
 7104SOL    HW222212   0.192   2.677   3.967
 7105SOL     OW22213   3.008   2.875   5.587
 7105SOL    HW122214   2.952   2.955   5.568
 7105SOL    HW222215   3.023   2.824   5.502
 7106SOL     OW22216   3.978   3.763   2.978
 7106SOL    HW122217   4.021   3.737   2.891
 7106SOL    HW222218   4.048   3.767   3.049
 7107SOL     OW22219   4.571   1.308   0.775
 7107SOL    HW122220   4.530   1.373   0.839
 7107SOL    HW222221   4.508   1.232   0.760
 7108SOL     OW22222   4.315   5.964   2.878
 7108SOL    HW122223   4.301   5.958   2.977
 7108SOL    HW222224   4.279   6.052   2.846
 7109SOL     OW22225   3.130   0.373   5.951
 7109SOL    HW122226   3.095   0.366   5.857
 7109SOL    HW222227   3.152   0.469   5.971
 7110SOL     OW22228   3.000   5.840   4.412
 7110SOL    HW122229   3.051   5.847   4.497
 7110SOL    HW222230   3.055   5.876   4.337
 7111SOL     OW22231   0.944   2.501   4.870
 7111SOL    HW122232   0.879   2.575   4.854
 7111SOL    HW222233   0.982   2.508   4.962
 7112SOL     OW22234   1.771   4.848   4.627
 7112SOL    HW122235   1.809   4.761   4.593
 7112SOL    HW222236   1.714   4.889   4.556
 7113SOL     OW22237   4.188   3.566   4.890
 7113SOL    HW122238   4.286   3.586   4.886
 7113SOL    HW222239   4.167   3.487   4.832
 7114SOL     OW22240   4.367   6.411   1.528
 7114SOL    HW122241   4.402   6.499   1.558
 7114SOL    HW222242   4.278   6.423   1.484
 7115SOL     OW22243   5.498   2.835   1.396
 7115SOL    HW122244   5.408   2.878   1.403
 7115SOL    HW222245   5.488   2.736   1.392
 7116SOL     OW22246   6.312   3.900   3.370
 7116SOL    HW122247   6.382   3.927   3.304
 7116SOL    HW222248   6.309   3.965   3.445
 7117SOL     OW22249   0.635   6.191   5.068
 7117SOL    HW122250   0.656   6.098   5.095
 7117SOL    HW222251   0.690   6.255   5.122
 7118SOL     OW22252   2.782   4.351   0.916
 7118SOL    HW122253   2.768   4.259   0.953
 7118SOL    HW222254   2.769   4.349   0.817
 7119SOL     OW22255   5.209   2.204   3.534
 7119SOL    HW122256   5.206   2.159   3.623
 7119SOL    HW222257   5.270   2.154   3.473
 7120SOL     OW22258   3.595   1.471   2.303
 7120SOL    HW122259   3.581   1.529   2.223
 7120SOL    HW222260   3.580   1.525   2.386
 7121SOL     OW22261   1.313   6.895   3.301
 7121SOL    HW122262   1.409   6.890   3.328
 7121SOL    HW222263   1.287   6.990   3.288
 7122SOL     OW22264   0.765   6.986   5.717
 7122SOL    HW122265   0.776   7.001   5.619
 7122SOL    HW222266   0.685   6.928   5.733
 7123SOL     OW22267   1.811   4.319   3.415
 7123SOL    HW122268   1.777   4.353   3.327
 7123SOL    HW222269   1.769   4.371   3.489
 7124SOL     OW22270   6.828   2.437   1.322
 7124SOL    HW122271   6.749   2.490   1.288
 7124SOL    HW222272   6.795   2.358   1.373
 7125SOL     OW22273   0.131   6.834   1.191
 7125SOL    HW122274   0.158   6.820   1.286
 7125SOL    HW222275   0.161   6.756   1.135
 7126SOL     OW22276   3.651   5.095   0.054
 7126SOL    HW122277   3.569   5.064   0.103
 7126SOL    HW222278   3.722   5.119   0.120
 7127SOL     OW22279   1.397   5.092   5.435
 7127SOL    HW122280   1.448   5.147   5.369
 7127SOL    HW222281   1.460   5.053   5.502
 7128SOL     OW22282   2.877   5.062   0.246
 7128SOL    HW122283   2.818   5.051   0.166
 7128SOL    HW222284   2.820   5.080   0.327
 7129SOL     OW22285   2.322   1.849   6.926
 7129SOL    HW122286   2.329   1.752   6.901
 7129SOL    HW222287   2.367   1.905   6.856
 7130SOL     OW22288   4.435   6.186   5.013
 7130SOL    HW122289   4.380   6.255   5.059
 7130SOL    HW222290   4.485   6.132   5.080
 7131SOL     OW22291   2.758   0.247   0.848
 7131SOL    HW122292   2.766   0.230   0.947
 7131SOL    HW222293   2.667   0.221   0.817
 7132SOL     OW22294   3.860   4.161   0.059
 7132SOL    HW122295   3.772   4.180   0.103
 7132SOL    HW222296   3.921   4.239   0.070
 7133SOL     OW22297   4.946   5.704   6.234
 7133SOL    HW122298   4.985   5.685   6.324
 7133SOL    HW222299   5.013   5.753   6.178
 7134SOL     OW22300   5.272   0.248   2.099
 7134SOL    HW122301   5.330   0.179   2.056
 7134SOL    HW222302   5.325   0.332   2.112
 7135SOL     OW22303   1.498   2.999   3.224
 7135SOL    HW122304   1.520   3.078   3.167
 7135SOL    HW222305   1.402   2.975   3.212
 7136SOL     OW22306   2.632   3.107   1.394
 7136SOL    HW122307   2.582   3.105   1.481
 7136SOL    HW222308   2.712   3.165   1.404
 7137SOL     OW22309   3.857   6.912   6.349
 7137SOL    HW122310   3.815   7.003   6.358
 7137SOL    HW222311   3.790   6.848   6.311
 7138SOL     OW22312   2.001   2.760   0.245
 7138SOL    HW122313   2.015   2.851   0.285
 7138SOL    HW222314   1.943   2.768   0.164
 7139SOL     OW22315   5.744   4.143   1.636
 7139SOL    HW122316   5.836   4.139   1.675
 7139SOL    HW222317   5.676   4.137   1.709
 7140SOL     OW22318   6.088   4.074   3.140
 7140SOL    HW122319   6.060   4.136   3.213
 7140SOL    HW222320   6.009   4.052   3.082
 7141SOL     OW22321   3.692   5.675   1.152
 7141SOL    HW122322   3.741   5.647   1.069
 7141SOL    HW222323   3.606   5.719   1.126
 7142SOL     OW22324   3.992   0.372   3.273
 7142SOL    HW122325   4.090   0.383   3.256
 7142SOL    HW222326   3.945   0.459   3.259
 7143SOL     OW22327   1.159   2.221   6.092
 7143SOL    HW122328   1.230   2.182   6.033
 7143SOL    HW222329   1.083   2.253   6.035
 7144SOL     OW22330   1.959   2.920   2.035
 7144SOL    HW122331   2.028   2.992   2.028
 7144SOL    HW222332   1.877   2.956   2.079
 7145SOL     OW22333   4.636   0.310   0.311
 7145SOL    HW122334   4.665   0.346   0.399
 7145SOL    HW222335   4.617   0.386   0.249
 7146SOL     OW22336   2.113   0.152   0.803
 7146SOL    HW122337   2.095   0.245   0.836
 7146SOL    HW222338   2.030   0.097   0.813
 7147SOL     OW22339   7.014   6.995   3.065
 7147SOL    HW122340   7.015   6.925   3.137
 7147SOL    HW222341   6.952   6.966   2.992
 7148SOL     OW22342   0.500   5.975   0.888
 7148SOL    HW122343   0.577   5.961   0.951
 7148SOL    HW222344   0.495   5.898   0.825
 7149SOL     OW22345   5.882   6.144   3.333
 7149SOL    HW122346   5.950   6.198   3.383
 7149SOL    HW222347   5.905   6.142   3.236
 7150SOL     OW22348   3.161   2.350   1.735
 7150SOL    HW122349   3.177   2.265   1.786
 7150SOL    HW222350   3.094   2.406   1.783
 7151SOL     OW22351   2.494   5.961   0.664
 7151SOL    HW122352   2.426   5.894   0.636
 7151SOL    HW222353   2.550   5.987   0.586
 7152SOL     OW22354   0.786   0.398   5.425
 7152SOL    HW122355   0.828   0.402   5.516
 7152SOL    HW222356   0.810   0.481   5.374
 7153SOL     OW22357   3.583   5.677   1.689
 7153SOL    HW122358   3.533   5.591   1.694
 7153SOL    HW222359   3.616   5.701   1.780
 7154SOL     OW22360   4.310   0.303   3.475
 7154SOL    HW122361   4.385   0.251   3.518
 7154SOL    HW222362   4.241   0.323   3.544
 7155SOL     OW22363   1.792   3.642   1.039
 7155SOL    HW122364   1.765   3.687   1.124
 7155SOL    HW222365   1.844   3.559   1.060
 7156SOL     OW22366   0.015   3.353   3.682
 7156SOL    HW122367   0.095   3.333   3.626
 7156SOL    HW222368   0.039   3.423   3.750
 7157SOL     OW22369   0.306   3.575   1.714
 7157SOL    HW122370   0.325   3.631   1.795
 7157SOL    HW222371   0.289   3.634   1.636
 7158SOL     OW22372   1.699   0.138   3.966
 7158SOL    HW122373   1.718   0.212   4.031
 7158SOL    HW222374   1.722   0.050   4.009
 7159SOL     OW22375   0.539   5.206   2.639
 7159SOL    HW122376   0.628   5.164   2.654
 7159SOL    HW222377   0.491   5.214   2.727
 7160SOL     OW22378   5.592   0.291   2.737
 7160SOL    HW122379   5.572   0.252   2.827
 7160SOL    HW222380   5.541   0.240   2.667
 7161SOL     OW22381   3.380   4.192   4.359
 7161SOL    HW122382   3.446   4.192   4.284
 7161SOL    HW222383   3.429   4.202   4.446
 7162SOL     OW22384   1.044   5.315   6.358
 7162SOL    HW122385   1.040   5.368   6.442
 7162SOL    HW222386   1.091   5.228   6.376
 7163SOL     OW22387   2.949   6.820   2.393
 7163SOL    HW122388   2.883   6.895   2.387
 7163SOL    HW222389   3.002   6.829   2.477
 7164SOL     OW22390   2.170   0.570   3.942
 7164SOL    HW122391   2.119   0.627   4.006
 7164SOL    HW222392   2.259   0.546   3.982
 7165SOL     OW22393   6.843   1.144   2.437
 7165SOL    HW122394   6.801   1.099   2.358
 7165SOL    HW222395   6.812   1.239   2.441
 7166SOL     OW22396   6.038   2.278   0.721
 7166SOL    HW122397   5.949   2.302   0.758
 7166SOL    HW222398   6.028   2.242   0.628
 7167SOL     OW22399   5.409   3.247   4.046
 7167SOL    HW122400   5.394   3.148   4.040
 7167SOL    HW222401   5.502   3.265   4.078
 7168SOL     OW22402   0.961   2.935   2.873
 7168SOL    HW122403   1.013   2.858   2.837
 7168SOL    HW222404   0.867   2.931   2.838
 7169SOL     OW22405   0.551   2.552   4.880
 7169SOL    HW122406   0.503   2.582   4.962
 7169SOL    HW222407   0.485   2.525   4.810
 7170SOL     OW22408   4.464   6.984   4.422
 7170SOL    HW122409   4.460   6.953   4.517
 7170SOL    HW222410   4.385   0.018   4.402
 7171SOL     OW22411   5.841   3.815   0.476
 7171SOL    HW122412   5.901   3.738   0.456
 7171SOL    HW222413   5.746   3.782   0.483
 7172SOL     OW22414   1.223   0.131   4.945
 7172SOL    HW122415   1.244   0.037   4.919
 7172SOL    HW222416   1.249   0.193   4.871
 7173SOL     OW22417   6.775   4.598   6.387
 7173SOL    HW122418   6.676   4.614   6.397
 7173SOL    HW222419   6.793   4.555   6.299
 7174SOL     OW22420   1.257   4.441   0.145
 7174SOL    HW122421   1.266   4.345   0.119
 7174SOL    HW222422   1.346   4.477   0.173
 7175SOL     OW22423   5.696   2.662   6.639
 7175SOL    HW122424   5.722   2.595   6.570
 7175SOL    HW222425   5.713   2.754   6.603
 7176SOL     OW22426   6.822   0.116   3.208
 7176SOL    HW122427   6.912   0.093   3.169
 7176SOL    HW222428   6.798   0.209   3.181
 7177SOL     OW22429   1.568   4.957   4.456
 7177SOL    HW122430   1.485   4.997   4.495
 7177SOL    HW222431   1.634   5.030   4.436
 7178SOL     OW22432   1.997   1.773   5.933
 7178SOL    HW122433   1.923   1.839   5.920
 7178SOL    HW222434   1.988   1.698   5.867
 7179SOL     OW22435   2.103   3.745   4.703
 7179SOL    HW122436   2.092   3.647   4.690
 7179SOL    HW222437   2.151   3.763   4.789
 7180SOL     OW22438   2.399   5.306   0.210
 7180SOL    HW122439   2.336   5.384   0.209
 7180SOL    HW222440   2.377   5.244   0.135
 7181SOL     OW22441   2.007   6.716   0.165
 7181SOL    HW122442   2.085   6.700   0.103
 7181SOL    HW222443   1.950   6.790   0.128
 7182SOL     OW22444   0.373   2.376   4.608
 7182SOL    HW122445   0.332   2.434   4.679
 7182SOL    HW222446   0.436   2.431   4.553
 7183SOL     OW22447   2.177   6.074   6.760
 7183SOL    HW122448   2.236   6.006   6.716
 7183SOL    HW222449   2.084   6.066   6.723
 7184SOL     OW22450   0.081   0.798   3.717
 7184SOL    HW122451   0.075   0.793   3.816
 7184SOL    HW222452   7.022   0.842   3.680
 7185SOL     OW22453   5.906   0.051   4.945
 7185SOL    HW122454   5.896   6.980   4.977
 7185SOL    HW222455   5.980   0.096   4.995
 7186SOL     OW22456   6.708   1.855   0.471
 7186SOL    HW122457   6.728   1.912   0.551
 7186SOL    HW222458   6.763   1.771   0.476
 7187SOL     OW22459   3.874   4.633   6.419
 7187SOL    HW122460   3.844   4.657   6.511
 7187SOL    HW222461   3.920   4.544   6.420
 7188SOL     OW22462   6.191   0.910   0.522
 7188SOL    HW122463   6.277   0.860   0.511
 7188SOL    HW222464   6.209   1.001   0.558
 7189SOL     OW22465   0.219   1.233   5.841
 7189SOL    HW122466   0.196   1.136   5.834
 7189SOL    HW222467   0.146   1.287   5.798
 7190SOL     OW22468   0.475   3.422   2.475
 7190SOL    HW122469   0.394   3.391   2.425
 7190SOL    HW222470   0.466   3.399   2.572
 7191SOL     OW22471   0.695   4.284   2.637
 7191SOL    HW122472   0.642   4.212   2.681
 7191SOL    HW222473   0.790   4.279   2.668
 7192SOL     OW22474   3.055   4.586   6.006
 7192SOL    HW122475   2.990   4.561   6.078
 7192SOL    HW222476   3.105   4.504   5.977
 7193SOL     OW22477   0.904   2.289   2.120
 7193SOL    HW122478   0.946   2.380   2.123
 7193SOL    HW222479   0.974   2.220   2.135
 7194SOL     OW22480   2.797   1.938   0.179
 7194SOL    HW122481   2.820   1.853   0.225
 7194SOL    HW222482   2.699   1.957   0.190
 7195SOL     OW22483   0.180   4.062   6.800
 7195SOL    HW122484   0.124   3.996   6.850
 7195SOL    HW222485   0.147   4.154   6.818
 7196SOL     OW22486   3.259   4.056   1.041
 7196SOL    HW122487   3.313   4.138   1.020
 7196SOL    HW222488   3.172   4.083   1.081
 7197SOL     OW22489   0.603   2.504   6.245
 7197SOL    HW122490   0.681   2.443   6.227
 7197SOL    HW222491   0.631   2.599   6.231
 7198SOL     OW22492   6.919   0.702   0.595
 7198SOL    HW122493   6.937   0.798   0.574
 7198SOL    HW222494   6.917   0.690   0.695
 7199SOL     OW22495   1.871   0.726   2.214
 7199SOL    HW122496   1.886   0.710   2.311
 7199SOL    HW222497   1.792   0.673   2.183
 7200SOL     OW22498   2.345   2.448   6.822
 7200SOL    HW122499   2.298   2.366   6.855
 7200SOL    HW222500   2.435   2.423   6.787
 7201SOL     OW22501   1.050   5.447   4.965
 7201SOL    HW122502   0.962   5.421   5.003
 7201SOL    HW222503   1.053   5.422   4.868
 7202SOL     OW22504   4.948   7.017   6.899
 7202SOL    HW122505   4.887   0.048   6.841
 7202SOL    HW222506   4.940   0.025   6.994
 7203SOL     OW22507   0.697   1.830   0.979
 7203SOL    HW122508   0.680   1.780   1.064
 7203SOL    HW222509   0.647   1.916   0.980
 7204SOL     OW22510   0.687   6.783   5.439
 7204SOL    HW122511   0.723   6.841   5.366
 7204SOL    HW222512   0.741   6.699   5.445
 7205SOL     OW22513   1.263   5.001   4.227
 7205SOL    HW122514   1.235   4.912   4.262
 7205SOL    HW222515   1.311   5.052   4.299
 7206SOL     OW22516   1.169   0.360   1.618
 7206SOL    HW122517   1.076   0.360   1.580
 7206SOL    HW222518   1.194   0.452   1.646
 7207SOL     OW22519   3.784   0.142   2.654
 7207SOL    HW122520   3.714   0.195   2.605
 7207SOL    HW222521   3.762   0.044   2.648
 7208SOL     OW22522   4.077   0.001   2.867
 7208SOL    HW122523   4.087   0.031   2.773
 7208SOL    HW222524   4.076   0.080   2.928
 7209SOL     OW22525   2.926   3.944   1.443
 7209SOL    HW122526   2.867   3.863   1.438
 7209SOL    HW222527   2.893   4.004   1.517
 7210SOL     OW22528   4.558   0.934   3.935
 7210SOL    HW122529   4.526   0.853   3.887
 7210SOL    HW222530   4.517   1.016   3.896
 7211SOL     OW22531   3.169   6.696   4.117
 7211SOL    HW122532   3.148   6.718   4.213
 7211SOL    HW222533   3.168   6.779   4.062
 7212SOL     OW22534   0.508   6.218   4.670
 7212SOL    HW122535   0.473   6.155   4.600
 7212SOL    HW222536   0.431   6.269   4.710
 7213SOL     OW22537   5.192   6.214   0.319
 7213SOL    HW122538   5.095   6.217   0.340
 7213SOL    HW222539   5.215   6.126   0.277
 7214SOL     OW22540   6.751   5.948   5.857
 7214SOL    HW122541   6.686   5.911   5.923
 7214SOL    HW222542   6.768   6.044   5.877
 7215SOL     OW22543   6.784   4.004   5.059
 7215SOL    HW122544   6.784   3.960   4.969
 7215SOL    HW222545   6.877   4.027   5.085
 7216SOL     OW22546   3.638   6.492   0.162
 7216SOL    HW122547   3.609   6.444   0.245
 7216SOL    HW222548   3.682   6.427   0.100
 7217SOL     OW22549   2.290   4.305   3.073
 7217SOL    HW122550   2.311   4.254   3.157
 7217SOL    HW222551   2.269   4.400   3.097
 7218SOL     OW22552   5.072   2.852   5.145
 7218SOL    HW122553   5.030   2.886   5.061
 7218SOL    HW222554   5.126   2.770   5.124
 7219SOL     OW22555   4.756   0.385   3.658
 7219SOL    HW122556   4.730   0.441   3.736
 7219SOL    HW222557   4.690   0.311   3.646
 7220SOL     OW22558   0.816   5.312   5.045
 7220SOL    HW122559   0.808   5.304   4.946
 7220SOL    HW222560   0.726   5.306   5.087
 7221SOL     OW22561   3.671   5.965   4.870
 7221SOL    HW122562   3.635   6.051   4.834
 7221SOL    HW222563   3.766   5.977   4.897
 7222SOL     OW22564   5.898   0.706   3.218
 7222SOL    HW122565   5.958   0.724   3.296
 7222SOL    HW222566   5.899   0.608   3.198
 7223SOL     OW22567   2.736   1.155   1.246
 7223SOL    HW122568   2.718   1.139   1.343
 7223SOL    HW222569   2.763   1.250   1.232
 7224SOL     OW22570   5.461   1.694   3.856
 7224SOL    HW122571   5.530   1.681   3.785
 7224SOL    HW222572   5.483   1.776   3.909
 7225SOL     OW22573   0.850   5.812   0.214
 7225SOL    HW122574   0.756   5.802   0.245
 7225SOL    HW222575   0.889   5.721   0.196
 7226SOL     OW22576   6.491   1.358   0.876
 7226SOL    HW122577   6.509   1.372   0.779
 7226SOL    HW222578   6.468   1.445   0.919
 7227SOL     OW22579   1.319   1.191   0.996
 7227SOL    HW122580   1.241   1.154   0.946
 7227SOL    HW222581   1.308   1.290   1.007
 7228SOL     OW22582   1.032   1.673   2.883
 7228SOL    HW122583   1.013   1.584   2.924
 7228SOL    HW222584   0.949   1.709   2.840
 7229SOL     OW22585   1.402   5.893   5.726
 7229SOL    HW122586   1.344   5.878   5.805
 7229SOL    HW222587   1.396   5.815   5.664
 7230SOL     OW22588   4.315   5.623   4.476
 7230SOL    HW122589   4.261   5.556   4.528
 7230SOL    HW222590   4.412   5.607   4.493
 7231SOL     OW22591   4.556   0.531   0.170
 7231SOL    HW122592   4.564   0.476   0.086
 7231SOL    HW222593   4.470   0.581   0.169
 7232SOL     OW22594   5.169   5.685   3.097
 7232SOL    HW122595   5.210   5.717   3.011
 7232SOL    HW222596   5.071   5.672   3.083
 7233SOL     OW22597   0.229   1.467   3.886
 7233SOL    HW122598   0.161   1.398   3.863
 7233SOL    HW222599   0.275   1.498   3.802
 7234SOL     OW22600   5.845   3.162   3.739
 7234SOL    HW122601   5.903   3.117   3.671
 7234SOL    HW222602   5.902   3.209   3.806
 7235SOL     OW22603   6.773   4.016   1.911
 7235SOL    HW122604   6.846   4.081   1.895
 7235SOL    HW222605   6.811   3.933   1.952
 7236SOL     OW22606   2.029   2.173   1.638
 7236SOL    HW122607   2.096   2.219   1.696
 7236SOL    HW222608   1.942   2.166   1.687
 7237SOL     OW22609   4.507   0.922   4.467
 7237SOL    HW122610   4.449   0.960   4.394
 7237SOL    HW222611   4.597   0.966   4.464
 7238SOL     OW22612   3.806   1.489   0.571
 7238SOL    HW122613   3.896   1.460   0.540
 7238SOL    HW222614   3.788   1.451   0.662
 7239SOL     OW22615   1.205   2.737   2.461
 7239SOL    HW122616   1.221   2.824   2.508
 7239SOL    HW222617   1.119   2.697   2.494
 7240SOL     OW22618   1.716   5.752   6.097
 7240SOL    HW122619   1.696   5.734   6.000
 7240SOL    HW222620   1.756   5.843   6.106
 7241SOL     OW22621   2.006   0.911   0.156
 7241SOL    HW122622   2.096   0.914   0.199
 7241SOL    HW222623   1.952   0.838   0.198
 7242SOL     OW22624   6.497   5.871   0.493
 7242SOL    HW122625   6.397   5.874   0.486
 7242SOL    HW222626   6.530   5.956   0.535
 7243SOL     OW22627   6.505   4.691   6.436
 7243SOL    HW122628   6.503   4.743   6.351
 7243SOL    HW222629   6.411   4.675   6.468
 7244SOL     OW22630   5.644   1.324   1.503
 7244SOL    HW122631   5.690   1.409   1.478
 7244SOL    HW222632   5.687   1.285   1.584
 7245SOL     OW22633   1.063   2.049   4.703
 7245SOL    HW122634   1.068   1.955   4.669
 7245SOL    HW222635   1.089   2.113   4.630
 7246SOL     OW22636   6.322   0.616   4.574
 7246SOL    HW122637   6.350   0.674   4.650
 7246SOL    HW222638   6.245   0.659   4.526
 7247SOL     OW22639   2.689   6.815   4.285
 7247SOL    HW122640   2.627   6.824   4.363
 7247SOL    HW222641   2.763   6.881   4.293
 7248SOL     OW22642   2.585   1.557   3.545
 7248SOL    HW122643   2.674   1.590   3.512
 7248SOL    HW222644   2.526   1.536   3.467
 7249SOL     OW22645   6.542   4.076   2.253
 7249SOL    HW122646   6.514   4.149   2.191
 7249SOL    HW222647   6.637   4.090   2.279
 7250SOL     OW22648   4.250   0.084   6.005
 7250SOL    HW122649   4.249   0.175   5.963
 7250SOL    HW222650   4.246   0.093   6.104
 7251SOL     OW22651   0.461   6.803   5.629
 7251SOL    HW122652   0.552   6.808   5.588
 7251SOL    HW222653   0.431   6.707   5.630
 7252SOL     OW22654   3.128   3.382   2.776
 7252SOL    HW122655   3.061   3.437   2.726
 7252SOL    HW222656   3.080   3.316   2.833
 7253SOL     OW22657   2.428   6.556   6.074
 7253SOL    HW122658   2.334   6.583   6.055
 7253SOL    HW222659   2.470   6.523   5.989
 7254SOL     OW22660   4.468   4.959   3.662
 7254SOL    HW122661   4.460   5.012   3.746
 7254SOL    HW222662   4.565   4.941   3.644
 7255SOL     OW22663   3.266   3.354   0.688
 7255SOL    HW122664   3.251   3.436   0.633
 7255SOL    HW222665   3.189   3.339   0.749
 7256SOL     OW22666   4.232   4.683   4.222
 7256SOL    HW122667   4.164   4.756   4.227
 7256SOL    HW222668   4.241   4.639   4.311
 7257SOL     OW22669   5.517   2.746   4.006
 7257SOL    HW122670   5.603   2.704   4.037
 7257SOL    HW222671   5.522   2.763   3.908
 7258SOL     OW22672   3.992   1.329   3.397
 7258SOL    HW122673   3.900   1.298   3.375
 7258SOL    HW222674   3.989   1.388   3.478
 7259SOL     OW22675   3.042   3.160   0.834
 7259SOL    HW122676   3.124   3.189   0.882
 7259SOL    HW222677   3.000   3.083   0.882
 7260SOL     OW22678   3.473   1.828   1.842
 7260SOL    HW122679   3.455   1.842   1.940
 7260SOL    HW222680   3.463   1.916   1.794
 7261SOL     OW22681   1.385   2.681   1.645
 7261SOL    HW122682   1.403   2.636   1.732
 7261SOL    HW222683   1.321   2.626   1.592
 7262SOL     OW22684   5.399   1.652   5.754
 7262SOL    HW122685   5.331   1.638   5.682
 7262SOL    HW222686   5.490   1.628   5.720
 7263SOL     OW22687   0.649   6.324   1.014
 7263SOL    HW122688   0.578   6.271   0.968
 7263SOL    HW222689   0.733   6.321   0.960
 7264SOL     OW22690   5.556   1.199   5.866
 7264SOL    HW122691   5.633   1.151   5.907
 7264SOL    HW222692   5.552   1.292   5.902
 7265SOL     OW22693   5.553   5.356   5.956
 7265SOL    HW122694   5.596   5.338   6.045
 7265SOL    HW222695   5.621   5.393   5.893
 7266SOL     OW22696   5.927   0.156   1.298
 7266SOL    HW122697   5.829   0.169   1.284
 7266SOL    HW222698   5.964   0.100   1.223
 7267SOL     OW22699   6.425   5.885   5.605
 7267SOL    HW122700   6.398   5.836   5.523
 7267SOL    HW222701   6.522   5.910   5.599
 7268SOL     OW22702   5.522   4.878   3.254
 7268SOL    HW122703   5.481   4.935   3.324
 7268SOL    HW222704   5.466   4.882   3.171
 7269SOL     OW22705   6.902   6.021   0.949
 7269SOL    HW122706   6.987   6.064   0.978
 7269SOL    HW222707   6.885   5.939   1.004
 7270SOL     OW22708   0.611   3.079   5.136
 7270SOL    HW122709   0.684   3.011   5.126
 7270SOL    HW222710   0.597   3.098   5.234
 7271SOL     OW22711   0.473   6.132   3.772
 7271SOL    HW122712   0.553   6.104   3.719
 7271SOL    HW222713   0.501   6.198   3.842
 7272SOL     OW22714   5.689   5.335   2.166
 7272SOL    HW122715   5.599   5.373   2.145
 7272SOL    HW222716   5.678   5.256   2.226
 7273SOL     OW22717   5.428   4.344   1.825
 7273SOL    HW122718   5.481   4.274   1.874
 7273SOL    HW222719   5.383   4.302   1.746
 7274SOL     OW22720   1.002   5.579   0.123
 7274SOL    HW122721   0.997   5.497   0.181
 7274SOL    HW222722   1.004   5.551   0.027
 7275SOL     OW22723   6.740   0.377   2.896
 7275SOL    HW122724   6.780   0.385   2.988
 7275SOL    HW222725   6.658   0.321   2.900
 7276SOL     OW22726   3.583   1.827   2.682
 7276SOL    HW122727   3.681   1.812   2.670
 7276SOL    HW222728   3.560   1.921   2.657
 7277SOL     OW22729   4.410   0.983   4.196
 7277SOL    HW122730   4.310   0.981   4.186
 7277SOL    HW222731   4.452   1.003   4.107
 7278SOL     OW22732   3.224   2.179   1.394
 7278SOL    HW122733   3.165   2.260   1.390
 7278SOL    HW222734   3.311   2.204   1.435
 7279SOL     OW22735   4.465   3.256   6.639
 7279SOL    HW122736   4.509   3.250   6.550
 7279SOL    HW222737   4.482   3.346   6.679
 7280SOL     OW22738   0.214   1.454   3.602
 7280SOL    HW122739   0.118   1.429   3.589
 7280SOL    HW222740   0.271   1.396   3.544
 7281SOL     OW22741   1.544   0.482   0.403
 7281SOL    HW122742   1.555   0.437   0.314
 7281SOL    HW222743   1.547   0.581   0.391
 7282SOL     OW22744   5.963   6.715   1.455
 7282SOL    HW122745   5.996   6.765   1.375
 7282SOL    HW222746   6.034   6.714   1.525
 7283SOL     OW22747   3.393   0.240   1.957
 7283SOL    HW122748   3.324   0.168   1.962
 7283SOL    HW222749   3.475   0.212   2.006
 7284SOL     OW22750   0.015   2.036   5.136
 7284SOL    HW122751   0.030   1.948   5.092
 7284SOL    HW222752   0.100   2.068   5.178
 7285SOL     OW22753   5.619   3.517   1.608
 7285SOL    HW122754   5.679   3.527   1.528
 7285SOL    HW222755   5.525   3.500   1.577
 7286SOL     OW22756   1.001   0.573   1.127
 7286SOL    HW122757   1.000   0.551   1.030
 7286SOL    HW222758   0.908   0.595   1.157
 7287SOL     OW22759   6.664   3.003   4.883
 7287SOL    HW122760   6.665   3.050   4.795
 7287SOL    HW222761   6.685   2.906   4.869
 7288SOL     OW22762   1.336   2.058   1.356
 7288SOL    HW122763   1.388   2.136   1.320
 7288SOL    HW222764   1.292   2.010   1.280
 7289SOL     OW22765   6.050   1.686   3.439
 7289SOL    HW122766   6.016   1.732   3.522
 7289SOL    HW222767   5.994   1.606   3.420
 7290SOL     OW22768   2.584   0.961   5.130
 7290SOL    HW122769   2.626   1.051   5.113
 7290SOL    HW222770   2.486   0.966   5.113
 7291SOL     OW22771   2.285   0.070   0.593
 7291SOL    HW122772   2.215   0.084   0.663
 7291SOL    HW222773   2.332   7.006   0.609
 7292SOL     OW22774   3.059   6.888   2.813
 7292SOL    HW122775   3.103   6.872   2.725
 7292SOL    HW222776   3.122   6.865   2.887
 7293SOL     OW22777   1.366   1.786   5.843
 7293SOL    HW122778   1.323   1.808   5.755
 7293SOL    HW222779   1.328   1.845   5.914
 7294SOL     OW22780   3.237   4.407   0.782
 7294SOL    HW122781   3.285   4.323   0.758
 7294SOL    HW222782   3.212   4.456   0.699
 7295SOL     OW22783   6.912   4.584   1.124
 7295SOL    HW122784   6.972   4.520   1.078
 7295SOL    HW222785   6.955   4.674   1.129
 7296SOL     OW22786   4.491   5.199   2.018
 7296SOL    HW122787   4.431   5.210   1.939
 7296SOL    HW222788   4.501   5.286   2.065
 7297SOL     OW22789   2.347   6.696   1.324
 7297SOL    HW122790   2.332   6.756   1.403
 7297SOL    HW222791   2.408   6.741   1.259
 7298SOL     OW22792   5.278   4.704   6.405
 7298SOL    HW122793   5.233   4.639   6.466
 7298SOL    HW222794   5.302   4.787   6.456
 7299SOL     OW22795   1.022   1.932   1.046
 7299SOL    HW122796   1.112   1.977   1.047
 7299SOL    HW222797   1.028   1.844   1.094
 7300SOL     OW22798   0.468   6.823   2.721
 7300SOL    HW122799   0.524   6.754   2.766
 7300SOL    HW222800   0.513   6.912   2.729
 7301SOL     OW22801   6.294   2.323   5.579
 7301SOL    HW122802   6.288   2.304   5.481
 7301SOL    HW222803   6.203   2.341   5.616
 7302SOL     OW22804   0.266   2.350   6.211
 7302SOL    HW122805   0.222   2.262   6.231
 7302SOL    HW222806   0.235   2.382   6.121
 7303SOL     OW22807   3.653   1.108   6.490
 7303SOL    HW122808   3.580   1.128   6.424
 7303SOL    HW222809   3.717   1.185   6.492
 7304SOL     OW22810   2.756   5.523   1.657
 7304SOL    HW122811   2.674   5.554   1.705
 7304SOL    HW222812   2.743   5.429   1.625
 7305SOL     OW22813   5.038   2.278   1.581
 7305SOL    HW122814   5.081   2.213   1.518
 7305SOL    HW222815   4.939   2.271   1.572
 7306SOL     OW22816   3.471   1.578   1.708
 7306SOL    HW122817   3.469   1.616   1.616
 7306SOL    HW222818   3.467   1.653   1.775
 7307SOL     OW22819   3.909   6.656   2.480
 7307SOL    HW122820   3.947   6.653   2.572
 7307SOL    HW222821   3.854   6.574   2.463
 7308SOL     OW22822   6.431   1.708   4.540
 7308SOL    HW122823   6.528   1.725   4.524
 7308SOL    HW222824   6.377   1.755   4.471
 7309SOL     OW22825   3.614   6.924   1.278
 7309SOL    HW122826   3.532   6.875   1.310
 7309SOL    HW222827   3.662   6.962   1.357
 7310SOL     OW22828   2.017   3.774   0.383
 7310SOL    HW122829   2.002   3.854   0.442
 7310SOL    HW222830   1.960   3.699   0.415
 7311SOL     OW22831   1.821   0.764   0.298
 7311SOL    HW122832   1.731   0.745   0.260
 7311SOL    HW222833   1.812   0.826   0.377
 7312SOL     OW22834   1.382   2.174   5.104
 7312SOL    HW122835   1.464   2.134   5.064
 7312SOL    HW222836   1.306   2.109   5.095
 7313SOL     OW22837   2.094   1.162   0.340
 7313SOL    HW122838   2.152   1.107   0.279
 7313SOL    HW222839   2.151   1.213   0.404
 7314SOL     OW22840   6.892   4.112   5.795
 7314SOL    HW122841   6.962   4.114   5.867
 7314SOL    HW222842   6.929   4.068   5.714
 7315SOL     OW22843   4.889   5.905   1.699
 7315SOL    HW122844   4.827   5.976   1.664
 7315SOL    HW222845   4.852   5.815   1.677
 7316SOL     OW22846   3.140   2.933   6.781
 7316SOL    HW122847   3.200   2.901   6.855
 7316SOL    HW222848   3.138   2.864   6.709
 7317SOL     OW22849   4.039   1.351   1.726
 7317SOL    HW122850   3.972   1.425   1.729
 7317SOL    HW222851   4.094   1.360   1.643
 7318SOL     OW22852   2.864   0.263   2.260
 7318SOL    HW122853   2.888   0.286   2.166
 7318SOL    HW222854   2.869   0.345   2.317
 7319SOL     OW22855   5.726   2.872   0.168
 7319SOL    HW122856   5.691   2.882   0.075
 7319SOL    HW222857   5.825   2.882   0.168
 7320SOL     OW22858   0.344   3.466   0.872
 7320SOL    HW122859   0.364   3.497   0.965
 7320SOL    HW222860   0.250   3.491   0.848
 7321SOL     OW22861   2.264   6.569   5.815
 7321SOL    HW122862   2.357   6.602   5.834
 7321SOL    HW222863   2.254   6.476   5.848
 7322SOL     OW22864   6.836   2.119   3.065
 7322SOL    HW122865   6.769   2.149   2.997
 7322SOL    HW222866   6.823   2.022   3.083
 7323SOL     OW22867   2.385   2.932   1.326
 7323SOL    HW122868   2.465   2.992   1.323
 7323SOL    HW222869   2.358   2.917   1.421
 7324SOL     OW22870   5.549   4.706   1.941
 7324SOL    HW122871   5.593   4.647   1.873
 7324SOL    HW222872   5.618   4.764   1.984
 7325SOL     OW22873   2.748   0.297   5.500
 7325SOL    HW122874   2.691   0.343   5.568
 7325SOL    HW222875   2.751   0.351   5.416
 7326SOL     OW22876   3.592   6.034   5.497
 7326SOL    HW122877   3.622   5.945   5.529
 7326SOL    HW222878   3.661   6.103   5.520
 7327SOL     OW22879   6.155   3.038   4.899
 7327SOL    HW122880   6.149   2.939   4.913
 7327SOL    HW222881   6.243   3.061   4.857
 7328SOL     OW22882   4.462   0.110   5.481
 7328SOL    HW122883   4.412   0.065   5.407
 7328SOL    HW222884   4.464   0.050   5.561
 7329SOL     OW22885   0.743   3.908   0.730
 7329SOL    HW122886   0.673   3.977   0.712
 7329SOL    HW222887   0.702   3.817   0.721
 7330SOL     OW22888   2.581   3.152   0.706
 7330SOL    HW122889   2.514   3.193   0.768
 7330SOL    HW222890   2.669   3.141   0.753
 7331SOL     OW22891   5.867   6.283   1.531
 7331SOL    HW122892   5.899   6.200   1.486
 7331SOL    HW222893   5.833   6.260   1.623
 7332SOL     OW22894   2.566   4.101   6.454
 7332SOL    HW122895   2.623   4.183   6.461
 7332SOL    HW222896   2.483   4.123   6.403
 7333SOL     OW22897   6.101   3.228   2.989
 7333SOL    HW122898   6.085   3.132   2.965
 7333SOL    HW222899   6.089   3.285   2.909
 7334SOL     OW22900   2.360   5.984   6.431
 7334SOL    HW122901   2.439   5.933   6.465
 7334SOL    HW222902   2.383   6.026   6.343
 7335SOL     OW22903   6.960   2.869   2.869
 7335SOL    HW122904   6.911   2.795   2.916
 7335SOL    HW222905   0.025   2.836   2.838
 7336SOL     OW22906   2.367   6.397   1.840
 7336SOL    HW122907   2.422   6.362   1.765
 7336SOL    HW222908   2.423   6.404   1.923
 7337SOL     OW22909   2.210   3.198   1.423
 7337SOL    HW122910   2.114   3.184   1.398
 7337SOL    HW222911   2.217   3.220   1.520
 7338SOL     OW22912   5.203   1.899   1.809
 7338SOL    HW122913   5.178   1.867   1.900
 7338SOL    HW222914   5.239   1.822   1.756
 7339SOL     OW22915   6.478   0.345   5.142
 7339SOL    HW122916   6.449   0.315   5.233
 7339SOL    HW222917   6.476   0.267   5.079
 7340SOL     OW22918   3.924   1.081   0.108
 7340SOL    HW122919   3.951   1.111   0.016
 7340SOL    HW222920   3.833   1.117   0.129
 7341SOL     OW22921   0.666   4.780   4.754
 7341SOL    HW122922   0.720   4.840   4.812
 7341SOL    HW222923   0.713   4.692   4.743
 7342SOL     OW22924   6.649   6.495   6.973
 7342SOL    HW122925   6.734   6.540   6.946
 7342SOL    HW222926   6.590   6.561   7.021
 7343SOL     OW22927   4.837   4.117   1.304
 7343SOL    HW122928   4.926   4.163   1.313
 7343SOL    HW222929   4.776   4.150   1.376
 7344SOL     OW22930   2.113   0.652   6.070
 7344SOL    HW122931   2.047   0.711   6.117
 7344SOL    HW222932   2.159   0.704   5.998
 7345SOL     OW22933   4.902   6.710   5.694
 7345SOL    HW122934   4.896   6.618   5.655
 7345SOL    HW222935   4.998   6.740   5.693
 7346SOL     OW22936   3.878   4.559   1.401
 7346SOL    HW122937   3.807   4.569   1.471
 7346SOL    HW222938   3.887   4.462   1.376
 7347SOL     OW22939   6.941   3.121   0.882
 7347SOL    HW122940   7.001   3.184   0.833
 7347SOL    HW222941   6.943   3.141   0.980
 7348SOL     OW22942   1.200   3.238   3.754
 7348SOL    HW122943   1.295   3.223   3.729
 7348SOL    HW222944   1.195   3.295   3.836
 7349SOL     OW22945   4.410   1.976   1.018
 7349SOL    HW122946   4.374   2.068   1.003
 7349SOL    HW222947   4.361   1.911   0.961
 7350SOL     OW22948   1.477   3.658   4.894
 7350SOL    HW122949   1.442   3.751   4.878
 7350SOL    HW222950   1.576   3.661   4.902
 7351SOL     OW22951   4.664   6.175   4.868
 7351SOL    HW122952   4.669   6.220   4.779
 7351SOL    HW222953   4.572   6.188   4.907
 7352SOL     OW22954   1.290   2.938   2.650
 7352SOL    HW122955   1.285   2.939   2.750
 7352SOL    HW222956   1.240   3.017   2.614
 7353SOL     OW22957   0.363   7.016   6.203
 7353SOL    HW122958   0.313   6.930   6.193
 7353SOL    HW222959   0.318   0.049   6.273
 7354SOL     OW22960   1.208   1.680   6.912
 7354SOL    HW122961   1.109   1.680   6.930
 7354SOL    HW222962   1.257   1.702   6.996
 7355SOL     OW22963   1.478   1.313   0.815
 7355SOL    HW122964   1.424   1.259   0.880
 7355SOL    HW222965   1.569   1.274   0.808
 7356SOL     OW22966   4.411   3.264   6.247
 7356SOL    HW122967   4.406   3.224   6.155
 7356SOL    HW222968   4.480   3.216   6.301
 7357SOL     OW22969   4.342   0.534   1.848
 7357SOL    HW122970   4.360   0.469   1.921
 7357SOL    HW222971   4.408   0.609   1.852
 7358SOL     OW22972   1.153   2.748   2.186
 7358SOL    HW122973   1.102   2.830   2.158
 7358SOL    HW222974   1.177   2.755   2.283
 7359SOL     OW22975   2.790   2.921   6.780
 7359SOL    HW122976   2.842   2.974   6.713
 7359SOL    HW222977   2.821   2.944   6.872
 7360SOL     OW22978   3.211   3.704   5.883
 7360SOL    HW122979   3.129   3.752   5.853
 7360SOL    HW222980   3.268   3.682   5.804
 7361SOL     OW22981   4.148   0.632   2.429
 7361SOL    HW122982   4.110   0.541   2.414
 7361SOL    HW222983   4.248   0.627   2.430
 7362SOL     OW22984   0.839   5.700   4.680
 7362SOL    HW122985   0.774   5.625   4.667
 7362SOL    HW222986   0.793   5.775   4.728
 7363SOL     OW22987   4.005   1.550   1.014
 7363SOL    HW122988   3.936   1.584   1.078
 7363SOL    HW222989   3.994   1.596   0.926
 7364SOL     OW22990   4.458   0.710   1.236
 7364SOL    HW122991   4.427   0.793   1.190
 7364SOL    HW222992   4.384   0.671   1.290
 7365SOL     OW22993   1.582   6.694   1.726
 7365SOL    HW122994   1.585   6.605   1.771
 7365SOL    HW222995   1.489   6.716   1.699
 7366SOL     OW22996   2.085   5.693   0.182
 7366SOL    HW122997   1.989   5.694   0.207
 7366SOL    HW222998   2.133   5.766   0.230
 7367SOL     OW22999   4.613   3.783   1.384
 7367SOL    HW123000   4.565   3.816   1.465
 7367SOL    HW223001   4.677   3.710   1.410
 7368SOL     OW23002   3.865   3.017   3.625
 7368SOL    HW123003   3.797   2.982   3.689
 7368SOL    HW223004   3.915   3.093   3.667
 7369SOL     OW23005   4.546   2.749   0.487
 7369SOL    HW123006   4.633   2.738   0.439
 7369SOL    HW223007   4.563   2.769   0.583
 7370SOL     OW23008   2.739   0.759   5.159
 7370SOL    HW123009   2.832   0.784   5.134
 7370SOL    HW223010   2.677   0.834   5.135
 7371SOL     OW23011   1.946   5.850   3.786
 7371SOL    HW123012   1.982   5.840   3.693
 7371SOL    HW223013   1.873   5.783   3.800
 7372SOL     OW23014   3.330   1.472   5.845
 7372SOL    HW123015   3.244   1.490   5.891
 7372SOL    HW223016   3.313   1.421   5.761
 7373SOL     OW23017   5.458   1.173   4.342
 7373SOL    HW123018   5.451   1.269   4.371
 7373SOL    HW223019   5.550   1.157   4.305
 7374SOL     OW23020   2.739   1.882   5.820
 7374SOL    HW123021   2.745   1.976   5.787
 7374SOL    HW223022   2.715   1.822   5.744
 7375SOL     OW23023   2.288   2.876   2.699
 7375SOL    HW123024   2.333   2.790   2.723
 7375SOL    HW223025   2.260   2.923   2.783
 7376SOL     OW23026   4.018   1.767   6.703
 7376SOL    HW123027   4.042   1.859   6.734
 7376SOL    HW223028   4.089   1.703   6.731
 7377SOL     OW23029   5.296   5.554   1.018
 7377SOL    HW123030   5.347   5.575   1.101
 7377SOL    HW223031   5.249   5.636   0.986
 7378SOL     OW23032   0.373   1.157   5.448
 7378SOL    HW123033   0.289   1.185   5.495
 7378SOL    HW223034   0.387   1.216   5.368
 7379SOL     OW23035   3.246   2.094   2.561
 7379SOL    HW123036   3.318   2.109   2.629
 7379SOL    HW223037   3.231   1.996   2.550
 7380SOL     OW23038   6.928   3.320   5.340
 7380SOL    HW123039   6.875   3.341   5.258
 7380SOL    HW223040   6.929   3.221   5.355
 7381SOL     OW23041   4.713   3.877   1.773
 7381SOL    HW123042   4.745   3.849   1.863
 7381SOL    HW223043   4.774   3.842   1.702
 7382SOL     OW23044   7.020   5.670   6.457
 7382SOL    HW123045   7.008   5.573   6.437
 7382SOL    HW223046   6.943   5.703   6.511
 7383SOL     OW23047   0.736   6.609   1.164
 7383SOL    HW123048   0.674   6.642   1.093
 7383SOL    HW223049   0.805   6.550   1.123
 7384SOL     OW23050   5.316   0.744   2.576
 7384SOL    HW123051   5.369   0.816   2.531
 7384SOL    HW223052   5.248   0.708   2.512
 7385SOL     OW23053   4.232   6.023   2.116
 7385SOL    HW123054   4.235   6.106   2.059
 7385SOL    HW223055   4.324   5.987   2.127
 7386SOL     OW23056   0.761   2.081   5.627
 7386SOL    HW123057   0.761   2.181   5.633
 7386SOL    HW223058   0.705   2.043   5.700
 7387SOL     OW23059   4.701   6.048   4.150
 7387SOL    HW123060   4.616   6.070   4.198
 7387SOL    HW223061   4.777   6.045   4.216
 7388SOL     OW23062   0.189   4.823   3.231
 7388SOL    HW123063   0.230   4.740   3.269
 7388SOL    HW223064   0.134   4.800   3.151
 7389SOL     OW23065   0.434   3.652   6.195
 7389SOL    HW123066   0.507   3.684   6.255
 7389SOL    HW223067   0.402   3.563   6.225
 7390SOL     OW23068   2.439   1.560   6.849
 7390SOL    HW123069   2.384   1.513   6.780
 7390SOL    HW223070   2.489   1.494   6.904
 7391SOL     OW23071   5.121   4.366   4.994
 7391SOL    HW123072   5.216   4.349   5.022
 7391SOL    HW223073   5.059   4.318   5.057
 7392SOL     OW23074   2.625   6.123   6.903
 7392SOL    HW123075   2.617   6.168   6.992
 7392SOL    HW223076   2.536   6.086   6.876
 7393SOL     OW23077   5.221   4.605   1.484
 7393SOL    HW123078   5.195   4.701   1.492
 7393SOL    HW223079   5.167   4.550   1.548
 7394SOL     OW23080   3.160   2.719   6.081
 7394SOL    HW123081   3.119   2.804   6.046
 7394SOL    HW223082   3.184   2.660   6.004
 7395SOL     OW23083   2.529   1.646   0.338
 7395SOL    HW123084   2.439   1.681   0.362
 7395SOL    HW223085   2.519   1.568   0.276
 7396SOL     OW23086   0.932   6.355   0.462
 7396SOL    HW123087   0.846   6.392   0.427
 7396SOL    HW223088   0.986   6.428   0.504
 7397SOL     OW23089   4.550   5.016   4.745
 7397SOL    HW123090   4.469   4.993   4.797
 7397SOL    HW223091   4.554   4.960   4.662
 7398SOL     OW23092   2.650   5.408   4.541
 7398SOL    HW123093   2.694   5.495   4.560
 7398SOL    HW223094   2.573   5.394   4.603
 7399SOL     OW23095   0.761   2.622   5.252
 7399SOL    HW123096   0.773   2.562   5.331
 7399SOL    HW223097   0.822   2.593   5.178
 7400SOL     OW23098   3.956   3.349   5.847
 7400SOL    HW123099   4.044   3.315   5.813
 7400SOL    HW223100   3.900   3.272   5.878
 7401SOL     OW23101   1.144   1.058   4.978
 7401SOL    HW123102   1.096   1.023   4.897
 7401SOL    HW223103   1.103   1.019   5.061
 7402SOL     OW23104   3.209   5.769   5.973
 7402SOL    HW123105   3.196   5.703   5.899
 7402SOL    HW223106   3.306   5.792   5.982
 7403SOL     OW23107   2.060   4.013   2.705
 7403SOL    HW123108   2.092   4.089   2.760
 7403SOL    HW223109   1.972   4.036   2.664
 7404SOL     OW23110   2.640   5.158   1.150
 7404SOL    HW123111   2.591   5.117   1.227
 7404SOL    HW223112   2.679   5.085   1.093
 7405SOL     OW23113   3.822   4.897   4.117
 7405SOL    HW123114   3.731   4.918   4.081
 7405SOL    HW223115   3.825   4.802   4.149
 7406SOL     OW23116   0.816   2.990   3.517
 7406SOL    HW123117   0.832   2.997   3.615
 7406SOL    HW223118   0.846   3.074   3.472
 7407SOL     OW23119   0.017   6.464   4.764
 7407SOL    HW123120   0.009   6.545   4.706
 7407SOL    HW223121   6.990   6.479   4.850
 7408SOL     OW23122   1.572   3.625   6.392
 7408SOL    HW123123   1.566   3.548   6.455
 7408SOL    HW223124   1.644   3.608   6.325
 7409SOL     OW23125   0.561   1.210   6.101
 7409SOL    HW123126   0.527   1.219   6.007
 7409SOL    HW223127   0.659   1.233   6.102
 7410SOL     OW23128   0.238   5.234   0.948
 7410SOL    HW123129   0.254   5.227   0.850
 7410SOL    HW223130   0.140   5.224   0.967
 7411SOL     OW23131   2.889   7.020   4.291
 7411SOL    HW123132   2.872   0.063   4.365
 7411SOL    HW223133   2.938   0.042   4.217
 7412SOL     OW23134   4.430   0.608   2.413
 7412SOL    HW123135   4.459   0.560   2.496
 7412SOL    HW223136   4.488   0.581   2.337
 7413SOL     OW23137   4.887   5.870   5.090
 7413SOL    HW123138   4.979   5.831   5.099
 7413SOL    HW223139   4.823   5.798   5.065
 7414SOL     OW23140   0.274   0.064   3.772
 7414SOL    HW123141   0.302   0.079   3.677
 7414SOL    HW223142   0.337   7.022   3.814
 7415SOL     OW23143   1.003   3.858   3.810
 7415SOL    HW123144   0.968   3.891   3.722
 7415SOL    HW223145   0.945   3.783   3.843
 7416SOL     OW23146   3.032   1.307   3.627
 7416SOL    HW123147   3.050   1.387   3.569
 7416SOL    HW223148   2.985   1.237   3.574
 7417SOL     OW23149   2.336   0.748   6.310
 7417SOL    HW123150   2.329   0.649   6.327
 7417SOL    HW223151   2.305   0.798   6.392
 7418SOL     OW23152   3.402   5.353   0.965
 7418SOL    HW123153   3.330   5.365   1.033
 7418SOL    HW223154   3.491   5.363   1.009
 7419SOL     OW23155   5.616   3.000   4.989
 7419SOL    HW123156   5.528   3.040   4.963
 7419SOL    HW223157   5.610   2.901   4.990
 7420SOL     OW23158   0.465   6.808   1.764
 7420SOL    HW123159   0.525   6.738   1.804
 7420SOL    HW223160   0.479   6.811   1.665
 7421SOL     OW23161   3.208   3.429   1.195
 7421SOL    HW123162   3.264   3.510   1.179
 7421SOL    HW223163   3.115   3.445   1.162
 7422SOL     OW23164   0.047   2.903   2.566
 7422SOL    HW123165   6.999   2.951   2.619
 7422SOL    HW223166   0.057   2.947   2.477
 7423SOL     OW23167   6.362   4.829   5.366
 7423SOL    HW123168   6.377   4.760   5.294
 7423SOL    HW223169   6.421   4.908   5.349
 7424SOL     OW23170   6.832   0.283   4.902
 7424SOL    HW123171   6.817   0.288   5.001
 7424SOL    HW223172   6.892   0.206   4.881
 7425SOL     OW23173   4.460   5.583   6.145
 7425SOL    HW123174   4.546   5.631   6.165
 7425SOL    HW223175   4.387   5.650   6.129
 7426SOL     OW23176   2.000   1.279   5.893
 7426SOL    HW123177   1.908   1.316   5.882
 7426SOL    HW223178   2.041   1.315   5.976
 7427SOL     OW23179   3.657   6.679   4.056
 7427SOL    HW123180   3.617   6.765   4.025
 7427SOL    HW223181   3.668   6.681   4.156
 7428SOL     OW23182   4.304   1.045   6.140
 7428SOL    HW123183   4.314   1.142   6.118
 7428SOL    HW223184   4.372   0.992   6.090
 7429SOL     OW23185   6.253   6.710   3.197
 7429SOL    HW123186   6.219   6.760   3.117
 7429SOL    HW223187   6.195   6.631   3.214
 7430SOL     OW23188   0.472   3.636   6.628
 7430SOL    HW123189   0.556   3.583   6.633
 7430SOL    HW223190   0.396   3.577   6.601
 7431SOL     OW23191   0.375   3.216   2.752
 7431SOL    HW123192   0.280   3.184   2.747
 7431SOL    HW223193   0.437   3.142   2.726
 7432SOL     OW23194   0.082   0.250   3.144
 7432SOL    HW123195   0.078   0.223   3.241
 7432SOL    HW223196   0.112   0.172   3.089
 7433SOL     OW23197   5.523   4.803   6.678
 7433SOL    HW123198   5.515   4.802   6.777
 7433SOL    HW223199   5.521   4.709   6.643
 7434SOL     OW23200   5.611   0.415   5.653
 7434SOL    HW123201   5.701   0.458   5.642
 7434SOL    HW223202   5.563   0.413   5.566
 7435SOL     OW23203   4.062   5.721   0.615
 7435SOL    HW123204   3.962   5.727   0.611
 7435SOL    HW223205   4.089   5.630   0.645
 7436SOL     OW23206   5.463   3.293   6.879
 7436SOL    HW123207   5.528   3.270   6.807
 7436SOL    HW223208   5.505   3.358   6.943
 7437SOL     OW23209   0.570   5.898   0.486
 7437SOL    HW123210   0.482   5.857   0.512
 7437SOL    HW223211   0.585   5.885   0.388
 7438SOL     OW23212   0.517   5.049   0.199
 7438SOL    HW123213   0.456   5.128   0.198
 7438SOL    HW223214   0.611   5.081   0.184
 7439SOL     OW23215   1.785   5.788   4.540
 7439SOL    HW123216   1.828   5.782   4.630
 7439SOL    HW223217   1.808   5.876   4.498
 7440SOL     OW23218   0.279   3.556   4.788
 7440SOL    HW123219   0.326   3.593   4.708
 7440SOL    HW223220   0.292   3.457   4.793
 7441SOL     OW23221   5.118   5.879   4.108
 7441SOL    HW123222   5.163   5.802   4.154
 7441SOL    HW223223   5.184   5.924   4.047
 7442SOL     OW23224   0.327   0.895   6.396
 7442SOL    HW123225   0.247   0.864   6.344
 7442SOL    HW223226   0.302   0.903   6.492
 7443SOL     OW23227   0.052   0.584   2.511
 7443SOL    HW123228   0.105   0.599   2.427
 7443SOL    HW223229   0.091   0.639   2.585
 7444SOL     OW23230   6.327   3.295   5.004
 7444SOL    HW123231   6.260   3.255   5.066
 7444SOL    HW223232   6.415   3.248   5.017
 7445SOL     OW23233   3.168   1.352   1.235
 7445SOL    HW123234   3.265   1.331   1.227
 7445SOL    HW223235   3.116   1.266   1.238
 7446SOL     OW23236   5.475   4.208   0.786
 7446SOL    HW123237   5.571   4.190   0.805
 7446SOL    HW223238   5.426   4.122   0.775
 7447SOL     OW23239   0.645   3.308   5.600
 7447SOL    HW123240   0.714   3.367   5.642
 7447SOL    HW223241   0.643   3.220   5.648
 7448SOL     OW23242   6.454   0.014   5.608
 7448SOL    HW123243   6.547   7.013   5.634
 7448SOL    HW223244   6.390   6.972   5.648
 7449SOL     OW23245   6.408   2.861   1.875
 7449SOL    HW123246   6.350   2.782   1.895
 7449SOL    HW223247   6.358   2.945   1.895
 7450SOL     OW23248   5.488   1.818   4.638
 7450SOL    HW123249   5.430   1.798   4.559
 7450SOL    HW223250   5.502   1.917   4.644
 7451SOL     OW23251   0.948   6.654   3.871
 7451SOL    HW123252   0.873   6.691   3.816
 7451SOL    HW223253   1.022   6.721   3.875
 7452SOL     OW23254   0.988   6.231   4.893
 7452SOL    HW123255   0.997   6.145   4.943
 7452SOL    HW223256   0.896   6.237   4.854
 7453SOL     OW23257   4.764   6.145   5.334
 7453SOL    HW123258   4.845   6.199   5.311
 7453SOL    HW223259   4.687   6.205   5.351
 7454SOL     OW23260   1.285   2.308   2.070
 7454SOL    HW123261   1.233   2.364   2.004
 7454SOL    HW223262   1.222   2.247   2.118
 7455SOL     OW23263   6.889   1.688   2.104
 7455SOL    HW123264   6.881   1.606   2.160
 7455SOL    HW223265   6.905   1.663   2.008
 7456SOL     OW23266   0.165   1.569   4.116
 7456SOL    HW123267   0.133   1.492   4.171
 7456SOL    HW223268   0.200   1.535   4.029
 7457SOL     OW23269   3.970   0.559   5.625
 7457SOL    HW123270   3.989   0.463   5.643
 7457SOL    HW223271   3.943   0.571   5.530
 7458SOL     OW23272   2.292   6.894   5.962
 7458SOL    HW123273   2.203   6.850   5.975
 7458SOL    HW223274   2.360   6.850   6.021
 7459SOL     OW23275   5.243   0.820   1.534
 7459SOL    HW123276   5.221   0.875   1.614
 7459SOL    HW223277   5.281   0.732   1.562
 7460SOL     OW23278   2.132   5.624   1.030
 7460SOL    HW123279   2.160   5.598   0.938
 7460SOL    HW223280   2.063   5.558   1.063
 7461SOL     OW23281   6.369   1.823   5.755
 7461SOL    HW123282   6.443   1.852   5.815
 7461SOL    HW223283   6.309   1.900   5.734
 7462SOL     OW23284   1.176   4.051   2.895
 7462SOL    HW123285   1.251   4.025   2.834
 7462SOL    HW223286   1.181   4.149   2.913
 7463SOL     OW23287   3.167   5.122   0.766
 7463SOL    HW123288   3.142   5.178   0.845
 7463SOL    HW223289   3.087   5.107   0.709
 7464SOL     OW23290   4.934   0.320   6.739
 7464SOL    HW123291   5.031   0.299   6.728
 7464SOL    HW223292   4.879   0.243   6.709
 7465SOL     OW23293   0.812   6.106   0.086
 7465SOL    HW123294   0.893   6.164   0.077
 7465SOL    HW223295   0.837   6.021   0.131
 7466SOL     OW23296   0.603   0.437   6.065
 7466SOL    HW123297   0.569   0.346   6.090
 7466SOL    HW223298   0.700   0.431   6.043
 7467SOL     OW23299   0.098   2.046   0.568
 7467SOL    HW123300   0.187   2.071   0.606
 7467SOL    HW223301   0.102   1.952   0.534
 7468SOL     OW23302   6.080   2.366   3.506
 7468SOL    HW123303   6.080   2.272   3.473
 7468SOL    HW223304   6.136   2.422   3.445
 7469SOL     OW23305   0.343   0.899   0.682
 7469SOL    HW123306   0.369   0.990   0.714
 7469SOL    HW223307   0.380   0.885   0.590
 7470SOL     OW23308   0.313   3.084   3.847
 7470SOL    HW123309   0.368   3.154   3.801
 7470SOL    HW223310   0.293   3.112   3.940
 7471SOL     OW23311   0.176   6.285   6.155
 7471SOL    HW123312   0.103   6.271   6.088
 7471SOL    HW223313   0.185   6.382   6.175
 7472SOL     OW23314   6.217   0.398   4.095
 7472SOL    HW123315   6.233   0.349   4.180
 7472SOL    HW223316   6.297   0.454   4.073
 7473SOL     OW23317   6.517   4.563   2.781
 7473SOL    HW123318   6.483   4.591   2.871
 7473SOL    HW223319   6.498   4.466   2.768
 7474SOL     OW23320   2.272   1.438   5.583
 7474SOL    HW123321   2.339   1.464   5.514
 7474SOL    HW223322   2.296   1.482   5.670
 7475SOL     OW23323   4.478   1.408   2.742
 7475SOL    HW123324   4.466   1.369   2.650
 7475SOL    HW223325   4.394   1.455   2.769
 7476SOL     OW23326   3.385   5.421   3.345
 7476SOL    HW123327   3.436   5.452   3.264
 7476SOL    HW223328   3.413   5.475   3.425
 7477SOL     OW23329   6.889   1.331   5.162
 7477SOL    HW123330   6.890   1.424   5.126
 7477SOL    HW223331   6.976   1.312   5.207
 7478SOL     OW23332   4.759   5.411   6.299
 7478SOL    HW123333   4.726   5.501   6.274
 7478SOL    HW223334   4.810   5.417   6.385
 7479SOL     OW23335   4.238   2.346   1.723
 7479SOL    HW123336   4.255   2.289   1.803
 7479SOL    HW223337   4.289   2.432   1.732
 7480SOL     OW23338   6.907   4.250   1.772
 7480SOL    HW123339   6.973   4.209   1.709
 7480SOL    HW223340   6.955   4.314   1.833
 7481SOL     OW23341   5.972   5.174   1.152
 7481SOL    HW123342   5.987   5.224   1.238
 7481SOL    HW223343   6.035   5.096   1.148
 7482SOL     OW23344   4.194   2.255   3.095
 7482SOL    HW123345   4.223   2.344   3.061
 7482SOL    HW223346   4.095   2.246   3.085
 7483SOL     OW23347   4.771   2.999   4.733
 7483SOL    HW123348   4.831   2.972   4.657
 7483SOL    HW223349   4.677   2.971   4.712
 7484SOL     OW23350   0.717   0.812   3.872
 7484SOL    HW123351   0.629   0.786   3.912
 7484SOL    HW223352   0.710   0.905   3.836
 7485SOL     OW23353   3.261   0.923   4.922
 7485SOL    HW123354   3.268   0.898   4.825
 7485SOL    HW223355   3.306   1.011   4.937
 7486SOL     OW23356   2.543   0.412   6.031
 7486SOL    HW123357   2.485   0.405   6.111
 7486SOL    HW223358   2.571   0.507   6.017
 7487SOL     OW23359   2.185   6.475   2.687
 7487SOL    HW123360   2.097   6.518   2.706
 7487SOL    HW223361   2.188   6.385   2.732
 7488SOL     OW23362   1.807   6.547   4.045
 7488SOL    HW123363   1.817   6.629   3.988
 7488SOL    HW223364   1.841   6.467   3.995
 7489SOL     OW23365   5.415   2.800   4.691
 7489SOL    HW123366   5.501   2.851   4.688
 7489SOL    HW223367   5.428   2.716   4.745
 7490SOL     OW23368   0.931   0.661   1.433
 7490SOL    HW123369   1.003   0.707   1.380
 7490SOL    HW223370   0.970   0.584   1.483
 7491SOL     OW23371   6.057   3.057   5.992
 7491SOL    HW123372   6.148   3.072   6.030
 7491SOL    HW223373   6.032   3.135   5.934
 7492SOL     OW23374   2.068   0.837   3.565
 7492SOL    HW123375   1.969   0.822   3.571
 7492SOL    HW223376   2.115   0.765   3.616
 7493SOL     OW23377   6.840   3.640   0.075
 7493SOL    HW123378   6.901   3.580   0.022
 7493SOL    HW223379   6.855   3.735   0.048
 7494SOL     OW23380   5.129   1.307   2.644
 7494SOL    HW123381   5.083   1.220   2.628
 7494SOL    HW223382   5.087   1.353   2.722
 7495SOL     OW23383   1.613   1.143   0.313
 7495SOL    HW123384   1.529   1.197   0.313
 7495SOL    HW223385   1.590   1.046   0.308
 7496SOL     OW23386   6.734   3.478   6.408
 7496SOL    HW123387   6.821   3.500   6.451
 7496SOL    HW223388   6.682   3.562   6.393
 7497SOL     OW23389   2.269   5.008   0.504
 7497SOL    HW123390   2.304   5.012   0.597
 7497SOL    HW223391   2.172   4.985   0.505
 7498SOL     OW23392   2.440   1.497   5.297
 7498SOL    HW123393   2.512   1.482   5.228
 7498SOL    HW223394   2.472   1.564   5.364
 7499SOL     OW23395   3.746   1.931   2.972
 7499SOL    HW123396   3.699   1.905   2.888
 7499SOL    HW223397   3.737   1.857   3.040
 7500SOL     OW23398   3.327   5.117   3.524
 7500SOL    HW123399   3.412   5.162   3.552
 7500SOL    HW223400   3.262   5.186   3.491
 7501SOL     OW23401   5.941   4.000   4.391
 7501SOL    HW123402   5.928   3.993   4.490
 7501SOL    HW223403   5.860   3.963   4.345
 7502SOL     OW23404   1.601   6.977   4.488
 7502SOL    HW123405   1.658   0.022   4.441
 7502SOL    HW223406   1.629   6.885   4.459
 7503SOL     OW23407   3.337   1.772   0.750
 7503SOL    HW123408   3.321   1.781   0.848
 7503SOL    HW223409   3.311   1.856   0.703
 7504SOL     OW23410   1.840   0.029   2.979
 7504SOL    HW123411   1.930   0.071   2.993
 7504SOL    HW223412   1.769   0.089   3.015
 7505SOL     OW23413   1.401   1.753   5.467
 7505SOL    HW123414   1.485   1.780   5.514
 7505SOL    HW223415   1.367   1.830   5.413
 7506SOL     OW23416   5.167   0.420   2.937
 7506SOL    HW123417   5.214   0.367   3.007
 7506SOL    HW223418   5.232   0.484   2.895
 7507SOL     OW23419   1.002   0.515   2.308
 7507SOL    HW123420   1.082   0.459   2.286
 7507SOL    HW223421   0.929   0.498   2.243
 7508SOL     OW23422   0.693   6.172   2.009
 7508SOL    HW123423   0.703   6.199   1.913
 7508SOL    HW223424   0.666   6.076   2.014
 7509SOL     OW23425   5.268   5.018   0.405
 7509SOL    HW123426   5.257   4.919   0.403
 7509SOL    HW223427   5.316   5.048   0.322
 7510SOL     OW23428   3.789   4.164   5.573
 7510SOL    HW123429   3.702   4.153   5.525
 7510SOL    HW223430   3.855   4.100   5.536
 7511SOL     OW23431   2.603   0.047   3.749
 7511SOL    HW123432   2.511   0.079   3.770
 7511SOL    HW223433   2.614   6.975   3.778
 7512SOL     OW23434   3.063   6.009   6.889
 7512SOL    HW123435   3.125   6.057   6.827
 7512SOL    HW223436   3.051   6.064   6.972
 7513SOL     OW23437   2.251   0.688   1.813
 7513SOL    HW123438   2.268   0.786   1.819
 7513SOL    HW223439   2.335   0.641   1.785
 7514SOL     OW23440   2.582   5.562   1.036
 7514SOL    HW123441   2.655   5.494   1.036
 7514SOL    HW223442   2.601   5.631   0.965
 7515SOL     OW23443   6.832   4.957   2.393
 7515SOL    HW123444   6.809   4.861   2.408
 7515SOL    HW223445   6.760   5.015   2.432
 7516SOL     OW23446   6.464   6.075   5.794
 7516SOL    HW123447   6.432   5.994   5.746
 7516SOL    HW223448   6.398   6.100   5.865
 7517SOL     OW23449   0.189   3.402   0.439
 7517SOL    HW123450   0.092   3.379   0.443
 7517SOL    HW223451   0.212   3.429   0.345
 7518SOL     OW23452   4.300   5.010   3.156
 7518SOL    HW123453   4.229   5.028   3.224
 7518SOL    HW223454   4.292   4.916   3.123
 7519SOL     OW23455   6.773   6.823   3.855
 7519SOL    HW123456   6.842   6.814   3.783
 7519SOL    HW223457   6.734   6.734   3.875
 7520SOL     OW23458   3.394   0.867   2.434
 7520SOL    HW123459   3.469   0.898   2.375
 7520SOL    HW223460   3.376   0.770   2.417
 7521SOL     OW23461   5.005   4.090   6.189
 7521SOL    HW123462   5.049   4.179   6.200
 7521SOL    HW223463   4.915   4.103   6.147
 7522SOL     OW23464   2.438   0.714   6.627
 7522SOL    HW123465   2.389   0.788   6.581
 7522SOL    HW223466   2.528   0.747   6.656
 7523SOL     OW23467   5.943   0.088   6.033
 7523SOL    HW123468   5.925   0.186   6.035
 7523SOL    HW223469   5.858   0.038   6.053
 7524SOL     OW23470   2.181   2.229   5.750
 7524SOL    HW123471   2.103   2.262   5.804
 7524SOL    HW223472   2.209   2.140   5.785
 7525SOL     OW23473   3.813   0.512   6.083
 7525SOL    HW123474   3.819   0.602   6.126
 7525SOL    HW223475   3.718   0.495   6.055
 7526SOL     OW23476   2.614   3.503   1.430
 7526SOL    HW123477   2.595   3.447   1.510
 7526SOL    HW223478   2.600   3.449   1.347
 7527SOL     OW23479   4.145   5.878   3.414
 7527SOL    HW123480   4.218   5.819   3.448
 7527SOL    HW223481   4.130   5.953   3.479
 7528SOL     OW23482   5.440   1.787   6.825
 7528SOL    HW123483   5.424   1.707   6.884
 7528SOL    HW223484   5.438   1.758   6.729
 7529SOL     OW23485   5.226   0.742   4.278
 7529SOL    HW123486   5.235   0.836   4.246
 7529SOL    HW223487   5.182   0.687   4.208
 7530SOL     OW23488   0.758   3.816   2.788
 7530SOL    HW123489   0.856   3.837   2.795
 7530SOL    HW223490   0.715   3.880   2.724
 7531SOL     OW23491   4.691   2.801   4.178
 7531SOL    HW123492   4.784   2.808   4.213
 7531SOL    HW223493   4.630   2.769   4.251
 7532SOL     OW23494   5.841   4.867   0.526
 7532SOL    HW123495   5.886   4.819   0.451
 7532SOL    HW223496   5.742   4.857   0.516
 7533SOL     OW23497   2.178   1.702   2.218
 7533SOL    HW123498   2.112   1.772   2.246
 7533SOL    HW223499   2.195   1.709   2.120
 7534SOL     OW23500   4.401   6.265   5.442
 7534SOL    HW123501   4.308   6.284   5.411
 7534SOL    HW223502   4.459   6.344   5.424
 7535SOL     OW23503   2.008   6.762   5.469
 7535SOL    HW123504   1.985   6.860   5.468
 7535SOL    HW223505   1.925   6.709   5.453
 7536SOL     OW23506   4.798   4.346   4.361
 7536SOL    HW123507   4.879   4.355   4.303
 7536SOL    HW223508   4.815   4.389   4.450
 7537SOL     OW23509   3.515   5.579   2.359
 7537SOL    HW123510   3.469   5.491   2.374
 7537SOL    HW223511   3.458   5.636   2.300
 7538SOL     OW23512   2.528   3.096   1.653
 7538SOL    HW123513   2.498   3.001   1.656
 7538SOL    HW223514   2.608   3.108   1.713
 7539SOL     OW23515   0.799   2.870   3.908
 7539SOL    HW123516   0.881   2.900   3.858
 7539SOL    HW223517   0.746   2.808   3.850
 7540SOL     OW23518   4.584   0.754   5.287
 7540SOL    HW123519   4.615   0.666   5.251
 7540SOL    HW223520   4.644   0.783   5.362
 7541SOL     OW23521   0.156   4.428   4.600
 7541SOL    HW123522   0.154   4.370   4.682
 7541SOL    HW223523   0.244   4.419   4.554
 7542SOL     OW23524   0.951   5.162   6.878
 7542SOL    HW123525   0.915   5.105   6.804
 7542SOL    HW223526   0.961   5.256   6.846
 7543SOL     OW23527   3.358   1.821   0.049
 7543SOL    HW123528   3.375   1.828   0.148
 7543SOL    HW223529   3.380   1.729   0.018
 7544SOL     OW23530   0.244   2.135   2.788
 7544SOL    HW123531   0.222   2.202   2.717
 7544SOL    HW223532   0.299   2.179   2.859
 7545SOL     OW23533   6.618   5.578   1.191
 7545SOL    HW123534   6.622   5.673   1.158
 7545SOL    HW223535   6.530   5.562   1.234
 7546SOL     OW23536   3.210   1.655   2.138
 7546SOL    HW123537   3.252   1.624   2.224
 7546SOL    HW223538   3.142   1.726   2.158
 7547SOL     OW23539   5.010   0.906   0.531
 7547SOL    HW123540   5.063   0.973   0.583
 7547SOL    HW223541   4.930   0.951   0.491
 7548SOL     OW23542   4.066   1.615   0.001
 7548SOL    HW123543   4.063   1.715   0.008
 7548SOL    HW223544   3.993   1.584   6.964
 7549SOL     OW23545   5.478   2.212   1.125
 7549SOL    HW123546   5.493   2.131   1.068
 7549SOL    HW223547   5.476   2.185   1.221
 7550SOL     OW23548   2.721   5.160   2.401
 7550SOL    HW123549   2.818   5.158   2.379
 7550SOL    HW223550   2.680   5.242   2.362
 7551SOL     OW23551   5.314   3.848   6.536
 7551SOL    HW123552   5.319   3.788   6.457
 7551SOL    HW223553   5.222   3.887   6.543
 7552SOL     OW23554   1.410   5.559   2.614
 7552SOL    HW123555   1.369   5.650   2.609
 7552SOL    HW223556   1.337   5.490   2.617
 7553SOL     OW23557   4.716   6.601   5.236
 7553SOL    HW123558   4.673   6.609   5.146
 7553SOL    HW223559   4.751   6.691   5.264
 7554SOL     OW23560   4.629   1.706   0.868
 7554SOL    HW123561   4.653   1.666   0.956
 7554SOL    HW223562   4.531   1.695   0.851
 7555SOL     OW23563   1.858   4.787   5.721
 7555SOL    HW123564   1.822   4.728   5.794
 7555SOL    HW223565   1.901   4.730   5.651
 7556SOL     OW23566   1.249   2.985   0.495
 7556SOL    HW123567   1.237   2.955   0.401
 7556SOL    HW223568   1.344   2.969   0.523
 7557SOL     OW23569   5.363   1.844   5.963
 7557SOL    HW123570   5.399   1.788   6.038
 7557SOL    HW223571   5.373   1.794   5.877
 7558SOL     OW23572   1.396   2.903   4.308
 7558SOL    HW123573   1.297   2.901   4.320
 7558SOL    HW223574   1.439   2.924   4.395
 7559SOL     OW23575   5.758   4.389   6.607
 7559SOL    HW123576   5.824   4.345   6.667
 7559SOL    HW223577   5.749   4.335   6.523
 7560SOL     OW23578   4.796   6.052   1.103
 7560SOL    HW123579   4.836   6.040   1.194
 7560SOL    HW223580   4.856   6.108   1.047
 7561SOL     OW23581   1.512   3.225   6.965
 7561SOL    HW123582   1.531   3.313   7.009
 7561SOL    HW223583   1.426   3.230   6.915
 7562SOL     OW23584   6.896   6.483   3.686
 7562SOL    HW123585   6.850   6.533   3.759
 7562SOL    HW223586   6.940   6.402   3.724
 7563SOL     OW23587   2.672   6.501   0.820
 7563SOL    HW123588   2.700   6.594   0.794
 7563SOL    HW223589   2.730   6.469   0.896
 7564SOL     OW23590   4.747   0.726   3.259
 7564SOL    HW123591   4.703   0.797   3.205
 7564SOL    HW223592   4.764   0.760   3.352
 7565SOL     OW23593   5.428   2.942   0.562
 7565SOL    HW123594   5.488   2.978   0.491
 7565SOL    HW223595   5.460   2.853   0.592
 7566SOL     OW23596   5.894   4.917   2.684
 7566SOL    HW123597   5.960   4.853   2.644
 7566SOL    HW223598   5.912   5.009   2.649
 7567SOL     OW23599   1.678   2.380   4.829
 7567SOL    HW123600   1.685   2.334   4.918
 7567SOL    HW223601   1.656   2.314   4.758
 7568SOL     OW23602   5.627   6.166   2.347
 7568SOL    HW123603   5.704   6.188   2.406
 7568SOL    HW223604   5.644   6.079   2.300
 7569SOL     OW23605   4.194   6.181   5.872
 7569SOL    HW123606   4.151   6.210   5.957
 7569SOL    HW223607   4.224   6.086   5.880
 7570SOL     OW23608   5.453   3.890   5.217
 7570SOL    HW123609   5.408   3.874   5.305
 7570SOL    HW223610   5.544   3.927   5.233
 7571SOL     OW23611   4.911   5.391   3.434
 7571SOL    HW123612   4.978   5.349   3.373
 7571SOL    HW223613   4.951   5.405   3.524
 7572SOL     OW23614   4.700   1.205   1.853
 7572SOL    HW123615   4.618   1.171   1.898
 7572SOL    HW223616   4.673   1.263   1.775
 7573SOL     OW23617   0.585   0.041   5.040
 7573SOL    HW123618   0.615   0.021   4.946
 7573SOL    HW223619   0.576   0.140   5.052
 7574SOL     OW23620   6.006   0.851   5.432
 7574SOL    HW123621   6.004   0.876   5.335
 7574SOL    HW223622   6.084   0.791   5.449
 7575SOL     OW23623   4.368   0.065   6.279
 7575SOL    HW123624   4.352   0.037   6.374
 7575SOL    HW223625   4.450   0.019   6.245
 7576SOL     OW23626   4.863   4.833   6.350
 7576SOL    HW123627   4.787   4.859   6.408
 7576SOL    HW223628   4.946   4.824   6.405
 7577SOL     OW23629   0.307   6.944   0.012
 7577SOL    HW123630   0.213   6.921   7.009
 7577SOL    HW223631   0.334   0.007   6.991
 7578SOL     OW23632   2.548   5.645   1.833
 7578SOL    HW123633   2.605   5.581   1.885
 7578SOL    HW223634   2.513   5.716   1.894
 7579SOL     OW23635   6.613   1.218   1.524
 7579SOL    HW123636   6.691   1.160   1.548
 7579SOL    HW223637   6.528   1.167   1.539
 7580SOL     OW23638   1.134   3.974   4.043
 7580SOL    HW123639   1.105   3.930   3.958
 7580SOL    HW223640   1.058   4.028   4.080
 7581SOL     OW23641   0.023   0.771   1.237
 7581SOL    HW123642   6.947   0.758   1.238
 7581SOL    HW223643   0.053   0.807   1.326
 7582SOL     OW23644   3.679   0.949   1.560
 7582SOL    HW123645   3.654   1.018   1.492
 7582SOL    HW223646   3.766   0.973   1.601
 7583SOL     OW23647   6.194   2.829   1.308
 7583SOL    HW123648   6.098   2.855   1.298
 7583SOL    HW223649   6.213   2.811   1.405
 7584SOL     OW23650   2.636   6.817   1.615
 7584SOL    HW123651   2.626   6.892   1.680
 7584SOL    HW223652   2.560   6.753   1.626
 7585SOL     OW23653   1.541   2.840   6.727
 7585SOL    HW123654   1.508   2.802   6.814
 7585SOL    HW223655   1.472   2.903   6.690
 7586SOL     OW23656   2.897   1.051   3.501
 7586SOL    HW123657   2.992   1.025   3.518
 7586SOL    HW223658   2.840   1.019   3.577
 7587SOL     OW23659   2.331   1.779   0.425
 7587SOL    HW123660   2.311   1.864   0.474
 7587SOL    HW223661   2.246   1.733   0.401
 7588SOL     OW23662   1.320   2.903   2.939
 7588SOL    HW123663   1.407   2.946   2.912
 7588SOL    HW223664   1.313   2.902   3.039
 7589SOL     OW23665   0.937   0.144   2.444
 7589SOL    HW123666   0.891   0.143   2.355
 7589SOL    HW223667   0.934   0.236   2.482
 7590SOL     OW23668   4.675   1.836   6.250
 7590SOL    HW123669   4.667   1.870   6.157
 7590SOL    HW223670   4.678   1.913   6.314
 7591SOL     OW23671   0.307   3.560   0.187
 7591SOL    HW123672   0.352   3.638   0.231
 7591SOL    HW223673   0.211   3.558   0.213
 7592SOL     OW23674   6.811   4.866   5.369
 7592SOL    HW123675   6.828   4.806   5.291
 7592SOL    HW223676   6.899   4.899   5.405
 7593SOL     OW23677   5.698   3.271   1.275
 7593SOL    HW123678   5.660   3.325   1.199
 7593SOL    HW223679   5.684   3.321   1.361
 7594SOL     OW23680   1.195   4.912   2.488
 7594SOL    HW123681   1.174   5.002   2.527
 7594SOL    HW223682   1.267   4.868   2.542
 7595SOL     OW23683   0.042   2.588   5.606
 7595SOL    HW123684   0.042   2.513   5.672
 7595SOL    HW223685   0.008   2.557   5.518
 7596SOL     OW23686   4.587   5.786   4.174
 7596SOL    HW123687   4.589   5.774   4.074
 7596SOL    HW223688   4.531   5.865   4.196
 7597SOL     OW23689   3.772   6.357   2.735
 7597SOL    HW123690   3.843   6.321   2.675
 7597SOL    HW223691   3.745   6.286   2.800
 7598SOL     OW23692   6.604   1.425   3.208
 7598SOL    HW123693   6.655   1.466   3.132
 7598SOL    HW223694   6.506   1.427   3.188
 7599SOL     OW23695   5.006   2.114   2.716
 7599SOL    HW123696   4.909   2.132   2.734
 7599SOL    HW223697   5.014   2.046   2.643
 7600SOL     OW23698   1.985   1.897   2.308
 7600SOL    HW123699   2.045   1.971   2.339
 7600SOL    HW223700   1.914   1.934   2.249
 7601SOL     OW23701   1.800   5.246   3.152
 7601SOL    HW123702   1.861   5.325   3.149
 7601SOL    HW223703   1.782   5.215   3.059
 7602SOL     OW23704   1.568   4.117   5.721
 7602SOL    HW123705   1.477   4.090   5.692
 7602SOL    HW223706   1.612   4.039   5.767
 7603SOL     OW23707   1.325   5.672   5.957
 7603SOL    HW123708   1.262   5.605   5.994
 7603SOL    HW223709   1.388   5.628   5.893
 7604SOL     OW23710   1.494   4.267   4.500
 7604SOL    HW123711   1.486   4.244   4.404
 7604SOL    HW223712   1.527   4.188   4.551
 7605SOL     OW23713   0.519   0.131   1.050
 7605SOL    HW123714   0.584   0.186   1.101
 7605SOL    HW223715   0.439   0.112   1.107
 7606SOL     OW23716   5.499   3.764   4.936
 7606SOL    HW123717   5.469   3.839   4.994
 7606SOL    HW223718   5.586   3.728   4.969
 7607SOL     OW23719   3.557   4.612   6.880
 7607SOL    HW123720   3.638   4.578   6.927
 7607SOL    HW223721   3.571   4.610   6.781
 7608SOL     OW23722   4.087   3.643   2.748
 7608SOL    HW123723   4.046   3.704   2.680
 7608SOL    HW223724   4.094   3.551   2.711
 7609SOL     OW23725   0.872   3.584   4.146
 7609SOL    HW123726   0.892   3.636   4.229
 7609SOL    HW223727   0.905   3.490   4.156
 7610SOL     OW23728   4.467   5.897   6.293
 7610SOL    HW123729   4.415   5.950   6.359
 7610SOL    HW223730   4.500   5.813   6.336
 7611SOL     OW23731   6.610   2.597   1.254
 7611SOL    HW123732   6.539   2.559   1.195
 7611SOL    HW223733   6.572   2.672   1.308
 7612SOL     OW23734   4.811   2.941   3.823
 7612SOL    HW123735   4.893   2.964   3.771
 7612SOL    HW223736   4.803   3.003   3.901
 7613SOL     OW23737   6.687   3.531   1.453
 7613SOL    HW123738   6.645   3.508   1.366
 7613SOL    HW223739   6.635   3.606   1.496
 7614SOL     OW23740   5.251   2.912   0.785
 7614SOL    HW123741   5.326   2.948   0.729
 7614SOL    HW223742   5.218   2.985   0.845
 7615SOL     OW23743   3.850   4.901   6.932
 7615SOL    HW123744   3.832   4.852   7.017
 7615SOL    HW223745   3.796   4.985   6.930
 7616SOL     OW23746   6.092   5.562   4.412
 7616SOL    HW123747   6.188   5.536   4.397
 7616SOL    HW223748   6.078   5.584   4.509
 7617SOL     OW23749   4.157   5.023   2.605
 7617SOL    HW123750   4.127   4.965   2.681
 7617SOL    HW223751   4.250   5.055   2.622
 7618SOL     OW23752   0.470   1.283   5.873
 7618SOL    HW123753   0.372   1.264   5.864
 7618SOL    HW223754   0.514   1.274   5.783
 7619SOL     OW23755   5.922   2.862   5.114
 7619SOL    HW123756   5.898   2.841   5.020
 7619SOL    HW223757   5.845   2.905   5.160
 7620SOL     OW23758   3.843   5.649   0.893
 7620SOL    HW123759   3.917   5.712   0.915
 7620SOL    HW223760   3.879   5.571   0.842
 7621SOL     OW23761   6.983   1.828   1.046
 7621SOL    HW123762   6.991   1.863   0.953
 7621SOL    HW223763   6.888   1.832   1.075
 7622SOL     OW23764   4.215   6.216   1.045
 7622SOL    HW123765   4.238   6.153   1.120
 7622SOL    HW223766   4.189   6.163   0.964
 7623SOL     OW23767   4.961   4.876   6.794
 7623SOL    HW123768   4.904   4.865   6.875
 7623SOL    HW223769   5.018   4.795   6.781
 7624SOL     OW23770   6.704   3.553   5.531
 7624SOL    HW123771   6.767   3.627   5.507
 7624SOL    HW223772   6.656   3.576   5.615
 7625SOL     OW23773   4.721   0.448   1.496
 7625SOL    HW123774   4.697   0.462   1.400
 7625SOL    HW223775   4.641   0.417   1.547
 7626SOL     OW23776   5.759   6.980   4.620
 7626SOL    HW123777   5.668   6.986   4.661
 7626SOL    HW223778   5.751   6.960   4.523
 7627SOL     OW23779   4.927   2.767   0.019
 7627SOL    HW123780   5.013   2.751   6.994
 7627SOL    HW223781   4.851   2.743   6.983
 7628SOL     OW23782   3.564   1.791   2.333
 7628SOL    HW123783   3.582   1.758   2.241
 7628SOL    HW223784   3.571   1.715   2.398
 7629SOL     OW23785   0.060   5.974   3.057
 7629SOL    HW123786   6.989   6.006   3.074
 7629SOL    HW223787   0.119   6.003   3.133
 7630SOL     OW23788   6.674   6.875   1.111
 7630SOL    HW123789   6.631   6.918   1.032
 7630SOL    HW223790   6.718   6.790   1.083
 7631SOL     OW23791   0.966   1.554   6.346
 7631SOL    HW123792   0.884   1.548   6.289
 7631SOL    HW223793   1.015   1.467   6.342
 7632SOL     OW23794   3.285   2.724   1.678
 7632SOL    HW123795   3.240   2.708   1.590
 7632SOL    HW223796   3.270   2.646   1.738
 7633SOL     OW23797   5.212   0.420   1.516
 7633SOL    HW123798   5.130   0.467   1.484
 7633SOL    HW223799   5.242   0.356   1.445
 7634SOL     OW23800   1.461   2.058   2.164
 7634SOL    HW123801   1.423   2.150   2.151
 7634SOL    HW223802   1.479   2.043   2.262
 7635SOL     OW23803   3.622   4.958   4.890
 7635SOL    HW123804   3.562   4.961   4.970
 7635SOL    HW223805   3.569   4.935   4.809
 7636SOL     OW23806   1.538   2.684   4.179
 7636SOL    HW123807   1.499   2.771   4.210
 7636SOL    HW223808   1.467   2.613   4.181
 7637SOL     OW23809   2.188   5.441   2.258
 7637SOL    HW123810   2.228   5.384   2.329
 7637SOL    HW223811   2.096   5.469   2.285
 7638SOL     OW23812   3.008   6.224   0.906
 7638SOL    HW123813   2.968   6.135   0.884
 7638SOL    HW223814   3.046   6.221   0.999
 7639SOL     OW23815   1.126   2.353   0.860
 7639SOL    HW123816   1.196   2.282   0.862
 7639SOL    HW223817   1.103   2.374   0.764
 7640SOL     OW23818   3.133   1.681   5.901
 7640SOL    HW123819   3.208   1.744   5.882
 7640SOL    HW223820   3.051   1.709   5.850
 7641SOL     OW23821   0.896   4.272   2.237
 7641SOL    HW123822   0.935   4.344   2.179
 7641SOL    HW223823   0.964   4.201   2.253
 7642SOL     OW23824   3.626   0.942   2.952
 7642SOL    HW123825   3.609   1.037   2.930
 7642SOL    HW223826   3.646   0.890   2.869
 7643SOL     OW23827   4.969   2.807   4.234
 7643SOL    HW123828   4.978   2.751   4.152
 7643SOL    HW223829   5.053   2.861   4.246
 7644SOL     OW23830   5.948   2.205   2.917
 7644SOL    HW123831   5.963   2.252   2.830
 7644SOL    HW223832   5.883   2.131   2.905
 7645SOL     OW23833   4.047   3.488   5.536
 7645SOL    HW123834   4.142   3.475   5.508
 7645SOL    HW223835   4.028   3.586   5.546
 7646SOL     OW23836   0.986   3.636   3.100
 7646SOL    HW123837   0.893   3.651   3.133
 7646SOL    HW223838   1.030   3.725   3.086
 7647SOL     OW23839   6.750   3.293   2.827
 7647SOL    HW123840   6.675   3.317   2.889
 7647SOL    HW223841   6.833   3.341   2.856
 7648SOL     OW23842   2.696   1.502   2.708
 7648SOL    HW123843   2.695   1.564   2.629
 7648SOL    HW223844   2.605   1.462   2.721
 7649SOL     OW23845   1.184   0.822   2.619
 7649SOL    HW123846   1.219   0.915   2.615
 7649SOL    HW223847   1.244   0.761   2.568
 7650SOL     OW23848   4.711   1.984   0.856
 7650SOL    HW123849   4.691   1.994   0.759
 7650SOL    HW223850   4.666   1.902   0.891
 7651SOL     OW23851   2.220   0.630   3.690
 7651SOL    HW123852   2.302   0.595   3.645
 7651SOL    HW223853   2.226   0.617   3.788
 7652SOL     OW23854   6.002   3.896   5.359
 7652SOL    HW123855   5.961   3.822   5.413
 7652SOL    HW223856   5.932   3.965   5.340
 7653SOL     OW23857   1.294   1.964   6.901
 7653SOL    HW123858   1.282   2.023   6.981
 7653SOL    HW223859   1.215   1.903   6.893
 7654SOL     OW23860   4.744   2.689   3.933
 7654SOL    HW123861   4.715   2.720   4.023
 7654SOL    HW223862   4.747   2.767   3.870
 7655SOL     OW23863   4.508   0.007   3.171
 7655SOL    HW123864   4.426   6.992   3.129
 7655SOL    HW223865   4.570   0.039   3.099
 7656SOL     OW23866   3.032   4.230   5.816
 7656SOL    HW123867   3.087   4.281   5.882
 7656SOL    HW223868   3.033   4.133   5.840
 7657SOL     OW23869   1.110   2.946   4.180
 7657SOL    HW123870   1.193   2.994   4.152
 7657SOL    HW223871   1.112   2.853   4.144
 7658SOL     OW23872   4.095   6.885   6.001
 7658SOL    HW123873   4.077   6.875   6.099
 7658SOL    HW223874   4.130   6.977   5.983
 7659SOL     OW23875   6.151   5.497   6.357
 7659SOL    HW123876   6.058   5.531   6.343
 7659SOL    HW223877   6.164   5.472   6.453
 7660SOL     OW23878   0.514   6.029   4.347
 7660SOL    HW123879   0.514   5.958   4.276
 7660SOL    HW223880   0.436   6.014   4.408
 7661SOL     OW23881   5.964   2.668   4.878
 7661SOL    HW123882   5.945   2.682   4.781
 7661SOL    HW223883   6.049   2.716   4.902
 7662SOL     OW23884   1.265   3.083   3.436
 7662SOL    HW123885   1.231   3.177   3.429
 7662SOL    HW223886   1.345   3.081   3.495
 7663SOL     OW23887   0.462   5.686   5.384
 7663SOL    HW123888   0.469   5.624   5.462
 7663SOL    HW223889   0.369   5.722   5.377
 7664SOL     OW23890   3.708   0.011   1.503
 7664SOL    HW123891   3.791   0.031   1.554
 7664SOL    HW223892   3.629   0.019   1.564
 7665SOL     OW23893   6.008   6.796   4.674
 7665SOL    HW123894   5.953   6.863   4.624
 7665SOL    HW223895   6.078   6.759   4.614
 7666SOL     OW23896   0.380   5.557   1.760
 7666SOL    HW123897   0.293   5.547   1.807
 7666SOL    HW223898   0.449   5.590   1.825
 7667SOL     OW23899   4.827   6.688   2.123
 7667SOL    HW123900   4.818   6.667   2.220
 7667SOL    HW223901   4.905   6.748   2.109
 7668SOL     OW23902   3.224   4.374   6.999
 7668SOL    HW123903   3.262   4.451   0.027
 7668SOL    HW223904   3.292   4.341   6.933
 7669SOL     OW23905   4.726   1.819   5.178
 7669SOL    HW123906   4.764   1.729   5.202
 7669SOL    HW223907   4.754   1.886   5.247
 7670SOL     OW23908   0.812   4.890   6.273
 7670SOL    HW123909   0.745   4.819   6.251
 7670SOL    HW223910   0.785   4.975   6.229
 7671SOL     OW23911   4.551   1.063   2.904
 7671SOL    HW123912   4.482   1.127   2.937
 7671SOL    HW223913   4.536   1.045   2.807
 7672SOL     OW23914   0.314   6.497   2.737
 7672SOL    HW123915   0.382   6.511   2.810
 7672SOL    HW223916   0.313   6.577   2.677
 7673SOL     OW23917   1.577   6.111   0.540
 7673SOL    HW123918   1.638   6.115   0.462
 7673SOL    HW223919   1.521   6.028   0.535
 7674SOL     OW23920   5.456   1.039   2.925
 7674SOL    HW123921   5.549   1.076   2.922
 7674SOL    HW223922   5.396   1.104   2.971
 7675SOL     OW23923   6.351   6.702   2.475
 7675SOL    HW123924   6.292   6.646   2.416
 7675SOL    HW223925   6.428   6.647   2.508
 7676SOL     OW23926   2.633   2.117   0.404
 7676SOL    HW123927   2.666   2.094   0.495
 7676SOL    HW223928   2.566   2.048   0.375
 7677SOL     OW23929   0.443   4.987   1.381
 7677SOL    HW123930   0.360   4.960   1.332
 7677SOL    HW223931   0.503   4.907   1.392
 7678SOL     OW23932   2.159   2.805   4.562
 7678SOL    HW123933   2.108   2.877   4.515
 7678SOL    HW223934   2.116   2.716   4.542
 7679SOL     OW23935   2.964   5.407   6.156
 7679SOL    HW123936   2.955   5.397   6.057
 7679SOL    HW223937   2.992   5.500   6.178
 7680SOL     OW23938   1.416   0.842   0.773
 7680SOL    HW123939   1.467   0.907   0.828
 7680SOL    HW223940   1.367   0.778   0.832
 7681SOL     OW23941   2.474   0.440   0.554
 7681SOL    HW123942   2.521   0.528   0.556
 7681SOL    HW223943   2.375   0.455   0.544
 7682SOL     OW23944   3.278   0.000   2.271
 7682SOL    HW123945   3.377   0.007   2.275
 7682SOL    HW223946   3.237   0.076   2.320
 7683SOL     OW23947   5.025   1.328   4.172
 7683SOL    HW123948   4.945   1.377   4.206
 7683SOL    HW223949   5.009   1.229   4.180
 7684SOL     OW23950   3.479   1.993   1.316
 7684SOL    HW123951   3.549   2.036   1.259
 7684SOL    HW223952   3.395   1.982   1.264
 7685SOL     OW23953   3.008   2.105   5.999
 7685SOL    HW123954   3.057   2.097   5.912
 7685SOL    HW223955   3.068   2.076   6.073
 7686SOL     OW23956   7.019   6.709   2.702
 7686SOL    HW123957   0.083   6.662   2.711
 7686SOL    HW223958   0.009   6.795   2.654
 7687SOL     OW23959   5.694   5.543   3.819
 7687SOL    HW123960   5.785   5.508   3.796
 7687SOL    HW223961   5.628   5.513   3.750
 7688SOL     OW23962   0.930   5.779   6.016
 7688SOL    HW123963   0.899   5.706   5.955
 7688SOL    HW223964   1.003   5.745   6.075
 7689SOL     OW23965   6.037   6.486   2.589
 7689SOL    HW123966   6.086   6.509   2.673
 7689SOL    HW223967   5.947   6.528   2.590
 7690SOL     OW23968   5.498   5.309   0.532
 7690SOL    HW123969   5.467   5.305   0.627
 7690SOL    HW223970   5.421   5.334   0.472
 7691SOL     OW23971   5.245   4.030   4.318
 7691SOL    HW123972   5.197   4.048   4.404
 7691SOL    HW223973   5.279   3.936   4.317
 7692SOL     OW23974   0.660   6.159   1.737
 7692SOL    HW123975   0.568   6.194   1.718
 7692SOL    HW223976   0.665   6.063   1.712
 7693SOL     OW23977   3.873   6.913   1.114
 7693SOL    HW123978   3.842   6.950   1.027
 7693SOL    HW223979   3.804   6.930   1.185
 7694SOL     OW23980   6.665   4.687   4.864
 7694SOL    HW123981   6.638   4.679   4.768
 7694SOL    HW223982   6.587   4.719   4.918
 7695SOL     OW23983   4.609   0.600   0.903
 7695SOL    HW123984   4.691   0.641   0.944
 7695SOL    HW223985   4.552   0.561   0.975
 7696SOL     OW23986   0.114   0.394   5.431
 7696SOL    HW123987   0.121   0.381   5.333
 7696SOL    HW223988   0.079   0.486   5.450
 7697SOL     OW23989   2.693   6.634   2.260
 7697SOL    HW123990   2.786   6.598   2.268
 7697SOL    HW223991   2.658   6.614   2.168
 7698SOL     OW23992   6.329   1.346   4.181
 7698SOL    HW123993   6.349   1.442   4.205
 7698SOL    HW223994   6.292   1.342   4.088
 7699SOL     OW23995   3.501   5.964   6.345
 7699SOL    HW123996   3.442   5.889   6.316
 7699SOL    HW223997   3.580   5.971   6.284
 7700SOL     OW23998   4.696   5.890   3.933
 7700SOL    HW123999   4.769   5.822   3.926
 7700SOL    HW224000   4.695   5.928   4.026
 7701SOL     OW24001   6.689   2.059   6.893
 7701SOL    HW124002   6.618   2.130   6.882
 7701SOL    HW224003   6.701   2.039   6.990
 7702SOL     OW24004   3.315   6.806   5.330
 7702SOL    HW124005   3.260   6.768   5.404
 7702SOL    HW224006   3.314   6.743   5.252
 7703SOL     OW24007   6.667   6.899   6.540
 7703SOL    HW124008   6.609   6.953   6.602
 7703SOL    HW224009   6.615   6.822   6.505
 7704SOL     OW24010   5.633   5.413   4.641
 7704SOL    HW124011   5.658   5.495   4.589
 7704SOL    HW224012   5.605   5.441   4.733
 7705SOL     OW24013   3.535   5.457   6.774
 7705SOL    HW124014   3.447   5.499   6.751
 7705SOL    HW224015   3.529   5.415   6.865
 7706SOL     OW24016   4.640   3.299   5.494
 7706SOL    HW124017   4.593   3.256   5.571
 7706SOL    HW224018   4.733   3.263   5.487
 7707SOL     OW24019   6.507   5.409   5.542
 7707SOL    HW124020   6.515   5.474   5.618
 7707SOL    HW224021   6.599   5.379   5.514
 7708SOL     OW24022   0.210   6.929   5.880
 7708SOL    HW124023   0.289   6.969   5.834
 7708SOL    HW224024   0.241   6.874   5.958
 7709SOL     OW24025   6.232   4.732   1.632
 7709SOL    HW124026   6.320   4.775   1.653
 7709SOL    HW224027   6.159   4.780   1.682
 7710SOL     OW24028   2.706   1.245   0.307
 7710SOL    HW124029   2.625   1.187   0.314
 7710SOL    HW224030   2.731   1.257   0.211
 7711SOL     OW24031   6.199   6.925   5.698
 7711SOL    HW124032   6.151   7.012   5.712
 7711SOL    HW224033   6.190   6.868   5.780
 7712SOL     OW24034   6.287   5.374   2.176
 7712SOL    HW124035   6.347   5.454   2.167
 7712SOL    HW224036   6.193   5.405   2.186
 7713SOL     OW24037   1.650   4.168   0.980
 7713SOL    HW124038   1.619   4.147   0.887
 7713SOL    HW224039   1.717   4.243   0.975
 7714SOL     OW24040   6.447   3.898   5.382
 7714SOL    HW124041   6.395   3.817   5.409
 7714SOL    HW224042   6.519   3.915   5.448
 7715SOL     OW24043   3.757   2.138   0.418
 7715SOL    HW124044   3.776   2.097   0.329
 7715SOL    HW224045   3.841   2.173   0.458
 7716SOL     OW24046   6.318   4.012   2.716
 7716SOL    HW124047   6.344   3.988   2.810
 7716SOL    HW224048   6.221   4.037   2.714
 7717SOL     OW24049   1.928   1.109   5.334
 7717SOL    HW124050   1.854   1.078   5.393
 7717SOL    HW224051   2.009   1.128   5.390
 7718SOL     OW24052   0.878   3.314   3.811
 7718SOL    HW124053   0.872   3.217   3.834
 7718SOL    HW224054   0.968   3.349   3.836
 7719SOL     OW24055   6.432   4.775   4.976
 7719SOL    HW124056   6.352   4.831   4.955
 7719SOL    HW224057   6.419   4.731   5.065
 7720SOL     OW24058   0.045   1.604   0.612
 7720SOL    HW124059   0.038   1.506   0.632
 7720SOL    HW224060   0.067   1.654   0.696
 7721SOL     OW24061   0.559   5.506   2.656
 7721SOL    HW124062   0.575   5.410   2.678
 7721SOL    HW224063   0.514   5.551   2.734
 7722SOL     OW24064   1.222   4.665   3.534
 7722SOL    HW124065   1.290   4.715   3.587
 7722SOL    HW224066   1.161   4.616   3.596
 7723SOL     OW24067   4.566   3.298   7.004
 7723SOL    HW124068   4.557   3.365   6.931
 7723SOL    HW224069   4.608   3.215   6.969
 7724SOL     OW24070   3.316   3.802   0.951
 7724SOL    HW124071   3.301   3.885   1.006
 7724SOL    HW224072   3.229   3.773   0.911
 7725SOL     OW24073   6.551   0.898   2.696
 7725SOL    HW124074   6.582   0.857   2.610
 7725SOL    HW224075   6.628   0.909   2.758
 7726SOL     OW24076   1.624   5.717   5.309
 7726SOL    HW124077   1.562   5.639   5.316
 7726SOL    HW224078   1.618   5.772   5.392
 7727SOL     OW24079   0.439   0.787   3.036
 7727SOL    HW124080   0.449   0.812   2.940
 7727SOL    HW224081   0.508   0.718   3.060
 7728SOL     OW24082   0.797   4.524   4.122
 7728SOL    HW124083   0.776   4.619   4.098
 7728SOL    HW224084   0.797   4.515   4.221
 7729SOL     OW24085   5.667   2.947   0.729
 7729SOL    HW124086   5.735   3.001   0.680
 7729SOL    HW224087   5.575   2.975   0.700
 7730SOL     OW24088   5.721   5.933   0.041
 7730SOL    HW124089   5.670   5.996   7.006
 7730SOL    HW224090   5.802   5.978   0.078
 7731SOL     OW24091   6.716   1.256   0.606
 7731SOL    HW124092   6.651   1.194   0.564
 7731SOL    HW224093   6.762   1.210   0.682
 7732SOL     OW24094   5.053   6.711   0.941
 7732SOL    HW124095   5.042   6.733   0.844
 7732SOL    HW224096   5.122   6.639   0.951
 7733SOL     OW24097   4.837   6.408   2.868
 7733SOL    HW124098   4.854   6.361   2.954
 7733SOL    HW224099   4.830   6.507   2.885
 7734SOL     OW24100   2.206   4.606   2.976
 7734SOL    HW124101   2.263   4.672   2.927
 7734SOL    HW224102   2.212   4.623   3.074
 7735SOL     OW24103   4.622   6.785   0.246
 7735SOL    HW124104   4.627   6.848   0.168
 7735SOL    HW224105   4.527   6.758   0.261
 7736SOL     OW24106   3.549   3.518   6.508
 7736SOL    HW124107   3.499   3.529   6.594
 7736SOL    HW224108   3.490   3.548   6.432
 7737SOL     OW24109   3.191   6.839   2.549
 7737SOL    HW124110   3.217   6.743   2.540
 7737SOL    HW224111   3.254   6.896   2.497
 7738SOL     OW24112   3.273   5.560   6.690
 7738SOL    HW124113   3.228   5.640   6.730
 7738SOL    HW224114   3.213   5.480   6.699
 7739SOL     OW24115   0.558   2.724   1.280
 7739SOL    HW124116   0.470   2.682   1.299
 7739SOL    HW224117   0.612   2.729   1.364
 7740SOL     OW24118   2.022   1.473   2.461
 7740SOL    HW124119   2.079   1.436   2.387
 7740SOL    HW224120   2.034   1.418   2.544
 7741SOL     OW24121   0.703   5.056   5.683
 7741SOL    HW124122   0.774   5.054   5.613
 7741SOL    HW224123   0.734   5.112   5.760
 7742SOL     OW24124   3.951   2.150   3.346
 7742SOL    HW124125   3.900   2.154   3.432
 7742SOL    HW224126   4.032   2.209   3.352
 7743SOL     OW24127   5.933   1.179   6.164
 7743SOL    HW124128   5.874   1.258   6.147
 7743SOL    HW224129   6.003   1.203   6.231
 7744SOL     OW24130   0.777   6.550   4.075
 7744SOL    HW124131   0.723   6.625   4.112
 7744SOL    HW224132   0.861   6.585   4.035
 7745SOL     OW24133   3.689   1.337   6.721
 7745SOL    HW124134   3.592   1.354   6.739
 7745SOL    HW224135   3.733   1.420   6.686
 7746SOL     OW24136   1.515   0.329   0.171
 7746SOL    HW124137   1.423   0.343   0.208
 7746SOL    HW224138   1.549   0.239   0.199
 7747SOL     OW24139   5.388   5.714   1.231
 7747SOL    HW124140   5.436   5.796   1.264
 7747SOL    HW224141   5.298   5.740   1.196
 7748SOL     OW24142   3.160   3.988   4.780
 7748SOL    HW124143   3.159   4.062   4.847
 7748SOL    HW224144   3.083   3.927   4.797
 7749SOL     OW24145   2.795   3.237   6.234
 7749SOL    HW124146   2.829   3.169   6.170
 7749SOL    HW224147   2.858   3.245   6.311
 7750SOL     OW24148   0.110   5.895   1.269
 7750SOL    HW124149   0.172   5.899   1.191
 7750SOL    HW224150   0.087   5.800   1.289
 7751SOL     OW24151   1.714   2.981   2.182
 7751SOL    HW124152   1.767   2.986   2.267
 7751SOL    HW224153   1.633   2.924   2.198
 7752SOL     OW24154   5.350   6.957   5.706
 7752SOL    HW124155   5.278   6.977   5.640
 7752SOL    HW224156   5.358   0.010   5.771
 7753SOL     OW24157   2.821   0.798   3.648
 7753SOL    HW124158   2.856   0.753   3.730
 7753SOL    HW224159   2.812   0.731   3.575
 7754SOL     OW24160   3.332   6.602   2.304
 7754SOL    HW124161   3.312   6.564   2.394
 7754SOL    HW224162   3.254   6.657   2.272
 7755SOL     OW24163   2.130   2.325   5.265
 7755SOL    HW124164   2.217   2.360   5.298
 7755SOL    HW224165   2.107   2.368   5.177
 7756SOL     OW24166   2.714   6.398   3.132
 7756SOL    HW124167   2.617   6.415   3.148
 7756SOL    HW224168   2.768   6.475   3.167
 7757SOL     OW24169   5.604   5.001   7.004
 7757SOL    HW124170   5.580   4.906   6.986
 7757SOL    HW224171   5.587   5.056   6.922
 7758SOL     OW24172   2.239   0.781   5.583
 7758SOL    HW124173   2.284   0.705   5.537
 7758SOL    HW224174   2.168   0.746   5.644
 7759SOL     OW24175   1.783   2.327   5.650
 7759SOL    HW124176   1.803   2.317   5.748
 7759SOL    HW224177   1.865   2.361   5.603
 7760SOL     OW24178   5.857   3.396   2.651
 7760SOL    HW124179   5.862   3.406   2.551
 7760SOL    HW224180   5.947   3.416   2.690
 7761SOL     OW24181   0.416   0.432   4.403
 7761SOL    HW124182   0.511   0.407   4.384
 7761SOL    HW224183   0.355   0.388   4.337
 7762SOL     OW24184   2.800   0.427   3.916
 7762SOL    HW124185   2.870   0.377   3.967
 7762SOL    HW224186   2.836   0.517   3.891
 7763SOL     OW24187   2.444   0.449   6.705
 7763SOL    HW124188   2.452   0.545   6.678
 7763SOL    HW224189   2.371   0.406   6.651
 7764SOL     OW24190   3.426   3.267   4.314
 7764SOL    HW124191   3.387   3.359   4.323
 7764SOL    HW224192   3.502   3.257   4.378
 7765SOL     OW24193   6.068   4.499   5.194
 7765SOL    HW124194   6.136   4.537   5.257
 7765SOL    HW224195   6.115   4.463   5.113
 7766SOL     OW24196   6.827   3.909   6.981
 7766SOL    HW124197   6.926   3.894   6.979
 7766SOL    HW224198   6.799   3.964   6.902
 7767SOL     OW24199   5.014   6.390   2.368
 7767SOL    HW124200   5.055   6.400   2.277
 7767SOL    HW224201   5.052   6.309   2.413
 7768SOL     OW24202   4.258   4.647   2.634
 7768SOL    HW124203   4.354   4.644   2.664
 7768SOL    HW224204   4.255   4.641   2.535
 7769SOL     OW24205   4.014   1.736   3.546
 7769SOL    HW124206   3.974   1.754   3.457
 7769SOL    HW224207   3.989   1.644   3.576
 7770SOL     OW24208   1.509   4.139   4.245
 7770SOL    HW124209   1.577   4.072   4.276
 7770SOL    HW224210   1.527   4.162   4.149
 7771SOL     OW24211   3.646   1.965   5.307
 7771SOL    HW124212   3.634   1.997   5.400
 7771SOL    HW224213   3.725   1.904   5.303
 7772SOL     OW24214   4.456   0.113   2.782
 7772SOL    HW124215   4.419   0.186   2.840
 7772SOL    HW224216   4.531   0.068   2.831
 7773SOL     OW24217   2.556   5.860   5.270
 7773SOL    HW124218   2.517   5.852   5.362
 7773SOL    HW224219   2.483   5.871   5.203
 7774SOL     OW24220   5.143   2.076   4.447
 7774SOL    HW124221   5.199   1.993   4.446
 7774SOL    HW224222   5.200   2.154   4.423
 7775SOL     OW24223   4.323   5.665   1.157
 7775SOL    HW124224   4.396   5.733   1.158
 7775SOL    HW224225   4.243   5.702   1.204
 7776SOL     OW24226   0.324   5.606   6.412
 7776SOL    HW124227   0.226   5.588   6.401
 7776SOL    HW224228   0.336   5.682   6.476
 7777SOL     OW24229   5.948   5.949   3.925
 7777SOL    HW124230   6.038   5.964   3.883
 7777SOL    HW224231   5.908   6.037   3.949
 7778SOL     OW24232   5.510   4.487   0.299
 7778SOL    HW124233   5.511   4.534   0.387
 7778SOL    HW224234   5.601   4.449   0.280
 7779SOL     OW24235   2.724   2.017   1.402
 7779SOL    HW124236   2.663   2.076   1.348
 7779SOL    HW224237   2.807   2.068   1.424
 7780SOL     OW24238   0.926   4.992   5.480
 7780SOL    HW124239   0.871   4.999   5.397
 7780SOL    HW224240   1.023   4.988   5.456
 7781SOL     OW24241   2.530   4.710   1.129
 7781SOL    HW124242   2.535   4.610   1.137
 7781SOL    HW224243   2.615   4.751   1.160
 7782SOL     OW24244   5.014   4.871   4.542
 7782SOL    HW124245   5.107   4.839   4.524
 7782SOL    HW224246   4.991   4.854   4.638
 7783SOL     OW24247   1.067   6.426   5.078
 7783SOL    HW124248   1.031   6.372   5.002
 7783SOL    HW224249   0.991   6.467   5.128
 7784SOL     OW24250   3.758   2.897   1.870
 7784SOL    HW124251   3.693   2.827   1.842
 7784SOL    HW224252   3.794   2.876   1.961
 7785SOL     OW24253   1.780   6.398   4.520
 7785SOL    HW124254   1.735   6.458   4.586
 7785SOL    HW224255   1.716   6.374   4.448
 7786SOL     OW24256   3.582   6.733   1.076
 7786SOL    HW124257   3.613   6.640   1.092
 7786SOL    HW224258   3.615   6.793   1.149
 7787SOL     OW24259   2.002   2.971   6.590
 7787SOL    HW124260   2.061   2.962   6.670
 7787SOL    HW224261   1.906   2.969   6.619
 7788SOL     OW24262   2.033   5.144   1.227
 7788SOL    HW124263   2.095   5.223   1.232
 7788SOL    HW224264   2.002   5.121   1.319
 7789SOL     OW24265   2.662   0.062   6.292
 7789SOL    HW124266   2.676   0.142   6.350
 7789SOL    HW224267   2.626   7.010   6.347
 7790SOL     OW24268   5.310   5.417   3.153
 7790SOL    HW124269   5.390   5.398   3.095
 7790SOL    HW224270   5.271   5.505   3.128
 7791SOL     OW24271   2.578   5.406   2.355
 7791SOL    HW124272   2.528   5.469   2.295
 7791SOL    HW224273   2.535   5.404   2.445
 7792SOL     OW24274   2.274   5.614   4.509
 7792SOL    HW124275   2.370   5.610   4.480
 7792SOL    HW224276   2.236   5.521   4.507
 7793SOL     OW24277   4.312   1.197   0.806
 7793SOL    HW124278   4.266   1.231   0.888
 7793SOL    HW224279   4.253   1.211   0.727
 7794SOL     OW24280   6.220   4.161   2.499
 7794SOL    HW124281   6.291   4.116   2.554
 7794SOL    HW224282   6.247   4.256   2.481
 7795SOL     OW24283   1.861   4.195   5.047
 7795SOL    HW124284   1.953   4.190   5.085
 7795SOL    HW224285   1.797   4.151   5.110
 7796SOL     OW24286   3.446   2.989   4.533
 7796SOL    HW124287   3.350   3.020   4.533
 7796SOL    HW224288   3.506   3.066   4.555
 7797SOL     OW24289   1.313   6.775   1.734
 7797SOL    HW124290   1.330   6.781   1.833
 7797SOL    HW224291   1.215   6.771   1.717
 7798SOL     OW24292   1.363   3.541   3.953
 7798SOL    HW124293   1.403   3.572   4.039
 7798SOL    HW224294   1.432   3.488   3.902
 7799SOL     OW24295   1.689   5.759   2.615
 7799SOL    HW124296   1.712   5.774   2.712
 7799SOL    HW224297   1.735   5.676   2.583
 7800SOL     OW24298   1.303   5.801   2.601
 7800SOL    HW124299   1.346   5.844   2.680
 7800SOL    HW224300   1.209   5.834   2.592
 7801SOL     OW24301   2.060   1.755   1.166
 7801SOL    HW124302   2.092   1.819   1.096
 7801SOL    HW224303   1.972   1.786   1.201
 7802SOL     OW24304   5.828   2.675   1.563
 7802SOL    HW124305   5.801   2.609   1.493
 7802SOL    HW224306   5.906   2.639   1.614
 7803SOL     OW24307   4.218   2.379   5.966
 7803SOL    HW124308   4.121   2.363   5.984
 7803SOL    HW224309   4.260   2.294   5.933
 7804SOL     OW24310   4.458   2.401   5.334
 7804SOL    HW124311   4.494   2.322   5.383
 7804SOL    HW224312   4.500   2.485   5.371
 7805SOL     OW24313   5.288   2.792   1.693
 7805SOL    HW124314   5.232   2.817   1.773
 7805SOL    HW224315   5.346   2.869   1.668
 7806SOL     OW24316   6.279   2.185   6.568
 7806SOL    HW124317   6.347   2.115   6.592
 7806SOL    HW224318   6.211   2.190   6.641
 7807SOL     OW24319   1.261   4.552   5.917
 7807SOL    HW124320   1.352   4.591   5.933
 7807SOL    HW224321   1.267   4.452   5.920
 7808SOL     OW24322   6.168   3.056   4.457
 7808SOL    HW124323   6.133   3.097   4.541
 7808SOL    HW224324   6.246   2.996   4.478
 7809SOL     OW24325   4.214   5.459   4.660
 7809SOL    HW124326   4.139   5.394   4.646
 7809SOL    HW224327   4.292   5.412   4.700
 7810SOL     OW24328   3.812   0.268   4.806
 7810SOL    HW124329   3.727   0.244   4.759
 7810SOL    HW224330   3.847   0.189   4.855
 7811SOL     OW24331   0.942   5.512   2.096
 7811SOL    HW124332   0.957   5.585   2.029
 7811SOL    HW224333   0.930   5.425   2.048
 7812SOL     OW24334   0.074   2.146   4.316
 7812SOL    HW124335   0.087   2.142   4.217
 7812SOL    HW224336   0.162   2.157   4.361
 7813SOL     OW24337   4.110   1.871   0.095
 7813SOL    HW124338   4.051   1.918   0.161
 7813SOL    HW224339   4.110   1.922   0.008
 7814SOL     OW24340   0.018   3.099   3.031
 7814SOL    HW124341   7.000   3.007   3.031
 7814SOL    HW224342   0.062   3.115   3.119
 7815SOL     OW24343   6.054   1.919   4.491
 7815SOL    HW124344   6.068   1.920   4.590
 7815SOL    HW224345   5.957   1.915   4.471
 7816SOL     OW24346   1.549   2.259   6.304
 7816SOL    HW124347   1.554   2.168   6.263
 7816SOL    HW224348   1.554   2.250   6.404
 7817SOL     OW24349   4.998   4.031   4.179
 7817SOL    HW124350   4.936   4.047   4.256
 7817SOL    HW224351   5.092   4.020   4.212
 7818SOL     OW24352   5.125   0.370   2.378
 7818SOL    HW124353   5.201   0.306   2.363
 7818SOL    HW224354   5.083   0.352   2.467
 7819SOL     OW24355   6.920   4.119   3.959
 7819SOL    HW124356   6.943   4.046   4.025
 7819SOL    HW224357   6.896   4.078   3.871
 7820SOL     OW24358   1.609   1.452   5.261
 7820SOL    HW124359   1.686   1.514   5.274
 7820SOL    HW224360   1.543   1.493   5.198
 7821SOL     OW24361   5.635   5.648   7.013
 7821SOL    HW124362   5.558   5.627   0.050
 7821SOL    HW224363   5.685   5.727   0.025
 7822SOL     OW24364   0.884   1.176   0.537
 7822SOL    HW124365   0.856   1.088   0.499
 7822SOL    HW224366   0.975   1.167   0.578
 7823SOL     OW24367   2.941   3.577   6.226
 7823SOL    HW124368   2.861   3.600   6.281
 7823SOL    HW224369   2.956   3.647   6.156
 7824SOL     OW24370   5.500   1.332   3.969
 7824SOL    HW124371   5.414   1.373   4.000
 7824SOL    HW224372   5.519   1.250   4.023
 7825SOL     OW24373   0.907   3.373   0.789
 7825SOL    HW124374   0.906   3.445   0.720
 7825SOL    HW224375   0.964   3.402   0.866
 7826SOL     OW24376   5.985   1.647   6.859
 7826SOL    HW124377   6.062   1.706   6.832
 7826SOL    HW224378   5.899   1.688   6.828
 7827SOL     OW24379   2.966   4.704   1.080
 7827SOL    HW124380   2.998   4.637   1.012
 7827SOL    HW224381   3.043   4.763   1.107
 7828SOL     OW24382   0.782   5.151   0.225
 7828SOL    HW124383   0.773   5.097   0.308
 7828SOL    HW224384   0.863   5.121   0.174
 7829SOL     OW24385   2.178   2.987   6.793
 7829SOL    HW124386   2.273   3.014   6.781
 7829SOL    HW224387   2.174   2.891   6.822
 7830SOL     OW24388   4.098   3.810   5.828
 7830SOL    HW124389   4.005   3.842   5.845
 7830SOL    HW224390   4.140   3.782   5.914
 7831SOL     OW24391   1.694   5.387   1.020
 7831SOL    HW124392   1.606   5.342   1.035
 7831SOL    HW224393   1.699   5.419   0.925
 7832SOL     OW24394   3.733   1.172   4.234
 7832SOL    HW124395   3.653   1.232   4.241
 7832SOL    HW224396   3.813   1.219   4.273
 7833SOL     OW24397   0.402   1.735   6.823
 7833SOL    HW124398   0.496   1.701   6.819
 7833SOL    HW224399   0.382   1.766   6.916
 7834SOL     OW24400   0.129   0.515   3.647
 7834SOL    HW124401   0.154   0.493   3.741
 7834SOL    HW224402   0.140   0.613   3.631
 7835SOL     OW24403   2.394   2.200   5.214
 7835SOL    HW124404   2.444   2.286   5.211
 7835SOL    HW224405   2.388   2.161   5.122
 7836SOL     OW24406   3.020   2.698   5.368
 7836SOL    HW124407   3.073   2.748   5.300
 7836SOL    HW224408   3.069   2.614   5.394
 7837SOL     OW24409   6.830   5.845   1.132
 7837SOL    HW124410   6.811   5.779   1.059
 7837SOL    HW224411   6.899   5.807   1.194
 7838SOL     OW24412   4.456   6.147   0.669
 7838SOL    HW124413   4.513   6.180   0.594
 7838SOL    HW224414   4.454   6.215   0.742
 7839SOL     OW24415   6.187   4.255   5.087
 7839SOL    HW124416   6.112   4.222   5.029
 7839SOL    HW224417   6.259   4.295   5.030
 7840SOL     OW24418   5.371   3.152   4.648
 7840SOL    HW124419   5.412   3.097   4.576
 7840SOL    HW224420   5.393   3.249   4.633
 7841SOL     OW24421   4.644   1.678   6.740
 7841SOL    HW124422   4.604   1.631   6.661
 7841SOL    HW224423   4.685   1.610   6.802
 7842SOL     OW24424   1.501   1.631   2.914
 7842SOL    HW124425   1.531   1.717   2.873
 7842SOL    HW224426   1.426   1.592   2.860
 7843SOL     OW24427   5.215   4.866   2.042
 7843SOL    HW124428   5.304   4.875   1.997
 7843SOL    HW224429   5.163   4.793   1.998
 7844SOL     OW24430   4.244   6.642   3.220
 7844SOL    HW124431   4.242   6.544   3.202
 7844SOL    HW224432   4.160   6.684   3.185
 7845SOL     OW24433   5.921   1.600   4.276
 7845SOL    HW124434   5.834   1.550   4.275
 7845SOL    HW224435   5.922   1.669   4.204
 7846SOL     OW24436   1.039   1.182   2.409
 7846SOL    HW124437   1.025   1.123   2.329
 7846SOL    HW224438   1.118   1.149   2.460
 7847SOL     OW24439   6.783   1.606   2.527
 7847SOL    HW124440   6.807   1.703   2.523
 7847SOL    HW224441   6.836   1.561   2.599
 7848SOL     OW24442   2.566   2.663   0.727
 7848SOL    HW124443   2.651   2.700   0.763
 7848SOL    HW224444   2.543   2.579   0.775
 7849SOL     OW24445   5.220   3.783   2.965
 7849SOL    HW124446   5.293   3.732   3.011
 7849SOL    HW224447   5.225   3.768   2.867
 7850SOL     OW24448   0.852   1.840   4.422
 7850SOL    HW124449   0.823   1.916   4.363
 7850SOL    HW224450   0.943   1.809   4.393
 7851SOL     OW24451   6.078   0.805   1.583
 7851SOL    HW124452   6.049   0.714   1.612
 7851SOL    HW224453   6.144   0.841   1.649
 7852SOL     OW24454   2.539   0.938   5.797
 7852SOL    HW124455   2.445   0.912   5.821
 7852SOL    HW224456   2.537   1.013   5.732
 7853SOL     OW24457   4.561   1.652   1.786
 7853SOL    HW124458   4.535   1.662   1.690
 7853SOL    HW224459   4.551   1.740   1.833
 7854SOL     OW24460   2.942   3.324   0.380
 7854SOL    HW124461   2.935   3.423   0.389
 7854SOL    HW224462   3.038   3.297   0.388
 7855SOL     OW24463   3.448   5.443   5.309
 7855SOL    HW124464   3.502   5.527   5.309
 7855SOL    HW224465   3.472   5.388   5.389
 7856SOL     OW24466   5.747   4.825   5.138
 7856SOL    HW124467   5.741   4.810   5.237
 7856SOL    HW224468   5.660   4.802   5.095
 7857SOL     OW24469   5.836   2.819   5.661
 7857SOL    HW124470   5.926   2.858   5.677
 7857SOL    HW224471   5.811   2.830   5.565
 7858SOL     OW24472   5.641   4.653   3.307
 7858SOL    HW124473   5.601   4.576   3.257
 7858SOL    HW224474   5.607   4.739   3.269
 7859SOL     OW24475   5.855   2.999   6.196
 7859SOL    HW124476   5.954   3.005   6.186
 7859SOL    HW224477   5.830   2.910   6.232
 7860SOL     OW24478   4.396   0.273   2.967
 7860SOL    HW124479   4.481   0.327   2.971
 7860SOL    HW224480   4.351   0.276   3.056
 7861SOL     OW24481   3.974   5.171   1.764
 7861SOL    HW124482   4.007   5.227   1.841
 7861SOL    HW224483   3.951   5.231   1.687
 7862SOL     OW24484   3.084   4.334   1.675
 7862SOL    HW124485   3.110   4.250   1.723
 7862SOL    HW224486   3.003   4.374   1.719
 7863SOL     OW24487   7.009   5.743   4.003
 7863SOL    HW124488   6.942   5.679   3.966
 7863SOL    HW224489   0.078   5.706   3.990
 7864SOL     OW24490   0.441   6.304   5.272
 7864SOL    HW124491   0.528   6.344   5.242
 7864SOL    HW224492   0.440   6.206   5.251
 7865SOL     OW24493   5.888   0.224   4.205
 7865SOL    HW124494   5.935   0.258   4.124
 7865SOL    HW224495   5.852   0.301   4.258
 7866SOL     OW24496   2.187   2.224   6.536
 7866SOL    HW124497   2.273   2.273   6.522
 7866SOL    HW224498   2.131   2.273   6.602
 7867SOL     OW24499   5.250   6.941   2.541
 7867SOL    HW124500   5.170   6.915   2.486
 7867SOL    HW224501   5.321   6.871   2.533
 7868SOL     OW24502   5.948   0.010   2.250
 7868SOL    HW124503   5.951   0.017   2.350
 7868SOL    HW224504   5.989   6.946   2.222
 7869SOL     OW24505   5.467   3.758   0.048
 7869SOL    HW124506   5.551   3.704   0.057
 7869SOL    HW224507   5.453   3.781   6.974
 7870SOL     OW24508   4.566   5.520   4.302
 7870SOL    HW124509   4.601   5.461   4.229
 7870SOL    HW224510   4.597   5.613   4.287
 7871SOL     OW24511   5.375   3.453   2.718
 7871SOL    HW124512   5.349   3.515   2.644
 7871SOL    HW224513   5.463   3.481   2.756
 7872SOL     OW24514   2.143   4.231   2.837
 7872SOL    HW124515   2.196   4.264   2.915
 7872SOL    HW224516   2.149   4.297   2.763
 7873SOL     OW24517   6.132   0.560   5.678
 7873SOL    HW124518   6.107   0.572   5.774
 7873SOL    HW224519   6.213   0.502   5.672
 7874SOL     OW24520   4.853   1.523   0.527
 7874SOL    HW124521   4.894   1.442   0.486
 7874SOL    HW224522   4.873   1.526   0.625
 7875SOL     OW24523   5.101   2.260   6.348
 7875SOL    HW124524   5.059   2.173   6.373
 7875SOL    HW224525   5.085   2.277   6.251
 7876SOL     OW24526   0.463   6.768   5.229
 7876SOL    HW124527   0.465   6.764   5.329
 7876SOL    HW224528   0.508   6.853   5.198
 7877SOL     OW24529   0.434   2.861   2.768
 7877SOL    HW124530   0.532   2.847   2.779
 7877SOL    HW224531   0.415   2.892   2.675
 7878SOL     OW24532   5.255   4.940   3.976
 7878SOL    HW124533   5.164   4.898   3.976
 7878SOL    HW224534   5.280   4.966   4.070
 7879SOL     OW24535   4.274   5.503   3.676
 7879SOL    HW124536   4.359   5.455   3.657
 7879SOL    HW224537   4.225   5.455   3.749
 7880SOL     OW24538   2.087   5.221   1.800
 7880SOL    HW124539   2.127   5.287   1.864
 7880SOL    HW224540   2.147   5.209   1.721
 7881SOL     OW24541   5.706   3.972   5.053
 7881SOL    HW124542   5.637   4.033   5.015
 7881SOL    HW224543   5.741   3.912   4.982
 7882SOL     OW24544   1.112   3.466   2.945
 7882SOL    HW124545   1.068   3.521   3.016
 7882SOL    HW224546   1.046   3.449   2.871
 7883SOL     OW24547   1.532   0.231   0.722
 7883SOL    HW124548   1.625   0.198   0.704
 7883SOL    HW224549   1.503   0.199   0.812
 7884SOL     OW24550   1.973   4.086   4.119
 7884SOL    HW124551   2.070   4.108   4.103
 7884SOL    HW224552   1.964   3.990   4.143
 7885SOL     OW24553   6.287   5.964   1.494
 7885SOL    HW124554   6.325   6.025   1.563
 7885SOL    HW224555   6.204   5.922   1.529
 7886SOL     OW24556   3.865   5.446   0.679
 7886SOL    HW124557   3.852   5.360   0.727
 7886SOL    HW224558   3.806   5.449   0.599
 7887SOL     OW24559   3.291   2.506   5.398
 7887SOL    HW124560   3.260   2.450   5.321
 7887SOL    HW224561   3.361   2.570   5.366
 7888SOL     OW24562   6.834   6.833   4.820
 7888SOL    HW124563   6.871   6.827   4.728
 7888SOL    HW224564   6.734   6.845   4.816
 7889SOL     OW24565   1.204   4.897   0.066
 7889SOL    HW124566   1.125   4.838   0.049
 7889SOL    HW224567   1.284   4.862   0.018
 7890SOL     OW24568   0.516   2.684   3.254
 7890SOL    HW124569   0.519   2.631   3.339
 7890SOL    HW224570   0.427   2.727   3.245
 7891SOL     OW24571   2.014   4.301   4.650
 7891SOL    HW124572   2.056   4.237   4.714
 7891SOL    HW224573   1.994   4.255   4.564
 7892SOL     OW24574   2.125   1.946   4.169
 7892SOL    HW124575   2.028   1.931   4.148
 7892SOL    HW224576   2.177   1.950   4.083
 7893SOL     OW24577   6.496   6.623   1.593
 7893SOL    HW124578   6.483   6.567   1.675
 7893SOL    HW224579   6.584   6.601   1.551
 7894SOL     OW24580   3.195   0.549   0.834
 7894SOL    HW124581   3.187   0.451   0.849
 7894SOL    HW224582   3.287   0.579   0.858
 7895SOL     OW24583   5.099   0.753   5.030
 7895SOL    HW124584   5.100   0.660   4.994
 7895SOL    HW224585   5.193   0.787   5.037
 7896SOL     OW24586   4.147   2.932   0.884
 7896SOL    HW124587   4.081   3.005   0.904
 7896SOL    HW224588   4.238   2.960   0.912
 7897SOL     OW24589   3.284   2.819   0.929
 7897SOL    HW124590   3.257   2.872   1.009
 7897SOL    HW224591   3.253   2.865   0.846
 7898SOL     OW24592   3.524   0.218   3.749
 7898SOL    HW124593   3.522   0.151   3.675
 7898SOL    HW224594   3.618   0.245   3.768
 7899SOL     OW24595   6.120   0.522   1.170
 7899SOL    HW124596   6.058   0.477   1.235
 7899SOL    HW224597   6.096   0.618   1.161
 7900SOL     OW24598   1.168   5.135   1.936
 7900SOL    HW124599   1.143   5.041   1.959
 7900SOL    HW224600   1.220   5.175   2.012
 7901SOL     OW24601   3.998   1.323   6.185
 7901SOL    HW124602   4.097   1.310   6.181
 7901SOL    HW224603   3.973   1.406   6.133
 7902SOL     OW24604   6.269   6.726   1.850
 7902SOL    HW124605   6.302   6.632   1.851
 7902SOL    HW224606   6.184   6.732   1.901
 7903SOL     OW24607   4.285   1.725   3.162
 7903SOL    HW124608   4.215   1.666   3.201
 7903SOL    HW224609   4.279   1.816   3.204
 7904SOL     OW24610   5.465   6.262   2.581
 7904SOL    HW124611   5.502   6.232   2.493
 7904SOL    HW224612   5.487   6.359   2.594
 7905SOL     OW24613   5.731   2.133   0.414
 7905SOL    HW124614   5.667   2.180   0.474
 7905SOL    HW224615   5.723   2.171   0.321
 7906SOL     OW24616   1.041   4.923   0.484
 7906SOL    HW124617   0.984   4.876   0.552
 7906SOL    HW224618   1.128   4.947   0.525
 7907SOL     OW24619   5.514   2.333   3.418
 7907SOL    HW124620   5.506   2.234   3.434
 7907SOL    HW224621   5.491   2.382   3.501
 7908SOL     OW24622   1.760   0.957   5.786
 7908SOL    HW124623   1.716   0.889   5.844
 7908SOL    HW224624   1.722   1.048   5.807
 7909SOL     OW24625   4.652   4.320   4.058
 7909SOL    HW124626   4.584   4.394   4.065
 7909SOL    HW224627   4.722   4.333   4.129
 7910SOL     OW24628   2.531   3.295   7.004
 7910SOL    HW124629   2.561   3.362   6.936
 7910SOL    HW224630   2.611   3.256   0.027
 7911SOL     OW24631   0.993   4.266   0.224
 7911SOL    HW124632   1.052   4.338   0.260
 7911SOL    HW224633   0.952   4.216   0.300
 7912SOL     OW24634   6.175   4.835   0.612
 7912SOL    HW124635   6.105   4.893   0.653
 7912SOL    HW224636   6.167   4.838   0.512
 7913SOL     OW24637   1.134   4.420   1.703
 7913SOL    HW124638   1.100   4.488   1.639
 7913SOL    HW224639   1.223   4.387   1.671
 7914SOL     OW24640   0.556   4.789   0.191
 7914SOL    HW124641   0.564   4.887   0.174
 7914SOL    HW224642   0.620   4.763   0.264
 7915SOL     OW24643   4.817   2.436   1.920
 7915SOL    HW124644   4.790   2.507   1.985
 7915SOL    HW224645   4.743   2.369   1.913
 7916SOL     OW24646   0.158   6.368   5.261
 7916SOL    HW124647   0.150   6.403   5.355
 7916SOL    HW224648   0.254   6.351   5.241
 7917SOL     OW24649   3.309   2.830   4.934
 7917SOL    HW124650   3.289   2.816   5.031
 7917SOL    HW224651   3.310   2.742   4.887
 7918SOL     OW24652   0.511   0.557   4.955
 7918SOL    HW124653   0.439   0.576   5.022
 7918SOL    HW224654   0.469   0.525   4.869
 7919SOL     OW24655   1.370   4.477   3.365
 7919SOL    HW124656   1.385   4.499   3.269
 7919SOL    HW224657   1.293   4.530   3.400
 7920SOL     OW24658   0.226   0.188   0.385
 7920SOL    HW124659   0.285   0.217   0.461
 7920SOL    HW224660   0.176   0.266   0.350
 7921SOL     OW24661   5.247   6.282   1.809
 7921SOL    HW124662   5.263   6.372   1.767
 7921SOL    HW224663   5.205   6.295   1.899
 7922SOL     OW24664   6.846   6.638   1.071
 7922SOL    HW124665   6.899   6.588   1.140
 7922SOL    HW224666   6.892   6.634   0.983
 7923SOL     OW24667   4.112   0.666   6.564
 7923SOL    HW124668   4.076   0.726   6.493
 7923SOL    HW224669   4.208   0.646   6.545
 7924SOL     OW24670   5.466   0.116   2.555
 7924SOL    HW124671   5.379   0.070   2.534
 7924SOL    HW224672   5.494   0.172   2.476
 7925SOL     OW24673   0.897   0.419   6.845
 7925SOL    HW124674   0.894   0.332   6.796
 7925SOL    HW224675   0.987   0.430   6.887
 7926SOL     OW24676   4.853   1.473   5.927
 7926SOL    HW124677   4.807   1.386   5.947
 7926SOL    HW224678   4.941   1.475   5.974
 7927SOL     OW24679   4.445   5.993   3.506
 7927SOL    HW124680   4.441   5.964   3.410
 7927SOL    HW224681   4.409   5.920   3.564
 7928SOL     OW24682   1.564   1.839   4.589
 7928SOL    HW124683   1.530   1.750   4.559
 7928SOL    HW224684   1.493   1.885   4.643
 7929SOL     OW24685   4.631   4.210   5.526
 7929SOL    HW124686   4.711   4.270   5.516
 7929SOL    HW224687   4.614   4.194   5.624
 7930SOL     OW24688   4.273   5.723   4.747
 7930SOL    HW124689   4.371   5.742   4.747
 7930SOL    HW224690   4.246   5.685   4.659
 7931SOL     OW24691   3.288   2.770   0.150
 7931SOL    HW124692   3.325   2.835   0.084
 7931SOL    HW224693   3.201   2.734   0.117
 7932SOL     OW24694   1.504   6.556   6.867
 7932SOL    HW124695   1.523   6.475   6.811
 7932SOL    HW224696   1.583   6.577   6.924
 7933SOL     OW24697   0.133   6.371   6.883
 7933SOL    HW124698   0.160   6.326   6.799
 7933SOL    HW224699   0.038   6.347   6.905
 7934SOL     OW24700   1.780   4.909   6.429
 7934SOL    HW124701   1.692   4.953   6.447
 7934SOL    HW224702   1.811   4.933   6.336
 7935SOL     OW24703   5.803   6.504   1.389
 7935SOL    HW124704   5.860   6.578   1.426
 7935SOL    HW224705   5.822   6.419   1.438
 7936SOL     OW24706   3.667   5.791   2.151
 7936SOL    HW124707   3.624   5.881   2.144
 7936SOL    HW224708   3.709   5.781   2.241
 7937SOL     OW24709   6.550   6.013   3.663
 7937SOL    HW124710   6.499   6.010   3.749
 7937SOL    HW224711   6.646   6.036   3.683
 7938SOL     OW24712   6.732   6.094   4.055
 7938SOL    HW124713   6.733   6.180   4.106
 7938SOL    HW224714   6.656   6.037   4.085
 7939SOL     OW24715   1.531   2.506   4.397
 7939SOL    HW124716   1.580   2.583   4.358
 7939SOL    HW224717   1.442   2.497   4.352
 7940SOL     OW24718   1.394   3.887   1.638
 7940SOL    HW124719   1.450   3.806   1.656
 7940SOL    HW224720   1.327   3.899   1.711
 7941SOL     OW24721   6.387   0.551   1.118
 7941SOL    HW124722   6.417   0.526   1.211
 7941SOL    HW224723   6.295   0.515   1.103
 7942SOL     OW24724   6.603   5.012   2.580
 7942SOL    HW124725   6.604   5.109   2.554
 7942SOL    HW224726   6.625   5.004   2.678
 7943SOL     OW24727   0.014   3.506   6.319
 7943SOL    HW124728   0.035   3.581   6.382
 7943SOL    HW224729   7.006   3.426   6.371
 7944SOL     OW24730   0.865   2.340   0.969
 7944SOL    HW124731   0.811   2.356   0.887
 7944SOL    HW224732   0.961   2.329   0.943
 7945SOL     OW24733   6.468   5.049   1.445
 7945SOL    HW124734   6.401   5.104   1.495
 7945SOL    HW224735   6.451   4.952   1.461
 7946SOL     OW24736   4.003   0.198   6.181
 7946SOL    HW124737   4.039   0.190   6.274
 7946SOL    HW224738   4.042   0.279   6.137
 7947SOL     OW24739   4.010   1.941   6.144
 7947SOL    HW124740   3.965   1.853   6.134
 7947SOL    HW224741   4.075   1.938   6.219
 7948SOL     OW24742   1.385   6.461   1.274
 7948SOL    HW124743   1.338   6.404   1.207
 7948SOL    HW224744   1.446   6.525   1.227
 7949SOL     OW24745   4.591   4.402   5.156
 7949SOL    HW124746   4.606   4.447   5.067
 7949SOL    HW224747   4.608   4.304   5.146
 7950SOL     OW24748   5.082   4.977   3.726
 7950SOL    HW124749   5.138   4.933   3.655
 7950SOL    HW224750   5.039   4.908   3.783
 7951SOL     OW24751   1.988   4.183   2.038
 7951SOL    HW124752   1.917   4.250   2.063
 7951SOL    HW224753   1.965   4.141   1.951
 7952SOL     OW24754   6.689   3.426   6.727
 7952SOL    HW124755   6.667   3.412   6.630
 7952SOL    HW224756   6.682   3.339   6.776
 7953SOL     OW24757   3.191   2.104   3.351
 7953SOL    HW124758   3.187   2.136   3.445
 7953SOL    HW224759   3.276   2.136   3.308
 7954SOL     OW24760   3.504   4.339   6.188
 7954SOL    HW124761   3.570   4.317   6.116
 7954SOL    HW224762   3.450   4.419   6.161
 7955SOL     OW24763   2.278   0.899   6.522
 7955SOL    HW124764   2.230   0.961   6.459
 7955SOL    HW224765   2.219   0.879   6.600
 7956SOL     OW24766   4.125   6.902   2.259
 7956SOL    HW124767   4.197   6.905   2.189
 7956SOL    HW224768   4.164   6.871   2.345
 7957SOL     OW24769   1.160   0.808   1.335
 7957SOL    HW124770   1.145   0.810   1.236
 7957SOL    HW224771   1.255   0.786   1.354
 7958SOL     OW24772   4.052   4.819   5.259
 7958SOL    HW124773   4.002   4.876   5.324
 7958SOL    HW224774   4.121   4.765   5.307
 7959SOL     OW24775   4.723   5.870   0.406
 7959SOL    HW124776   4.708   5.950   0.348
 7959SOL    HW224777   4.737   5.789   0.349
 7960SOL     OW24778   2.189   1.983   5.921
 7960SOL    HW124779   2.285   1.955   5.915
 7960SOL    HW224780   2.130   1.903   5.914
 7961SOL     OW24781   6.726   1.116   1.045
 7961SOL    HW124782   6.633   1.096   1.075
 7961SOL    HW224783   6.787   1.114   1.125
 7962SOL     OW24784   1.409   0.577   6.293
 7962SOL    HW124785   1.491   0.599   6.345
 7962SOL    HW224786   1.328   0.609   6.342
 7963SOL     OW24787   6.336   6.662   3.782
 7963SOL    HW124788   6.390   6.604   3.843
 7963SOL    HW224789   6.316   6.613   3.697
 7964SOL     OW24790   6.830   4.287   2.654
 7964SOL    HW124791   6.804   4.200   2.696
 7964SOL    HW224792   6.815   4.361   2.719
 7965SOL     OW24793   4.176   2.649   5.777
 7965SOL    HW124794   4.179   2.578   5.707
 7965SOL    HW224795   4.170   2.607   5.867
 7966SOL     OW24796   2.156   3.282   5.740
 7966SOL    HW124797   2.107   3.204   5.779
 7966SOL    HW224798   2.100   3.364   5.748
 7967SOL     OW24799   3.554   6.673   2.445
 7967SOL    HW124800   3.632   6.728   2.417
 7967SOL    HW224801   3.492   6.661   2.368
 7968SOL     OW24802   1.652   2.679   3.916
 7968SOL    HW124803   1.576   2.739   3.891
 7968SOL    HW224804   1.645   2.657   4.014
 7969SOL     OW24805   3.976   5.948   0.362
 7969SOL    HW124806   3.952   5.862   0.408
 7969SOL    HW224807   4.040   5.999   0.420
 7970SOL     OW24808   6.675   2.832   2.571
 7970SOL    HW124809   6.718   2.808   2.484
 7970SOL    HW224810   6.724   2.906   2.615
 7971SOL     OW24811   3.078   2.135   0.559
 7971SOL    HW124812   2.991   2.137   0.609
 7971SOL    HW224813   3.059   2.140   0.461
 7972SOL     OW24814   2.363   3.073   0.058
 7972SOL    HW124815   2.408   3.006   7.023
 7972SOL    HW224816   2.390   3.165   0.030
 7973SOL     OW24817   4.355   4.656   4.472
 7973SOL    HW124818   4.419   4.594   4.427
 7973SOL    HW224819   4.361   4.645   4.571
 7974SOL     OW24820   5.894   0.413   5.655
 7974SOL    HW124821   5.935   0.322   5.656
 7974SOL    HW224822   5.965   0.481   5.672
 7975SOL     OW24823   6.008   1.368   1.722
 7975SOL    HW124824   6.043   1.452   1.763
 7975SOL    HW224825   5.908   1.368   1.725
 7976SOL     OW24826   0.449   0.361   6.389
 7976SOL    HW124827   0.357   0.336   6.418
 7976SOL    HW224828   0.473   0.311   6.306
 7977SOL     OW24829   4.779   5.983   2.645
 7977SOL    HW124830   4.704   5.922   2.670
 7977SOL    HW224831   4.810   5.963   2.552
 7978SOL     OW24832   5.515   3.598   6.672
 7978SOL    HW124833   5.503   3.696   6.691
 7978SOL    HW224834   5.434   3.548   6.702
 7979SOL     OW24835   4.329   6.412   5.145
 7979SOL    HW124836   4.407   6.464   5.110
 7979SOL    HW224837   4.245   6.465   5.134
 7980SOL     OW24838   3.259   5.472   0.091
 7980SOL    HW124839   3.278   5.564   0.056
 7980SOL    HW224840   3.194   5.426   0.030
 7981SOL     OW24841   0.370   5.111   1.604
 7981SOL    HW124842   0.449   5.118   1.665
 7981SOL    HW224843   0.393   5.054   1.526
 7982SOL     OW24844   1.653   1.397   6.961
 7982SOL    HW124845   1.643   1.479   6.904
 7982SOL    HW224846   1.723   1.413   0.007
 7983SOL     OW24847   5.968   1.895   1.997
 7983SOL    HW124848   6.005   1.867   2.085
 7983SOL    HW224849   5.879   1.851   1.983
 7984SOL     OW24850   1.096   1.106   0.889
 7984SOL    HW124851   1.046   1.049   0.954
 7984SOL    HW224852   1.040   1.185   0.865
 7985SOL     OW24853   3.123   1.067   4.497
 7985SOL    HW124854   3.076   1.105   4.577
 7985SOL    HW224855   3.197   1.007   4.528
 7986SOL     OW24856   3.442   0.747   6.643
 7986SOL    HW124857   3.371   0.715   6.580
 7986SOL    HW224858   3.531   0.717   6.611
 7987SOL     OW24859   2.000   2.474   6.939
 7987SOL    HW124860   1.917   2.501   6.890
 7987SOL    HW224861   1.990   2.498   0.013
 7988SOL     OW24862   0.218   1.716   3.504
 7988SOL    HW124863   0.238   1.737   3.408
 7988SOL    HW224864   0.221   1.617   3.518
 7989SOL     OW24865   2.905   2.666   6.508
 7989SOL    HW124866   2.968   2.591   6.529
 7989SOL    HW224867   2.825   2.659   6.568
 7990SOL     OW24868   0.466   4.136   4.975
 7990SOL    HW124869   0.377   4.140   5.019
 7990SOL    HW224870   0.490   4.041   4.955
 7991SOL     OW24871   5.348   6.621   3.604
 7991SOL    HW124872   5.335   6.541   3.545
 7991SOL    HW224873   5.311   6.702   3.560
 7992SOL     OW24874   0.975   0.053   0.544
 7992SOL    HW124875   1.033   7.007   0.588
 7992SOL    HW224876   1.033   0.120   0.498
 7993SOL     OW24877   0.728   0.046   0.430
 7993SOL    HW124878   0.807   0.045   0.491
 7993SOL    HW224879   0.720   6.981   0.383
 7994SOL     OW24880   4.085   0.062   3.434
 7994SOL    HW124881   3.989   0.056   3.461
 7994SOL    HW224882   4.115   0.158   3.439
 7995SOL     OW24883   5.319   6.010   3.960
 7995SOL    HW124884   5.392   6.025   3.894
 7995SOL    HW224885   5.296   6.096   4.005
 7996SOL     OW24886   2.662   6.797   5.256
 7996SOL    HW124887   2.563   6.808   5.263
 7996SOL    HW224888   2.699   6.768   5.344
 7997SOL     OW24889   0.097   1.821   1.270
 7997SOL    HW124890   0.060   1.841   1.179
 7997SOL    HW224891   0.023   1.827   1.338
 7998SOL     OW24892   3.138   6.788   0.238
 7998SOL    HW124893   3.103   6.732   0.313
 7998SOL    HW224894   3.223   6.832   0.266
 7999SOL     OW24895   0.854   0.371   5.932
 7999SOL    HW124896   0.949   0.364   5.965
 7999SOL    HW224897   0.853   0.425   5.848
 8000SOL     OW24898   4.557   0.070   0.370
 8000SOL    HW124899   4.583   0.162   0.343
 8000SOL    HW224900   4.637   0.022   0.407
 8001SOL     OW24901   4.296   6.600   1.280
 8001SOL    HW124902   4.380   6.557   1.248
 8001SOL    HW224903   4.217   6.549   1.245
 8002SOL     OW24904   1.518   1.121   5.833
 8002SOL    HW124905   1.538   1.179   5.912
 8002SOL    HW224906   1.465   1.172   5.766
 8003SOL     OW24907   3.065   5.267   2.328
 8003SOL    HW124908   2.975   5.305   2.348
 8003SOL    HW224909   3.133   5.309   2.389
 8004SOL     OW24910   1.971   3.335   2.688
 8004SOL    HW124911   1.895   3.271   2.694
 8004SOL    HW224912   1.983   3.364   2.593
 8005SOL     OW24913   2.753   0.776   1.944
 8005SOL    HW124914   2.786   0.835   2.018
 8005SOL    HW224915   2.697   0.831   1.881
 8006SOL     OW24916   2.248   6.310   5.888
 8006SOL    HW124917   2.198   6.282   5.971
 8006SOL    HW224918   2.195   6.284   5.807
 8007SOL     OW24919   6.442   0.752   4.337
 8007SOL    HW124920   6.526   0.697   4.342
 8007SOL    HW224921   6.429   0.801   4.423
 8008SOL     OW24922   4.072   5.390   6.121
 8008SOL    HW124923   4.023   5.372   6.206
 8008SOL    HW224924   4.039   5.476   6.082
 8009SOL     OW24925   5.964   0.838   2.306
 8009SOL    HW124926   5.948   0.902   2.231
 8009SOL    HW224927   6.051   0.860   2.350
 8010SOL     OW24928   1.176   1.811   5.637
 8010SOL    HW124929   1.221   1.761   5.563
 8010SOL    HW224930   1.094   1.856   5.603
 8011SOL     OW24931   2.783   2.702   0.894
 8011SOL    HW124932   2.779   2.737   0.988
 8011SOL    HW224933   2.814   2.607   0.895
 8012SOL     OW24934   1.716   3.847   0.881
 8012SOL    HW124935   1.753   3.776   0.941
 8012SOL    HW224936   1.693   3.928   0.935
 8013SOL     OW24937   1.372   5.213   3.189
 8013SOL    HW124938   1.324   5.144   3.243
 8013SOL    HW224939   1.449   5.248   3.243
 8014SOL     OW24940   1.158   6.000   5.226
 8014SOL    HW124941   1.198   6.092   5.227
 8014SOL    HW224942   1.174   5.956   5.315
 8015SOL     OW24943   3.251   0.939   6.295
 8015SOL    HW124944   3.194   0.917   6.217
 8015SOL    HW224945   3.347   0.942   6.267
 8016SOL     OW24946   4.688   0.604   5.648
 8016SOL    HW124947   4.742   0.568   5.572
 8016SOL    HW224948   4.643   0.689   5.620
 8017SOL     OW24949   5.860   0.341   0.599
 8017SOL    HW124950   5.847   0.380   0.508
 8017SOL    HW224951   5.899   0.249   0.592
 8018SOL     OW24952   3.375   1.783   6.584
 8018SOL    HW124953   3.401   1.878   6.571
 8018SOL    HW224954   3.406   1.729   6.504
 8019SOL     OW24955   2.195   4.544   0.088
 8019SOL    HW124956   2.115   4.602   0.096
 8019SOL    HW224957   2.262   4.587   0.027
 8020SOL     OW24958   5.594   0.921   0.983
 8020SOL    HW124959   5.660   0.851   0.958
 8020SOL    HW224960   5.512   0.878   1.019
 8021SOL     OW24961   1.506   2.904   1.419
 8021SOL    HW124962   1.436   2.975   1.414
 8021SOL    HW224963   1.486   2.843   1.495
 8022SOL     OW24964   5.568   6.944   2.872
 8022SOL    HW124965   5.586   6.952   2.774
 8022SOL    HW224966   5.478   6.904   2.887
 8023SOL     OW24967   5.709   5.162   2.528
 8023SOL    HW124968   5.809   5.159   2.528
 8023SOL    HW224969   5.673   5.070   2.544
 8024SOL     OW24970   1.837   4.536   5.988
 8024SOL    HW124971   1.867   4.513   6.080
 8024SOL    HW224972   1.770   4.469   5.956
 8025SOL     OW24973   2.085   6.286   6.899
 8025SOL    HW124974   2.138   6.305   6.982
 8025SOL    HW224975   2.132   6.215   6.846
 8026SOL     OW24976   0.246   4.320   7.012
 8026SOL    HW124977   0.190   4.295   0.068
 8026SOL    HW224978   0.188   4.359   6.941
 8027SOL     OW24979   4.822   0.884   4.731
 8027SOL    HW124980   4.725   0.861   4.732
 8027SOL    HW224981   4.834   0.981   4.752
 8028SOL     OW24982   3.965   5.792   5.698
 8028SOL    HW124983   3.974   5.829   5.791
 8028SOL    HW224984   4.049   5.745   5.673
 8029SOL     OW24985   4.727   3.228   1.121
 8029SOL    HW124986   4.633   3.244   1.149
 8029SOL    HW224987   4.754   3.135   1.147
 8030SOL     OW24988   4.228   4.789   0.617
 8030SOL    HW124989   4.150   4.771   0.678
 8030SOL    HW224990   4.215   4.739   0.531
 8031SOL     OW24991   6.574   6.547   2.510
 8031SOL    HW124992   6.582   6.524   2.413
 8031SOL    HW224993   6.663   6.539   2.554
 8032SOL     OW24994   6.327   4.359   1.384
 8032SOL    HW124995   6.272   4.277   1.371
 8032SOL    HW224996   6.397   4.343   1.454
 8033SOL     OW24997   5.067   1.803   5.820
 8033SOL    HW124998   5.135   1.842   5.759
 8033SOL    HW224999   5.107   1.728   5.873
 8034SOL     OW25000   4.980   0.242   4.288
 8034SOL    HW125001   5.010   0.329   4.327
 8034SOL    HW225002   4.993   0.244   4.189
 8035SOL     OW25003   4.928   1.695   4.428
 8035SOL    HW125004   4.846   1.642   4.450
 8035SOL    HW225005   4.917   1.789   4.461
 8036SOL     OW25006   6.834   3.969   3.745
 8036SOL    HW125007   6.756   3.908   3.752
 8036SOL    HW225008   6.903   3.930   3.684
 8037SOL     OW25009   1.615   3.221   0.523
 8037SOL    HW125010   1.572   3.280   0.592
 8037SOL    HW225011   1.585   3.127   0.536
 8038SOL     OW25012   4.358   0.096   2.396
 8038SOL    HW125013   4.431   0.148   2.440
 8038SOL    HW225014   4.384   7.022   2.391
 8039SOL     OW25015   1.029   1.738   4.863
 8039SOL    HW125016   0.957   1.732   4.795
 8039SOL    HW225017   1.010   1.676   4.939
 8040SOL     OW25018   1.447   5.257   6.963
 8040SOL    HW125019   1.372   5.194   6.941
 8040SOL    HW225020   1.486   5.293   6.878
 8041SOL     OW25021   2.451   1.393   2.606
 8041SOL    HW125022   2.401   1.447   2.538
 8041SOL    HW225023   2.396   1.386   2.689
 8042SOL     OW25024   3.243   2.991   3.984
 8042SOL    HW125025   3.233   2.996   3.884
 8042SOL    HW225026   3.153   3.004   4.026
 8043SOL     OW25027   3.447   6.476   1.429
 8043SOL    HW125028   3.353   6.443   1.414
 8043SOL    HW225029   3.455   6.513   1.521
 8044SOL     OW25030   4.044   1.950   1.418
 8044SOL    HW125031   4.092   2.034   1.440
 8044SOL    HW225032   3.980   1.966   1.343
 8045SOL     OW25033   5.475   2.438   3.170
 8045SOL    HW125034   5.570   2.445   3.142
 8045SOL    HW225035   5.469   2.390   3.258
 8046SOL     OW25036   0.495   5.269   1.323
 8046SOL    HW125037   0.491   5.171   1.345
 8046SOL    HW225038   0.473   5.322   1.405
 8047SOL     OW25039   4.363   5.926   4.479
 8047SOL    HW125040   4.319   5.974   4.555
 8047SOL    HW225041   4.295   5.868   4.433
 8048SOL     OW25042   5.359   1.433   5.903
 8048SOL    HW125043   5.385   1.527   5.879
 8048SOL    HW225044   5.312   1.391   5.825
 8049SOL     OW25045   0.812   0.120   0.190
 8049SOL    HW125046   0.846   0.213   0.205
 8049SOL    HW225047   0.802   0.073   0.278
 8050SOL     OW25048   1.404   3.490   3.554
 8050SOL    HW125049   1.473   3.512   3.485
 8050SOL    HW225050   1.437   3.518   3.644
 8051SOL     OW25051   4.565   5.788   3.654
 8051SOL    HW125052   4.630   5.863   3.649
 8051SOL    HW225053   4.612   5.706   3.687
 8052SOL     OW25054   4.134   1.049   1.066
 8052SOL    HW125055   4.105   1.138   1.031
 8052SOL    HW225056   4.069   0.979   1.038
 8053SOL     OW25057   2.924   3.736   3.941
 8053SOL    HW125058   2.904   3.744   4.039
 8053SOL    HW225059   2.962   3.822   3.908
 8054SOL     OW25060   5.817   5.933   4.361
 8054SOL    HW125061   5.888   5.887   4.414
 8054SOL    HW225062   5.809   6.028   4.392
 8055SOL     OW25063   0.321   0.304   5.233
 8055SOL    HW125064   0.260   0.229   5.257
 8055SOL    HW225065   0.386   0.319   5.308
 8056SOL     OW25066   2.319   1.086   3.279
 8056SOL    HW125067   2.413   1.116   3.293
 8056SOL    HW225068   2.280   1.135   3.200
 8057SOL     OW25069   2.993   2.150   2.738
 8057SOL    HW125070   2.936   2.232   2.732
 8057SOL    HW225071   3.078   2.164   2.688
 8058SOL     OW25072   3.733   0.234   2.889
 8058SOL    HW125073   3.665   0.164   2.909
 8058SOL    HW225074   3.771   0.218   2.797
 8059SOL     OW25075   3.129   1.842   5.316
 8059SOL    HW125076   3.228   1.828   5.308
 8059SOL    HW225077   3.082   1.784   5.250
 8060SOL     OW25078   6.104   2.152   5.355
 8060SOL    HW125079   6.171   2.078   5.354
 8060SOL    HW225080   6.013   2.115   5.374
 8061SOL     OW25081   0.179   0.818   3.006
 8061SOL    HW125082   0.135   0.895   3.052
 8061SOL    HW225083   0.266   0.798   3.052
 8062SOL     OW25084   3.973   5.088   3.994
 8062SOL    HW125085   3.927   5.008   4.030
 8062SOL    HW225086   4.001   5.147   4.070
 8063SOL     OW25087   1.896   2.210   2.041
 8063SOL    HW125088   1.874   2.207   1.943
 8063SOL    HW225089   1.950   2.129   2.065
 8064SOL     OW25090   6.765   3.103   1.707
 8064SOL    HW125091   6.864   3.116   1.696
 8064SOL    HW225092   6.717   3.184   1.671
 8065SOL     OW25093   2.789   5.391   3.758
 8065SOL    HW125094   2.731   5.407   3.678
 8065SOL    HW225095   2.807   5.478   3.804
 8066SOL     OW25096   0.839   1.676   5.292
 8066SOL    HW125097   0.888   1.634   5.369
 8066SOL    HW225098   0.889   1.661   5.207
 8067SOL     OW25099   4.815   2.642   2.330
 8067SOL    HW125100   4.817   2.651   2.429
 8067SOL    HW225101   4.891   2.693   2.290
 8068SOL     OW25102   0.170   3.756   1.550
 8068SOL    HW125103   0.083   3.760   1.598
 8068SOL    HW225104   0.154   3.742   1.452
 8069SOL     OW25105   3.036   5.995   1.423
 8069SOL    HW125106   2.946   5.955   1.438
 8069SOL    HW225107   3.038   6.088   1.459
 8070SOL     OW25108   4.355   3.585   0.490
 8070SOL    HW125109   4.366   3.549   0.397
 8070SOL    HW225110   4.431   3.552   0.547
 8071SOL     OW25111   3.283   6.466   4.387
 8071SOL    HW125112   3.231   6.501   4.464
 8071SOL    HW225113   3.347   6.536   4.356
 8072SOL     OW25114   4.231   1.884   0.779
 8072SOL    HW125115   4.164   1.901   0.852
 8072SOL    HW225116   4.195   1.920   0.692
 8073SOL     OW25117   2.978   5.329   4.960
 8073SOL    HW125118   3.047   5.349   5.030
 8073SOL    HW225119   3.011   5.257   4.900
 8074SOL     OW25120   3.279   2.978   0.344
 8074SOL    HW125121   3.359   2.965   0.401
 8074SOL    HW225122   3.286   2.920   0.263
 8075SOL     OW25123   7.015   0.326   0.618
 8075SOL    HW125124   0.042   0.411   0.601
 8075SOL    HW225125   6.966   0.299   0.536
 8076SOL     OW25126   6.336   1.344   5.484
 8076SOL    HW125127   6.247   1.380   5.455
 8076SOL    HW225128   6.404   1.417   5.479
 8077SOL     OW25129   3.453   6.312   2.770
 8077SOL    HW125130   3.546   6.349   2.773
 8077SOL    HW225131   3.427   6.277   2.860
 8078SOL     OW25132   0.350   1.854   0.355
 8078SOL    HW125133   0.339   1.778   0.291
 8078SOL    HW225134   0.434   1.842   0.407
 8079SOL     OW25135   5.528   2.131   3.762
 8079SOL    HW125136   5.566   2.223   3.767
 8079SOL    HW225137   5.477   2.111   3.846
 8080SOL     OW25138   1.266   2.608   1.236
 8080SOL    HW125139   1.218   2.602   1.149
 8080SOL    HW225140   1.360   2.576   1.224
 8081SOL     OW25141   6.103   5.950   5.808
 8081SOL    HW125142   6.111   6.002   5.723
 8081SOL    HW225143   6.191   5.949   5.855
 8082SOL     OW25144   4.715   7.020   2.960
 8082SOL    HW125145   4.778   0.068   2.991
 8082SOL    HW225146   4.761   6.963   2.892
 8083SOL     OW25147   5.035   2.836   3.359
 8083SOL    HW125148   4.959   2.899   3.343
 8083SOL    HW225149   5.079   2.814   3.271
 8084SOL     OW25150   3.877   6.633   0.280
 8084SOL    HW125151   3.835   6.723   0.272
 8084SOL    HW225152   3.813   6.570   0.326
 8085SOL     OW25153   6.895   6.323   2.100
 8085SOL    HW125154   6.976   6.335   2.157
 8085SOL    HW225155   6.884   6.227   2.077
 8086SOL     OW25156   5.817   0.438   2.881
 8086SOL    HW125157   5.878   0.366   2.913
 8086SOL    HW225158   5.768   0.406   2.800
 8087SOL     OW25159   2.856   1.040   0.089
 8087SOL    HW125160   2.947   1.033   0.130
 8087SOL    HW225161   2.794   0.976   0.136
 8088SOL     OW25162   5.782   2.232   1.474
 8088SOL    HW125163   5.786   2.255   1.572
 8088SOL    HW225164   5.871   2.194   1.446
 8089SOL     OW25165   5.739   2.505   0.346
 8089SOL    HW125166   5.770   2.478   0.255
 8089SOL    HW225167   5.813   2.495   0.412
 8090SOL     OW25168   4.366   2.129   0.240
 8090SOL    HW125169   4.290   2.069   0.214
 8090SOL    HW225170   4.387   2.117   0.337
 8091SOL     OW25171   2.163   3.406   5.101
 8091SOL    HW125172   2.234   3.352   5.146
 8091SOL    HW225173   2.130   3.358   5.020
 8092SOL     OW25174   5.177   1.694   4.845
 8092SOL    HW125175   5.252   1.742   4.890
 8092SOL    HW225176   5.096   1.753   4.844
 8093SOL     OW25177   4.149   5.470   2.623
 8093SOL    HW125178   4.132   5.557   2.668
 8093SOL    HW225179   4.135   5.479   2.525
 8094SOL     OW25180   0.924   3.511   4.624
 8094SOL    HW125181   0.843   3.566   4.602
 8094SOL    HW225182   0.994   3.570   4.665
 8095SOL     OW25183   0.497   4.375   4.774
 8095SOL    HW125184   0.443   4.441   4.826
 8095SOL    HW225185   0.481   4.283   4.810
 8096SOL     OW25186   2.224   6.557   3.459
 8096SOL    HW125187   2.220   6.657   3.458
 8096SOL    HW225188   2.207   6.524   3.552
 8097SOL     OW25189   4.125   0.244   4.309
 8097SOL    HW125190   4.040   0.297   4.303
 8097SOL    HW225191   4.167   0.238   4.218
 8098SOL     OW25192   1.660   6.817   3.264
 8098SOL    HW125193   1.736   6.752   3.264
 8098SOL    HW225194   1.650   6.858   3.354
 8099SOL     OW25195   3.688   6.652   4.880
 8099SOL    HW125196   3.731   6.708   4.950
 8099SOL    HW225197   3.606   6.698   4.846
 8100SOL     OW25198   6.423   1.009   0.812
 8100SOL    HW125199   6.509   1.000   0.762
 8100SOL    HW225200   6.365   1.076   0.766
 8101SOL     OW25201   2.114   6.352   2.373
 8101SOL    HW125202   2.172   6.432   2.381
 8101SOL    HW225203   2.068   6.353   2.284
 8102SOL     OW25204   0.773   4.255   4.062
 8102SOL    HW125205   0.780   4.224   3.967
 8102SOL    HW225206   0.778   4.355   4.065
 8103SOL     OW25207   3.044   0.070   1.106
 8103SOL    HW125208   2.968   0.134   1.119
 8103SOL    HW225209   3.042   0.034   1.012
 8104SOL     OW25210   3.616   0.793   5.869
 8104SOL    HW125211   3.597   0.848   5.788
 8104SOL    HW225212   3.639   0.700   5.842
 8105SOL     OW25213   0.960   2.903   3.149
 8105SOL    HW125214   0.883   2.903   3.212
 8105SOL    HW225215   0.934   2.950   3.065
 8106SOL     OW25216   2.238   6.319   2.990
 8106SOL    HW125217   2.142   6.292   3.000
 8106SOL    HW225218   2.273   6.285   2.903
 8107SOL     OW25219   0.367   5.099   4.659
 8107SOL    HW125220   0.347   5.010   4.617
 8107SOL    HW225221   0.303   5.115   4.734
 8108SOL     OW25222   6.171   2.682   5.625
 8108SOL    HW125223   6.200   2.712   5.716
 8108SOL    HW225224   6.102   2.745   5.589
 8109SOL     OW25225   0.838   3.723   4.897
 8109SOL    HW125226   0.769   3.651   4.888
 8109SOL    HW225227   0.893   3.705   4.978
 8110SOL     OW25228   3.093   6.194   1.166
 8110SOL    HW125229   3.189   6.166   1.167
 8110SOL    HW225230   3.044   6.147   1.240
 8111SOL     OW25231   5.174   0.704   4.733
 8111SOL    HW125232   5.235   0.643   4.682
 8111SOL    HW225233   5.218   0.793   4.744
 8112SOL     OW25234   1.992   2.359   4.163
 8112SOL    HW125235   1.974   2.436   4.101
 8112SOL    HW225236   2.090   2.339   4.163
 8113SOL     OW25237   2.207   3.377   0.675
 8113SOL    HW125238   2.287   3.380   0.734
 8113SOL    HW225239   2.232   3.338   0.586
 8114SOL     OW25240   1.402   3.852   3.047
 8114SOL    HW125241   1.366   3.770   3.002
 8114SOL    HW225242   1.433   3.829   3.139
 8115SOL     OW25243   3.810   0.560   0.339
 8115SOL    HW125244   3.715   0.537   0.316
 8115SOL    HW225245   3.812   0.641   0.397
 8116SOL     OW25246   4.721   5.257   6.041
 8116SOL    HW125247   4.793   5.208   5.992
 8116SOL    HW225248   4.759   5.305   6.119
 8117SOL     OW25249   1.691   0.499   3.420
 8117SOL    HW125250   1.735   0.460   3.338
 8117SOL    HW225251   1.609   0.548   3.393
 8118SOL     OW25252   5.544   4.429   5.396
 8118SOL    HW125253   5.575   4.468   5.310
 8118SOL    HW225254   5.514   4.335   5.380
 8119SOL     OW25255   5.079   5.286   6.146
 8119SOL    HW125256   5.089   5.207   6.085
 8119SOL    HW225257   5.060   5.254   6.239
 8120SOL     OW25258   2.901   5.104   0.634
 8120SOL    HW125259   2.864   5.093   0.727
 8120SOL    HW225260   2.837   5.155   0.578
 8121SOL     OW25261   0.285   5.222   1.841
 8121SOL    HW125262   0.294   5.207   1.742
 8121SOL    HW225263   0.231   5.305   1.857
 8122SOL     OW25264   1.234   5.159   2.615
 8122SOL    HW125265   1.214   5.127   2.707
 8122SOL    HW225266   1.235   5.259   2.614
 8123SOL     OW25267   6.470   0.807   6.216
 8123SOL    HW125268   6.533   0.734   6.243
 8123SOL    HW225269   6.492   0.891   6.265
 8124SOL     OW25270   5.790   6.903   1.165
 8124SOL    HW125271   5.730   6.877   1.241
 8124SOL    HW225272   5.870   6.843   1.164
 8125SOL     OW25273   1.145   1.446   3.639
 8125SOL    HW125274   1.118   1.528   3.589
 8125SOL    HW225275   1.171   1.374   3.574
 8126SOL     OW25276   4.897   4.709   2.643
 8126SOL    HW125277   4.880   4.794   2.693
 8126SOL    HW225278   4.966   4.725   2.572
 8127SOL     OW25279   2.658   4.787   6.421
 8127SOL    HW125280   2.736   4.824   6.370
 8127SOL    HW225281   2.689   4.721   6.489
 8128SOL     OW25282   2.427   1.449   1.762
 8128SOL    HW125283   2.359   1.443   1.688
 8128SOL    HW225284   2.502   1.385   1.743
 8129SOL     OW25285   4.414   0.768   6.684
 8129SOL    HW125286   4.387   0.709   6.608
 8129SOL    HW225287   4.437   0.859   6.648
 8130SOL     OW25288   7.016   3.276   6.437
 8130SOL    HW125289   6.953   3.207   6.474
 8130SOL    HW225290   0.086   3.255   6.467
 8131SOL     OW25291   3.287   1.987   0.595
 8131SOL    HW125292   3.375   2.034   0.602
 8131SOL    HW225293   3.213   2.054   0.604
 8132SOL     OW25294   6.104   7.006   6.240
 8132SOL    HW125295   6.045   0.011   6.164
 8132SOL    HW225296   6.175   6.944   6.206
 8133SOL     OW25297   3.049   4.842   1.410
 8133SOL    HW125298   3.088   4.868   1.321
 8133SOL    HW225299   3.100   4.887   1.483
 8134SOL     OW25300   6.710   2.836   5.351
 8134SOL    HW125301   6.750   2.752   5.315
 8134SOL    HW225302   6.612   2.822   5.368
 8135SOL     OW25303   2.759   6.301   1.902
 8135SOL    HW125304   2.696   6.231   1.869
 8135SOL    HW225305   2.841   6.257   1.939
 8136SOL     OW25306   4.612   5.245   2.926
 8136SOL    HW125307   4.530   5.243   2.984
 8136SOL    HW225308   4.593   5.200   2.839
 8137SOL     OW25309   3.419   1.700   5.526
 8137SOL    HW125310   3.393   1.767   5.457
 8137SOL    HW225311   3.349   1.629   5.532
 8138SOL     OW25312   5.979   1.367   6.726
 8138SOL    HW125313   6.030   1.321   6.799
 8138SOL    HW225314   5.974   1.465   6.746
 8139SOL     OW25315   0.047   1.249   3.010
 8139SOL    HW125316   7.016   1.232   3.093
 8139SOL    HW225317   0.119   1.181   3.003
 8140SOL     OW25318   4.895   0.572   1.000
 8140SOL    HW125319   4.978   0.521   1.026
 8140SOL    HW225320   4.894   0.660   1.047
 8141SOL     OW25321   5.021   6.730   5.015
 8141SOL    HW125322   5.067   6.716   5.102
 8141SOL    HW225323   5.056   6.812   4.971
 8142SOL     OW25324   1.257   5.089   6.884
 8142SOL    HW125325   1.159   5.097   6.870
 8142SOL    HW225326   1.277   5.006   6.936
 8143SOL     OW25327   6.818   4.309   0.969
 8143SOL    HW125328   6.868   4.373   1.027
 8143SOL    HW225329   6.880   4.237   0.938
 8144SOL     OW25330   6.563   6.763   6.231
 8144SOL    HW125331   6.599   6.856   6.245
 8144SOL    HW225332   6.542   6.722   6.320
 8145SOL     OW25333   5.683   5.480   1.576
 8145SOL    HW125334   5.712   5.519   1.664
 8145SOL    HW225335   5.634   5.394   1.592
 8146SOL     OW25336   4.977   0.872   4.483
 8146SOL    HW125337   5.052   0.806   4.476
 8146SOL    HW225338   4.943   0.873   4.577
 8147SOL     OW25339   6.356   1.944   1.605
 8147SOL    HW125340   6.271   1.995   1.591
 8147SOL    HW225341   6.353   1.860   1.552
 8148SOL     OW25342   4.889   4.139   0.666
 8148SOL    HW125343   4.850   4.100   0.583
 8148SOL    HW225344   4.984   4.108   0.676
 8149SOL     OW25345   3.247   6.510   2.558
 8149SOL    HW125346   3.274   6.548   2.646
 8149SOL    HW225347   3.215   6.416   2.570
 8150SOL     OW25348   2.147   4.171   1.098
 8150SOL    HW125349   2.110   4.105   1.033
 8150SOL    HW225350   2.150   4.130   1.189
 8151SOL     OW25351   5.451   3.303   1.959
 8151SOL    HW125352   5.432   3.213   1.919
 8151SOL    HW225353   5.431   3.300   2.057
 8152SOL     OW25354   6.558   2.381   2.529
 8152SOL    HW125355   6.463   2.412   2.525
 8152SOL    HW225356   6.601   2.417   2.612
 8153SOL     OW25357   1.699   0.133   3.635
 8153SOL    HW125358   1.784   0.126   3.688
 8153SOL    HW225359   1.621   0.128   3.697
 8154SOL     OW25360   3.661   5.377   1.921
 8154SOL    HW125361   3.667   5.353   2.017
 8154SOL    HW225362   3.570   5.416   1.902
 8155SOL     OW25363   1.655   3.444   2.308
 8155SOL    HW125364   1.563   3.404   2.315
 8155SOL    HW225365   1.668   3.482   2.217
 8156SOL     OW25366   5.666   6.999   0.923
 8156SOL    HW125367   5.580   0.023   0.943
 8156SOL    HW225368   5.701   6.958   1.007
 8157SOL     OW25369   6.779   5.251   6.281
 8157SOL    HW125370   6.734   5.168   6.315
 8157SOL    HW225371   6.755   5.328   6.340
 8158SOL     OW25372   5.251   5.020   0.683
 8158SOL    HW125373   5.292   5.021   0.592
 8158SOL    HW225374   5.242   4.926   0.715
 8159SOL     OW25375   2.619   5.888   3.050
 8159SOL    HW125376   2.633   5.920   2.956
 8159SOL    HW225377   2.608   5.967   3.111
 8160SOL     OW25378   5.041   0.699   3.470
 8160SOL    HW125379   5.123   0.701   3.414
 8160SOL    HW225380   5.040   0.616   3.526
 8161SOL     OW25381   6.058   2.043   6.465
 8161SOL    HW125382   6.149   2.084   6.479
 8161SOL    HW225383   6.040   1.979   6.540
 8162SOL     OW25384   5.430   6.746   6.726
 8162SOL    HW125385   5.369   6.821   6.750
 8162SOL    HW225386   5.525   6.778   6.729
 8163SOL     OW25387   2.658   3.930   5.352
 8163SOL    HW125388   2.740   3.962   5.305
 8163SOL    HW225389   2.579   3.943   5.293
 8164SOL     OW25390   5.302   2.684   0.417
 8164SOL    HW125391   5.329   2.691   0.513
 8164SOL    HW225392   5.383   2.693   0.359
 8165SOL     OW25393   0.676   3.191   6.636
 8165SOL    HW125394   0.770   3.164   6.614
 8165SOL    HW225395   0.629   3.116   6.682
 8166SOL     OW25396   1.333   0.281   2.782
 8166SOL    HW125397   1.415   0.270   2.726
 8166SOL    HW225398   1.272   0.347   2.738
 8167SOL     OW25399   6.746   6.964   4.487
 8167SOL    HW125400   6.662   6.972   4.540
 8167SOL    HW225401   6.724   6.966   4.389
 8168SOL     OW25402   1.878   1.997   3.470
 8168SOL    HW125403   1.881   1.927   3.399
 8168SOL    HW225404   1.862   2.086   3.428
 8169SOL     OW25405   5.022   2.234   0.796
 8169SOL    HW125406   5.042   2.136   0.804
 8169SOL    HW225407   5.015   2.274   0.887
 8170SOL     OW25408   1.308   4.663   2.665
 8170SOL    HW125409   1.213   4.667   2.696
 8170SOL    HW225410   1.323   4.578   2.614
 8171SOL     OW25411   1.388   1.708   6.310
 8171SOL    HW125412   1.324   1.729   6.384
 8171SOL    HW225413   1.384   1.779   6.240
 8172SOL     OW25414   1.101   1.904   2.334
 8172SOL    HW125415   1.163   1.878   2.409
 8172SOL    HW225416   1.103   1.832   2.264
 8173SOL     OW25417   4.926   1.051   2.139
 8173SOL    HW125418   4.869   0.984   2.093
 8173SOL    HW225419   5.021   1.022   2.136
 8174SOL     OW25420   6.086   3.037   1.038
 8174SOL    HW125421   6.054   3.081   1.122
 8174SOL    HW225422   6.026   2.959   1.017
 8175SOL     OW25423   6.760   2.471   5.646
 8175SOL    HW125424   6.795   2.527   5.721
 8175SOL    HW225425   6.664   2.493   5.630
 8176SOL     OW25426   2.766   4.998   1.727
 8176SOL    HW125427   2.824   5.052   1.667
 8176SOL    HW225428   2.769   5.037   1.819
 8177SOL     OW25429   3.304   6.440   3.847
 8177SOL    HW125430   3.205   6.458   3.845
 8177SOL    HW225431   3.350   6.515   3.894
 8178SOL     OW25432   2.853   5.825   6.565
 8178SOL    HW125433   2.915   5.868   6.500
 8178SOL    HW225434   2.834   5.888   6.640
 8179SOL     OW25435   4.990   2.191   5.798
 8179SOL    HW125436   4.973   2.139   5.714
 8179SOL    HW225437   5.019   2.129   5.870
 8180SOL     OW25438   6.600   0.254   4.750
 8180SOL    HW125439   6.683   0.239   4.805
 8180SOL    HW225440   6.611   0.337   4.696
 8181SOL     OW25441   1.756   1.212   0.711
 8181SOL    HW125442   1.800   1.210   0.621
 8181SOL    HW225443   1.814   1.262   0.776
 8182SOL     OW25444   3.823   3.368   5.607
 8182SOL    HW125445   3.907   3.394   5.561
 8182SOL    HW225446   3.837   3.370   5.706
 8183SOL     OW25447   6.953   2.152   4.904
 8183SOL    HW125448   6.863   2.193   4.890
 8183SOL    HW225449   6.957   2.113   4.996
 8184SOL     OW25450   5.784   1.299   6.547
 8184SOL    HW125451   5.759   1.214   6.501
 8184SOL    HW225452   5.875   1.289   6.587
 8185SOL     OW25453   2.391   6.531   0.327
 8185SOL    HW125454   2.453   6.513   0.403
 8185SOL    HW225455   2.435   6.592   0.261
 8186SOL     OW25456   3.775   5.750   5.124
 8186SOL    HW125457   3.817   5.837   5.152
 8186SOL    HW225458   3.703   5.768   5.057
 8187SOL     OW25459   1.601   2.399   5.479
 8187SOL    HW125460   1.672   2.381   5.547
 8187SOL    HW225461   1.641   2.445   5.400
 8188SOL     OW25462   5.538   2.983   3.003
 8188SOL    HW125463   5.513   2.968   3.098
 8188SOL    HW225464   5.585   3.071   2.994
 8189SOL     OW25465   4.654   4.707   2.526
 8189SOL    HW125466   4.592   4.630   2.544
 8189SOL    HW225467   4.746   4.684   2.559
 8190SOL     OW25468   4.414   5.054   3.938
 8190SOL    HW125469   4.404   5.142   3.986
 8190SOL    HW225470   4.331   5.000   3.949
 8191SOL     OW25471   3.707   6.523   2.198
 8191SOL    HW125472   3.661   6.449   2.149
 8191SOL    HW225473   3.711   6.500   2.296
 8192SOL     OW25474   3.837   5.206   0.778
 8192SOL    HW125475   3.793   5.203   0.868
 8192SOL    HW225476   3.931   5.171   0.786
 8193SOL     OW25477   0.015   6.577   4.410
 8193SOL    HW125478   6.939   6.573   4.399
 8193SOL    HW225479   0.037   6.644   4.481
 8194SOL     OW25480   5.929   2.544   0.931
 8194SOL    HW125481   5.919   2.594   1.018
 8194SOL    HW225482   5.863   2.469   0.928
 8195SOL     OW25483   1.717   6.924   1.732
 8195SOL    HW125484   1.669   6.847   1.688
 8195SOL    HW225485   1.767   6.975   1.663
 8196SOL     OW25486   3.740   6.412   5.872
 8196SOL    HW125487   3.641   6.417   5.859
 8196SOL    HW225488   3.785   6.476   5.810
 8197SOL     OW25489   4.488   1.582   6.497
 8197SOL    HW125490   4.449   1.554   6.584
 8197SOL    HW225491   4.430   1.653   6.456
 8198SOL     OW25492   3.768   6.700   3.299
 8198SOL    HW125493   3.682   6.686   3.249
 8198SOL    HW225494   3.761   6.655   3.389
 8199SOL     OW25495   5.729   2.972   6.593
 8199SOL    HW125496   5.674   2.997   6.513
 8199SOL    HW225497   5.822   2.951   6.564
 8200SOL     OW25498   4.933   3.786   1.622
 8200SOL    HW125499   4.941   3.687   1.635
 8200SOL    HW225500   4.944   3.808   1.525
 8201SOL     OW25501   5.713   0.561   3.970
 8201SOL    HW125502   5.651   0.514   4.035
 8201SOL    HW225503   5.807   0.540   3.994
 8202SOL     OW25504   0.036   6.130   4.917
 8202SOL    HW125505   6.987   6.178   4.966
 8202SOL    HW225506   0.101   6.090   4.982
 8203SOL     OW25507   4.679   2.144   0.334
 8203SOL    HW125508   4.643   2.206   0.265
 8203SOL    HW225509   4.653   2.050   0.311
 8204SOL     OW25510   3.066   5.356   6.657
 8204SOL    HW125511   2.983   5.411   6.654
 8204SOL    HW225512   3.078   5.308   6.570
 8205SOL     OW25513   0.606   4.576   0.734
 8205SOL    HW125514   0.629   4.549   0.827
 8205SOL    HW225515   0.590   4.675   0.731
 8206SOL     OW25516   4.900   2.645   6.104
 8206SOL    HW125517   4.813   2.597   6.110
 8206SOL    HW225518   4.967   2.603   6.166
 8207SOL     OW25519   3.692   3.873   5.431
 8207SOL    HW125520   3.768   3.883   5.495
 8207SOL    HW225521   3.668   3.963   5.394
 8208SOL     OW25522   1.691   0.041   1.427
 8208SOL    HW125523   1.753   6.986   1.428
 8208SOL    HW225524   1.597   0.008   1.436
 8209SOL     OW25525   0.749   1.458   5.678
 8209SOL    HW125526   0.707   1.496   5.760
 8209SOL    HW225527   0.700   1.376   5.650
 8210SOL     OW25528   2.906   0.766   0.897
 8210SOL    HW125529   2.966   0.764   0.977
 8210SOL    HW225530   2.948   0.713   0.823
 8211SOL     OW25531   3.922   3.804   2.594
 8211SOL    HW125532   3.864   3.751   2.532
 8211SOL    HW225533   3.894   3.900   2.593
 8212SOL     OW25534   3.252   1.811   0.997
 8212SOL    HW125535   3.297   1.900   1.010
 8212SOL    HW225536   3.153   1.823   1.001
 8213SOL     OW25537   5.734   4.840   2.072
 8213SOL    HW125538   5.818   4.803   2.033
 8213SOL    HW225539   5.705   4.783   2.149
 8214SOL     OW25540   0.513   5.668   4.286
 8214SOL    HW125541   0.491   5.740   4.220
 8214SOL    HW225542   0.469   5.582   4.257
 8215SOL     OW25543   3.022   5.995   6.374
 8215SOL    HW125544   3.086   6.070   6.355
 8215SOL    HW225545   2.983   5.962   6.287
 8216SOL     OW25546   5.141   6.084   3.504
 8216SOL    HW125547   5.056   6.133   3.524
 8216SOL    HW225548   5.130   5.988   3.529
 8217SOL     OW25549   2.152   3.932   2.101
 8217SOL    HW125550   2.075   3.869   2.097
 8217SOL    HW225551   2.180   3.956   2.008
 8218SOL     OW25552   1.370   6.666   5.101
 8218SOL    HW125553   1.292   6.704   5.052
 8218SOL    HW225554   1.340   6.632   5.190
 8219SOL     OW25555   3.600   3.022   0.978
 8219SOL    HW125556   3.574   3.094   1.044
 8219SOL    HW225557   3.615   2.936   1.027
 8220SOL     OW25558   3.275   3.723   4.825
 8220SOL    HW125559   3.213   3.644   4.828
 8220SOL    HW225560   3.243   3.788   4.756
 8221SOL     OW25561   6.311   5.388   3.045
 8221SOL    HW125562   6.316   5.487   3.057
 8221SOL    HW225563   6.219   5.356   3.065
 8222SOL     OW25564   5.015   1.920   1.447
 8222SOL    HW125565   4.974   1.909   1.537
 8222SOL    HW225566   4.973   1.855   1.383
 8223SOL     OW25567   1.002   4.435   5.232
 8223SOL    HW125568   1.068   4.428   5.307
 8223SOL    HW225569   0.975   4.343   5.203
 8224SOL     OW25570   5.517   2.409   1.960
 8224SOL    HW125571   5.578   2.446   2.030
 8224SOL    HW225572   5.558   2.424   1.870
 8225SOL     OW25573   4.059   1.305   1.406
 8225SOL    HW125574   3.965   1.321   1.378
 8225SOL    HW225575   4.084   1.209   1.389
 8226SOL     OW25576   3.373   6.909   0.312
 8226SOL    HW125577   3.373   6.985   0.247
 8226SOL    HW225578   3.442   6.842   0.285
 8227SOL     OW25579   0.146   1.110   2.738
 8227SOL    HW125580   0.050   1.129   2.720
 8227SOL    HW225581   0.201   1.136   2.659
 8228SOL     OW25582   0.761   1.476   6.191
 8228SOL    HW125583   0.753   1.409   6.265
 8228SOL    HW225584   0.794   1.430   6.108
 8229SOL     OW25585   3.734   4.172   1.222
 8229SOL    HW125586   3.683   4.255   1.199
 8229SOL    HW225587   3.716   4.102   1.154
 8230SOL     OW25588   3.899   0.068   5.369
 8230SOL    HW125589   3.915   0.143   5.306
 8230SOL    HW225590   3.921   7.004   5.325
 8231SOL     OW25591   3.098   2.642   1.497
 8231SOL    HW125592   3.011   2.642   1.546
 8231SOL    HW225593   3.122   2.548   1.471
 8232SOL     OW25594   5.821   1.507   2.502
 8232SOL    HW125595   5.783   1.444   2.570
 8232SOL    HW225596   5.916   1.481   2.483
 8233SOL     OW25597   1.609   6.920   6.778
 8233SOL    HW125598   1.525   6.872   6.751
 8233SOL    HW225599   1.600   6.956   6.871
 8234SOL     OW25600   3.055   3.959   0.027
 8234SOL    HW125601   3.154   3.969   0.032
 8234SOL    HW225602   3.032   3.876   6.998
 8235SOL     OW25603   0.244   3.510   6.557
 8235SOL    HW125604   0.209   3.523   6.465
 8235SOL    HW225605   0.225   3.417   6.587
 8236SOL     OW25606   6.847   4.644   6.825
 8236SOL    HW125607   6.816   4.739   6.824
 8236SOL    HW225608   6.919   4.633   6.894
 8237SOL     OW25609   4.952   6.458   6.122
 8237SOL    HW125610   4.860   6.479   6.088
 8237SOL    HW225611   4.965   6.503   6.211
 8238SOL     OW25612   0.597   5.569   0.072
 8238SOL    HW125613   0.608   5.643   0.006
 8238SOL    HW225614   0.629   5.484   0.032
 8239SOL     OW25615   0.832   0.615   5.292
 8239SOL    HW125616   0.785   0.584   5.209
 8239SOL    HW225617   0.792   0.702   5.322
 8240SOL     OW25618   3.087   4.037   2.948
 8240SOL    HW125619   3.077   4.043   2.849
 8240SOL    HW225620   3.157   4.102   2.979
 8241SOL     OW25621   2.599   4.947   5.827
 8241SOL    HW125622   2.557   5.026   5.872
 8241SOL    HW225623   2.668   4.908   5.887
 8242SOL     OW25624   0.645   3.632   5.315
 8242SOL    HW125625   0.731   3.644   5.265
 8242SOL    HW225626   0.574   3.689   5.274
 8243SOL     OW25627   0.045   3.572   1.124
 8243SOL    HW125628   0.083   3.640   1.187
 8243SOL    HW225629   6.982   3.537   1.161
 8244SOL     OW25630   0.389   0.052   3.508
 8244SOL    HW125631   0.427   0.125   3.452
 8244SOL    HW225632   0.367   6.996   3.450
 8245SOL     OW25633   3.472   2.092   2.751
 8245SOL    HW125634   3.548   2.157   2.755
 8245SOL    HW225635   3.405   2.115   2.822
 8246SOL     OW25636   0.241   3.871   6.497
 8246SOL    HW125637   0.204   3.928   6.569
 8246SOL    HW225638   0.330   3.906   6.468
 8247SOL     OW25639   1.912   6.612   3.291
 8247SOL    HW125640   1.946   6.606   3.198
 8247SOL    HW225641   1.988   6.625   3.354
 8248SOL     OW25642   0.748   4.528   4.741
 8248SOL    HW125643   0.667   4.491   4.787
 8248SOL    HW225644   0.828   4.474   4.767
 8249SOL     OW25645   1.944   1.587   5.759
 8249SOL    HW125646   1.859   1.537   5.768
 8249SOL    HW225647   1.978   1.579   5.665
 8250SOL     OW25648   2.369   2.277   1.389
 8250SOL    HW125649   2.407   2.299   1.479
 8250SOL    HW225650   2.438   2.229   1.334
 8251SOL     OW25651   5.364   1.841   4.388
 8251SOL    HW125652   5.435   1.813   4.323
 8251SOL    HW225653   5.285   1.780   4.379
 8252SOL     OW25654   4.209   2.082   6.588
 8252SOL    HW125655   4.158   2.057   6.671
 8252SOL    HW225656   4.236   2.178   6.594
 8253SOL     OW25657   3.508   6.062   5.934
 8253SOL    HW125658   3.464   6.062   5.843
 8253SOL    HW225659   3.563   6.145   5.943
 8254SOL     OW25660   4.887   4.610   5.634
 8254SOL    HW125661   4.838   4.670   5.696
 8254SOL    HW225662   4.976   4.651   5.611
 8255SOL     OW25663   1.242   6.578   5.490
 8255SOL    HW125664   1.200   6.601   5.402
 8255SOL    HW225665   1.243   6.479   5.501
 8256SOL     OW25666   0.057   6.184   2.664
 8256SOL    HW125667   0.091   6.217   2.752
 8256SOL    HW225668   0.134   6.160   2.605
 8257SOL     OW25669   5.255   3.867   3.264
 8257SOL    HW125670   5.270   3.792   3.200
 8257SOL    HW225671   5.201   3.939   3.219
 8258SOL     OW25672   4.685   2.596   2.099
 8258SOL    HW125673   4.682   2.663   2.025
 8258SOL    HW225674   4.742   2.631   2.173
 8259SOL     OW25675   3.556   2.296   5.339
 8259SOL    HW125676   3.530   2.380   5.293
 8259SOL    HW225677   3.493   2.223   5.314
 8260SOL     OW25678   2.134   6.718   1.715
 8260SOL    HW125679   2.127   6.646   1.646
 8260SOL    HW225680   2.042   6.747   1.742
 8261SOL     OW25681   4.919   6.487   3.221
 8261SOL    HW125682   4.823   6.508   3.239
 8261SOL    HW225683   4.977   6.534   3.288
 8262SOL     OW25684   1.278   4.990   0.645
 8262SOL    HW125685   1.255   5.010   0.741
 8262SOL    HW225686   1.377   4.984   0.635
 8263SOL     OW25687   0.030   3.007   6.592
 8263SOL    HW125688   7.018   3.004   6.686
 8263SOL    HW225689   0.039   2.914   6.557
 8264SOL     OW25690   0.943   6.425   1.349
 8264SOL    HW125691   0.921   6.523   1.347
 8264SOL    HW225692   0.966   6.398   1.442
 8265SOL     OW25693   5.468   0.433   2.042
 8265SOL    HW125694   5.493   0.426   1.946
 8265SOL    HW225695   5.529   0.497   2.088
 8266SOL     OW25696   2.165   0.919   4.098
 8266SOL    HW125697   2.107   0.838   4.102
 8266SOL    HW225698   2.134   0.979   4.024
 8267SOL     OW25699   1.202   4.028   1.779
 8267SOL    HW125700   1.244   4.105   1.829
 8267SOL    HW225701   1.177   4.058   1.687
 8268SOL     OW25702   3.180   5.640   6.442
 8268SOL    HW125703   3.221   5.573   6.505
 8268SOL    HW225704   3.133   5.710   6.494
 8269SOL     OW25705   4.837   2.748   3.125
 8269SOL    HW125706   4.814   2.779   3.033
 8269SOL    HW225707   4.819   2.822   3.190
 8270SOL     OW25708   2.864   5.688   5.054
 8270SOL    HW125709   2.856   5.603   5.106
 8270SOL    HW225710   2.881   5.667   4.958
 8271SOL     OW25711   6.452   6.788   3.367
 8271SOL    HW125712   6.382   6.735   3.318
 8271SOL    HW225713   6.490   6.857   3.307
 8272SOL     OW25714   6.514   1.309   2.647
 8272SOL    HW125715   6.430   1.260   2.624
 8272SOL    HW225716   6.575   1.311   2.568
 8273SOL     OW25717   3.336   0.896   0.225
 8273SOL    HW125718   3.315   0.976   0.168
 8273SOL    HW225719   3.300   0.910   0.317
 8274SOL     OW25720   4.402   5.498   4.984
 8274SOL    HW125721   4.309   5.471   4.961
 8274SOL    HW225722   4.444   5.545   4.906
 8275SOL     OW25723   5.753   0.658   3.713
 8275SOL    HW125724   5.848   0.678   3.687
 8275SOL    HW225725   5.750   0.633   3.810
 8276SOL     OW25726   6.929   2.397   5.438
 8276SOL    HW125727   6.876   2.424   5.519
 8276SOL    HW225728   6.991   2.322   5.462
 8277SOL     OW25729   1.294   5.976   6.373
 8277SOL    HW125730   1.360   5.925   6.318
 8277SOL    HW225731   1.242   6.038   6.314
 8278SOL     OW25732   3.098   1.530   6.878
 8278SOL    HW125733   3.028   1.577   6.932
 8278SOL    HW225734   3.184   1.581   6.885
 8279SOL     OW25735   6.468   6.390   4.989
 8279SOL    HW125736   6.510   6.379   5.079
 8279SOL    HW225737   6.369   6.387   4.998
 8280SOL     OW25738   3.758   2.467   0.665
 8280SOL    HW125739   3.717   2.556   0.647
 8280SOL    HW225740   3.712   2.424   0.743
 8281SOL     OW25741   2.304   4.518   1.798
 8281SOL    HW125742   2.387   4.473   1.830
 8281SOL    HW225743   2.315   4.545   1.703
 8282SOL     OW25744   3.737   4.155   0.407
 8282SOL    HW125745   3.707   4.061   0.422
 8282SOL    HW225746   3.805   4.180   0.476
 8283SOL     OW25747   1.629   4.663   4.341
 8283SOL    HW125748   1.615   4.761   4.351
 8283SOL    HW225749   1.600   4.616   4.425
 8284SOL     OW25750   1.691   4.194   2.160
 8284SOL    HW125751   1.716   4.228   2.070
 8284SOL    HW225752   1.653   4.268   2.215
 8285SOL     OW25753   4.341   3.954   5.423
 8285SOL    HW125754   4.278   4.000   5.361
 8285SOL    HW225755   4.405   3.898   5.370
 8286SOL     OW25756   5.377   1.820   5.015
 8286SOL    HW125757   5.458   1.805   4.959
 8286SOL    HW225758   5.336   1.908   4.992
 8287SOL     OW25759   0.863   4.977   4.544
 8287SOL    HW125760   0.914   5.051   4.502
 8287SOL    HW225761   0.779   5.012   4.585
 8288SOL     OW25762   1.850   2.572   2.645
 8288SOL    HW125763   1.779   2.573   2.716
 8288SOL    HW225764   1.808   2.550   2.557
 8289SOL     OW25765   6.434   0.156   6.551
 8289SOL    HW125766   6.417   0.108   6.465
 8289SOL    HW225767   6.347   0.168   6.600
 8290SOL     OW25768   4.896   1.961   1.082
 8290SOL    HW125769   4.839   1.967   1.000
 8290SOL    HW225770   4.992   1.955   1.055
 8291SOL     OW25771   5.781   5.526   6.619
 8291SOL    HW125772   5.791   5.505   6.522
 8291SOL    HW225773   5.701   5.479   6.656
 8292SOL     OW25774   2.334   5.338   6.718
 8292SOL    HW125775   2.367   5.391   6.640
 8292SOL    HW225776   2.369   5.378   6.803
 8293SOL     OW25777   1.828   5.159   1.417
 8293SOL    HW125778   1.744   5.179   1.368
 8293SOL    HW225779   1.829   5.208   1.505
 8294SOL     OW25780   6.700   3.629   5.124
 8294SOL    HW125781   6.629   3.613   5.057
 8294SOL    HW225782   6.686   3.719   5.167
 8295SOL     OW25783   4.889   3.400   3.104
 8295SOL    HW125784   4.837   3.422   3.021
 8295SOL    HW225785   4.910   3.302   3.105
 8296SOL     OW25786   2.992   6.133   0.095
 8296SOL    HW125787   3.074   6.139   0.152
 8296SOL    HW225788   2.920   6.083   0.145
 8297SOL     OW25789   6.293   3.291   2.601
 8297SOL    HW125790   6.319   3.196   2.617
 8297SOL    HW225791   6.350   3.329   2.528
 8298SOL     OW25792   6.832   0.575   0.960
 8298SOL    HW125793   6.735   0.586   0.941
 8298SOL    HW225794   6.868   0.498   0.907
 8299SOL     OW25795   0.310   3.114   2.182
 8299SOL    HW125796   0.307   3.089   2.085
 8299SOL    HW225797   0.375   3.054   2.229
 8300SOL     OW25798   0.373   0.045   4.271
 8300SOL    HW125799   0.284   0.079   4.241
 8300SOL    HW225800   0.360   6.986   4.327
 8301SOL     OW25801   4.639   0.972   6.741
 8301SOL    HW125802   4.657   0.977   6.840
 8301SOL    HW225803   4.713   0.921   6.696
 8302SOL     OW25804   5.141   6.975   5.545
 8302SOL    HW125805   5.123   6.959   5.448
 8302SOL    HW225806   5.064   0.003   5.584
 8303SOL     OW25807   6.410   0.412   3.389
 8303SOL    HW125808   6.440   0.479   3.321
 8303SOL    HW225809   6.491   0.368   3.429
 8304SOL     OW25810   5.606   4.792   1.348
 8304SOL    HW125811   5.598   4.873   1.291
 8304SOL    HW225812   5.521   4.740   1.346
 8305SOL     OW25813   4.443   4.912   4.224
 8305SOL    HW125814   4.448   5.004   4.185
 8305SOL    HW225815   4.357   4.869   4.196
 8306SOL     OW25816   6.193   1.199   3.623
 8306SOL    HW125817   6.290   1.212   3.600
 8306SOL    HW225818   6.137   1.230   3.547
 8307SOL     OW25819   3.411   5.485   1.830
 8307SOL    HW125820   3.341   5.556   1.837
 8307SOL    HW225821   3.375   5.408   1.777
 8308SOL     OW25822   2.645   5.884   0.164
 8308SOL    HW125823   2.693   5.956   0.214
 8308SOL    HW225824   2.693   5.797   0.176
 8309SOL     OW25825   5.903   5.714   3.093
 8309SOL    HW125826   5.814   5.707   3.137
 8309SOL    HW225827   5.926   5.629   3.047
 8310SOL     OW25828   1.520   4.864   1.152
 8310SOL    HW125829   1.581   4.920   1.095
 8310SOL    HW225830   1.461   4.808   1.095
 8311SOL     OW25831   5.872   0.708   4.201
 8311SOL    HW125832   5.945   0.737   4.138
 8311SOL    HW225833   5.831   0.788   4.244
 8312SOL     OW25834   5.583   0.845   6.219
 8312SOL    HW125835   5.492   0.886   6.212
 8312SOL    HW225836   5.607   0.803   6.132
 8313SOL     OW25837   6.090   0.588   5.945
 8313SOL    HW125838   6.074   0.673   5.997
 8313SOL    HW225839   6.169   0.540   5.985
 8314SOL     OW25840   6.407   0.057   6.304
 8314SOL    HW125841   6.429   0.012   6.217
 8314SOL    HW225842   6.309   0.052   6.320
 8315SOL     OW25843   3.937   3.016   2.803
 8315SOL    HW125844   3.980   3.015   2.893
 8315SOL    HW225845   3.854   2.959   2.804
 8316SOL     OW25846   1.782   3.356   1.306
 8316SOL    HW125847   1.707   3.370   1.371
 8316SOL    HW225848   1.833   3.274   1.331
 8317SOL     OW25849   1.329   2.359   2.818
 8317SOL    HW125850   1.314   2.261   2.831
 8317SOL    HW225851   1.390   2.394   2.889
 8318SOL     OW25852   4.491   1.337   6.360
 8318SOL    HW125853   4.394   1.312   6.365
 8318SOL    HW225854   4.501   1.434   6.382
 8319SOL     OW25855   1.263   0.732   0.529
 8319SOL    HW125856   1.302   0.784   0.605
 8319SOL    HW225857   1.284   0.779   0.443
 8320SOL     OW25858   3.245   4.103   3.428
 8320SOL    HW125859   3.206   4.013   3.445
 8320SOL    HW225860   3.276   4.144   3.514
 8321SOL     OW25861   0.058   6.894   6.981
 8321SOL    HW125862   0.011   6.981   6.993
 8321SOL    HW225863   7.018   6.819   7.003
 8322SOL     OW25864   6.586   1.506   1.353
 8322SOL    HW125865   6.535   1.518   1.268
 8322SOL    HW225866   6.569   1.414   1.389
 8323SOL     OW25867   3.922   4.870   1.511
 8323SOL    HW125868   3.951   4.836   1.422
 8323SOL    HW225869   3.823   4.858   1.521
 8324SOL     OW25870   5.424   0.626   0.695
 8324SOL    HW125871   5.494   0.559   0.669
 8324SOL    HW225872   5.397   0.610   0.790
 8325SOL     OW25873   0.932   3.653   5.529
 8325SOL    HW125874   0.954   3.727   5.465
 8325SOL    HW225875   0.941   3.565   5.483
 8326SOL     OW25876   4.129   3.724   6.136
 8326SOL    HW125877   4.055   3.779   6.172
 8326SOL    HW225878   4.101   3.628   6.131
 8327SOL     OW25879   0.787   0.956   5.625
 8327SOL    HW125880   0.802   1.019   5.700
 8327SOL    HW225881   0.832   0.991   5.542
 8328SOL     OW25882   2.649   6.368   6.302
 8328SOL    HW125883   2.744   6.353   6.277
 8328SOL    HW225884   2.621   6.299   6.368
 8329SOL     OW25885   0.679   1.886   4.653
 8329SOL    HW125886   0.747   1.856   4.586
 8329SOL    HW225887   0.643   1.975   4.627
 8330SOL     OW25888   3.455   1.360   6.863
 8330SOL    HW125889   3.367   1.320   6.837
 8330SOL    HW225890   3.473   1.341   6.959
 8331SOL     OW25891   3.460   0.687   0.473
 8331SOL    HW125892   3.372   0.640   0.468
 8331SOL    HW225893   3.509   0.677   0.387
 8332SOL     OW25894   5.962   5.348   1.895
 8332SOL    HW125895   5.879   5.296   1.874
 8332SOL    HW225896   5.962   5.373   1.992
 8333SOL     OW25897   1.197   4.867   6.660
 8333SOL    HW125898   1.125   4.864   6.590
 8333SOL    HW225899   1.168   4.814   6.740
 8334SOL     OW25900   3.366   1.840   5.783
 8334SOL    HW125901   3.428   1.860   5.860
 8334SOL    HW225902   3.419   1.803   5.707
 8335SOL     OW25903   4.314   1.310   0.302
 8335SOL    HW125904   4.361   1.345   0.383
 8335SOL    HW225905   4.372   1.244   0.256
 8336SOL     OW25906   0.569   3.829   2.965
 8336SOL    HW125907   0.643   3.837   2.897
 8336SOL    HW225908   0.544   3.921   2.996
 8337SOL     OW25909   0.409   6.622   4.198
 8337SOL    HW125910   0.350   6.692   4.237
 8337SOL    HW225911   0.361   6.577   4.122
 8338SOL     OW25912   3.636   5.512   1.394
 8338SOL    HW125913   3.659   5.565   1.312
 8338SOL    HW225914   3.627   5.416   1.370
 8339SOL     OW25915   6.996   1.000   2.086
 8339SOL    HW125916   0.065   0.967   2.065
 8339SOL    HW225917   6.935   0.975   2.011
 8340SOL     OW25918   4.753   3.620   0.914
 8340SOL    HW125919   4.776   3.710   0.950
 8340SOL    HW225920   4.657   3.619   0.885
 8341SOL     OW25921   3.455   0.154   6.676
 8341SOL    HW125922   3.496   0.133   6.587
 8341SOL    HW225923   3.474   0.079   6.739
 8342SOL     OW25924   4.391   6.577   0.471
 8342SOL    HW125925   4.378   6.646   0.400
 8342SOL    HW225926   4.406   6.621   0.559
 8343SOL     OW25927   6.886   5.432   3.514
 8343SOL    HW125928   6.814   5.411   3.448
 8343SOL    HW225929   6.848   5.428   3.606
 8344SOL     OW25930   6.261   5.517   4.785
 8344SOL    HW125931   6.325   5.579   4.740
 8344SOL    HW225932   6.235   5.444   4.721
 8345SOL     OW25933   3.771   2.125   2.745
 8345SOL    HW125934   3.822   2.045   2.776
 8345SOL    HW225935   3.751   2.117   2.648
 8346SOL     OW25936   4.008   4.586   0.187
 8346SOL    HW125937   4.018   4.491   0.157
 8346SOL    HW225938   3.918   4.620   0.161
 8347SOL     OW25939   3.035   6.438   5.665
 8347SOL    HW125940   3.122   6.488   5.656
 8347SOL    HW225941   3.000   6.416   5.574
 8348SOL     OW25942   1.999   0.857   1.556
 8348SOL    HW125943   2.033   0.937   1.507
 8348SOL    HW225944   2.052   0.844   1.640
 8349SOL     OW25945   0.796   6.605   2.041
 8349SOL    HW125946   0.860   6.528   2.049
 8349SOL    HW225947   0.757   6.624   2.130
 8350SOL     OW25948   2.817   6.787   6.417
 8350SOL    HW125949   2.876   6.784   6.498
 8350SOL    HW225950   2.802   6.882   6.390
 8351SOL     OW25951   4.814   5.188   4.860
 8351SOL    HW125952   4.776   5.099   4.835
 8351SOL    HW225953   4.909   5.177   4.890
 8352SOL     OW25954   1.503   0.245   3.441
 8352SOL    HW125955   1.579   0.249   3.507
 8352SOL    HW225956   1.503   0.155   3.397
 8353SOL     OW25957   1.032   3.902   0.731
 8353SOL    HW125958   1.043   3.914   0.830
 8353SOL    HW225959   0.940   3.931   0.704
 8354SOL     OW25960   3.223   0.049   4.378
 8354SOL    HW125961   3.172   0.117   4.324
 8354SOL    HW225962   3.320   0.070   4.374
 8355SOL     OW25963   2.147   1.324   4.592
 8355SOL    HW125964   2.112   1.378   4.668
 8355SOL    HW225965   2.114   1.362   4.506
 8356SOL     OW25966   1.553   6.393   1.618
 8356SOL    HW125967   1.599   6.386   1.530
 8356SOL    HW225968   1.454   6.395   1.604
 8357SOL     OW25969   3.700   0.075   5.547
 8357SOL    HW125970   3.789   0.072   5.502
 8357SOL    HW225971   3.711   0.106   5.642
 8358SOL     OW25972   1.009   3.280   4.483
 8358SOL    HW125973   0.961   3.353   4.531
 8358SOL    HW225974   1.100   3.267   4.524
 8359SOL     OW25975   2.742   1.507   4.924
 8359SOL    HW125976   2.834   1.469   4.916
 8359SOL    HW225977   2.733   1.585   4.862
 8360SOL     OW25978   4.280   0.400   0.328
 8360SOL    HW125979   4.250   0.354   0.411
 8360SOL    HW225980   4.379   0.394   0.319
 8361SOL     OW25981   3.685   0.703   1.106
 8361SOL    HW125982   3.674   0.783   1.165
 8361SOL    HW225983   3.638   0.625   1.146
 8362SOL     OW25984   5.111   1.986   0.907
 8362SOL    HW125985   5.153   2.061   0.957
 8362SOL    HW225986   5.180   1.915   0.889
 8363SOL     OW25987   4.855   2.505   0.081
 8363SOL    HW125988   4.885   2.600   0.078
 8363SOL    HW225989   4.932   2.444   0.063
 8364SOL     OW25990   6.723   1.957   4.135
 8364SOL    HW125991   6.817   1.931   4.158
 8364SOL    HW225992   6.719   1.983   4.038
 8365SOL     OW25993   1.758   2.211   2.314
 8365SOL    HW125994   1.813   2.280   2.361
 8365SOL    HW225995   1.671   2.200   2.362
 8366SOL     OW25996   2.890   4.992   0.960
 8366SOL    HW125997   2.885   4.962   1.055
 8366SOL    HW225998   2.816   5.057   0.942
 8367SOL     OW25999   3.667   5.626   4.771
 8367SOL    HW126000   3.690   5.723   4.774
 8367SOL    HW226001   3.572   5.613   4.802
 8368SOL     OW26002   1.103   5.950   6.959
 8368SOL    HW126003   1.172   5.965   0.005
 8368SOL    HW226004   1.022   5.907   7.000
 8369SOL     OW26005   0.599   0.240   6.629
 8369SOL    HW126006   0.579   0.278   6.539
 8369SOL    HW226007   0.527   0.175   6.654
 8370SOL     OW26008   2.325   1.243   5.901
 8370SOL    HW126009   2.274   1.317   5.858
 8370SOL    HW226010   2.313   1.247   6.000
 8371SOL     OW26011   2.507   4.348   0.714
 8371SOL    HW126012   2.517   4.446   0.701
 8371SOL    HW226013   2.517   4.302   0.626
 8372SOL     OW26014   1.608   6.081   1.873
 8372SOL    HW126015   1.664   6.021   1.930
 8372SOL    HW226016   1.512   6.069   1.896
 8373SOL     OW26017   1.708   6.573   4.296
 8373SOL    HW126018   1.657   6.488   4.312
 8373SOL    HW226019   1.749   6.571   4.205
 8374SOL     OW26020   0.283   0.017   4.999
 8374SOL    HW126021   0.315   0.094   4.943
 8374SOL    HW226022   0.357   7.011   5.059
 8375SOL     OW26023   3.708   6.646   5.496
 8375SOL    HW126024   3.709   6.586   5.417
 8375SOL    HW226025   3.735   6.595   5.578
 8376SOL     OW26026   1.259   0.922   4.131
 8376SOL    HW126027   1.217   0.938   4.220
 8376SOL    HW226028   1.350   0.965   4.129
 8377SOL     OW26029   5.646   6.191   0.268
 8377SOL    HW126030   5.711   6.264   0.249
 8377SOL    HW226031   5.678   6.106   0.224
 8378SOL     OW26032   3.679   4.943   3.170
 8378SOL    HW126033   3.672   5.039   3.140
 8378SOL    HW226034   3.607   4.925   3.237
 8379SOL     OW26035   4.936   2.862   1.960
 8379SOL    HW126036   4.884   2.796   1.907
 8379SOL    HW226037   4.875   2.932   1.997
 8380SOL     OW26038   0.368   0.359   0.605
 8380SOL    HW126039   0.320   0.421   0.668
 8380SOL    HW226040   0.457   0.398   0.583
 8381SOL     OW26041   0.379   2.005   4.005
 8381SOL    HW126042   0.345   1.963   4.089
 8381SOL    HW226043   0.326   2.088   3.986
 8382SOL     OW26044   2.108   6.460   1.917
 8382SOL    HW126045   2.185   6.402   1.891
 8382SOL    HW226046   2.142   6.547   1.951
 8383SOL     OW26047   3.081   7.014   6.237
 8383SOL    HW126048   3.049   6.937   6.182
 8383SOL    HW226049   3.041   7.009   6.328
 8384SOL     OW26050   6.032   1.857   1.734
 8384SOL    HW126051   6.049   1.945   1.689
 8384SOL    HW226052   6.023   1.872   1.833
 8385SOL     OW26053   4.845   2.217   6.580
 8385SOL    HW126054   4.798   2.178   6.658
 8385SOL    HW226055   4.813   2.311   6.564
 8386SOL     OW26056   1.807   6.177   1.670
 8386SOL    HW126057   1.733   6.240   1.647
 8386SOL    HW226058   1.786   6.131   1.756
 8387SOL     OW26059   1.184   1.381   1.263
 8387SOL    HW126060   1.146   1.289   1.253
 8387SOL    HW226061   1.281   1.374   1.287
 8388SOL     OW26062   2.127   6.627   0.416
 8388SOL    HW126063   2.054   6.646   0.350
 8388SOL    HW226064   2.199   6.575   0.371
 8389SOL     OW26065   0.170   3.171   4.061
 8389SOL    HW126066   0.155   3.148   4.157
 8389SOL    HW226067   0.083   3.168   4.011
 8390SOL     OW26068   3.637   6.639   0.536
 8390SOL    HW126069   3.615   6.645   0.634
 8390SOL    HW226070   3.595   6.556   0.498
 8391SOL     OW26071   5.179   5.338   1.277
 8391SOL    HW126072   5.259   5.304   1.327
 8391SOL    HW226073   5.095   5.302   1.319
 8392SOL     OW26074   6.727   5.249   5.379
 8392SOL    HW126075   6.746   5.162   5.334
 8392SOL    HW226076   6.790   5.319   5.346
 8393SOL     OW26077   0.439   0.036   3.077
 8393SOL    HW126078   0.366   0.056   3.013
 8393SOL    HW226079   0.442   0.108   3.147
 8394SOL     OW26080   0.605   3.305   2.080
 8394SOL    HW126081   0.598   3.332   1.984
 8394SOL    HW226082   0.523   3.254   2.107
 8395SOL     OW26083   2.053   6.066   4.400
 8395SOL    HW126084   2.079   5.975   4.433
 8395SOL    HW226085   1.992   6.109   4.467
 8396SOL     OW26086   4.620   4.818   2.278
 8396SOL    HW126087   4.645   4.754   2.352
 8396SOL    HW226088   4.521   4.831   2.279
 8397SOL     OW26089   2.583   1.148   3.251
 8397SOL    HW126090   2.604   1.240   3.217
 8397SOL    HW226091   2.665   1.090   3.244
 8398SOL     OW26092   4.250   2.662   6.284
 8398SOL    HW126093   4.292   2.633   6.370
 8398SOL    HW226094   4.275   2.757   6.265
 8399SOL     OW26095   6.176   0.336   0.521
 8399SOL    HW126096   6.154   0.321   0.425
 8399SOL    HW226097   6.206   0.250   0.563
 8400SOL     OW26098   1.447   0.493   3.964
 8400SOL    HW126099   1.511   0.463   3.893
 8400SOL    HW226100   1.428   0.416   4.026
 8401SOL     OW26101   3.054   1.840   6.250
 8401SOL    HW126102   2.979   1.822   6.187
 8401SOL    HW226103   3.138   1.802   6.213
 8402SOL     OW26104   4.069   2.041   5.899
 8402SOL    HW126105   4.050   2.005   5.990
 8402SOL    HW226106   4.064   1.968   5.832
 8403SOL     OW26107   0.724   2.040   3.585
 8403SOL    HW126108   0.817   2.076   3.576
 8403SOL    HW226109   0.727   1.941   3.596
 8404SOL     OW26110   4.501   6.115   6.011
 8404SOL    HW126111   4.512   6.081   6.104
 8404SOL    HW226112   4.516   6.213   6.009
 8405SOL     OW26113   2.648   0.688   6.131
 8405SOL    HW126114   2.719   0.747   6.170
 8405SOL    HW226115   2.563   0.739   6.123
 8406SOL     OW26116   5.223   6.985   0.872
 8406SOL    HW126117   5.125   6.982   0.850
 8406SOL    HW226118   5.266   6.900   0.844
 8407SOL     OW26119   4.211   6.291   4.070
 8407SOL    HW126120   4.294   6.280   4.015
 8407SOL    HW226121   4.197   6.209   4.126
 8408SOL     OW26122   5.465   2.955   2.146
 8408SOL    HW126123   5.402   2.894   2.195
 8408SOL    HW226124   5.545   2.902   2.115
 8409SOL     OW26125   6.011   3.165   4.171
 8409SOL    HW126126   5.968   3.222   4.242
 8409SOL    HW226127   5.940   3.115   4.122
 8410SOL     OW26128   4.943   0.105   1.747
 8410SOL    HW126129   4.878   0.136   1.817
 8410SOL    HW226130   4.919   0.013   1.718
 8411SOL     OW26131   0.676   5.303   7.011
 8411SOL    HW126132   0.664   5.246   6.929
 8411SOL    HW226133   0.720   5.249   0.060
 8412SOL     OW26134   3.507   2.080   1.746
 8412SOL    HW126135   3.463   2.128   1.670
 8412SOL    HW226136   3.577   2.139   1.787
 8413SOL     OW26137   3.935   5.822   0.094
 8413SOL    HW126138   3.908   5.881   0.170
 8413SOL    HW226139   3.859   5.814   0.030
 8414SOL     OW26140   4.404   5.257   3.088
 8414SOL    HW126141   4.368   5.332   3.144
 8414SOL    HW226142   4.391   5.171   3.136
 8415SOL     OW26143   6.672   5.707   3.243
 8415SOL    HW126144   6.744   5.712   3.312
 8415SOL    HW226145   6.610   5.785   3.254
 8416SOL     OW26146   5.637   3.468   2.813
 8416SOL    HW126147   5.716   3.456   2.753
 8416SOL    HW226148   5.648   3.409   2.894
 8417SOL     OW26149   1.393   5.184   5.815
 8417SOL    HW126150   1.339   5.137   5.884
 8417SOL    HW226151   1.470   5.126   5.788
 8418SOL     OW26152   5.601   5.358   1.144
 8418SOL    HW126153   5.621   5.454   1.161
 8418SOL    HW226154   5.677   5.317   1.092
 8419SOL     OW26155   5.091   1.001   2.408
 8419SOL    HW126156   5.000   1.034   2.381
 8419SOL    HW226157   5.124   0.936   2.339
 8420SOL     OW26158   3.862   6.804   0.585
 8420SOL    HW126159   3.790   6.754   0.536
 8420SOL    HW226160   3.821   6.862   0.655
 8421SOL     OW26161   2.902   6.014   0.309
 8421SOL    HW126162   2.998   6.043   0.310
 8421SOL    HW226163   2.882   5.961   0.391
 8422SOL     OW26164   4.367   0.937   1.139
 8422SOL    HW126165   4.439   1.006   1.140
 8422SOL    HW226166   4.278   0.983   1.133
 8423SOL     OW26167   4.196   4.783   5.847
 8423SOL    HW126168   4.140   4.866   5.849
 8423SOL    HW226169   4.210   4.750   5.940
 8424SOL     OW26170   2.006   2.448   2.862
 8424SOL    HW126171   1.936   2.423   2.930
 8424SOL    HW226172   1.970   2.518   2.802
 8425SOL     OW26173   5.396   5.950   0.416
 8425SOL    HW126174   5.392   5.957   0.317
 8425SOL    HW226175   5.483   5.987   0.449
 8426SOL     OW26176   3.355   3.527   4.333
 8426SOL    HW126177   3.275   3.538   4.393
 8426SOL    HW226178   3.431   3.581   4.370
 8427SOL     OW26179   3.051   3.471   5.072
 8427SOL    HW126180   3.028   3.374   5.072
 8427SOL    HW226181   3.147   3.483   5.098
 8428SOL     OW26182   0.261   4.367   1.873
 8428SOL    HW126183   0.178   4.379   1.927
 8428SOL    HW226184   0.314   4.291   1.910
 8429SOL     OW26185   2.164   4.554   3.707
 8429SOL    HW126186   2.086   4.613   3.730
 8429SOL    HW226187   2.201   4.514   3.791
 8430SOL     OW26188   3.499   5.271   4.675
 8430SOL    HW126189   3.419   5.211   4.685
 8430SOL    HW226190   3.477   5.362   4.710
 8431SOL     OW26191   3.052   5.394   0.822
 8431SOL    HW126192   3.122   5.430   0.761
 8431SOL    HW226193   2.962   5.403   0.779
 8432SOL     OW26194   5.473   6.849   6.151
 8432SOL    HW126195   5.441   6.863   6.245
 8432SOL    HW226196   5.442   6.760   6.118
 8433SOL     OW26197   5.860   1.726   0.344
 8433SOL    HW126198   5.912   1.776   0.413
 8433SOL    HW226199   5.917   1.708   0.264
 8434SOL     OW26200   3.816   0.056   4.992
 8434SOL    HW126201   3.718   0.040   4.980
 8434SOL    HW226202   3.861   6.992   5.013
 8435SOL     OW26203   5.639   0.717   1.457
 8435SOL    HW126204   5.561   0.751   1.405
 8435SOL    HW226205   5.626   0.739   1.554
 8436SOL     OW26206   3.480   0.188   4.340
 8436SOL    HW126207   3.488   0.130   4.259
 8436SOL    HW226208   3.474   0.284   4.311
 8437SOL     OW26209   2.160   0.334   3.807
 8437SOL    HW126210   2.178   0.360   3.712
 8437SOL    HW226211   2.161   0.415   3.864
 8438SOL     OW26212   2.423   4.802   2.218
 8438SOL    HW126213   2.520   4.779   2.222
 8438SOL    HW226214   2.385   4.772   2.131
 8439SOL     OW26215   6.248   5.299   2.432
 8439SOL    HW126216   6.167   5.246   2.459
 8439SOL    HW226217   6.260   5.295   2.333
 8440SOL     OW26218   1.177   1.919   3.493
 8440SOL    HW126219   1.220   1.865   3.565
 8440SOL    HW226220   1.157   1.860   3.415
 8441SOL     OW26221   5.915   0.157   0.273
 8441SOL    HW126222   6.000   0.205   0.252
 8441SOL    HW226223   5.935   0.078   0.331
 8442SOL     OW26224   3.283   2.141   5.512
 8442SOL    HW126225   3.296   2.120   5.415
 8442SOL    HW226226   3.355   2.204   5.543
 8443SOL     OW26227   1.599   5.465   3.748
 8443SOL    HW126228   1.562   5.518   3.672
 8443SOL    HW226229   1.558   5.374   3.749
 8444SOL     OW26230   3.262   5.994   3.774
 8444SOL    HW126231   3.175   5.962   3.812
 8444SOL    HW226232   3.326   5.918   3.768
 8445SOL     OW26233   3.548   5.947   1.060
 8445SOL    HW126234   3.636   5.984   1.031
 8445SOL    HW226235   3.502   5.905   0.982
 8446SOL     OW26236   4.955   5.151   6.368
 8446SOL    HW126237   4.958   5.053   6.387
 8446SOL    HW226238   4.859   5.181   6.366
 8447SOL     OW26239   4.650   2.319   2.471
 8447SOL    HW126240   4.714   2.295   2.544
 8447SOL    HW226241   4.625   2.416   2.479
 8448SOL     OW26242   5.009   6.056   3.835
 8448SOL    HW126243   4.980   6.071   3.930
 8448SOL    HW226244   5.081   6.121   3.812
 8449SOL     OW26245   6.670   2.238   4.212
 8449SOL    HW126246   6.705   2.256   4.304
 8449SOL    HW226247   6.705   2.150   4.179
 8450SOL     OW26248   1.133   5.611   1.744
 8450SOL    HW126249   1.170   5.609   1.651
 8450SOL    HW226250   1.073   5.532   1.758
 8451SOL     OW26251   4.315   2.547   0.063
 8451SOL    HW126252   4.335   2.614   0.134
 8451SOL    HW226253   4.251   2.479   0.098
 8452SOL     OW26254   6.420   0.921   3.182
 8452SOL    HW126255   6.428   1.018   3.158
 8452SOL    HW226256   6.491   0.869   3.134
 8453SOL     OW26257   0.064   4.407   6.124
 8453SOL    HW126258   0.113   4.435   6.041
 8453SOL    HW226259   0.061   4.307   6.128
 8454SOL     OW26260   7.002   6.641   0.842
 8454SOL    HW126261   6.984   6.584   0.762
 8454SOL    HW226262   6.990   6.737   0.818
 8455SOL     OW26263   5.744   2.249   1.744
 8455SOL    HW126264   5.690   2.333   1.742
 8455SOL    HW226265   5.692   2.177   1.791
 8456SOL     OW26266   4.841   6.022   3.057
 8456SOL    HW126267   4.889   6.085   3.119
 8456SOL    HW226268   4.883   6.025   2.967
 8457SOL     OW26269   6.776   6.647   4.307
 8457SOL    HW126270   6.686   6.688   4.289
 8457SOL    HW226271   6.847   6.702   4.262
 8458SOL     OW26272   2.485   1.711   6.225
 8458SOL    HW126273   2.554   1.656   6.271
 8458SOL    HW226274   2.461   1.789   6.283
 8459SOL     OW26275   3.185   6.518   2.004
 8459SOL    HW126276   3.154   6.546   1.913
 8459SOL    HW226277   3.272   6.563   2.025
 8460SOL     OW26278   4.388   3.593   5.621
 8460SOL    HW126279   4.430   3.561   5.536
 8460SOL    HW226280   4.310   3.652   5.600
 8461SOL     OW26281   6.966   3.996   3.372
 8461SOL    HW126282   0.029   3.975   3.418
 8461SOL    HW226283   6.936   4.088   3.399
 8462SOL     OW26284   3.319   2.329   0.024
 8462SOL    HW126285   3.231   2.377   0.031
 8462SOL    HW226286   3.388   2.392   7.011
 8463SOL     OW26287   6.057   6.775   0.357
 8463SOL    HW126288   6.032   6.854   0.414
 8463SOL    HW226289   6.155   6.758   0.365
 8464SOL     OW26290   5.268   3.625   5.889
 8464SOL    HW126291   5.191   3.689   5.888
 8464SOL    HW226292   5.339   3.658   5.952
 8465SOL     OW26293   1.637   2.851   1.025
 8465SOL    HW126294   1.583   2.820   1.103
 8465SOL    HW226295   1.723   2.801   1.021
 8466SOL     OW26296   0.894   6.522   5.244
 8466SOL    HW126297   0.834   6.565   5.177
 8466SOL    HW226298   0.883   6.568   5.332
 8467SOL     OW26299   4.331   0.204   1.610
 8467SOL    HW126300   4.413   0.151   1.633
 8467SOL    HW226301   4.250   0.154   1.639
 8468SOL     OW26302   4.475   2.548   6.835
 8468SOL    HW126303   4.528   2.466   6.816
 8468SOL    HW226304   4.437   2.542   6.928
 8469SOL     OW26305   4.111   1.469   5.671
 8469SOL    HW126306   4.023   1.454   5.714
 8469SOL    HW226307   4.104   1.545   5.606
 8470SOL     OW26308   1.466   4.590   0.247
 8470SOL    HW126309   1.468   4.657   0.173
 8470SOL    HW226310   1.501   4.632   0.331
 8471SOL     OW26311   3.895   0.592   4.231
 8471SOL    HW126312   3.870   0.508   4.280
 8471SOL    HW226313   3.971   0.573   4.169
 8472SOL     OW26314   6.418   0.509   5.390
 8472SOL    HW126315   6.427   0.440   5.462
 8472SOL    HW226316   6.508   0.547   5.369
 8473SOL     OW26317   6.615   6.025   0.896
 8473SOL    HW126318   6.591   5.934   0.930
 8473SOL    HW226319   6.715   6.033   0.893
 8474SOL     OW26320   3.416   3.152   2.489
 8474SOL    HW126321   3.460   3.146   2.579
 8474SOL    HW226322   3.484   3.178   2.421
 8475SOL     OW26323   0.133   2.174   3.616
 8475SOL    HW126324   0.065   2.159   3.544
 8475SOL    HW226325   0.179   2.262   3.600
 8476SOL     OW26326   6.660   2.054   0.993
 8476SOL    HW126327   6.676   1.965   1.036
 8476SOL    HW226328   6.613   2.114   1.057
 8477SOL     OW26329   4.811   0.095   2.023
 8477SOL    HW126330   4.867   0.161   2.073
 8477SOL    HW226331   4.726   0.140   1.993
 8478SOL     OW26332   1.727   0.184   6.436
 8478SOL    HW126333   1.688   0.214   6.349
 8478SOL    HW226334   1.757   0.089   6.428
 8479SOL     OW26335   0.123   2.761   1.021
 8479SOL    HW126336   0.175   2.763   0.936
 8479SOL    HW226337   0.026   2.748   1.001
 8480SOL     OW26338   4.617   2.648   6.461
 8480SOL    HW126339   4.544   2.589   6.497
 8480SOL    HW226340   4.695   2.592   6.433
 8481SOL     OW26341   4.502   2.444   4.604
 8481SOL    HW126342   4.423   2.445   4.665
 8481SOL    HW226343   4.585   2.462   4.656
 8482SOL     OW26344   4.674   5.594   2.331
 8482SOL    HW126345   4.577   5.601   2.355
 8482SOL    HW226346   4.728   5.584   2.414
 8483SOL     OW26347   4.082   6.597   1.908
 8483SOL    HW126348   4.155   6.597   1.976
 8483SOL    HW226349   4.024   6.677   1.921
 8484SOL     OW26350   6.961   6.293   2.954
 8484SOL    HW126351   0.033   6.263   2.962
 8484SOL    HW226352   6.940   6.357   3.027
 8485SOL     OW26353   3.392   2.670   0.385
 8485SOL    HW126354   3.476   2.622   0.363
 8485SOL    HW226355   3.344   2.694   0.300
 8486SOL     OW26356   2.296   1.585   2.431
 8486SOL    HW126357   2.279   1.487   2.421
 8486SOL    HW226358   2.255   1.634   2.354
 8487SOL     OW26359   5.999   1.276   5.480
 8487SOL    HW126360   5.990   1.370   5.447
 8487SOL    HW226361   6.077   1.232   5.436
 8488SOL     OW26362   5.063   6.133   0.879
 8488SOL    HW126363   5.111   6.159   0.795
 8488SOL    HW226364   5.131   6.114   0.951
 8489SOL     OW26365   6.112   2.097   1.622
 8489SOL    HW126366   6.071   2.115   1.532
 8489SOL    HW226367   6.097   2.176   1.682
 8490SOL     OW26368   4.564   0.000   4.171
 8490SOL    HW126369   4.538   0.000   4.267
 8490SOL    HW226370   4.608   0.087   4.148
 8491SOL     OW26371   2.791   5.740   1.236
 8491SOL    HW126372   2.763   5.645   1.253
 8491SOL    HW226373   2.803   5.787   1.324
 8492SOL     OW26374   5.060   3.960   5.328
 8492SOL    HW126375   4.983   4.019   5.352
 8492SOL    HW226376   5.025   3.870   5.301
 8493SOL     OW26377   2.445   2.933   6.583
 8493SOL    HW126378   2.422   2.835   6.577
 8493SOL    HW226379   2.509   2.956   6.510
 8494SOL     OW26380   3.980   5.650   1.392
 8494SOL    HW126381   3.983   5.562   1.346
 8494SOL    HW226382   3.887   5.687   1.390
 8495SOL     OW26383   6.173   5.005   2.371
 8495SOL    HW126384   6.229   4.964   2.443
 8495SOL    HW226385   6.228   5.016   2.288
 8496SOL     OW26386   1.288   1.892   2.031
 8496SOL    HW126387   1.359   1.945   2.077
 8496SOL    HW226388   1.321   1.799   2.016
 8497SOL     OW26389   6.709   0.753   3.705
 8497SOL    HW126390   6.667   0.722   3.620
 8497SOL    HW226391   6.752   0.842   3.690
 8498SOL     OW26392   6.255   6.037   3.502
 8498SOL    HW126393   6.257   6.099   3.423
 8498SOL    HW226394   6.193   6.073   3.571
 8499SOL     OW26395   2.083   4.496   6.506
 8499SOL    HW126396   2.022   4.528   6.579
 8499SOL    HW226397   2.072   4.397   6.494
 8500SOL     OW26398   1.284   6.535   5.789
 8500SOL    HW126399   1.281   6.587   5.703
 8500SOL    HW226400   1.236   6.449   5.777
 8501SOL     OW26401   0.033   2.278   6.995
 8501SOL    HW126402   0.116   2.287   6.940
 8501SOL    HW226403   0.047   2.326   0.059
 8502SOL     OW26404   0.619   3.475   1.236
 8502SOL    HW126405   0.632   3.441   1.142
 8502SOL    HW226406   0.613   3.397   1.298
 8503SOL     OW26407   0.696   6.391   3.843
 8503SOL    HW126408   0.710   6.439   3.930
 8503SOL    HW226409   0.710   6.293   3.857
 8504SOL     OW26410   2.171   4.933   2.668
 8504SOL    HW126411   2.076   4.963   2.679
 8504SOL    HW226412   2.178   4.874   2.588
 8505SOL     OW26413   5.425   3.392   3.437
 8505SOL    HW126414   5.456   3.307   3.479
 8505SOL    HW226415   5.438   3.468   3.500
 8506SOL     OW26416   0.899   0.675   6.697
 8506SOL    HW126417   0.887   0.710   6.790
 8506SOL    HW226418   0.938   0.583   6.700
 8507SOL     OW26419   3.438   0.534   4.969
 8507SOL    HW126420   3.499   0.607   5.001
 8507SOL    HW226421   3.363   0.523   5.034
 8508SOL     OW26422   5.163   1.573   4.607
 8508SOL    HW126423   5.081   1.611   4.563
 8508SOL    HW226424   5.186   1.627   4.688
 8509SOL     OW26425   4.173   1.365   4.227
 8509SOL    HW126426   4.110   1.407   4.161
 8509SOL    HW226427   4.253   1.330   4.179
 8510SOL     OW26428   5.716   4.278   2.908
 8510SOL    HW126429   5.749   4.323   2.824
 8510SOL    HW226430   5.618   4.290   2.916
 8511SOL     OW26431   6.158   4.177   2.115
 8511SOL    HW126432   6.181   4.202   2.209
 8511SOL    HW226433   6.203   4.091   2.091
 8512SOL     OW26434   2.684   1.862   1.627
 8512SOL    HW126435   2.680   1.923   1.548
 8512SOL    HW226436   2.778   1.859   1.662
 8513SOL     OW26437   6.203   5.316   0.974
 8513SOL    HW126438   6.189   5.220   0.947
 8513SOL    HW226439   6.227   5.320   1.071
 8514SOL     OW26440   2.638   2.516   4.112
 8514SOL    HW126441   2.606   2.456   4.039
 8514SOL    HW226442   2.738   2.515   4.115
 8515SOL     OW26443   4.752   2.246   1.014
 8515SOL    HW126444   4.686   2.305   0.968
 8515SOL    HW226445   4.770   2.165   0.958
 8516SOL     OW26446   6.024   2.171   2.033
 8516SOL    HW126447   5.985   2.081   2.014
 8516SOL    HW226448   5.956   2.228   2.080
 8517SOL     OW26449   0.834   2.532   6.497
 8517SOL    HW126450   0.898   2.520   6.573
 8517SOL    HW226451   0.886   2.549   6.413
 8518SOL     OW26452   4.372   4.784   6.992
 8518SOL    HW126453   4.276   4.805   6.973
 8518SOL    HW226454   4.426   4.798   6.909
 8519SOL     OW26455   1.578   5.080   1.967
 8519SOL    HW126456   1.531   5.116   1.887
 8519SOL    HW226457   1.664   5.128   1.981
 8520SOL     OW26458   2.995   2.139   0.195
 8520SOL    HW126459   3.083   2.102   0.165
 8520SOL    HW226460   2.925   2.068   0.190
 8521SOL     OW26461   1.588   5.178   6.055
 8521SOL    HW126462   1.655   5.109   6.028
 8521SOL    HW226463   1.595   5.257   5.993
 8522SOL     OW26464   0.979   5.721   1.940
 8522SOL    HW126465   1.036   5.695   1.862
 8522SOL    HW226466   0.901   5.775   1.908
 8523SOL     OW26467   3.254   6.787   6.642
 8523SOL    HW126468   3.159   6.817   6.655
 8523SOL    HW226469   3.316   6.851   6.688
 8524SOL     OW26470   0.867   2.316   4.677
 8524SOL    HW126471   0.836   2.234   4.724
 8524SOL    HW226472   0.892   2.386   4.743
 8525SOL     OW26473   6.335   4.142   2.980
 8525SOL    HW126474   6.401   4.070   3.003
 8525SOL    HW226475   6.254   4.133   3.038
 8526SOL     OW26476   3.735   5.297   6.891
 8526SOL    HW126477   3.667   5.314   6.819
 8526SOL    HW226478   3.698   5.229   6.955
 8527SOL     OW26479   2.828   0.694   5.710
 8527SOL    HW126480   2.756   0.705   5.643
 8527SOL    HW226481   2.842   0.597   5.728
 8528SOL     OW26482   4.870   2.822   5.910
 8528SOL    HW126483   4.771   2.808   5.905
 8528SOL    HW226484   4.906   2.769   5.987
 8529SOL     OW26485   0.379   0.052   0.815
 8529SOL    HW126486   0.437   0.062   0.735
 8529SOL    HW226487   0.429   0.082   0.897
 8530SOL     OW26488   2.684   3.619   5.399
 8530SOL    HW126489   2.758   3.564   5.358
 8530SOL    HW226490   2.706   3.716   5.387
 8531SOL     OW26491   6.861   4.759   1.986
 8531SOL    HW126492   6.841   4.704   2.067
 8531SOL    HW226493   6.960   4.770   1.976
 8532SOL     OW26494   4.200   4.905   4.701
 8532SOL    HW126495   4.120   4.887   4.644
 8532SOL    HW226496   4.189   4.992   4.748
 8533SOL     OW26497   1.811   0.119   5.802
 8533SOL    HW126498   1.835   0.159   5.713
 8533SOL    HW226499   1.805   0.019   5.793
 8534SOL     OW26500   6.426   3.202   4.574
 8534SOL    HW126501   6.408   3.271   4.644
 8534SOL    HW226502   6.344   3.187   4.520
 8535SOL     OW26503   0.073   1.872   4.945
 8535SOL    HW126504   0.029   1.797   4.896
 8535SOL    HW226505   0.138   1.917   4.884
 8536SOL     OW26506   5.584   2.576   4.763
 8536SOL    HW126507   5.606   2.502   4.700
 8536SOL    HW226508   5.532   2.539   4.841
 8537SOL     OW26509   5.528   1.656   2.742
 8537SOL    HW126510   5.550   1.703   2.657
 8537SOL    HW226511   5.438   1.612   2.732
 8538SOL     OW26512   0.856   1.262   6.035
 8538SOL    HW126513   0.896   1.189   6.090
 8538SOL    HW226514   0.929   1.307   5.983
 8539SOL     OW26515   6.304   1.389   2.051
 8539SOL    HW126516   6.368   1.441   1.994
 8539SOL    HW226517   6.231   1.449   2.082
 8540SOL     OW26518   4.773   1.436   0.244
 8540SOL    HW126519   4.744   1.529   0.267
 8540SOL    HW226520   4.754   1.418   0.148
 8541SOL     OW26521   3.008   2.264   4.311
 8541SOL    HW126522   2.926   2.290   4.363
 8541SOL    HW226523   2.988   2.272   4.213
 8542SOL     OW26524   2.508   4.446   6.459
 8542SOL    HW126525   2.468   4.440   6.550
 8542SOL    HW226526   2.601   4.408   6.461
 8543SOL     OW26527   3.122   1.380   0.208
 8543SOL    HW126528   3.126   1.444   0.284
 8543SOL    HW226529   3.053   1.410   0.142
 8544SOL     OW26530   5.659   2.764   4.511
 8544SOL    HW126531   5.582   2.701   4.503
 8544SOL    HW226532   5.684   2.799   4.421
 8545SOL     OW26533   4.706   6.807   4.315
 8545SOL    HW126534   4.688   6.709   4.326
 8545SOL    HW226535   4.628   6.851   4.270
 8546SOL     OW26536   0.565   0.321   2.811
 8546SOL    HW126537   0.545   0.228   2.781
 8546SOL    HW226538   0.580   0.379   2.730
 8547SOL     OW26539   0.983   6.567   6.632
 8547SOL    HW126540   1.032   6.647   6.599
 8547SOL    HW226541   0.987   6.564   6.732
 8548SOL     OW26542   6.821   3.015   5.855
 8548SOL    HW126543   6.916   3.015   5.826
 8548SOL    HW226544   6.815   2.995   5.953
 8549SOL     OW26545   1.030   2.714   4.441
 8549SOL    HW126546   0.964   2.787   4.460
 8549SOL    HW226547   0.991   2.651   4.373
 8550SOL     OW26548   1.222   5.154   0.345
 8550SOL    HW126549   1.256   5.066   0.380
 8550SOL    HW226550   1.128   5.143   0.312
 8551SOL     OW26551   2.503   2.893   6.938
 8551SOL    HW126552   2.517   2.812   6.996
 8551SOL    HW226553   2.562   2.887   6.858
 8552SOL     OW26554   2.099   0.106   2.914
 8552SOL    HW126555   2.162   0.064   2.849
 8552SOL    HW226556   2.092   0.204   2.896
 8553SOL     OW26557   4.494   4.807   6.711
 8553SOL    HW126558   4.525   4.878   6.648
 8553SOL    HW226559   4.399   4.783   6.689
 8554SOL     OW26560   0.599   4.806   0.492
 8554SOL    HW126561   0.552   4.834   0.576
 8554SOL    HW226562   0.624   4.887   0.440
 8555SOL     OW26563   3.360   0.856   2.984
 8555SOL    HW126564   3.292   0.810   2.927
 8555SOL    HW226565   3.450   0.851   2.940
 8556SOL     OW26566   2.147   6.359   5.097
 8556SOL    HW126567   2.071   6.323   5.042
 8556SOL    HW226568   2.221   6.291   5.099
 8557SOL     OW26569   6.808   6.557   2.703
 8557SOL    HW126570   6.790   6.534   2.799
 8557SOL    HW226571   6.898   6.601   2.696
 8558SOL     OW26572   2.524   5.408   2.643
 8558SOL    HW126573   2.477   5.320   2.649
 8558SOL    HW226574   2.604   5.407   2.702
 8559SOL     OW26575   1.764   0.073   2.706
 8559SOL    HW126576   1.760   7.000   2.676
 8559SOL    HW226577   1.799   0.077   2.800
 8560SOL     OW26578   0.902   5.960   1.666
 8560SOL    HW126579   0.996   5.987   1.646
 8560SOL    HW226580   0.871   5.893   1.597
 8561SOL     OW26581   3.669   0.593   2.953
 8561SOL    HW126582   3.721   0.536   2.889
 8561SOL    HW226583   3.655   0.683   2.913
 8562SOL     OW26584   4.212   6.242   6.316
 8562SOL    HW126585   4.288   6.178   6.304
 8562SOL    HW226586   4.202   6.265   6.412
 8563SOL     OW26587   0.779   5.015   1.202
 8563SOL    HW126588   0.788   4.923   1.241
 8563SOL    HW226589   0.852   5.074   1.239
 8564SOL     OW26590   3.031   0.418   5.237
 8564SOL    HW126591   2.953   0.479   5.256
 8564SOL    HW226592   3.115   0.462   5.268
 8565SOL     OW26593   3.667   5.124   1.016
 8565SOL    HW126594   3.618   5.047   0.976
 8565SOL    HW226595   3.743   5.090   1.072
 8566SOL     OW26596   0.676   6.314   1.304
 8566SOL    HW126597   0.632   6.341   1.219
 8566SOL    HW226598   0.761   6.366   1.316
 8567SOL     OW26599   0.087   1.678   2.871
 8567SOL    HW126600   0.130   1.611   2.932
 8567SOL    HW226601   0.009   1.635   2.824
 8568SOL     OW26602   5.385   1.496   6.671
 8568SOL    HW126603   5.385   1.581   6.618
 8568SOL    HW226604   5.479   1.474   6.698
 8569SOL     OW26605   4.547   1.586   5.480
 8569SOL    HW126606   4.593   1.518   5.423
 8569SOL    HW226607   4.593   1.674   5.469
 8570SOL     OW26608   1.799   1.499   4.662
 8570SOL    HW126609   1.875   1.485   4.726
 8570SOL    HW226610   1.735   1.565   4.700
 8571SOL     OW26611   0.369   6.107   5.543
 8571SOL    HW126612   0.429   6.186   5.530
 8571SOL    HW226613   0.292   6.112   5.478
 8572SOL     OW26614   2.717   4.530   5.928
 8572SOL    HW126615   2.715   4.433   5.954
 8572SOL    HW226616   2.630   4.572   5.949
 8573SOL     OW26617   3.125   6.232   6.259
 8573SOL    HW126618   3.194   6.303   6.275
 8573SOL    HW226619   3.142   6.189   6.170
 8574SOL     OW26620   6.805   6.928   6.305
 8574SOL    HW126621   6.776   6.951   6.398
 8574SOL    HW226622   6.851   6.840   6.305
 8575SOL     OW26623   2.221   2.185   3.259
 8575SOL    HW126624   2.168   2.103   3.281
 8575SOL    HW226625   2.245   2.233   3.344
 8576SOL     OW26626   1.357   4.252   5.011
 8576SOL    HW126627   1.323   4.274   5.103
 8576SOL    HW226628   1.455   4.231   5.016
 8577SOL     OW26629   1.759   6.745   4.965
 8577SOL    HW126630   1.690   6.722   4.896
 8577SOL    HW226631   1.746   6.686   5.045
 8578SOL     OW26632   6.209   6.026   4.674
 8578SOL    HW126633   6.209   5.972   4.759
 8578SOL    HW226634   6.129   6.084   4.672
 8579SOL     OW26635   1.940   7.008   2.277
 8579SOL    HW126636   1.862   6.951   2.302
 8579SOL    HW226637   1.921   0.080   2.299
 8580SOL     OW26638   1.954   6.217   1.135
 8580SOL    HW126639   1.960   6.301   1.081
 8580SOL    HW226640   1.899   6.150   1.085
 8581SOL     OW26641   3.281   3.672   1.623
 8581SOL    HW126642   3.361   3.630   1.667
 8581SOL    HW226643   3.310   3.724   1.543
 8582SOL     OW26644   4.765   4.293   4.881
 8582SOL    HW126645   4.692   4.361   4.874
 8582SOL    HW226646   4.854   4.339   4.879
 8583SOL     OW26647   4.713   0.574   4.309
 8583SOL    HW126648   4.770   0.609   4.234
 8583SOL    HW226649   4.746   0.484   4.336
 8584SOL     OW26650   0.683   5.786   6.569
 8584SOL    HW126651   0.678   5.863   6.505
 8584SOL    HW226652   0.773   5.784   6.613
 8585SOL     OW26653   6.441   0.914   6.903
 8585SOL    HW126654   6.451   0.905   6.804
 8585SOL    HW226655   6.344   0.907   6.927
 8586SOL     OW26656   2.751   6.917   1.877
 8586SOL    HW126657   2.738   6.983   1.951
 8586SOL    HW226658   2.832   6.860   1.897
 8587SOL     OW26659   1.002   0.437   4.466
 8587SOL    HW126660   0.979   0.343   4.491
 8587SOL    HW226661   1.034   0.440   4.371
 8588SOL     OW26662   4.117   0.839   0.460
 8588SOL    HW126663   4.139   0.870   0.368
 8588SOL    HW226664   4.042   0.774   0.457
 8589SOL     OW26665   5.359   2.851   5.707
 8589SOL    HW126666   5.352   2.936   5.655
 8589SOL    HW226667   5.309   2.860   5.794
 8590SOL     OW26668   0.222   6.915   2.683
 8590SOL    HW126669   0.307   6.863   2.688
 8590SOL    HW226670   0.218   6.980   2.759
 8591SOL     OW26671   0.236   4.289   0.390
 8591SOL    HW126672   0.290   4.331   0.462
 8591SOL    HW226673   0.294   4.228   0.335
 8592SOL     OW26674   5.834   2.334   6.681
 8592SOL    HW126675   5.761   2.286   6.730
 8592SOL    HW226676   5.798   2.373   6.597
 8593SOL     OW26677   2.718   1.067   0.567
 8593SOL    HW126678   2.619   1.067   0.553
 8593SOL    HW226679   2.763   1.099   0.483
 8594SOL     OW26680   4.478   2.580   5.003
 8594SOL    HW126681   4.493   2.653   5.070
 8594SOL    HW226682   4.415   2.513   5.041
 8595SOL     OW26683   0.509   0.674   3.561
 8595SOL    HW126684   0.601   0.711   3.553
 8595SOL    HW226685   0.449   0.741   3.605
 8596SOL     OW26686   1.121   4.393   2.872
 8596SOL    HW126687   1.218   4.381   2.893
 8596SOL    HW226688   1.106   4.484   2.833
 8597SOL     OW26689   4.723   2.057   1.322
 8597SOL    HW126690   4.768   1.995   1.386
 8597SOL    HW226691   4.783   2.071   1.243
 8598SOL     OW26692   6.162   0.315   0.254
 8598SOL    HW126693   6.184   0.410   0.233
 8598SOL    HW226694   6.235   0.256   0.222
 8599SOL     OW26695   1.868   2.591   4.850
 8599SOL    HW126696   1.781   2.543   4.839
 8599SOL    HW226697   1.917   2.555   4.930
 8600SOL     OW26698   5.354   4.370   6.339
 8600SOL    HW126699   5.408   4.289   6.364
 8600SOL    HW226700   5.257   4.350   6.351
 8601SOL     OW26701   1.218   1.381   4.527
 8601SOL    HW126702   1.168   1.342   4.604
 8601SOL    HW226703   1.156   1.437   4.472
 8602SOL     OW26704   3.239   6.195   2.339
 8602SOL    HW126705   3.223   6.101   2.307
 8602SOL    HW226706   3.167   6.220   2.404
 8603SOL     OW26707   5.228   6.097   1.091
 8603SOL    HW126708   5.301   6.153   1.051
 8603SOL    HW226709   5.184   6.147   1.165
 8604SOL     OW26710   0.733   2.675   4.743
 8604SOL    HW126711   0.664   2.657   4.813
 8604SOL    HW226712   0.769   2.767   4.756
 8605SOL     OW26713   2.714   5.492   4.170
 8605SOL    HW126714   2.651   5.439   4.226
 8605SOL    HW226715   2.806   5.453   4.177
 8606SOL     OW26716   1.756   3.415   6.492
 8606SOL    HW126717   1.805   3.497   6.521
 8606SOL    HW226718   1.788   3.337   6.546
 8607SOL     OW26719   3.376   4.935   6.487
 8607SOL    HW126720   3.411   4.843   6.501
 8607SOL    HW226721   3.441   5.001   6.526
 8608SOL     OW26722   2.882   4.714   2.435
 8608SOL    HW126723   2.839   4.741   2.349
 8608SOL    HW226724   2.981   4.714   2.424
 8609SOL     OW26725   4.873   0.785   2.778
 8609SOL    HW126726   4.952   0.833   2.740
 8609SOL    HW226727   4.823   0.845   2.839
 8610SOL     OW26728   0.784   2.171   2.853
 8610SOL    HW126729   0.741   2.179   2.763
 8610SOL    HW226730   0.857   2.238   2.861
 8611SOL     OW26731   3.245   2.145   4.805
 8611SOL    HW126732   3.177   2.139   4.732
 8611SOL    HW226733   3.205   2.191   4.884
 8612SOL     OW26734   2.590   3.030   0.209
 8612SOL    HW126735   2.513   3.021   0.146
 8612SOL    HW226736   2.556   3.037   0.302
 8613SOL     OW26737   2.691   1.422   1.590
 8613SOL    HW126738   2.679   1.485   1.513
 8613SOL    HW226739   2.745   1.467   1.661
 8614SOL     OW26740   1.006   3.035   3.754
 8614SOL    HW126741   1.029   2.942   3.726
 8614SOL    HW226742   1.087   3.092   3.753
 8615SOL     OW26743   4.331   1.887   5.099
 8615SOL    HW126744   4.414   1.864   5.048
 8615SOL    HW226745   4.276   1.953   5.047
 8616SOL     OW26746   3.161   4.643   1.693
 8616SOL    HW126747   3.070   4.678   1.673
 8616SOL    HW226748   3.212   4.710   1.748
 8617SOL     OW26749   6.330   1.235   5.742
 8617SOL    HW126750   6.330   1.296   5.662
 8617SOL    HW226751   6.410   1.175   5.739
 8618SOL     OW26752   6.298   4.797   0.937
 8618SOL    HW126753   6.349   4.771   0.855
 8618SOL    HW226754   6.360   4.809   1.014
 8619SOL     OW26755   4.055   4.913   1.981
 8619SOL    HW126756   4.013   4.996   2.018
 8619SOL    HW226757   4.147   4.903   2.018
 8620SOL     OW26758   1.560   6.967   3.467
 8620SOL    HW126759   1.590   0.004   3.542
 8620SOL    HW226760   1.542   6.876   3.503
 8621SOL     OW26761   6.025   1.689   2.594
 8621SOL    HW126762   5.995   1.784   2.591
 8621SOL    HW226763   5.950   1.630   2.625
 8622SOL     OW26764   5.318   3.564   1.356
 8622SOL    HW126765   5.357   3.487   1.408
 8622SOL    HW226766   5.228   3.537   1.321
 8623SOL     OW26767   1.035   3.658   5.060
 8623SOL    HW126768   1.025   3.564   5.092
 8623SOL    HW226769   1.092   3.709   5.125
 8624SOL     OW26770   1.849   3.882   4.627
 8624SOL    HW126771   1.942   3.845   4.635
 8624SOL    HW226772   1.807   3.887   4.717
 8625SOL     OW26773   4.384   0.694   6.195
 8625SOL    HW126774   4.380   0.650   6.106
 8625SOL    HW226775   4.321   0.772   6.196
 8626SOL     OW26776   3.202   2.716   6.603
 8626SOL    HW126777   3.227   2.747   6.511
 8626SOL    HW226778   3.161   2.625   6.599
 8627SOL     OW26779   0.901   1.489   3.221
 8627SOL    HW126780   0.860   1.494   3.312
 8627SOL    HW226781   1.000   1.500   3.228
 8628SOL     OW26782   6.586   6.499   0.566
 8628SOL    HW126783   6.544   6.423   0.615
 8628SOL    HW226784   6.606   6.573   0.630
 8629SOL     OW26785   2.203   5.648   5.080
 8629SOL    HW126786   2.175   5.648   5.177
 8629SOL    HW226787   2.149   5.716   5.030
 8630SOL     OW26788   5.532   4.508   4.338
 8630SOL    HW126789   5.625   4.473   4.342
 8630SOL    HW226790   5.526   4.593   4.391
 8631SOL     OW26791   0.577   5.381   6.600
 8631SOL    HW126792   0.510   5.338   6.540
 8631SOL    HW226793   0.538   5.462   6.643
 8632SOL     OW26794   3.869   5.006   4.802
 8632SOL    HW126795   3.773   4.996   4.828
 8632SOL    HW226796   3.928   4.974   4.876
 8633SOL     OW26797   5.407   2.118   5.778
 8633SOL    HW126798   5.345   2.189   5.745
 8633SOL    HW226799   5.489   2.159   5.817
 8634SOL     OW26800   4.927   3.836   0.319
 8634SOL    HW126801   4.984   3.756   0.338
 8634SOL    HW226802   4.905   3.840   0.222
 8635SOL     OW26803   4.912   3.401   6.414
 8635SOL    HW126804   4.898   3.310   6.455
 8635SOL    HW226805   4.949   3.390   6.322
 8636SOL     OW26806   5.823   5.876   0.611
 8636SOL    HW126807   5.762   5.955   0.603
 8636SOL    HW226808   5.836   5.835   0.520
 8637SOL     OW26809   2.978   0.750   0.048
 8637SOL    HW126810   3.022   0.687   7.008
 8637SOL    HW226811   3.038   0.768   0.126
 8638SOL     OW26812   3.645   2.128   5.084
 8638SOL    HW126813   3.558   2.095   5.047
 8638SOL    HW226814   3.666   2.078   5.168
 8639SOL     OW26815   5.203   2.484   0.124
 8639SOL    HW126816   5.169   2.412   0.064
 8639SOL    HW226817   5.202   2.451   0.219
 8640SOL     OW26818   4.318   4.062   0.075
 8640SOL    HW126819   4.257   4.041   0.151
 8640SOL    HW226820   4.398   4.002   0.080
 8641SOL     OW26821   4.479   4.690   3.816
 8641SOL    HW126822   4.491   4.768   3.754
 8641SOL    HW226823   4.428   4.618   3.769
 8642SOL     OW26824   0.879   6.187   3.851
 8642SOL    HW126825   0.943   6.254   3.813
 8642SOL    HW226826   0.899   6.173   3.948
 8643SOL     OW26827   2.877   0.817   6.246
 8643SOL    HW126828   2.869   0.907   6.203
 8643SOL    HW226829   2.857   0.825   6.344
 8644SOL     OW26830   5.355   2.262   5.122
 8644SOL    HW126831   5.261   2.290   5.108
 8644SOL    HW226832   5.378   2.271   5.219
 8645SOL     OW26833   4.354   4.708   0.962
 8645SOL    HW126834   4.260   4.690   0.991
 8645SOL    HW226835   4.386   4.631   0.907
 8646SOL     OW26836   0.335   2.007   0.047
 8646SOL    HW126837   0.309   1.911   0.056
 8646SOL    HW226838   0.332   2.051   0.136
 8647SOL     OW26839   2.687   5.284   6.575
 8647SOL    HW126840   2.682   5.345   6.654
 8647SOL    HW226841   2.768   5.226   6.583
 8648SOL     OW26842   6.616   0.027   2.853
 8648SOL    HW126843   6.581   6.960   2.876
 8648SOL    HW226844   6.570   0.097   2.908
 8649SOL     OW26845   5.488   5.701   6.464
 8649SOL    HW126846   5.506   5.730   6.558
 8649SOL    HW226847   5.396   5.663   6.457
 8650SOL     OW26848   2.304   5.031   4.269
 8650SOL    HW126849   2.290   4.932   4.270
 8650SOL    HW226850   2.370   5.056   4.339
 8651SOL     OW26851   4.701   1.037   0.510
 8651SOL    HW126852   4.740   0.996   0.592
 8651SOL    HW226853   4.607   1.068   0.531
 8652SOL     OW26854   1.836   5.015   3.280
 8652SOL    HW126855   1.820   5.103   3.237
 8652SOL    HW226856   1.755   4.986   3.330
 8653SOL     OW26857   6.512   1.036   6.384
 8653SOL    HW126858   6.573   1.097   6.335
 8653SOL    HW226859   6.540   1.030   6.480
 8654SOL     OW26860   0.488   4.713   2.335
 8654SOL    HW126861   0.440   4.667   2.409
 8654SOL    HW226862   0.474   4.662   2.250
 8655SOL     OW26863   6.044   1.077   3.808
 8655SOL    HW126864   6.111   1.108   3.740
 8655SOL    HW226865   6.054   1.132   3.891
 8656SOL     OW26866   6.567   6.897   1.566
 8656SOL    HW126867   6.521   6.974   1.611
 8656SOL    HW226868   6.540   6.812   1.611
 8657SOL     OW26869   4.732   5.645   6.817
 8657SOL    HW126870   4.662   5.690   6.872
 8657SOL    HW226871   4.718   5.546   6.820
 8658SOL     OW26872   6.310   6.673   0.362
 8658SOL    HW126873   6.295   6.589   0.414
 8658SOL    HW226874   6.408   6.693   0.359
 8659SOL     OW26875   4.428   2.127   2.453
 8659SOL    HW126876   4.478   2.052   2.498
 8659SOL    HW226877   4.494   2.193   2.416
 8660SOL     OW26878   0.022   3.127   1.669
 8660SOL    HW126879   0.077   3.046   1.648
 8660SOL    HW226880   0.072   3.185   1.733
 8661SOL     OW26881   0.063   3.813   1.280
 8661SOL    HW126882   0.070   3.881   1.208
 8661SOL    HW226883   6.997   3.819   1.324
 8662SOL     OW26884   4.047   5.858   0.926
 8662SOL    HW126885   4.114   5.872   0.999
 8662SOL    HW226886   4.094   5.866   0.837
 8663SOL     OW26887   3.118   5.602   2.177
 8663SOL    HW126888   3.085   5.653   2.256
 8663SOL    HW226889   3.071   5.514   2.173
 8664SOL     OW26890   1.267   6.314   1.090
 8664SOL    HW126891   1.280   6.240   1.024
 8664SOL    HW226892   1.193   6.374   1.060
 8665SOL     OW26893   5.790   5.797   5.354
 8665SOL    HW126894   5.742   5.883   5.372
 8665SOL    HW226895   5.745   5.749   5.278
 8666SOL     OW26896   5.640   1.215   3.501
 8666SOL    HW126897   5.601   1.223   3.409
 8666SOL    HW226898   5.609   1.292   3.557
 8667SOL     OW26899   3.638   2.115   3.860
 8667SOL    HW126900   3.664   2.130   3.956
 8667SOL    HW226901   3.655   2.019   3.836
 8668SOL     OW26902   5.198   3.621   3.528
 8668SOL    HW126903   5.177   3.554   3.599
 8668SOL    HW226904   5.250   3.577   3.455
 8669SOL     OW26905   1.280   6.382   6.695
 8669SOL    HW126906   1.292   6.289   6.662
 8669SOL    HW226907   1.241   6.439   6.623
 8670SOL     OW26908   4.713   4.814   5.784
 8670SOL    HW126909   4.745   4.808   5.878
 8670SOL    HW226910   4.614   4.802   5.781
 8671SOL     OW26911   5.085   1.909   3.200
 8671SOL    HW126912   5.179   1.942   3.195
 8671SOL    HW226913   5.029   1.958   3.133
 8672SOL     OW26914   1.449   4.778   4.050
 8672SOL    HW126915   1.451   4.813   4.144
 8672SOL    HW226916   1.372   4.818   4.001
 8673SOL     OW26917   5.305   2.581   6.566
 8673SOL    HW126918   5.285   2.487   6.538
 8673SOL    HW226919   5.387   2.582   6.623
 8674SOL     OW26920   4.947   6.130   2.797
 8674SOL    HW126921   4.933   6.229   2.791
 8674SOL    HW226922   4.872   6.083   2.751
 8675SOL     OW26923   4.101   1.952   4.930
 8675SOL    HW126924   4.067   2.044   4.950
 8675SOL    HW226925   4.052   1.885   4.985
 8676SOL     OW26926   5.423   6.882   3.200
 8676SOL    HW126927   5.348   6.850   3.258
 8676SOL    HW226928   5.395   6.964   3.150
 8677SOL     OW26929   2.191   5.246   5.984
 8677SOL    HW126930   2.203   5.182   6.060
 8677SOL    HW226931   2.263   5.232   5.917
 8678SOL     OW26932   0.176   0.574   1.434
 8678SOL    HW126933   0.239   0.596   1.360
 8678SOL    HW226934   0.100   0.520   1.398
 8679SOL     OW26935   0.961   1.777   3.165
 8679SOL    HW126936   0.890   1.711   3.141
 8679SOL    HW226937   0.951   1.859   3.107
 8680SOL     OW26938   6.656   3.104   6.848
 8680SOL    HW126939   6.652   3.169   6.924
 8680SOL    HW226940   6.582   3.038   6.856
 8681SOL     OW26941   4.771   5.568   1.357
 8681SOL    HW126942   4.834   5.544   1.283
 8681SOL    HW226943   4.766   5.667   1.365
 8682SOL     OW26944   5.679   6.937   2.602
 8682SOL    HW126945   5.615   7.011   2.578
 8682SOL    HW226946   5.773   6.969   2.590
 8683SOL     OW26947   1.850   2.430   4.405
 8683SOL    HW126948   1.756   2.463   4.415
 8683SOL    HW226949   1.878   2.437   4.309
 8684SOL     OW26950   6.355   2.831   5.113
 8684SOL    HW126951   6.437   2.780   5.086
 8684SOL    HW226952   6.314   2.787   5.193
 8685SOL     OW26953   6.680   2.184   6.538
 8685SOL    HW126954   6.758   2.149   6.589
 8685SOL    HW226955   6.605   2.206   6.601
 8686SOL     OW26956   0.097   0.977   3.229
 8686SOL    HW126957   0.039   1.057   3.247
 8686SOL    HW226958   0.155   0.960   3.309
 8687SOL     OW26959   4.733   5.428   2.052
 8687SOL    HW126960   4.666   5.414   2.125
 8687SOL    HW226961   4.819   5.382   2.075
 8688SOL     OW26962   0.783   5.143   6.052
 8688SOL    HW126963   0.795   5.198   5.969
 8688SOL    HW226964   0.791   5.201   6.133
 8689SOL     OW26965   3.512   3.245   1.137
 8689SOL    HW126966   3.424   3.283   1.108
 8689SOL    HW226967   3.583   3.315   1.127
 8690SOL     OW26968   1.704   3.810   3.865
 8690SOL    HW126969   1.791   3.857   3.850
 8690SOL    HW226970   1.631   3.862   3.821
 8691SOL     OW26971   3.677   2.283   6.315
 8691SOL    HW126972   3.681   2.381   6.334
 8691SOL    HW226973   3.762   2.240   6.345
 8692SOL     OW26974   2.678   1.439   4.351
 8692SOL    HW126975   2.632   1.523   4.322
 8692SOL    HW226976   2.632   1.402   4.432
 8693SOL     OW26977   5.464   7.000   0.341
 8693SOL    HW126978   5.469   6.902   0.323
 8693SOL    HW226979   5.412   0.022   0.268
 8694SOL     OW26980   5.368   1.102   4.725
 8694SOL    HW126981   5.300   1.068   4.790
 8694SOL    HW226982   5.369   1.043   4.644
 8695SOL     OW26983   4.770   3.084   5.692
 8695SOL    HW126984   4.672   3.086   5.712
 8695SOL    HW226985   4.820   3.045   5.770
 8696SOL     OW26986   2.146   5.242   5.109
 8696SOL    HW126987   2.054   5.210   5.134
 8696SOL    HW226988   2.212   5.169   5.126
 8697SOL     OW26989   0.761   3.819   6.169
 8697SOL    HW126990   0.698   3.832   6.245
 8697SOL    HW226991   0.817   3.738   6.184
 8698SOL     OW26992   5.232   5.953   4.925
 8698SOL    HW126993   5.311   5.985   4.873
 8698SOL    HW226994   5.163   6.025   4.928
 8699SOL     OW26995   1.231   3.236   5.101
 8699SOL    HW126996   1.202   3.140   5.094
 8699SOL    HW226997   1.330   3.240   5.114
 8700SOL     OW26998   0.957   0.076   4.897
 8700SOL    HW126999   1.051   0.091   4.929
 8700SOL    HW227000   0.924   7.011   4.932
 8701SOL     OW27001   1.477   1.119   6.726
 8701SOL    HW127002   1.468   1.146   6.822
 8701SOL    HW227003   1.398   1.151   6.675
 8702SOL     OW27004   5.683   4.781   1.639
 8702SOL    HW127005   5.684   4.686   1.671
 8702SOL    HW227006   5.702   4.783   1.541
 8703SOL     OW27007   3.196   5.176   6.952
 8703SOL    HW127008   3.141   5.254   6.979
 8703SOL    HW227009   3.137   5.098   6.931
 8704SOL     OW27010   0.737   4.064   3.428
 8704SOL    HW127011   0.717   4.137   3.493
 8704SOL    HW227012   0.685   4.080   3.344
 8705SOL     OW27013   5.049   1.054   6.183
 8705SOL    HW127014   5.126   0.990   6.180
 8705SOL    HW227015   5.083   1.146   6.161
 8706SOL     OW27016   5.135   2.249   6.698
 8706SOL    HW127017   5.108   2.152   6.699
 8706SOL    HW227018   5.059   2.304   6.662
 8707SOL     OW27019   0.453   1.838   5.730
 8707SOL    HW127020   0.412   1.875   5.813
 8707SOL    HW227021   0.392   1.855   5.652
 8708SOL     OW27022   3.758   1.244   3.350
 8708SOL    HW127023   3.762   1.164   3.290
 8708SOL    HW227024   3.691   1.309   3.314
 8709SOL     OW27025   6.589   6.738   0.434
 8709SOL    HW127026   6.676   6.783   0.452
 8709SOL    HW227027   6.589   6.647   0.476
 8710SOL     OW27028   1.638   2.992   3.835
 8710SOL    HW127029   1.569   3.045   3.884
 8710SOL    HW227030   1.725   2.999   3.884
 8711SOL     OW27031   1.695   6.537   2.564
 8711SOL    HW127032   1.611   6.490   2.590
 8711SOL    HW227033   1.685   6.577   2.473
 8712SOL     OW27034   3.816   1.772   4.547
 8712SOL    HW127035   3.853   1.854   4.592
 8712SOL    HW227036   3.891   1.707   4.530
 8713SOL     OW27037   6.477   3.167   2.804
 8713SOL    HW127038   6.574   3.159   2.782
 8713SOL    HW227039   6.454   3.263   2.820
 8714SOL     OW27040   1.150   6.944   5.768
 8714SOL    HW127041   1.122   0.012   5.798
 8714SOL    HW227042   1.114   6.876   5.832
 8715SOL     OW27043   3.991   0.936   0.690
 8715SOL    HW127044   3.948   1.019   0.654
 8715SOL    HW227045   4.066   0.909   0.629
 8716SOL     OW27046   6.668   0.246   0.902
 8716SOL    HW127047   6.695   0.172   0.841
 8716SOL    HW227048   6.741   0.314   0.906
 8717SOL     OW27049   2.883   4.026   5.214
 8717SOL    HW127050   2.943   3.958   5.256
 8717SOL    HW227051   2.901   4.030   5.116
 8718SOL     OW27052   1.249   2.984   5.584
 8718SOL    HW127053   1.309   3.030   5.520
 8718SOL    HW227054   1.227   2.893   5.550
 8719SOL     OW27055   4.140   6.846   0.383
 8719SOL    HW127056   4.128   6.941   0.352
 8719SOL    HW227057   4.055   6.813   0.422
 8720SOL     OW27058   0.588   5.951   6.243
 8720SOL    HW127059   0.494   5.982   6.228
 8720SOL    HW227060   0.612   5.883   6.173
 8721SOL     OW27061   6.164   2.688   1.924
 8721SOL    HW127062   6.146   2.774   1.972
 8721SOL    HW227063   6.170   2.613   1.990
 8722SOL     OW27064   3.651   1.123   1.351
 8722SOL    HW127065   3.710   1.190   1.396
 8722SOL    HW227066   3.686   1.103   1.260
 8723SOL     OW27067   4.608   6.830   2.108
 8723SOL    HW127068   4.617   6.892   2.030
 8723SOL    HW227069   4.695   6.782   2.122
 8724SOL     OW27070   5.546   0.021   4.399
 8724SOL    HW127071   5.478   6.982   4.359
 8724SOL    HW227072   5.618   0.038   4.332
 8725SOL     OW27073   1.947   5.719   5.651
 8725SOL    HW127074   2.034   5.669   5.655
 8725SOL    HW227075   1.965   5.813   5.622
 8726SOL     OW27076   0.105   0.629   3.325
 8726SOL    HW127077   0.203   0.628   3.303
 8726SOL    HW227078   0.088   0.575   3.407
 8727SOL     OW27079   5.474   0.486   2.542
 8727SOL    HW127080   5.514   0.420   2.605
 8727SOL    HW227081   5.381   0.507   2.571
 8728SOL     OW27082   6.366   0.679   2.461
 8728SOL    HW127083   6.442   0.741   2.441
 8728SOL    HW227084   6.402   0.597   2.506
 8729SOL     OW27085   3.599   4.873   5.962
 8729SOL    HW127086   3.550   4.788   5.984
 8729SOL    HW227087   3.696   4.853   5.948
 8730SOL     OW27088   5.458   4.052   2.389
 8730SOL    HW127089   5.511   4.009   2.317
 8730SOL    HW227090   5.458   4.151   2.376
 8731SOL     OW27091   1.157   3.301   2.629
 8731SOL    HW127092   1.157   3.265   2.535
 8731SOL    HW227093   1.131   3.228   2.692
 8732SOL     OW27094   6.053   5.075   1.552
 8732SOL    HW127095   6.035   5.030   1.640
 8732SOL    HW227096   6.124   5.144   1.564
 8733SOL     OW27097   1.602   6.128   1.314
 8733SOL    HW127098   1.514   6.118   1.360
 8733SOL    HW227099   1.653   6.042   1.320
 8734SOL     OW27100   0.727   3.557   2.844
 8734SOL    HW127101   0.718   3.651   2.813
 8734SOL    HW227102   0.801   3.512   2.794
 8735SOL     OW27103   1.038   2.803   6.849
 8735SOL    HW127104   1.018   2.894   6.887
 8735SOL    HW227105   1.091   2.814   6.764
 8736SOL     OW27106   0.246   5.067   1.178
 8736SOL    HW127107   0.228   5.093   1.084
 8736SOL    HW227108   0.226   5.144   1.239
 8737SOL     OW27109   1.781   6.554   0.534
 8737SOL    HW127110   1.761   6.601   0.448
 8737SOL    HW227111   1.715   6.481   0.550
 8738SOL     OW27112   2.762   5.961   3.827
 8738SOL    HW127113   2.703   6.012   3.765
 8738SOL    HW227114   2.708   5.927   3.904
 8739SOL     OW27115   5.672   5.839   6.328
 8739SOL    HW127116   5.589   5.823   6.382
 8739SOL    HW227117   5.646   5.847   6.231
 8740SOL     OW27118   3.813   1.416   4.642
 8740SOL    HW127119   3.901   1.368   4.642
 8740SOL    HW227120   3.828   1.514   4.654
 8741SOL     OW27121   2.174   1.340   2.295
 8741SOL    HW127122   2.125   1.348   2.208
 8741SOL    HW227123   2.244   1.269   2.288
 8742SOL     OW27124   4.907   6.815   1.825
 8742SOL    HW127125   4.923   6.859   1.913
 8742SOL    HW227126   4.864   6.726   1.839
 8743SOL     OW27127   1.229   6.806   1.988
 8743SOL    HW127128   1.161   6.876   2.012
 8743SOL    HW227129   1.280   6.780   2.069
 8744SOL     OW27130   4.008   2.908   0.249
 8744SOL    HW127131   4.045   2.863   0.330
 8744SOL    HW227132   4.073   2.899   0.174
 8745SOL     OW27133   6.651   1.889   6.182
 8745SOL    HW127134   6.585   1.825   6.222
 8745SOL    HW227135   6.605   1.946   6.113
 8746SOL     OW27136   4.617   5.433   4.561
 8746SOL    HW127137   4.557   5.369   4.609
 8746SOL    HW227138   4.580   5.452   4.471
 8747SOL     OW27139   6.676   2.019   3.373
 8747SOL    HW127140   6.601   2.054   3.318
 8747SOL    HW227141   6.697   1.925   3.345
 8748SOL     OW27142   0.380   1.149   4.193
 8748SOL    HW127143   0.436   1.068   4.172
 8748SOL    HW227144   0.401   1.222   4.128
 8749SOL     OW27145   2.342   0.430   5.214
 8749SOL    HW127146   2.318   0.333   5.213
 8749SOL    HW227147   2.396   0.450   5.295
 8750SOL     OW27148   3.355   4.318   5.359
 8750SOL    HW127149   3.389   4.360   5.443
 8750SOL    HW227150   3.255   4.318   5.360
 8751SOL     OW27151   6.057   1.586   2.097
 8751SOL    HW127152   6.139   1.607   2.150
 8751SOL    HW227153   5.976   1.601   2.153
 8752SOL     OW27154   3.230   3.121   6.249
 8752SOL    HW127155   3.323   3.125   6.286
 8752SOL    HW227156   3.201   3.213   6.221
 8753SOL     OW27157   3.078   1.708   6.490
 8753SOL    HW127158   3.068   1.778   6.419
 8753SOL    HW227159   3.171   1.712   6.527
 8754SOL     OW27160   1.541   3.793   5.808
 8754SOL    HW127161   1.546   3.799   5.908
 8754SOL    HW227162   1.448   3.771   5.780
 8755SOL     OW27163   2.335   0.975   1.099
 8755SOL    HW127164   2.304   0.917   1.023
 8755SOL    HW227165   2.423   1.016   1.075
 8756SOL     OW27166   1.365   3.281   4.194
 8756SOL    HW127167   1.328   3.211   4.132
 8756SOL    HW227168   1.366   3.369   4.147
 8757SOL     OW27169   3.771   6.226   6.688
 8757SOL    HW127170   3.796   6.259   6.596
 8757SOL    HW227171   3.701   6.156   6.681
 8758SOL     OW27172   5.203   6.247   2.590
 8758SOL    HW127173   5.191   6.242   2.689
 8758SOL    HW227174   5.301   6.245   2.568
 8759SOL     OW27175   4.665   3.058   6.922
 8759SOL    HW127176   4.751   3.102   6.948
 8759SOL    HW227177   4.682   2.994   6.847
 8760SOL     OW27178   2.897   0.955   5.513
 8760SOL    HW127179   2.973   0.928   5.572
 8760SOL    HW227180   2.917   1.045   5.473
 8761SOL     OW27181   6.250   2.432   1.516
 8761SOL    HW127182   6.306   2.369   1.570
 8761SOL    HW227183   6.266   2.526   1.548
 8762SOL     OW27184   0.844   4.727   3.524
 8762SOL    HW127185   0.812   4.704   3.617
 8762SOL    HW227186   0.895   4.813   3.527
 8763SOL     OW27187   6.286   6.827   6.163
 8763SOL    HW127188   6.364   6.864   6.113
 8763SOL    HW227189   6.291   6.727   6.164
 8764SOL     OW27190   4.717   0.328   5.667
 8764SOL    HW127191   4.695   0.301   5.573
 8764SOL    HW227192   4.748   0.422   5.668
 8765SOL     OW27193   4.975   0.214   3.966
 8765SOL    HW127194   4.974   0.149   3.890
 8765SOL    HW227195   4.991   0.306   3.932
 8766SOL     OW27196   4.590   4.514   4.888
 8766SOL    HW127197   4.493   4.521   4.915
 8766SOL    HW227198   4.608   4.574   4.810
 8767SOL     OW27199   5.357   6.151   2.238
 8767SOL    HW127200   5.426   6.182   2.303
 8767SOL    HW227201   5.393   6.157   2.145
 8768SOL     OW27202   1.290   2.256   0.404
 8768SOL    HW127203   1.277   2.235   0.307
 8768SOL    HW227204   1.344   2.183   0.447
 8769SOL     OW27205   6.865   0.674   3.265
 8769SOL    HW127206   6.964   0.662   3.277
 8769SOL    HW227207   6.823   0.696   3.353
 8770SOL     OW27208   4.339   4.546   1.917
 8770SOL    HW127209   4.382   4.458   1.938
 8770SOL    HW227210   4.317   4.594   2.003
 8771SOL     OW27211   1.521   1.889   6.547
 8771SOL    HW127212   1.449   1.955   6.567
 8771SOL    HW227213   1.582   1.882   6.626
 8772SOL     OW27214   4.548   0.525   6.761
 8772SOL    HW127215   4.507   0.454   6.704
 8772SOL    HW227216   4.504   0.612   6.743
 8773SOL     OW27217   5.909   2.935   4.006
 8773SOL    HW127218   5.874   2.973   3.921
 8773SOL    HW227219   6.001   2.899   3.991
 8774SOL     OW27220   1.560   0.720   0.243
 8774SOL    HW127221   1.571   0.702   0.145
 8774SOL    HW227222   1.484   0.784   0.257
 8775SOL     OW27223   5.512   0.845   5.516
 8775SOL    HW127224   5.573   0.771   5.542
 8775SOL    HW227225   5.552   0.897   5.440
 8776SOL     OW27226   4.610   3.137   0.633
 8776SOL    HW127227   4.567   3.224   0.655
 8776SOL    HW227228   4.695   3.128   0.685
 8777SOL     OW27229   5.788   4.137   3.606
 8777SOL    HW127230   5.870   4.080   3.605
 8777SOL    HW227231   5.721   4.098   3.669
 8778SOL     OW27232   5.581   3.101   6.082
 8778SOL    HW127233   5.537   3.095   5.992
 8778SOL    HW227234   5.664   3.045   6.083
 8779SOL     OW27235   2.634   5.060   2.637
 8779SOL    HW127236   2.558   5.114   2.674
 8779SOL    HW227237   2.657   5.094   2.546
 8780SOL     OW27238   0.546   6.522   2.907
 8780SOL    HW127239   0.565   6.469   2.990
 8780SOL    HW227240   0.626   6.575   2.882
 8781SOL     OW27241   5.240   1.032   4.200
 8781SOL    HW127242   5.142   1.047   4.212
 8781SOL    HW227243   5.290   1.099   4.254
 8782SOL     OW27244   6.490   0.151   2.646
 8782SOL    HW127245   6.548   0.140   2.565
 8782SOL    HW227246   6.537   0.113   2.726
 8783SOL     OW27247   6.471   4.008   3.615
 8783SOL    HW127248   6.398   4.070   3.644
 8783SOL    HW227249   6.508   3.960   3.695
 8784SOL     OW27250   0.121   5.871   5.651
 8784SOL    HW127251   0.091   5.834   5.739
 8784SOL    HW227252   0.209   5.917   5.663
 8785SOL     OW27253   5.389   5.101   0.169
 8785SOL    HW127254   5.482   5.133   0.147
 8785SOL    HW227255   5.323   5.171   0.143
 8786SOL     OW27256   2.503   1.087   0.225
 8786SOL    HW127257   2.407   1.067   0.245
 8786SOL    HW227258   2.545   1.006   0.185
 8787SOL     OW27259   2.911   1.174   2.169
 8787SOL    HW127260   2.945   1.252   2.222
 8787SOL    HW227261   2.866   1.207   2.086
 8788SOL     OW27262   6.919   0.332   5.604
 8788SOL    HW127263   7.003   0.308   5.653
 8788SOL    HW227264   6.936   0.331   5.505
 8789SOL     OW27265   6.126   5.605   5.142
 8789SOL    HW127266   6.029   5.589   5.128
 8789SOL    HW227267   6.179   5.534   5.096
 8790SOL     OW27268   6.496   0.431   6.450
 8790SOL    HW127269   6.569   0.406   6.386
 8790SOL    HW227270   6.455   0.347   6.487
 8791SOL     OW27271   5.645   6.823   4.923
 8791SOL    HW127272   5.637   6.756   4.850
 8791SOL    HW227273   5.633   6.915   4.885
 8792SOL     OW27274   3.079   5.406   3.015
 8792SOL    HW127275   3.103   5.379   3.109
 8792SOL    HW227276   3.050   5.325   2.964
 8793SOL     OW27277   1.046   4.415   2.455
 8793SOL    HW127278   1.022   4.363   2.537
 8793SOL    HW227279   0.982   4.392   2.382
 8794SOL     OW27280   5.162   0.259   2.723
 8794SOL    HW127281   5.195   0.166   2.740
 8794SOL    HW227282   5.152   0.308   2.810
 8795SOL     OW27283   1.128   3.930   5.926
 8795SOL    HW127284   1.074   3.923   5.842
 8795SOL    HW227285   1.219   3.967   5.904
 8796SOL     OW27286   4.896   2.066   4.018
 8796SOL    HW127287   4.807   2.109   4.033
 8796SOL    HW227288   4.883   1.977   3.973
 8797SOL     OW27289   0.153   0.281   0.061
 8797SOL    HW127290   0.179   0.377   0.053
 8797SOL    HW227291   0.217   0.224   0.009
 8798SOL     OW27292   4.740   6.270   6.379
 8798SOL    HW127293   4.810   6.278   6.309
 8798SOL    HW227294   4.717   6.174   6.394
 8799SOL     OW27295   2.754   4.713   3.693
 8799SOL    HW127296   2.809   4.746   3.616
 8799SOL    HW227297   2.667   4.762   3.695
 8800SOL     OW27298   6.045   4.430   6.380
 8800SOL    HW127299   5.988   4.511   6.375
 8800SOL    HW227300   6.129   4.444   6.328
 8801SOL     OW27301   0.243   1.196   4.439
 8801SOL    HW127302   0.318   1.179   4.503
 8801SOL    HW227303   0.276   1.180   4.346
 8802SOL     OW27304   2.099   6.538   6.191
 8802SOL    HW127305   2.132   6.611   6.250
 8802SOL    HW227306   2.071   6.460   6.247
 8803SOL     OW27307   0.052   6.636   0.235
 8803SOL    HW127308   0.111   6.680   0.302
 8803SOL    HW227309   0.108   6.583   0.171
 8804SOL     OW27310   2.492   6.336   1.616
 8804SOL    HW127311   2.460   6.348   1.522
 8804SOL    HW227312   2.591   6.349   1.620
 8805SOL     OW27313   3.671   6.445   3.541
 8805SOL    HW127314   3.583   6.470   3.500
 8805SOL    HW227315   3.726   6.528   3.555
 8806SOL     OW27316   3.190   4.850   1.171
 8806SOL    HW127317   3.270   4.803   1.132
 8806SOL    HW227318   3.183   4.942   1.132
 8807SOL     OW27319   5.229   0.814   0.347
 8807SOL    HW127320   5.169   0.830   0.426
 8807SOL    HW227321   5.256   0.718   0.345
 8808SOL     OW27322   6.000   3.241   6.542
 8808SOL    HW127323   5.920   3.214   6.488
 8808SOL    HW227324   5.989   3.209   6.636
 8809SOL     OW27325   3.580   5.196   3.602
 8809SOL    HW127326   3.614   5.221   3.511
 8809SOL    HW227327   3.634   5.241   3.672
 8810SOL     OW27328   6.072   0.701   4.997
 8810SOL    HW127329   6.162   0.693   5.040
 8810SOL    HW227330   6.071   0.647   4.912
 8811SOL     OW27331   3.529   1.663   2.926
 8811SOL    HW127332   3.484   1.575   2.928
 8811SOL    HW227333   3.467   1.732   2.888
 8812SOL     OW27334   2.201   0.522   0.536
 8812SOL    HW127335   2.126   0.527   0.470
 8812SOL    HW227336   2.175   0.569   0.620
 8813SOL     OW27337   2.206   5.953   2.885
 8813SOL    HW127338   2.156   6.016   2.825
 8813SOL    HW227339   2.206   5.989   2.978
 8814SOL     OW27340   6.433   0.331   0.585
 8814SOL    HW127341   6.342   0.338   0.544
 8814SOL    HW227342   6.424   0.310   0.683
 8815SOL     OW27343   5.615   6.847   1.362
 8815SOL    HW127344   5.537   6.808   1.313
 8815SOL    HW227345   5.583   6.891   1.446
 8816SOL     OW27346   1.010   5.929   0.431
 8816SOL    HW127347   0.976   5.880   0.351
 8816SOL    HW227348   1.034   6.023   0.405
 8817SOL     OW27349   0.231   4.591   4.111
 8817SOL    HW127350   0.158   4.628   4.168
 8817SOL    HW227351   0.316   4.586   4.164
 8818SOL     OW27352   0.722   4.808   4.402
 8818SOL    HW127353   0.663   4.762   4.468
 8818SOL    HW227354   0.781   4.873   4.450
 8819SOL     OW27355   5.448   5.261   5.536
 8819SOL    HW127356   5.463   5.359   5.547
 8819SOL    HW227357   5.452   5.237   5.439
 8820SOL     OW27358   2.694   0.744   5.446
 8820SOL    HW127359   2.754   0.813   5.487
 8820SOL    HW227360   2.681   0.765   5.349
 8821SOL     OW27361   1.811   5.724   1.072
 8821SOL    HW127362   1.839   5.636   1.111
 8821SOL    HW227363   1.892   5.780   1.056
 8822SOL     OW27364   0.840   0.535   4.654
 8822SOL    HW127365   0.882   0.525   4.745
 8822SOL    HW227366   0.901   0.496   4.585
 8823SOL     OW27367   2.118   1.068   2.563
 8823SOL    HW127368   2.171   1.002   2.615
 8823SOL    HW227369   2.162   1.084   2.475
 8824SOL     OW27370   1.432   1.340   0.249
 8824SOL    HW127371   1.517   1.393   0.248
 8824SOL    HW227372   1.366   1.384   0.311
 8825SOL     OW27373   1.737   0.807   1.687
 8825SOL    HW127374   1.786   0.838   1.605
 8825SOL    HW227375   1.739   0.879   1.757
 8826SOL     OW27376   0.908   3.916   0.427
 8826SOL    HW127377   0.946   3.925   0.335
 8826SOL    HW227378   0.975   3.871   0.486
 8827SOL     OW27379   4.198   0.771   3.411
 8827SOL    HW127380   4.158   0.745   3.499
 8827SOL    HW227381   4.203   0.871   3.405
 8828SOL     OW27382   4.002   5.572   6.380
 8828SOL    HW127383   3.927   5.638   6.373
 8828SOL    HW227384   3.964   5.479   6.383
 8829SOL     OW27385   5.191   2.140   1.390
 8829SOL    HW127386   5.147   2.051   1.382
 8829SOL    HW227387   5.284   2.129   1.425
 8830SOL     OW27388   1.630   1.862   2.784
 8830SOL    HW127389   1.698   1.858   2.711
 8830SOL    HW227390   1.540   1.881   2.744
 8831SOL     OW27391   4.910   2.538   3.449
 8831SOL    HW127392   4.823   2.568   3.409
 8831SOL    HW227393   4.922   2.440   3.431
 8832SOL     OW27394   6.894   6.507   3.132
 8832SOL    HW127395   6.942   6.595   3.136
 8832SOL    HW227396   6.877   6.475   3.226
 8833SOL     OW27397   2.722   5.572   0.007
 8833SOL    HW127398   2.683   5.504   0.069
 8833SOL    HW227399   2.792   5.625   0.054
 8834SOL     OW27400   5.922   3.930   4.666
 8834SOL    HW127401   5.855   3.863   4.635
 8834SOL    HW227402   5.918   3.937   4.766
 8835SOL     OW27403   4.984   0.864   5.843
 8835SOL    HW127404   4.965   0.827   5.753
 8835SOL    HW227405   4.909   0.842   5.905
 8836SOL     OW27406   5.037   2.041   0.311
 8836SOL    HW127407   5.066   1.945   0.318
 8836SOL    HW227408   4.938   2.047   0.324
 8837SOL     OW27409   0.461   0.084   2.530
 8837SOL    HW127410   0.523   0.027   2.476
 8837SOL    HW227411   0.494   0.092   2.624
 8838SOL     OW27412   2.511   4.817   3.799
 8838SOL    HW127413   2.557   4.743   3.847
 8838SOL    HW227414   2.421   4.834   3.841
 8839SOL     OW27415   4.227   5.632   1.490
 8839SOL    HW127416   4.278   5.718   1.492
 8839SOL    HW227417   4.131   5.651   1.467
 8840SOL     OW27418   0.508   0.989   3.256
 8840SOL    HW127419   0.462   0.923   3.197
 8840SOL    HW227420   0.607   0.972   3.255
 8841SOL     OW27421   0.554   0.865   4.808
 8841SOL    HW127422   0.563   0.845   4.905
 8841SOL    HW227423   0.467   0.830   4.774
 8842SOL     OW27424   3.117   3.004   3.287
 8842SOL    HW127425   3.048   2.933   3.302
 8842SOL    HW227426   3.122   3.026   3.190
 8843SOL     OW27427   1.537   3.317   4.996
 8843SOL    HW127428   1.542   3.220   5.016
 8843SOL    HW227429   1.559   3.370   5.078
 8844SOL     OW27430   0.534   1.658   5.340
 8844SOL    HW127431   0.622   1.629   5.302
 8844SOL    HW227432   0.516   1.753   5.315
 8845SOL     OW27433   2.962   3.561   1.160
 8845SOL    HW127434   2.962   3.659   1.141
 8845SOL    HW227435   2.894   3.516   1.102
 8846SOL     OW27436   4.062   4.903   4.261
 8846SOL    HW127437   3.979   4.924   4.209
 8846SOL    HW227438   4.058   4.949   4.350
 8847SOL     OW27439   2.360   1.342   2.863
 8847SOL    HW127440   2.262   1.345   2.881
 8847SOL    HW227441   2.387   1.249   2.838
 8848SOL     OW27442   2.335   2.002   2.111
 8848SOL    HW127443   2.432   2.013   2.090
 8848SOL    HW227444   2.325   1.950   2.196
 8849SOL     OW27445   3.471   5.591   3.528
 8849SOL    HW127446   3.551   5.596   3.587
 8849SOL    HW227447   3.389   5.614   3.580
 8850SOL     OW27448   1.961   1.037   6.668
 8850SOL    HW127449   2.005   1.123   6.644
 8850SOL    HW227450   1.874   1.055   6.714
 8851SOL     OW27451   0.817   5.035   2.078
 8851SOL    HW127452   0.905   4.993   2.096
 8851SOL    HW227453   0.760   5.032   2.160
 8852SOL     OW27454   4.776   3.913   6.017
 8852SOL    HW127455   4.679   3.915   5.995
 8852SOL    HW227456   4.811   3.820   6.008
 8853SOL     OW27457   3.239   0.718   6.466
 8853SOL    HW127458   3.216   0.801   6.415
 8853SOL    HW227459   3.164   0.652   6.457
 8854SOL     OW27460   3.218   1.644   6.143
 8854SOL    HW127461   3.183   1.639   6.050
 8854SOL    HW227462   3.199   1.559   6.191
 8855SOL     OW27463   0.322   5.786   0.534
 8855SOL    HW127464   0.258   5.830   0.596
 8855SOL    HW227465   0.271   5.735   0.464
 8856SOL     OW27466   6.968   0.235   6.353
 8856SOL    HW127467   6.915   0.319   6.350
 8856SOL    HW227468   6.954   0.184   6.268
 8857SOL     OW27469   6.910   1.290   4.017
 8857SOL    HW127470   6.813   1.299   4.037
 8857SOL    HW227471   6.959   1.261   4.099
 8858SOL     OW27472   0.925   2.378   5.394
 8858SOL    HW127473   0.873   2.331   5.323
 8858SOL    HW227474   0.989   2.313   5.436
 8859SOL     OW27475   6.751   0.690   4.378
 8859SOL    HW127476   6.750   0.599   4.420
 8859SOL    HW227477   6.824   0.745   4.419
 8860SOL     OW27478   0.701   3.124   2.515
 8860SOL    HW127479   0.765   3.157   2.445
 8860SOL    HW227480   0.721   3.170   2.602
 8861SOL     OW27481   4.260   1.627   6.253
 8861SOL    HW127482   4.165   1.655   6.248
 8861SOL    HW227483   4.319   1.706   6.236
 8862SOL     OW27484   5.657   0.955   3.610
 8862SOL    HW127485   5.650   1.052   3.588
 8862SOL    HW227486   5.754   0.930   3.620
 8863SOL     OW27487   1.897   5.003   4.004
 8863SOL    HW127488   1.906   5.066   3.926
 8863SOL    HW227489   1.924   4.911   3.975
 8864SOL     OW27490   3.340   3.629   5.642
 8864SOL    HW127491   3.357   3.699   5.573
 8864SOL    HW227492   3.298   3.549   5.599
 8865SOL     OW27493   3.147   1.402   6.233
 8865SOL    HW127494   3.133   1.354   6.146
 8865SOL    HW227495   3.083   1.367   6.301
 8866SOL     OW27496   5.331   0.095   3.064
 8866SOL    HW127497   5.268   0.075   2.989
 8866SOL    HW227498   5.301   0.177   3.112
 8867SOL     OW27499   5.563   3.213   2.257
 8867SOL    HW127500   5.508   3.252   2.331
 8867SOL    HW227501   5.516   3.132   2.220
 8868SOL     OW27502   6.563   2.708   0.502
 8868SOL    HW127503   6.547   2.733   0.597
 8868SOL    HW227504   6.661   2.715   0.482
 8869SOL     OW27505   4.332   6.304   4.650
 8869SOL    HW127506   4.335   6.334   4.555
 8869SOL    HW227507   4.337   6.205   4.654
 8870SOL     OW27508   3.997   0.355   6.642
 8870SOL    HW127509   3.987   0.434   6.703
 8870SOL    HW227510   3.907   0.323   6.615
 8871SOL     OW27511   1.872   0.638   3.888
 8871SOL    HW127512   1.945   0.674   3.830
 8871SOL    HW227513   1.803   0.708   3.903
 8872SOL     OW27514   1.652   4.606   4.854
 8872SOL    HW127515   1.682   4.558   4.936
 8872SOL    HW227516   1.661   4.705   4.868
 8873SOL     OW27517   0.748   5.854   1.854
 8873SOL    HW127518   0.653   5.885   1.855
 8873SOL    HW227519   0.801   5.908   1.789
 8874SOL     OW27520   2.395   5.644   2.304
 8874SOL    HW127521   2.308   5.595   2.310
 8874SOL    HW227522   2.433   5.656   2.396
 8875SOL     OW27523   6.744   3.352   5.128
 8875SOL    HW127524   6.749   3.293   5.047
 8875SOL    HW227525   6.753   3.448   5.100
 8876SOL     OW27526   2.174   0.060   4.395
 8876SOL    HW127527   2.249   0.008   4.354
 8876SOL    HW227528   2.099   7.020   4.417
 8877SOL     OW27529   2.887   0.672   3.897
 8877SOL    HW127530   2.837   0.753   3.929
 8877SOL    HW227531   2.985   0.686   3.911
 8878SOL     OW27532   6.559   5.180   6.835
 8878SOL    HW127533   6.467   5.167   6.799
 8878SOL    HW227534   6.621   5.205   6.760
 8879SOL     OW27535   4.923   4.180   1.859
 8879SOL    HW127536   4.892   4.262   1.907
 8879SOL    HW227537   4.850   4.147   1.799
 8880SOL     OW27538   5.482   5.816   4.549
 8880SOL    HW127539   5.480   5.850   4.455
 8880SOL    HW227540   5.390   5.790   4.577
 8881SOL     OW27541   6.578   0.080   3.696
 8881SOL    HW127542   6.516   0.150   3.730
 8881SOL    HW227543   6.527   7.020   3.675
 8882SOL     OW27544   5.569   1.897   1.118
 8882SOL    HW127545   5.666   1.915   1.136
 8882SOL    HW227546   5.558   1.860   1.026
 8883SOL     OW27547   1.785   6.316   6.491
 8883SOL    HW127548   1.764   6.409   6.461
 8883SOL    HW227549   1.719   6.253   6.452
 8884SOL     OW27550   6.262   4.475   6.241
 8884SOL    HW127551   6.237   4.507   6.150
 8884SOL    HW227552   6.361   4.484   6.253
 8885SOL     OW27553   0.059   3.525   0.869
 8885SOL    HW127554   0.059   3.539   0.968
 8885SOL    HW227555   0.012   3.602   0.825
 8886SOL     OW27556   3.227   6.359   4.836
 8886SOL    HW127557   3.220   6.260   4.852
 8886SOL    HW227558   3.146   6.390   4.787
 8887SOL     OW27559   3.291   1.662   1.473
 8887SOL    HW127560   3.266   1.658   1.377
 8887SOL    HW227561   3.377   1.713   1.484
 8888SOL     OW27562   2.006   1.772   6.559
 8888SOL    HW127563   2.057   1.855   6.537
 8888SOL    HW227564   1.914   1.778   6.519
 8889SOL     OW27565   6.351   0.511   6.198
 8889SOL    HW127566   6.409   0.552   6.269
 8889SOL    HW227567   6.284   0.451   6.241
 8890SOL     OW27568   6.785   5.582   3.994
 8890SOL    HW127569   6.771   5.510   4.062
 8890SOL    HW227570   6.773   5.672   4.037
 8891SOL     OW27571   5.256   3.744   6.227
 8891SOL    HW127572   5.228   3.800   6.149
 8891SOL    HW227573   5.197   3.663   6.233
 8892SOL     OW27574   3.910   5.801   3.294
 8892SOL    HW127575   3.851   5.736   3.342
 8892SOL    HW227576   3.997   5.808   3.342
 8893SOL     OW27577   0.868   5.802   3.631
 8893SOL    HW127578   0.851   5.792   3.533
 8893SOL    HW227579   0.845   5.718   3.679
 8894SOL     OW27580   4.358   2.913   6.253
 8894SOL    HW127581   4.399   2.981   6.191
 8894SOL    HW227582   4.402   2.920   6.343
 8895SOL     OW27583   6.291   2.425   2.496
 8895SOL    HW127584   6.216   2.488   2.516
 8895SOL    HW227585   6.254   2.342   2.452
 8896SOL     OW27586   2.442   3.606   5.858
 8896SOL    HW127587   2.414   3.536   5.792
 8896SOL    HW227588   2.417   3.696   5.822
 8897SOL     OW27589   1.878   2.757   3.278
 8897SOL    HW127590   1.972   2.723   3.272
 8897SOL    HW227591   1.826   2.701   3.343
 8898SOL     OW27592   5.163   3.517   3.201
 8898SOL    HW127593   5.099   3.450   3.240
 8898SOL    HW227594   5.125   3.553   3.116
 8899SOL     OW27595   2.107   5.540   0.556
 8899SOL    HW127596   2.078   5.506   0.645
 8899SOL    HW227597   2.040   5.515   0.487
 8900SOL     OW27598   6.100   3.401   2.764
 8900SOL    HW127599   6.129   3.485   2.809
 8900SOL    HW227600   6.176   3.363   2.711
 8901SOL     OW27601   2.087   0.724   4.439
 8901SOL    HW127602   2.151   0.656   4.474
 8901SOL    HW227603   2.075   0.797   4.506
 8902SOL     OW27604   1.830   0.388   0.209
 8902SOL    HW127605   1.835   0.292   0.236
 8902SOL    HW227606   1.736   0.412   0.186
 8903SOL     OW27607   1.253   1.473   5.207
 8903SOL    HW127608   1.265   1.405   5.135
 8903SOL    HW227609   1.156   1.498   5.214
 8904SOL     OW27610   6.035   6.224   3.941
 8904SOL    HW127611   5.946   6.225   3.986
 8904SOL    HW227612   6.045   6.306   3.885
 8905SOL     OW27613   1.087   4.371   4.046
 8905SOL    HW127614   0.999   4.397   4.085
 8905SOL    HW227615   1.128   4.299   4.101
 8906SOL     OW27616   0.342   6.350   0.272
 8906SOL    HW127617   0.344   6.404   0.356
 8906SOL    HW227618   0.421   6.289   0.270
 8907SOL     OW27619   2.733   2.374   5.117
 8907SOL    HW127620   2.642   2.408   5.137
 8907SOL    HW227621   2.795   2.396   5.193
 8908SOL     OW27622   1.099   3.737   6.374
 8908SOL    HW127623   1.146   3.672   6.313
 8908SOL    HW227624   1.048   3.686   6.443
 8909SOL     OW27625   2.811   0.958   5.842
 8909SOL    HW127626   2.836   0.862   5.831
 8909SOL    HW227627   2.712   0.968   5.830
 8910SOL     OW27628   0.555   2.665   5.946
 8910SOL    HW127629   0.560   2.739   5.879
 8910SOL    HW227630   0.466   2.666   5.990
 8911SOL     OW27631   3.917   2.007   4.674
 8911SOL    HW127632   3.881   2.069   4.743
 8911SOL    HW227633   3.948   2.060   4.595
 8912SOL     OW27634   3.659   3.212   0.125
 8912SOL    HW127635   3.684   3.171   0.037
 8912SOL    HW227636   3.698   3.158   0.199
 8913SOL     OW27637   5.374   5.176   5.817
 8913SOL    HW127638   5.362   5.183   5.718
 8913SOL    HW227639   5.400   5.265   5.854
 8914SOL     OW27640   4.596   0.439   4.791
 8914SOL    HW127641   4.686   0.476   4.810
 8914SOL    HW227642   4.527   0.489   4.844
 8915SOL     OW27643   0.590   2.677   3.755
 8915SOL    HW127644   0.514   2.734   3.725
 8915SOL    HW227645   0.575   2.646   3.849
 8916SOL     OW27646   0.302   3.809   0.907
 8916SOL    HW127647   0.350   3.888   0.944
 8916SOL    HW227648   0.353   3.726   0.927
 8917SOL     OW27649   0.046   3.590   0.231
 8917SOL    HW127650   0.005   3.656   0.294
 8917SOL    HW227651   6.998   3.535   0.188
 8918SOL     OW27652   6.635   4.076   1.312
 8918SOL    HW127653   6.593   4.159   1.277
 8918SOL    HW227654   6.576   4.035   1.381
 8919SOL     OW27655   3.842   4.601   0.408
 8919SOL    HW127656   3.939   4.626   0.407
 8919SOL    HW227657   3.827   4.524   0.346
 8920SOL     OW27658   0.602   0.372   6.861
 8920SOL    HW127659   0.696   0.398   6.885
 8920SOL    HW227660   0.600   0.340   6.766
 8921SOL     OW27661   1.753   1.951   2.192
 8921SOL    HW127662   1.776   2.047   2.178
 8921SOL    HW227663   1.664   1.944   2.238
 8922SOL     OW27664   3.652   5.231   1.319
 8922SOL    HW127665   3.724   5.182   1.271
 8922SOL    HW227666   3.571   5.173   1.328
 8923SOL     OW27667   1.748   3.572   6.203
 8923SOL    HW127668   1.800   3.488   6.217
 8923SOL    HW227669   1.811   3.648   6.183
 8924SOL     OW27670   4.127   5.158   5.545
 8924SOL    HW127671   4.047   5.131   5.492
 8924SOL    HW227672   4.130   5.258   5.551
 8925SOL     OW27673   0.928   1.211   2.755
 8925SOL    HW127674   0.918   1.271   2.835
 8925SOL    HW227675   0.941   1.117   2.786
 8926SOL     OW27676   6.533   3.713   5.760
 8926SOL    HW127677   6.546   3.797   5.812
 8926SOL    HW227678   6.436   3.699   5.742
 8927SOL     OW27679   0.680   1.319   4.774
 8927SOL    HW127680   0.587   1.292   4.748
 8927SOL    HW227681   0.725   1.242   4.821
 8928SOL     OW27682   0.222   0.147   6.399
 8928SOL    HW127683   0.257   0.121   6.488
 8928SOL    HW227684   0.125   0.169   6.406
 8929SOL     OW27685   6.431   2.895   4.472
 8929SOL    HW127686   6.491   2.908   4.551
 8929SOL    HW227687   6.366   2.821   4.492
 8930SOL     OW27688   1.273   3.824   4.443
 8930SOL    HW127689   1.327   3.741   4.460
 8930SOL    HW227690   1.289   3.855   4.349
 8931SOL     OW27691   2.994   2.677   0.466
 8931SOL    HW127692   2.941   2.708   0.545
 8931SOL    HW227693   2.996   2.749   0.398
 8932SOL     OW27694   5.774   0.702   0.949
 8932SOL    HW127695   5.869   0.693   0.917
 8932SOL    HW227696   5.747   0.619   0.998
 8933SOL     OW27697   1.858   3.031   6.122
 8933SOL    HW127698   1.910   3.032   6.207
 8933SOL    HW227699   1.778   3.089   6.131
 8934SOL     OW27700   3.591   5.253   4.411
 8934SOL    HW127701   3.550   5.258   4.502
 8934SOL    HW227702   3.530   5.203   4.349
 8935SOL     OW27703   6.519   4.266   1.096
 8935SOL    HW127704   6.498   4.338   1.162
 8935SOL    HW227705   6.563   4.306   1.016
 8936SOL     OW27706   1.304   3.331   2.106
 8936SOL    HW127707   1.286   3.374   2.018
 8936SOL    HW227708   1.307   3.401   2.177
 8937SOL     OW27709   0.171   6.795   4.936
 8937SOL    HW127710   0.196   6.886   4.968
 8937SOL    HW227711   0.233   6.728   4.976
 8938SOL     OW27712   0.392   1.431   0.371
 8938SOL    HW127713   0.415   1.384   0.285
 8938SOL    HW227714   0.293   1.430   0.384
 8939SOL     OW27715   5.703   4.945   4.437
 8939SOL    HW127716   5.708   4.939   4.337
 8939SOL    HW227717   5.743   5.031   4.467
 8940SOL     OW27718   5.577   0.918   1.616
 8940SOL    HW127719   5.533   0.953   1.533
 8940SOL    HW227720   5.543   0.968   1.696
 8941SOL     OW27721   6.351   2.531   4.260
 8941SOL    HW127722   6.334   2.470   4.337
 8941SOL    HW227723   6.279   2.520   4.192
 8942SOL     OW27724   6.542   5.845   5.985
 8942SOL    HW127725   6.554   5.786   5.906
 8942SOL    HW227726   6.567   5.795   6.068
 8943SOL     OW27727   3.704   5.473   0.432
 8943SOL    HW127728   3.658   5.387   0.453
 8943SOL    HW227729   3.754   5.464   0.345
 8944SOL     OW27730   5.235   6.227   4.142
 8944SOL    HW127731   5.216   6.227   4.240
 8944SOL    HW227732   5.151   6.248   4.092
 8945SOL     OW27733   0.709   1.118   4.069
 8945SOL    HW127734   0.648   1.053   4.114
 8945SOL    HW227735   0.804   1.088   4.080
 8946SOL     OW27736   3.214   0.643   3.639
 8946SOL    HW127737   3.308   0.607   3.638
 8946SOL    HW227738   3.192   0.675   3.730
 8947SOL     OW27739   2.547   3.419   5.656
 8947SOL    HW127740   2.637   3.434   5.614
 8947SOL    HW227741   2.476   3.451   5.594
 8948SOL     OW27742   6.142   5.744   3.617
 8948SOL    HW127743   6.158   5.801   3.536
 8948SOL    HW227744   6.152   5.648   3.592
 8949SOL     OW27745   3.964   6.593   0.735
 8949SOL    HW127746   3.937   6.663   0.669
 8949SOL    HW227747   4.022   6.634   0.805
 8950SOL     OW27748   3.655   3.588   0.592
 8950SOL    HW127749   3.747   3.599   0.628
 8950SOL    HW227750   3.656   3.595   0.492
 8951SOL     OW27751   2.020   0.970   4.577
 8951SOL    HW127752   2.113   1.002   4.594
 8951SOL    HW227753   1.976   1.031   4.510
 8952SOL     OW27754   1.067   5.076   3.799
 8952SOL    HW127755   1.117   5.010   3.855
 8952SOL    HW227756   1.132   5.131   3.746
 8953SOL     OW27757   1.325   4.378   0.457
 8953SOL    HW127758   1.351   4.472   0.436
 8953SOL    HW227759   1.387   4.315   0.409
 8954SOL     OW27760   6.850   6.751   4.572
 8954SOL    HW127761   6.782   6.679   4.562
 8954SOL    HW227762   6.819   6.833   4.523
 8955SOL     OW27763   6.818   4.912   3.112
 8955SOL    HW127764   6.828   5.007   3.140
 8955SOL    HW227765   6.721   4.888   3.111
 8956SOL     OW27766   1.578   1.834   5.648
 8956SOL    HW127767   1.514   1.809   5.721
 8956SOL    HW227768   1.667   1.855   5.688
 8957SOL     OW27769   1.982   4.580   1.344
 8957SOL    HW127770   2.055   4.583   1.275
 8957SOL    HW227771   1.904   4.634   1.312
 8958SOL     OW27772   0.538   2.281   5.257
 8958SOL    HW127773   0.530   2.360   5.318
 8958SOL    HW227774   0.477   2.293   5.179
 8959SOL     OW27775   1.633   4.440   2.298
 8959SOL    HW127776   1.611   4.537   2.307
 8959SOL    HW227777   1.670   4.406   2.385
 8960SOL     OW27778   4.699   5.581   3.760
 8960SOL    HW127779   4.698   5.575   3.860
 8960SOL    HW227780   4.780   5.534   3.725
 8961SOL     OW27781   3.411   1.213   3.370
 8961SOL    HW127782   3.433   1.115   3.368
 8961SOL    HW227783   3.404   1.243   3.466
 8962SOL     OW27784   5.964   5.392   2.178
 8962SOL    HW127785   5.977   5.440   2.265
 8962SOL    HW227786   5.868   5.369   2.166
 8963SOL     OW27787   3.564   0.592   4.728
 8963SOL    HW127788   3.510   0.558   4.805
 8963SOL    HW227789   3.553   0.531   4.650
 8964SOL     OW27790   5.737   3.016   3.349
 8964SOL    HW127791   5.787   3.047   3.268
 8964SOL    HW227792   5.650   2.976   3.322
 8965SOL     OW27793   2.444   5.440   6.952
 8965SOL    HW127794   2.367   5.488   6.993
 8965SOL    HW227795   2.519   5.504   6.938
 8966SOL     OW27796   6.597   3.879   0.113
 8966SOL    HW127797   6.531   3.844   0.045
 8966SOL    HW227798   6.690   3.865   0.080
 8967SOL     OW27799   3.563   0.467   1.701
 8967SOL    HW127800   3.622   0.450   1.622
 8967SOL    HW227801   3.512   0.552   1.687
 8968SOL     OW27802   4.395   5.757   2.476
 8968SOL    HW127803   4.322   5.820   2.449
 8968SOL    HW227804   4.365   5.663   2.459
 8969SOL     OW27805   6.700   0.430   3.716
 8969SOL    HW127806   6.625   0.471   3.664
 8969SOL    HW227807   6.739   0.497   3.779
 8970SOL     OW27808   2.608   3.207   6.679
 8970SOL    HW127809   2.556   3.122   6.666
 8970SOL    HW227810   2.683   3.190   6.743
 8971SOL     OW27811   6.091   4.919   1.287
 8971SOL    HW127812   6.066   4.823   1.275
 8971SOL    HW227813   6.073   4.946   1.382
 8972SOL     OW27814   4.551   3.973   0.684
 8972SOL    HW127815   4.627   3.967   0.749
 8972SOL    HW227816   4.585   4.002   0.595
 8973SOL     OW27817   0.370   3.535   3.297
 8973SOL    HW127818   0.445   3.528   3.362
 8973SOL    HW227819   0.301   3.466   3.318
 8974SOL     OW27820   1.674   3.639   4.076
 8974SOL    HW127821   1.698   3.704   4.003
 8974SOL    HW227822   1.586   3.665   4.116
 8975SOL     OW27823   0.592   6.276   0.574
 8975SOL    HW127824   0.607   6.367   0.534
 8975SOL    HW227825   0.679   6.228   0.582
 8976SOL     OW27826   0.367   5.305   0.202
 8976SOL    HW127827   0.317   5.352   0.129
 8976SOL    HW227828   0.444   5.362   0.232
 8977SOL     OW27829   6.787   3.173   6.583
 8977SOL    HW127830   6.765   3.142   6.676
 8977SOL    HW227831   6.786   3.094   6.521
 8978SOL     OW27832   5.319   6.876   4.292
 8978SOL    HW127833   5.289   6.861   4.198
 8978SOL    HW227834   5.267   6.951   4.333
 8979SOL     OW27835   0.843   4.637   5.372
 8979SOL    HW127836   0.764   4.576   5.379
 8979SOL    HW227837   0.923   4.585   5.341
 8980SOL     OW27838   4.548   2.747   5.241
 8980SOL    HW127839   4.612   2.824   5.236
 8980SOL    HW227840   4.465   2.778   5.287
 8981SOL     OW27841   4.564   2.208   4.876
 8981SOL    HW127842   4.573   2.117   4.834
 8981SOL    HW227843   4.486   2.256   4.836
 8982SOL     OW27844   1.636   1.494   1.533
 8982SOL    HW127845   1.604   1.588   1.535
 8982SOL    HW227846   1.650   1.461   1.627
 8983SOL     OW27847   0.469   5.549   0.546
 8983SOL    HW127848   0.505   5.588   0.631
 8983SOL    HW227849   0.436   5.623   0.487
 8984SOL     OW27850   6.083   6.116   3.691
 8984SOL    HW127851   6.077   6.142   3.788
 8984SOL    HW227852   6.000   6.068   3.664
 8985SOL     OW27853   2.181   1.400   0.733
 8985SOL    HW127854   2.083   1.411   0.752
 8985SOL    HW227855   2.232   1.473   0.780
 8986SOL     OW27856   4.216   4.679   2.152
 8986SOL    HW127857   4.129   4.696   2.106
 8986SOL    HW227858   4.268   4.764   2.158
 8987SOL     OW27859   3.794   0.307   1.010
 8987SOL    HW127860   3.742   0.260   1.083
 8987SOL    HW227861   3.862   0.244   0.973
 8988SOL     OW27862   1.756   4.451   0.329
 8988SOL    HW127863   1.790   4.505   0.252
 8988SOL    HW227864   1.832   4.431   0.391
 8989SOL     OW27865   4.831   4.095   2.117
 8989SOL    HW127866   4.790   4.007   2.091
 8989SOL    HW227867   4.800   4.166   2.054
 8990SOL     OW27868   2.316   6.218   2.721
 8990SOL    HW127869   2.416   6.224   2.725
 8990SOL    HW227870   2.288   6.172   2.636
 8991SOL     OW27871   1.953   1.501   6.616
 8991SOL    HW127872   1.853   1.505   6.613
 8991SOL    HW227873   1.991   1.593   6.601
 8992SOL     OW27874   6.818   2.723   6.583
 8992SOL    HW127875   6.913   2.746   6.561
 8992SOL    HW227876   6.808   2.623   6.584
 8993SOL     OW27877   4.793   2.848   2.873
 8993SOL    HW127878   4.756   2.769   2.824
 8993SOL    HW227879   4.880   2.875   2.832
 8994SOL     OW27880   0.637   5.102   4.749
 8994SOL    HW127881   0.544   5.100   4.712
 8994SOL    HW227882   0.642   5.043   4.830
 8995SOL     OW27883   1.167   2.792   6.616
 8995SOL    HW127884   1.198   2.697   6.611
 8995SOL    HW227885   1.186   2.838   6.530
 8996SOL     OW27886   6.522   5.122   1.815
 8996SOL    HW127887   6.612   5.164   1.831
 8996SOL    HW227888   6.520   5.031   1.855
 8997SOL     OW27889   3.882   1.300   6.433
 8997SOL    HW127890   3.930   1.284   6.519
 8997SOL    HW227891   3.949   1.315   6.360
 8998SOL     OW27892   0.270   3.337   5.022
 8998SOL    HW127893   0.312   3.268   4.963
 8998SOL    HW227894   0.277   3.309   5.117
 8999SOL     OW27895   5.026   0.406   0.418
 8999SOL    HW127896   4.982   0.336   0.473
 8999SOL    HW227897   5.048   0.369   0.328
 9000SOL     OW27898   2.382   3.947   6.013
 9000SOL    HW127899   2.299   3.892   6.011
 9000SOL    HW227900   2.420   3.947   6.105
 9001SOL     OW27901   1.184   5.429   2.703
 9001SOL    HW127902   1.112   5.489   2.667
 9001SOL    HW227903   1.160   5.399   2.795
 9002SOL     OW27904   6.841   4.923   4.899
 9002SOL    HW127905   6.813   4.905   4.993
 9002SOL    HW227906   6.765   4.964   4.849
 9003SOL     OW27907   5.307   2.423   1.190
 9003SOL    HW127908   5.340   2.342   1.141
 9003SOL    HW227909   5.325   2.505   1.135
 9004SOL     OW27910   5.200   6.707   1.919
 9004SOL    HW127911   5.234   6.649   1.993
 9004SOL    HW227912   5.133   6.772   1.956
 9005SOL     OW27913   5.281   2.080   4.920
 9005SOL    HW127914   5.334   2.127   4.991
 9005SOL    HW227915   5.213   2.143   4.882
 9006SOL     OW27916   2.228   6.314   0.291
 9006SOL    HW127917   2.141   6.336   0.247
 9006SOL    HW227918   2.276   6.398   0.314
 9007SOL     OW27919   3.781   6.515   3.898
 9007SOL    HW127920   3.728   6.466   3.829
 9007SOL    HW227921   3.719   6.562   3.960
 9008SOL     OW27922   6.426   4.982   2.824
 9008SOL    HW127923   6.419   5.081   2.836
 9008SOL    HW227924   6.411   4.959   2.728
 9009SOL     OW27925   2.805   0.077   0.308
 9009SOL    HW127926   2.827   0.165   0.350
 9009SOL    HW227927   2.712   0.050   0.333
 9010SOL     OW27928   0.896   6.829   4.987
 9010SOL    HW127929   0.825   6.766   5.019
 9010SOL    HW227930   0.969   6.778   4.943
 9011SOL     OW27931   4.189   2.173   1.484
 9011SOL    HW127932   4.247   2.091   1.490
 9011SOL    HW227933   4.197   2.225   1.569
 9012SOL     OW27934   3.442   4.394   1.153
 9012SOL    HW127935   3.492   4.333   1.091
 9012SOL    HW227936   3.347   4.399   1.124
 9013SOL     OW27937   0.185   6.390   3.970
 9013SOL    HW127938   0.200   6.294   3.946
 9013SOL    HW227939   0.265   6.444   3.947
 9014SOL     OW27940   0.880   0.708   6.952
 9014SOL    HW127941   0.802   0.763   6.981
 9014SOL    HW227942   0.957   0.723   7.015
 9015SOL     OW27943   6.067   1.581   1.322
 9015SOL    HW127944   6.063   1.487   1.355
 9015SOL    HW227945   6.010   1.589   1.240
 9016SOL     OW27946   0.423   6.521   6.755
 9016SOL    HW127947   0.443   6.445   6.694
 9016SOL    HW227948   0.508   6.556   6.794
 9017SOL     OW27949   4.411   2.376   1.981
 9017SOL    HW127950   4.469   2.385   2.062
 9017SOL    HW227951   4.336   2.313   2.001
 9018SOL     OW27952   4.415   1.590   5.717
 9018SOL    HW127953   4.322   1.566   5.687
 9018SOL    HW227954   4.471   1.611   5.638
 9019SOL     OW27955   0.503   0.760   0.863
 9019SOL    HW127956   0.435   0.788   0.795
 9019SOL    HW227957   0.480   0.669   0.898
 9020SOL     OW27958   1.276   3.595   1.522
 9020SOL    HW127959   1.356   3.629   1.472
 9020SOL    HW227960   1.246   3.664   1.588
 9021SOL     OW27961   6.825   0.284   3.934
 9021SOL    HW127962   6.779   0.335   3.862
 9021SOL    HW227963   6.883   0.213   3.894
 9022SOL     OW27964   2.876   1.390   0.942
 9022SOL    HW127965   2.776   1.395   0.942
 9022SOL    HW227966   2.911   1.431   0.857
 9023SOL     OW27967   3.495   2.886   2.482
 9023SOL    HW127968   3.461   2.980   2.482
 9023SOL    HW227969   3.459   2.838   2.403
 9024SOL     OW27970   0.542   5.348   5.136
 9024SOL    HW127971   0.555   5.416   5.063
 9024SOL    HW227972   0.476   5.280   5.107
 9025SOL     OW27973   0.140   6.086   0.004
 9025SOL    HW127974   0.069   6.156   7.014
 9025SOL    HW227975   0.098   5.996   0.008
 9026SOL     OW27976   3.776   3.204   2.124
 9026SOL    HW127977   3.802   3.300   2.137
 9026SOL    HW227978   3.749   3.190   2.028
 9027SOL     OW27979   1.206   1.975   3.916
 9027SOL    HW127980   1.273   1.971   3.990
 9027SOL    HW227981   1.223   2.056   3.860
 9028SOL     OW27982   2.548   3.512   6.788
 9028SOL    HW127983   2.522   3.605   6.762
 9028SOL    HW227984   2.576   3.461   6.707
 9029SOL     OW27985   3.346   5.360   5.058
 9029SOL    HW127986   3.287   5.279   5.064
 9029SOL    HW227987   3.387   5.377   5.147
 9030SOL     OW27988   1.812   1.045   3.361
 9030SOL    HW127989   1.763   1.109   3.302
 9030SOL    HW227990   1.910   1.058   3.352
 9031SOL     OW27991   4.879   5.851   4.607
 9031SOL    HW127992   4.896   5.752   4.608
 9031SOL    HW227993   4.780   5.867   4.605
 9032SOL     OW27994   2.850   2.821   0.657
 9032SOL    HW127995   2.833   2.919   0.645
 9032SOL    HW227996   2.827   2.795   0.751
 9033SOL     OW27997   1.997   4.758   3.830
 9033SOL    HW127998   1.940   4.689   3.875
 9033SOL    HW227999   1.943   4.806   3.762
 9034SOL     OW28000   3.026   0.818   5.071
 9034SOL    HW128001   3.109   0.810   5.015
 9034SOL    HW228002   3.045   0.784   5.163
 9035SOL     OW28003   0.913   5.307   5.858
 9035SOL    HW128004   0.931   5.263   5.770
 9035SOL    HW228005   0.980   5.277   5.926
 9036SOL     OW28006   1.599   0.787   5.441
 9036SOL    HW128007   1.617   0.703   5.492
 9036SOL    HW228008   1.658   0.860   5.475
 9037SOL     OW28009   1.524   3.258   5.898
 9037SOL    HW128010   1.552   3.348   5.865
 9037SOL    HW228011   1.577   3.187   5.852
 9038SOL     OW28012   4.665   0.014   6.201
 9038SOL    HW128013   4.745   7.009   6.255
 9038SOL    HW228014   4.687   0.098   6.151
 9039SOL     OW28015   2.789   4.801   4.479
 9039SOL    HW128016   2.707   4.847   4.447
 9039SOL    HW228017   2.766   4.737   4.553
 9040SOL     OW28018   2.601   1.916   2.425
 9040SOL    HW128019   2.540   1.995   2.411
 9040SOL    HW228020   2.661   1.934   2.503
 9041SOL     OW28021   0.721   2.303   1.926
 9041SOL    HW128022   0.727   2.393   1.883
 9041SOL    HW228023   0.781   2.300   2.006
 9042SOL     OW28024   3.072   6.910   3.863
 9042SOL    HW128025   3.101   6.976   3.793
 9042SOL    HW228026   2.991   6.861   3.831
 9043SOL     OW28027   2.680   1.581   6.426
 9043SOL    HW128028   2.644   1.491   6.453
 9043SOL    HW228029   2.734   1.571   6.342
 9044SOL     OW28030   5.751   1.832   1.689
 9044SOL    HW128031   5.849   1.812   1.702
 9044SOL    HW228032   5.718   1.784   1.609
 9045SOL     OW28033   2.942   1.870   2.416
 9045SOL    HW128034   2.924   1.841   2.322
 9045SOL    HW228035   2.948   1.970   2.420
 9046SOL     OW28036   3.667   3.811   4.947
 9046SOL    HW128037   3.626   3.752   4.877
 9046SOL    HW228038   3.729   3.758   5.004
 9047SOL     OW28039   1.193   2.747   5.475
 9047SOL    HW128040   1.252   2.683   5.426
 9047SOL    HW228041   1.149   2.809   5.409
 9048SOL     OW28042   6.170   2.744   5.940
 9048SOL    HW128043   6.079   2.703   5.931
 9048SOL    HW228044   6.174   2.798   6.024
 9049SOL     OW28045   4.161   0.298   6.422
 9049SOL    HW128046   4.147   0.343   6.333
 9049SOL    HW228047   4.096   0.335   6.488
 9050SOL     OW28048   0.364   4.379   5.676
 9050SOL    HW128049   0.370   4.279   5.671
 9050SOL    HW228050   0.431   4.414   5.741
 9051SOL     OW28051   3.822   6.180   0.757
 9051SOL    HW128052   3.771   6.114   0.702
 9051SOL    HW228053   3.920   6.165   0.745
 9052SOL     OW28054   1.954   2.253   2.637
 9052SOL    HW128055   1.973   2.180   2.703
 9052SOL    HW228056   1.981   2.341   2.675
 9053SOL     OW28057   1.467   1.167   2.986
 9053SOL    HW128058   1.489   1.094   2.921
 9053SOL    HW228059   1.542   1.233   2.989
 9054SOL     OW28060   1.591   0.140   1.853
 9054SOL    HW128061   1.649   0.060   1.839
 9054SOL    HW228062   1.503   0.127   1.807
 9055SOL     OW28063   6.625   3.605   3.660
 9055SOL    HW128064   6.676   3.520   3.671
 9055SOL    HW228065   6.527   3.585   3.653
 9056SOL     OW28066   6.468   0.678   1.572
 9056SOL    HW128067   6.388   0.671   1.513
 9056SOL    HW228068   6.518   0.591   1.572
 9057SOL     OW28069   5.632   5.043   5.559
 9057SOL    HW128070   5.582   4.996   5.486
 9057SOL    HW228071   5.589   5.132   5.577
 9058SOL     OW28072   2.154   1.835   3.478
 9058SOL    HW128073   2.122   1.758   3.533
 9058SOL    HW228074   2.150   1.919   3.533
 9059SOL     OW28075   1.385   1.239   4.771
 9059SOL    HW128076   1.399   1.294   4.688
 9059SOL    HW228077   1.473   1.204   4.803
 9060SOL     OW28078   6.946   2.634   2.336
 9060SOL    HW128079   6.865   2.678   2.298
 9060SOL    HW228080   0.002   2.654   2.279
 9061SOL     OW28081   3.209   5.908   2.276
 9061SOL    HW128082   3.157   5.911   2.191
 9061SOL    HW228083   3.294   5.856   2.262
 9062SOL     OW28084   1.713   5.692   2.212
 9062SOL    HW128085   1.639   5.655   2.156
 9062SOL    HW228086   1.703   5.791   2.220
 9063SOL     OW28087   2.098   6.940   2.639
 9063SOL    HW128088   2.110   6.879   2.560
 9063SOL    HW228089   2.072   6.886   2.719
 9064SOL     OW28090   6.185   4.076   5.565
 9064SOL    HW128091   6.283   4.096   5.568
 9064SOL    HW228092   6.167   4.003   5.499
 9065SOL     OW28093   3.270   5.943   6.539
 9065SOL    HW128094   3.331   5.962   6.462
 9065SOL    HW228095   3.238   6.029   6.578
 9066SOL     OW28096   5.667   0.310   0.316
 9066SOL    HW128097   5.631   0.343   0.228
 9066SOL    HW228098   5.754   0.264   0.301
 9067SOL     OW28099   6.491   0.221   4.296
 9067SOL    HW128100   6.423   0.280   4.339
 9067SOL    HW228101   6.519   0.261   4.209
 9068SOL     OW28102   2.937   0.141   5.624
 9068SOL    HW128103   2.911   0.129   5.720
 9068SOL    HW228104   2.869   0.198   5.578
 9069SOL     OW28105   2.778   2.292   1.732
 9069SOL    HW128106   2.709   2.300   1.804
 9069SOL    HW228107   2.860   2.344   1.757
 9070SOL     OW28108   0.975   3.237   5.796
 9070SOL    HW128109   1.070   3.251   5.825
 9070SOL    HW228110   0.938   3.324   5.763
 9071SOL     OW28111   5.361   0.156   0.741
 9071SOL    HW128112   5.378   0.132   0.646
 9071SOL    HW228113   5.314   0.081   0.788
 9072SOL     OW28114   6.262   1.091   2.106
 9072SOL    HW128115   6.235   1.187   2.099
 9072SOL    HW228116   6.353   1.084   2.147
 9073SOL     OW28117   3.321   6.406   0.548
 9073SOL    HW128118   3.304   6.445   0.639
 9073SOL    HW228119   3.246   6.428   0.487
 9074SOL     OW28120   2.146   0.938   2.087
 9074SOL    HW128121   2.217   0.965   2.021
 9074SOL    HW228122   2.151   0.839   2.101
 9075SOL     OW28123   1.092   1.053   1.895
 9075SOL    HW128124   1.040   1.047   1.980
 9075SOL    HW228125   1.173   0.995   1.901
 9076SOL     OW28126   5.898   1.749   4.908
 9076SOL    HW128127   5.932   1.843   4.917
 9076SOL    HW228128   5.973   1.690   4.877
 9077SOL     OW28129   5.537   7.001   6.689
 9077SOL    HW128130   5.484   7.019   6.772
 9077SOL    HW228131   5.608   0.047   6.679
 9078SOL     OW28132   4.304   3.645   6.585
 9078SOL    HW128133   4.383   3.682   6.537
 9078SOL    HW228134   4.232   3.623   6.519
 9079SOL     OW28135   2.579   6.434   4.175
 9079SOL    HW128136   2.662   6.488   4.191
 9079SOL    HW228137   2.593   6.375   4.096
 9080SOL     OW28138   5.425   2.000   0.280
 9080SOL    HW128139   5.383   2.043   0.360
 9080SOL    HW228140   5.396   1.905   0.274
 9081SOL     OW28141   4.104   6.397   2.572
 9081SOL    HW128142   4.073   6.472   2.630
 9081SOL    HW228143   4.173   6.431   2.508
 9082SOL     OW28144   2.798   6.464   5.453
 9082SOL    HW128145   2.824   6.559   5.473
 9082SOL    HW228146   2.711   6.463   5.404
 9083SOL     OW28147   3.914   4.476   5.995
 9083SOL    HW128148   3.918   4.476   5.895
 9083SOL    HW228149   3.920   4.571   6.028
 9084SOL     OW28150   3.247   3.397   5.490
 9084SOL    HW128151   3.325   3.407   5.427
 9084SOL    HW228152   3.229   3.300   5.504
 9085SOL     OW28153   2.039   4.550   0.984
 9085SOL    HW128154   1.978   4.630   0.985
 9085SOL    HW228155   2.126   4.575   1.027
 9086SOL     OW28156   0.752   4.548   0.357
 9086SOL    HW128157   0.848   4.523   0.347
 9086SOL    HW228158   0.739   4.595   0.444
 9087SOL     OW28159   4.363   2.338   2.244
 9087SOL    HW128160   4.321   2.357   2.333
 9087SOL    HW228161   4.291   2.322   2.176
 9088SOL     OW28162   5.616   6.041   0.610
 9088SOL    HW128163   5.595   6.136   0.590
 9088SOL    HW228164   5.576   6.016   0.698
 9089SOL     OW28165   5.124   6.473   4.860
 9089SOL    HW128166   5.078   6.545   4.911
 9089SOL    HW228167   5.206   6.444   4.909
 9090SOL     OW28168   6.746   6.482   3.390
 9090SOL    HW128169   6.752   6.580   3.410
 9090SOL    HW228170   6.766   6.430   3.472
 9091SOL     OW28171   3.083   3.765   0.818
 9091SOL    HW128172   2.992   3.735   0.846
 9091SOL    HW228173   3.076   3.848   0.763
 9092SOL     OW28174   0.120   2.170   1.055
 9092SOL    HW128175   0.023   2.164   1.079
 9092SOL    HW228176   0.148   2.266   1.051
 9093SOL     OW28177   1.118   6.416   6.431
 9093SOL    HW128178   1.156   6.358   6.359
 9093SOL    HW228179   1.025   6.388   6.451
 9094SOL     OW28180   5.954   5.481   2.961
 9094SOL    HW128181   6.010   5.437   2.890
 9094SOL    HW228182   5.978   5.443   3.051
 9095SOL     OW28183   4.516   4.082   6.367
 9095SOL    HW128184   4.482   4.059   6.458
 9095SOL    HW228185   4.590   4.020   6.342
 9096SOL     OW28186   5.656   3.855   1.981
 9096SOL    HW128187   5.653   3.849   1.881
 9096SOL    HW228188   5.677   3.764   2.019
 9097SOL     OW28189   1.012   1.877   6.707
 9097SOL    HW128190   0.983   1.791   6.665
 9097SOL    HW228191   0.939   1.913   6.765
 9098SOL     OW28192   3.733   2.044   6.174
 9098SOL    HW128193   3.695   2.130   6.209
 9098SOL    HW228194   3.827   2.059   6.144
 9099SOL     OW28195   2.903   2.532   6.072
 9099SOL    HW128196   3.000   2.520   6.054
 9099SOL    HW228197   2.868   2.607   6.015
 9100SOL     OW28198   0.477   3.722   3.939
 9100SOL    HW128199   0.535   3.794   3.977
 9100SOL    HW228200   0.456   3.743   3.843
 9101SOL     OW28201   2.220   2.301   2.892
 9101SOL    HW128202   2.266   2.348   2.967
 9101SOL    HW228203   2.139   2.353   2.865
 9102SOL     OW28204   2.877   0.152   1.429
 9102SOL    HW128205   2.814   0.083   1.394
 9102SOL    HW228206   2.858   0.169   1.526
 9103SOL     OW28207   6.376   3.217   6.572
 9103SOL    HW128208   6.283   3.201   6.539
 9103SOL    HW228209   6.373   3.268   6.658
 9104SOL     OW28210   6.981   6.349   1.846
 9104SOL    HW128211   6.960   6.258   1.812
 9104SOL    HW228212   6.950   6.358   1.941
 9105SOL     OW28213   1.665   1.646   6.711
 9105SOL    HW128214   1.567   1.626   6.709
 9105SOL    HW228215   1.690   1.683   6.800
 9106SOL     OW28216   0.159   2.960   0.286
 9106SOL    HW128217   0.142   2.869   0.248
 9106SOL    HW228218   0.139   2.961   0.384
 9107SOL     OW28219   3.501   1.207   5.945
 9107SOL    HW128220   3.583   1.229   5.892
 9107SOL    HW228221   3.469   1.290   5.991
 9108SOL     OW28222   4.876   4.048   5.810
 9108SOL    HW128223   4.969   4.027   5.780
 9108SOL    HW228224   4.855   3.996   5.893
 9109SOL     OW28225   6.642   2.248   2.894
 9109SOL    HW128226   6.609   2.342   2.888
 9109SOL    HW228227   6.578   2.187   2.848
 9110SOL     OW28228   1.860   4.525   3.933
 9110SOL    HW128229   1.856   4.433   3.971
 9110SOL    HW228230   1.768   4.563   3.926
 9111SOL     OW28231   4.703   1.961   0.575
 9111SOL    HW128232   4.678   2.020   0.499
 9111SOL    HW228233   4.802   1.947   0.577
 9112SOL     OW28234   0.698   5.366   3.715
 9112SOL    HW128235   0.725   5.308   3.792
 9112SOL    HW228236   0.695   5.312   3.631
 9113SOL     OW28237   4.824   1.298   2.642
 9113SOL    HW128238   4.835   1.216   2.698
 9113SOL    HW228239   4.875   1.373   2.683
 9114SOL     OW28240   0.651   4.373   2.080
 9114SOL    HW128241   0.693   4.367   2.170
 9114SOL    HW228242   0.657   4.284   2.034
 9115SOL     OW28243   0.330   6.040   4.547
 9115SOL    HW128244   0.242   6.081   4.569
 9115SOL    HW228245   0.345   5.960   4.605
 9116SOL     OW28246   6.538   1.056   1.908
 9116SOL    HW128247   6.539   1.152   1.879
 9116SOL    HW228248   6.550   0.997   1.828
 9117SOL     OW28249   5.564   2.337   0.471
 9117SOL    HW128250   5.473   2.362   0.438
 9117SOL    HW228251   5.632   2.396   0.427
 9118SOL     OW28252   6.564   3.586   6.972
 9118SOL    HW128253   6.663   3.573   6.976
 9118SOL    HW228254   6.522   3.506   6.929
 9119SOL     OW28255   4.519   0.281   2.556
 9119SOL    HW128256   4.521   0.211   2.628
 9119SOL    HW228257   4.460   0.356   2.584
 9120SOL     OW28258   6.409   2.089   6.128
 9120SOL    HW128259   6.435   2.136   6.043
 9120SOL    HW228260   6.421   2.152   6.205
 9121SOL     OW28261   4.244   1.043   4.836
 9121SOL    HW128262   4.198   1.011   4.918
 9121SOL    HW228263   4.245   0.970   4.767
 9122SOL     OW28264   2.262   4.126   2.423
 9122SOL    HW128265   2.289   4.176   2.506
 9122SOL    HW228266   2.196   4.055   2.448
 9123SOL     OW28267   2.546   0.711   3.300
 9123SOL    HW128268   2.465   0.737   3.247
 9123SOL    HW228269   2.616   0.782   3.293
 9124SOL     OW28270   5.475   6.398   0.192
 9124SOL    HW128271   5.516   6.312   0.223
 9124SOL    HW228272   5.396   6.377   0.133
 9125SOL     OW28273   5.142   4.518   0.370
 9125SOL    HW128274   5.221   4.457   0.373
 9125SOL    HW228275   5.060   4.466   0.346
 9126SOL     OW28276   6.333   3.550   1.391
 9126SOL    HW128277   6.342   3.455   1.422
 9126SOL    HW228278   6.270   3.599   1.450
 9127SOL     OW28279   0.076   1.760   6.148
 9127SOL    HW128280   7.007   1.728   6.170
 9127SOL    HW228281   0.117   1.699   6.080
 9128SOL     OW28282   5.926   2.474   5.371
 9128SOL    HW128283   5.950   2.480   5.468
 9128SOL    HW228284   6.010   2.462   5.317
 9129SOL     OW28285   0.372   2.508   0.512
 9129SOL    HW128286   0.272   2.501   0.515
 9129SOL    HW228287   0.409   2.434   0.455
 9130SOL     OW28288   0.519   3.406   5.979
 9130SOL    HW128289   0.450   3.384   5.911
 9130SOL    HW228290   0.493   3.366   6.067
 9131SOL     OW28291   5.594   2.720   5.621
 9131SOL    HW128292   5.676   2.766   5.656
 9131SOL    HW228293   5.513   2.759   5.665
 9132SOL     OW28294   0.048   5.718   4.437
 9132SOL    HW128295   0.058   5.708   4.338
 9132SOL    HW228296   6.981   5.756   4.458
 9133SOL     OW28297   3.703   6.765   1.722
 9133SOL    HW128298   3.712   6.842   1.784
 9133SOL    HW228299   3.791   6.747   1.678
 9134SOL     OW28300   3.576   5.907   1.322
 9134SOL    HW128301   3.524   5.975   1.374
 9134SOL    HW228302   3.558   5.919   1.225
 9135SOL     OW28303   6.404   6.743   1.338
 9135SOL    HW128304   6.420   6.707   1.429
 9135SOL    HW228305   6.437   6.837   1.333
 9136SOL     OW28306   5.108   6.136   0.031
 9136SOL    HW128307   5.175   6.206   0.056
 9136SOL    HW228308   5.016   6.175   0.040
 9137SOL     OW28309   5.183   1.456   0.696
 9137SOL    HW128310   5.141   1.481   0.783
 9137SOL    HW228311   5.276   1.424   0.712
 9138SOL     OW28312   0.385   5.805   6.574
 9138SOL    HW128313   0.475   5.844   6.556
 9138SOL    HW228314   0.315   5.874   6.559
 9139SOL     OW28315   1.784   2.008   2.981
 9139SOL    HW128316   1.880   1.983   2.973
 9139SOL    HW228317   1.732   1.969   2.905
 9140SOL     OW28318   6.897   3.443   2.522
 9140SOL    HW128319   6.813   3.392   2.505
 9140SOL    HW228320   6.976   3.384   2.507
 9141SOL     OW28321   5.683   0.171   1.185
 9141SOL    HW128322   5.611   0.103   1.174
 9141SOL    HW228323   5.717   0.200   1.096
 9142SOL     OW28324   0.512   2.944   0.719
 9142SOL    HW128325   0.488   3.015   0.785
 9142SOL    HW228326   0.538   2.985   0.632
 9143SOL     OW28327   6.433   3.067   0.449
 9143SOL    HW128328   6.494   3.042   0.374
 9143SOL    HW228329   6.443   3.165   0.469
 9144SOL     OW28330   2.664   5.029   4.845
 9144SOL    HW128331   2.683   5.128   4.843
 9144SOL    HW228332   2.751   4.979   4.842
 9145SOL     OW28333   0.345   5.255   6.908
 9145SOL    HW128334   0.354   5.224   6.814
 9145SOL    HW228335   0.435   5.284   6.942
 9146SOL     OW28336   5.599   3.282   3.794
 9146SOL    HW128337   5.565   3.211   3.733
 9146SOL    HW228338   5.699   3.274   3.803
 9147SOL     OW28339   5.844   6.454   5.191
 9147SOL    HW128340   5.899   6.518   5.244
 9147SOL    HW228341   5.783   6.504   5.130
 9148SOL     OW28342   4.905   6.420   1.667
 9148SOL    HW128343   4.949   6.490   1.610
 9148SOL    HW228344   4.876   6.462   1.753
 9149SOL     OW28345   5.498   3.975   2.655
 9149SOL    HW128346   5.596   3.988   2.638
 9149SOL    HW228347   5.447   3.993   2.570
 9150SOL     OW28348   3.138   5.319   1.063
 9150SOL    HW128349   3.103   5.349   0.975
 9150SOL    HW228350   3.062   5.301   1.125
 9151SOL     OW28351   1.491   4.350   3.584
 9151SOL    HW128352   1.450   4.395   3.504
 9151SOL    HW228353   1.434   4.368   3.665
 9152SOL     OW28354   2.220   3.911   4.517
 9152SOL    HW128355   2.176   3.876   4.600
 9152SOL    HW228356   2.192   3.856   4.439
 9153SOL     OW28357   0.332   2.875   0.060
 9153SOL    HW128358   0.284   2.910   7.003
 9153SOL    HW228359   0.321   2.939   0.136
 9154SOL     OW28360   5.499   4.718   5.722
 9154SOL    HW128361   5.517   4.630   5.677
 9154SOL    HW228362   5.584   4.771   5.727
 9155SOL     OW28363   1.777   4.033   2.644
 9155SOL    HW128364   1.766   4.037   2.744
 9155SOL    HW228365   1.762   3.939   2.613
 9156SOL     OW28366   0.525   2.064   1.011
 9156SOL    HW128367   0.544   2.119   0.929
 9156SOL    HW228368   0.497   2.124   1.086
 9157SOL     OW28369   2.278   4.154   6.324
 9157SOL    HW128370   2.223   4.196   6.396
 9157SOL    HW228371   2.313   4.225   6.263
 9158SOL     OW28372   6.164   3.411   4.457
 9158SOL    HW128373   6.263   3.426   4.465
 9158SOL    HW228374   6.134   3.352   4.532
 9159SOL     OW28375   1.589   0.905   2.445
 9159SOL    HW128376   1.591   0.805   2.442
 9159SOL    HW228377   1.677   0.938   2.480
 9160SOL     OW28378   6.937   6.684   6.324
 9160SOL    HW128379   6.965   6.643   6.411
 9160SOL    HW228380   7.014   6.736   6.285
 9161SOL     OW28381   5.077   5.230   3.852
 9161SOL    HW128382   5.129   5.250   3.935
 9161SOL    HW228383   5.106   5.143   3.814
 9162SOL     OW28384   4.292   0.563   3.761
 9162SOL    HW128385   4.309   0.622   3.840
 9162SOL    HW228386   4.378   0.546   3.713
 9163SOL     OW28387   6.891   2.297   4.434
 9163SOL    HW128388   6.933   2.366   4.492
 9163SOL    HW228389   6.962   2.242   4.390
 9164SOL     OW28390   1.613   0.478   6.806
 9164SOL    HW128391   1.574   0.480   6.714
 9164SOL    HW228392   1.591   0.391   6.850
 9165SOL     OW28393   5.718   1.488   6.040
 9165SOL    HW128394   5.710   1.420   6.113
 9165SOL    HW228395   5.721   1.580   6.080
 9166SOL     OW28396   3.924   6.354   1.249
 9166SOL    HW128397   3.902   6.262   1.218
 9166SOL    HW228398   3.966   6.349   1.340
 9167SOL     OW28399   2.027   2.307   5.964
 9167SOL    HW128400   2.067   2.305   6.056
 9167SOL    HW228401   2.033   2.400   5.928
 9168SOL     OW28402   6.267   6.094   6.480
 9168SOL    HW128403   6.218   6.033   6.543
 9168SOL    HW228404   6.209   6.112   6.401
 9169SOL     OW28405   6.837   6.690   6.849
 9169SOL    HW128406   6.930   6.661   6.827
 9169SOL    HW228407   6.836   6.731   6.941
 9170SOL     OW28408   1.586   0.159   6.660
 9170SOL    HW128409   1.654   0.186   6.591
 9170SOL    HW228410   1.581   0.059   6.665
 9171SOL     OW28411   3.103   6.031   0.673
 9171SOL    HW128412   3.104   5.968   0.595
 9171SOL    HW228413   3.014   6.026   0.718
 9172SOL     OW28414   4.795   1.153   3.819
 9172SOL    HW128415   4.754   1.097   3.747
 9172SOL    HW228416   4.894   1.153   3.810
 9173SOL     OW28417   5.910   4.457   5.807
 9173SOL    HW128418   6.000   4.415   5.794
 9173SOL    HW228419   5.911   4.511   5.891
 9174SOL     OW28420   0.066   5.450   0.326
 9174SOL    HW128421   0.111   5.367   0.362
 9174SOL    HW228422   0.043   5.436   0.230
 9175SOL     OW28423   1.570   6.059   6.513
 9175SOL    HW128424   1.630   6.032   6.438
 9175SOL    HW228425   1.522   6.144   6.487
 9176SOL     OW28426   2.440   1.020   2.056
 9176SOL    HW128427   2.495   0.975   1.986
 9176SOL    HW228428   2.473   0.993   2.147
 9177SOL     OW28429   0.586   3.983   4.220
 9177SOL    HW128430   0.642   3.958   4.141
 9177SOL    HW228431   0.644   4.019   4.292
 9178SOL     OW28432   2.232   4.722   6.561
 9178SOL    HW128433   2.195   4.631   6.540
 9178SOL    HW228434   2.160   4.791   6.551
 9179SOL     OW28435   2.019   5.594   4.009
 9179SOL    HW128436   2.105   5.607   3.960
 9179SOL    HW228437   2.032   5.528   4.083
 9180SOL     OW28438   6.262   2.624   3.502
 9180SOL    HW128439   6.264   2.566   3.420
 9180SOL    HW228440   6.351   2.622   3.546
 9181SOL     OW28441   6.078   2.422   4.807
 9181SOL    HW128442   6.041   2.514   4.820
 9181SOL    HW228443   6.125   2.393   4.891
 9182SOL     OW28444   2.558   6.864   3.104
 9182SOL    HW128445   2.650   6.839   3.134
 9182SOL    HW228446   2.491   6.824   3.166
 9183SOL     OW28447   5.067   4.884   6.519
 9183SOL    HW128448   5.006   4.923   6.588
 9183SOL    HW228449   5.161   4.891   6.551
 9184SOL     OW28450   4.140   2.808   1.357
 9184SOL    HW128451   4.102   2.787   1.267
 9184SOL    HW228452   4.126   2.906   1.376
 9185SOL     OW28453   6.572   6.519   4.514
 9185SOL    HW128454   6.575   6.611   4.475
 9185SOL    HW228455   6.635   6.513   4.591
 9186SOL     OW28456   5.985   0.088   4.679
 9186SOL    HW128457   5.971   0.090   4.778
 9186SOL    HW228458   5.909   0.040   4.636
 9187SOL     OW28459   3.728   1.677   6.940
 9187SOL    HW128460   3.731   1.642   6.846
 9187SOL    HW228461   3.661   1.625   6.992
 9188SOL     OW28462   2.021   0.199   1.377
 9188SOL    HW128463   2.055   0.106   1.383
 9188SOL    HW228464   1.962   0.218   1.455
 9189SOL     OW28465   3.667   6.079   2.320
 9189SOL    HW128466   3.625   6.048   2.235
 9189SOL    HW228467   3.599   6.126   2.376
 9190SOL     OW28468   0.812   2.885   5.132
 9190SOL    HW128469   0.888   2.927   5.182
 9190SOL    HW228470   0.797   2.792   5.166
 9191SOL     OW28471   5.683   1.070   6.449
 9191SOL    HW128472   5.583   1.069   6.439
 9191SOL    HW228473   5.721   0.983   6.418
 9192SOL     OW28474   6.967   2.404   6.281
 9192SOL    HW128475   6.903   2.391   6.205
 9192SOL    HW228476   0.007   2.326   6.285
 9193SOL     OW28477   3.906   3.263   4.482
 9193SOL    HW128478   3.879   3.206   4.405
 9193SOL    HW228479   3.830   3.325   4.505
 9194SOL     OW28480   3.186   0.618   2.495
 9194SOL    HW128481   3.148   0.669   2.418
 9194SOL    HW228482   3.114   0.599   2.561
 9195SOL     OW28483   1.520   3.093   2.902
 9195SOL    HW128484   1.605   3.147   2.902
 9195SOL    HW228485   1.443   3.152   2.926
 9196SOL     OW28486   5.837   6.536   3.814
 9196SOL    HW128487   5.927   6.494   3.805
 9196SOL    HW228488   5.842   6.613   3.877
 9197SOL     OW28489   3.228   4.833   0.744
 9197SOL    HW128490   3.206   4.913   0.800
 9197SOL    HW228491   3.271   4.763   0.800
 9198SOL     OW28492   6.453   4.287   6.935
 9198SOL    HW128493   6.468   4.269   6.838
 9198SOL    HW228494   6.501   4.370   6.961
 9199SOL     OW28495   0.192   3.098   5.542
 9199SOL    HW128496   0.093   3.101   5.523
 9199SOL    HW228497   0.213   3.020   5.601
 9200SOL     OW28498   2.813   5.870   5.576
 9200SOL    HW128499   2.823   5.779   5.615
 9200SOL    HW228500   2.812   5.863   5.476
 9201SOL     OW28501   6.945   3.022   6.837
 9201SOL    HW128502   6.846   3.015   6.849
 9201SOL    HW228503   6.978   3.108   6.875
 9202SOL     OW28504   1.022   5.174   4.426
 9202SOL    HW128505   1.002   5.264   4.464
 9202SOL    HW228506   1.120   5.162   4.417
 9203SOL     OW28507   6.262   2.901   6.184
 9203SOL    HW128508   6.260   3.000   6.200
 9203SOL    HW228509   6.355   2.873   6.161
 9204SOL     OW28510   5.065   3.650   4.301
 9204SOL    HW128511   5.073   3.554   4.327
 9204SOL    HW228512   5.013   3.700   4.370
 9205SOL     OW28513   4.866   5.671   2.839
 9205SOL    HW128514   4.933   5.598   2.854
 9205SOL    HW228515   4.855   5.723   2.923
 9206SOL     OW28516   3.189   6.162   3.560
 9206SOL    HW128517   3.147   6.120   3.641
 9206SOL    HW228518   3.281   6.193   3.582
 9207SOL     OW28519   4.129   5.117   0.159
 9207SOL    HW128520   4.106   5.206   0.200
 9207SOL    HW228521   4.186   5.065   0.222
 9208SOL     OW28522   5.872   3.852   2.329
 9208SOL    HW128523   5.952   3.911   2.341
 9208SOL    HW228524   5.884   3.769   2.384
 9209SOL     OW28525   4.542   1.057   1.621
 9209SOL    HW128526   4.622   1.006   1.651
 9209SOL    HW228527   4.460   1.003   1.639
 9210SOL     OW28528   0.960   1.003   1.304
 9210SOL    HW128529   1.032   0.943   1.338
 9210SOL    HW228530   0.904   1.035   1.380
 9211SOL     OW28531   5.809   3.186   6.365
 9211SOL    HW128532   5.736   3.237   6.321
 9211SOL    HW228533   5.846   3.118   6.301
 9212SOL     OW28534   4.945   4.309   4.104
 9212SOL    HW128535   5.012   4.356   4.047
 9212SOL    HW228536   4.976   4.216   4.122
 9213SOL     OW28537   5.123   5.265   4.476
 9213SOL    HW128538   5.027   5.258   4.448
 9213SOL    HW228539   5.171   5.327   4.414
 9214SOL     OW28540   0.312   2.973   5.224
 9214SOL    HW128541   0.308   3.073   5.229
 9214SOL    HW228542   0.225   2.938   5.188
 9215SOL     OW28543   1.694   4.302   2.546
 9215SOL    HW128544   1.697   4.202   2.552
 9215SOL    HW228545   1.621   4.336   2.605
 9216SOL     OW28546   2.579   6.422   3.700
 9216SOL    HW128547   2.526   6.503   3.674
 9216SOL    HW228548   2.626   6.386   3.619
 9217SOL     OW28549   6.365   2.868   6.786
 9217SOL    HW128550   6.280   2.815   6.795
 9217SOL    HW228551   6.424   2.826   6.717
 9218SOL     OW28552   4.153   0.956   0.226
 9218SOL    HW128553   4.233   1.010   0.200
 9218SOL    HW228554   4.070   1.005   0.200
 9219SOL     OW28555   4.543   3.738   6.447
 9219SOL    HW128556   4.612   3.809   6.436
 9219SOL    HW228557   4.543   3.679   6.367
 9220SOL     OW28558   0.912   6.340   2.091
 9220SOL    HW128559   0.831   6.288   2.065
 9220SOL    HW228560   0.980   6.335   2.017
 9221SOL     OW28561   2.606   6.995   4.084
 9221SOL    HW128562   2.662   6.953   4.155
 9221SOL    HW228563   2.646   0.060   4.058
 9222SOL     OW28564   2.504   5.565   5.366
 9222SOL    HW128565   2.555   5.638   5.321
 9222SOL    HW228566   2.468   5.502   5.296
 9223SOL     OW28567   1.229   2.703   4.637
 9223SOL    HW128568   1.327   2.703   4.618
 9223SOL    HW228569   1.179   2.719   4.552
 9224SOL     OW28570   1.455   4.971   3.574
 9224SOL    HW128571   1.461   4.880   3.616
 9224SOL    HW228572   1.398   4.966   3.492
 9225SOL     OW28573   3.392   6.065   5.687
 9225SOL    HW128574   3.326   5.992   5.671
 9225SOL    HW228575   3.458   6.067   5.612
 9226SOL     OW28576   0.723   7.014   1.170
 9226SOL    HW128577   0.628   0.010   1.143
 9226SOL    HW228578   0.724   6.980   1.265
 9227SOL     OW28579   2.245   6.071   0.993
 9227SOL    HW128580   2.156   6.089   0.951
 9227SOL    HW228581   2.264   5.973   0.989
 9228SOL     OW28582   2.852   1.888   6.934
 9228SOL    HW128583   2.841   1.893   0.010
 9228SOL    HW228584   2.777   1.835   6.895
 9229SOL     OW28585   1.162   4.485   5.447
 9229SOL    HW128586   1.180   4.571   5.398
 9229SOL    HW228587   1.165   4.503   5.546
 9230SOL     OW28588   5.211   3.066   3.799
 9230SOL    HW128589   5.184   3.153   3.840
 9230SOL    HW228590   5.141   3.037   3.734
 9231SOL     OW28591   1.395   3.143   5.404
 9231SOL    HW128592   1.395   3.120   5.307
 9231SOL    HW228593   1.489   3.140   5.439
 9232SOL     OW28594   3.045   5.398   6.960
 9232SOL    HW128595   2.956   5.437   6.981
 9232SOL    HW228596   3.060   5.401   6.861
 9233SOL     OW28597   6.638   6.480   0.978
 9233SOL    HW128598   6.561   6.488   1.041
 9233SOL    HW228599   6.713   6.539   1.009
 9234SOL     OW28600   2.902   5.832   0.536
 9234SOL    HW128601   2.877   5.852   0.631
 9234SOL    HW228602   2.976   5.764   0.535
 9235SOL     OW28603   2.049   2.470   3.485
 9235SOL    HW128604   2.089   2.508   3.402
 9235SOL    HW228605   2.114   2.477   3.560
 9236SOL     OW28606   1.848   4.183   0.118
 9236SOL    HW128607   1.944   4.195   0.091
 9236SOL    HW228608   1.791   4.245   0.063
 9237SOL     OW28609   0.800   5.510   3.001
 9237SOL    HW128610   0.799   5.573   3.078
 9237SOL    HW228611   0.717   5.455   3.002
 9238SOL     OW28612   2.569   2.931   6.336
 9238SOL    HW128613   2.565   3.030   6.328
 9238SOL    HW228614   2.651   2.896   6.291
 9239SOL     OW28615   0.271   3.852   5.819
 9239SOL    HW128616   0.260   3.890   5.911
 9239SOL    HW228617   0.364   3.816   5.810
 9240SOL     OW28618   4.935   3.085   2.189
 9240SOL    HW128619   4.971   2.993   2.203
 9240SOL    HW228620   4.874   3.084   2.109
 9241SOL     OW28621   0.290   5.145   0.409
 9241SOL    HW128622   0.209   5.099   0.374
 9241SOL    HW228623   0.330   5.201   0.337
 9242SOL     OW28624   1.282   3.838   1.127
 9242SOL    HW128625   1.348   3.840   1.203
 9242SOL    HW228626   1.325   3.872   1.044
 9243SOL     OW28627   6.835   0.164   1.193
 9243SOL    HW128628   6.923   0.116   1.194
 9243SOL    HW228629   6.802   0.172   1.099
 9244SOL     OW28630   3.081   5.642   6.189
 9244SOL    HW128631   3.112   5.659   6.282
 9244SOL    HW228632   3.132   5.701   6.126
 9245SOL     OW28633   0.860   5.231   3.916
 9245SOL    HW128634   0.894   5.323   3.934
 9245SOL    HW228635   0.934   5.173   3.883
 9246SOL     OW28636   5.944   0.055   3.202
 9246SOL    HW128637   5.860   0.058   3.148
 9246SOL    HW228638   5.932   7.016   3.279
 9247SOL     OW28639   2.495   5.988   3.391
 9247SOL    HW128640   2.399   6.015   3.399
 9247SOL    HW228641   2.501   5.893   3.364
 9248SOL     OW28642   3.048   1.898   4.478
 9248SOL    HW128643   3.074   1.940   4.391
 9248SOL    HW228644   3.121   1.836   4.508
 9249SOL     OW28645   3.845   5.073   1.202
 9249SOL    HW128646   3.939   5.106   1.205
 9249SOL    HW228647   3.843   4.973   1.205
 9250SOL     OW28648   5.546   3.446   4.867
 9250SOL    HW128649   5.549   3.528   4.924
 9250SOL    HW228650   5.479   3.459   4.794
 9251SOL     OW28651   4.121   1.983   2.782
 9251SOL    HW128652   4.201   1.924   2.794
 9251SOL    HW228653   4.092   1.982   2.687
 9252SOL     OW28654   5.347   0.579   4.552
 9252SOL    HW128655   5.434   0.533   4.537
 9252SOL    HW228656   5.293   0.575   4.467
 9253SOL     OW28657   5.458   5.552   5.557
 9253SOL    HW128658   5.390   5.598   5.614
 9253SOL    HW228659   5.449   5.583   5.462
 9254SOL     OW28660   5.068   5.474   2.867
 9254SOL    HW128661   5.155   5.452   2.911
 9254SOL    HW228662   5.043   5.401   2.803
 9255SOL     OW28663   5.020   3.581   0.376
 9255SOL    HW128664   5.018   3.490   0.334
 9255SOL    HW228665   5.097   3.587   0.440
 9256SOL     OW28666   3.305   0.185   2.482
 9256SOL    HW128667   3.278   0.163   2.576
 9256SOL    HW228668   3.384   0.246   2.484
 9257SOL     OW28669   6.866   4.607   3.426
 9257SOL    HW128670   6.830   4.541   3.492
 9257SOL    HW228671   6.790   4.644   3.371
 9258SOL     OW28672   3.823   3.795   2.220
 9258SOL    HW128673   3.788   3.781   2.312
 9258SOL    HW228674   3.788   3.882   2.184
 9259SOL     OW28675   0.284   1.975   0.946
 9259SOL    HW128676   0.375   2.002   0.978
 9259SOL    HW228677   0.215   2.034   0.987
 9260SOL     OW28678   6.016   1.906   5.534
 9260SOL    HW128679   6.002   1.817   5.578
 9260SOL    HW228680   5.928   1.954   5.526
 9261SOL     OW28681   3.688   1.584   0.347
 9261SOL    HW128682   3.721   1.560   0.438
 9261SOL    HW228683   3.680   1.683   0.339
 9262SOL     OW28684   6.779   5.760   5.300
 9262SOL    HW128685   6.824   5.671   5.290
 9262SOL    HW228686   6.688   5.757   5.258
 9263SOL     OW28687   4.430   0.348   2.042
 9263SOL    HW128688   4.374   0.290   2.102
 9263SOL    HW228689   4.486   0.409   2.097
 9264SOL     OW28690   5.226   4.754   0.463
 9264SOL    HW128691   5.165   4.766   0.541
 9264SOL    HW228692   5.204   4.668   0.417
 9265SOL     OW28693   3.462   2.668   6.694
 9265SOL    HW128694   3.490   2.698   6.786
 9265SOL    HW228695   3.365   2.689   6.680
 9266SOL     OW28696   0.951   5.923   1.018
 9266SOL    HW128697   0.994   5.833   1.014
 9266SOL    HW228698   0.990   5.975   1.094
 9267SOL     OW28699   0.309   1.891   4.796
 9267SOL    HW128700   0.272   1.835   4.722
 9267SOL    HW228701   0.371   1.959   4.758
 9268SOL     OW28702   1.406   6.246   2.898
 9268SOL    HW128703   1.309   6.258   2.921
 9268SOL    HW228704   1.462   6.262   2.980
 9269SOL     OW28705   4.422   1.041   6.571
 9269SOL    HW128706   4.360   1.114   6.542
 9269SOL    HW228707   4.515   1.078   6.577
 9270SOL     OW28708   4.728   6.497   6.011
 9270SOL    HW128709   4.640   6.449   6.015
 9270SOL    HW228710   4.712   6.595   6.003
 9271SOL     OW28711   6.161   0.237   0.997
 9271SOL    HW128712   6.232   0.292   0.954
 9271SOL    HW228713   6.073   0.284   0.991
 9272SOL     OW28714   0.847   5.488   5.485
 9272SOL    HW128715   0.930   5.527   5.445
 9272SOL    HW228716   0.795   5.560   5.532
 9273SOL     OW28717   5.897   6.269   2.838
 9273SOL    HW128718   5.916   6.205   2.913
 9273SOL    HW228719   5.799   6.276   2.825
 9274SOL     OW28720   6.719   1.535   0.673
 9274SOL    HW128721   6.804   1.550   0.723
 9274SOL    HW228722   6.711   1.439   0.648
 9275SOL     OW28723   6.292   1.258   6.848
 9275SOL    HW128724   6.363   1.226   6.912
 9275SOL    HW228725   6.215   1.194   6.850
 9276SOL     OW28726   1.856   4.010   1.478
 9276SOL    HW128727   1.811   4.058   1.403
 9276SOL    HW228728   1.787   3.960   1.532
 9277SOL     OW28729   4.531   4.805   0.681
 9277SOL    HW128730   4.578   4.724   0.715
 9277SOL    HW228731   4.433   4.785   0.672
 9278SOL     OW28732   1.529   0.189   5.926
 9278SOL    HW128733   1.576   0.184   5.838
 9278SOL    HW228734   1.458   0.259   5.922
 9279SOL     OW28735   3.015   0.659   1.625
 9279SOL    HW128736   3.113   0.673   1.634
 9279SOL    HW228737   2.997   0.569   1.586
 9280SOL     OW28738   2.068   2.021   2.021
 9280SOL    HW128739   2.162   2.019   2.055
 9280SOL    HW228740   2.050   1.938   1.968
 9281SOL     OW28741   2.824   4.147   6.939
 9281SOL    HW128742   2.808   4.050   6.955
 9281SOL    HW228743   2.866   4.188   7.020
 9282SOL     OW28744   5.650   0.757   3.324
 9282SOL    HW128745   5.642   0.855   3.344
 9282SOL    HW228746   5.744   0.737   3.297
 9283SOL     OW28747   4.793   0.760   3.990
 9283SOL    HW128748   4.720   0.828   3.977
 9283SOL    HW228749   4.863   0.773   3.920
 9284SOL     OW28750   2.996   3.068   5.298
 9284SOL    HW128751   3.005   3.162   5.330
 9284SOL    HW228752   2.901   3.038   5.309
 9285SOL     OW28753   5.240   3.148   0.947
 9285SOL    HW128754   5.292   3.181   0.868
 9285SOL    HW228755   5.150   3.190   0.947
 9286SOL     OW28756   5.226   5.764   0.561
 9286SOL    HW128757   5.256   5.821   0.484
 9286SOL    HW228758   5.243   5.813   0.647
 9287SOL     OW28759   3.556   5.146   6.584
 9287SOL    HW128760   3.644   5.191   6.601
 9287SOL    HW228761   3.510   5.130   6.672
 9288SOL     OW28762   4.440   1.288   3.010
 9288SOL    HW128763   4.365   1.311   3.071
 9288SOL    HW228764   4.436   1.344   2.928
 9289SOL     OW28765   4.212   0.451   1.637
 9289SOL    HW128766   4.239   0.356   1.620
 9289SOL    HW228767   4.272   0.490   1.707
 9290SOL     OW28768   5.548   0.522   3.313
 9290SOL    HW128769   5.625   0.467   3.346
 9290SOL    HW228770   5.580   0.616   3.296
 9291SOL     OW28771   1.161   5.013   5.878
 9291SOL    HW128772   1.071   4.967   5.880
 9291SOL    HW228773   1.185   5.041   5.971
 9292SOL     OW28774   2.132   2.539   5.907
 9292SOL    HW128775   2.130   2.589   5.993
 9292SOL    HW228776   2.184   2.591   5.839
 9293SOL     OW28777   6.041   3.150   6.813
 9293SOL    HW128778   6.138   3.160   6.838
 9293SOL    HW228779   5.991   3.111   6.890
 9294SOL     OW28780   4.986   0.454   6.128
 9294SOL    HW128781   4.889   0.475   6.112
 9294SOL    HW228782   5.036   0.461   6.042
 9295SOL     OW28783   5.367   0.770   5.036
 9295SOL    HW128784   5.385   0.869   5.041
 9295SOL    HW228785   5.402   0.735   4.949
 9296SOL     OW28786   1.396   5.375   6.697
 9296SOL    HW128787   1.490   5.400   6.673
 9296SOL    HW228788   1.364   5.302   6.636
 9297SOL     OW28789   1.259   6.667   3.161
 9297SOL    HW128790   1.303   6.678   3.072
 9297SOL    HW228791   1.255   6.756   3.207
 9298SOL     OW28792   1.229   6.204   6.908
 9298SOL    HW128793   1.216   6.106   6.897
 9298SOL    HW228794   1.228   6.248   6.818
 9299SOL     OW28795   0.255   1.854   4.203
 9299SOL    HW128796   0.209   1.777   4.159
 9299SOL    HW228797   0.331   1.820   4.259
 9300SOL     OW28798   0.558   4.448   5.909
 9300SOL    HW128799   0.626   4.375   5.897
 9300SOL    HW228800   0.600   4.536   5.887
 9301SOL     OW28801   5.391   5.222   4.811
 9301SOL    HW128802   5.317   5.155   4.825
 9301SOL    HW228803   5.476   5.184   4.848
 9302SOL     OW28804   2.170   3.032   4.058
 9302SOL    HW128805   2.219   3.047   4.144
 9302SOL    HW228806   2.234   3.042   3.981
 9303SOL     OW28807   3.086   3.935   0.326
 9303SOL    HW128808   3.062   4.014   0.382
 9303SOL    HW228809   3.042   3.943   0.237
 9304SOL     OW28810   4.063   4.431   1.657
 9304SOL    HW128811   4.042   4.333   1.656
 9304SOL    HW228812   4.135   4.450   1.590
 9305SOL     OW28813   3.546   1.553   0.937
 9305SOL    HW128814   3.577   1.621   1.003
 9305SOL    HW228815   3.515   1.600   0.854
 9306SOL     OW28816   1.273   3.841   5.446
 9306SOL    HW128817   1.228   3.755   5.467
 9306SOL    HW228818   1.372   3.831   5.457
 9307SOL     OW28819   0.997   4.245   1.054
 9307SOL    HW128820   1.059   4.318   1.082
 9307SOL    HW228821   1.050   4.161   1.037
 9308SOL     OW28822   1.475   3.705   0.767
 9308SOL    HW128823   1.552   3.762   0.793
 9308SOL    HW228824   1.471   3.699   0.667
 9309SOL     OW28825   3.612   5.229   6.185
 9309SOL    HW128826   3.546   5.154   6.179
 9309SOL    HW228827   3.688   5.212   6.122
 9310SOL     OW28828   5.737   5.778   5.630
 9310SOL    HW128829   5.770   5.798   5.537
 9310SOL    HW228830   5.688   5.857   5.665
 9311SOL     OW28831   4.987   4.902   1.151
 9311SOL    HW128832   4.898   4.946   1.151
 9311SOL    HW228833   4.981   4.815   1.102
 9312SOL     OW28834   1.125   3.308   1.524
 9312SOL    HW128835   1.184   3.380   1.489
 9312SOL    HW228836   1.113   3.318   1.623
 9313SOL     OW28837   6.905   0.344   1.544
 9313SOL    HW128838   6.874   0.250   1.529
 9313SOL    HW228839   6.917   0.389   1.455
 9314SOL     OW28840   6.250   4.131   6.880
 9314SOL    HW128841   6.241   4.140   6.781
 9314SOL    HW228842   6.327   4.186   6.911
 9315SOL     OW28843   6.899   0.008   5.280
 9315SOL    HW128844   6.821   0.049   5.328
 9315SOL    HW228845   6.878   7.022   5.183
 9316SOL     OW28846   5.582   6.248   5.794
 9316SOL    HW128847   5.539   6.210   5.875
 9316SOL    HW228848   5.529   6.326   5.761
 9317SOL     OW28849   4.392   5.733   3.935
 9317SOL    HW128850   4.455   5.786   3.878
 9317SOL    HW228851   4.314   5.789   3.960
 9318SOL     OW28852   6.233   1.118   6.398
 9318SOL    HW128853   6.331   1.107   6.381
 9318SOL    HW228854   6.182   1.049   6.346
 9319SOL     OW28855   2.420   3.353   0.852
 9319SOL    HW128856   2.468   3.438   0.872
 9319SOL    HW228857   2.353   3.335   0.924
 9320SOL     OW28858   3.629   0.666   5.156
 9320SOL    HW128859   3.686   0.738   5.118
 9320SOL    HW228860   3.642   0.662   5.256
 9321SOL     OW28861   1.134   0.255   5.213
 9321SOL    HW128862   1.151   0.191   5.288
 9321SOL    HW228863   1.190   0.230   5.134
 9322SOL     OW28864   0.009   3.705   6.482
 9322SOL    HW128865   0.090   3.763   6.467
 9322SOL    HW228866   6.970   3.751   6.545
 9323SOL     OW28867   0.945   1.314   4.985
 9323SOL    HW128868   0.930   1.272   5.075
 9323SOL    HW228869   1.042   1.314   4.964
 9324SOL     OW28870   1.347   4.370   2.184
 9324SOL    HW128871   1.402   4.437   2.133
 9324SOL    HW228872   1.275   4.335   2.125
 9325SOL     OW28873   6.281   0.179   6.860
 9325SOL    HW128874   6.322   0.263   6.895
 9325SOL    HW228875   6.221   0.200   6.783
 9326SOL     OW28876   2.756   4.570   0.370
 9326SOL    HW128877   2.797   4.481   0.352
 9326SOL    HW228878   2.817   4.642   0.338
 9327SOL     OW28879   4.725   0.406   2.436
 9327SOL    HW128880   4.663   0.361   2.501
 9327SOL    HW228881   4.820   0.383   2.459
 9328SOL     OW28882   2.280   0.931   4.346
 9328SOL    HW128883   2.224   0.867   4.399
 9328SOL    HW228884   2.246   0.937   4.253
 9329SOL     OW28885   5.890   3.903   1.131
 9329SOL    HW128886   5.980   3.944   1.146
 9329SOL    HW228887   5.897   3.833   1.059
 9330SOL     OW28888   6.748   0.339   5.157
 9330SOL    HW128889   6.757   0.421   5.213
 9330SOL    HW228890   6.655   0.334   5.120
 9331SOL     OW28891   2.663   1.010   6.340
 9331SOL    HW128892   2.643   1.045   6.431
 9331SOL    HW228893   2.578   1.006   6.287
 9332SOL     OW28894   3.173   4.555   0.308
 9332SOL    HW128895   3.078   4.524   0.297
 9332SOL    HW228896   3.186   4.641   0.259
 9333SOL     OW28897   3.932   4.977   6.537
 9333SOL    HW128898   3.974   5.061   6.572
 9333SOL    HW228899   4.003   4.910   6.518
 9334SOL     OW28900   4.686   6.616   4.556
 9334SOL    HW128901   4.766   6.675   4.557
 9334SOL    HW228902   4.682   6.567   4.469
 9335SOL     OW28903   1.209   1.130   6.574
 9335SOL    HW128904   1.188   1.183   6.492
 9335SOL    HW228905   1.178   1.180   6.655
 9336SOL     OW28906   3.835   0.579   4.816
 9336SOL    HW128907   3.735   0.574   4.810
 9336SOL    HW228908   3.865   0.672   4.796
 9337SOL     OW28909   4.542   0.866   4.764
 9337SOL    HW128910   4.495   0.903   4.684
 9337SOL    HW228911   4.484   0.796   4.807
 9338SOL     OW28912   6.087   6.847   1.238
 9338SOL    HW128913   6.082   6.770   1.175
 9338SOL    HW228914   6.182   6.859   1.268
 9339SOL     OW28915   6.014   6.596   0.157
 9339SOL    HW128916   6.063   6.615   0.071
 9339SOL    HW228917   6.034   6.668   0.223
 9340SOL     OW28918   4.167   4.763   3.318
 9340SOL    HW128919   4.200   4.780   3.411
 9340SOL    HW228920   4.069   4.784   3.314
 9341SOL     OW28921   5.772   5.069   1.394
 9341SOL    HW128922   5.853   5.072   1.452
 9341SOL    HW228923   5.799   5.053   1.299
 9342SOL     OW28924   3.118   6.811   4.386
 9342SOL    HW128925   3.144   6.907   4.372
 9342SOL    HW228926   3.030   6.806   4.433
 9343SOL     OW28927   4.758   4.340   2.023
 9343SOL    HW128928   4.803   4.421   1.984
 9343SOL    HW228929   4.659   4.348   2.011
 9344SOL     OW28930   5.665   6.436   1.708
 9344SOL    HW128931   5.588   6.434   1.644
 9344SOL    HW228932   5.750   6.453   1.657
 9345SOL     OW28933   6.582   5.174   1.100
 9345SOL    HW128934   6.584   5.247   1.031
 9345SOL    HW228935   6.601   5.086   1.055
 9346SOL     OW28936   4.791   0.974   1.785
 9346SOL    HW128937   4.849   0.983   1.704
 9346SOL    HW228938   4.765   1.065   1.818
 9347SOL     OW28939   3.290   4.826   0.487
 9347SOL    HW128940   3.387   4.807   0.472
 9347SOL    HW228941   3.276   4.851   0.583
 9348SOL     OW28942   3.011   5.866   2.752
 9348SOL    HW128943   3.019   5.841   2.848
 9348SOL    HW228944   3.093   5.837   2.703
 9349SOL     OW28945   6.288   5.121   2.099
 9349SOL    HW128946   6.273   5.215   2.128
 9349SOL    HW228947   6.255   5.109   2.005
 9350SOL     OW28948   6.406   1.930   5.251
 9350SOL    HW128949   6.326   1.904   5.304
 9350SOL    HW228950   6.481   1.868   5.271
 9351SOL     OW28951   3.458   6.679   5.777
 9351SOL    HW128952   3.471   6.714   5.684
 9351SOL    HW228953   3.418   6.751   5.834
 9352SOL     OW28954   3.429   1.672   6.322
 9352SOL    HW128955   3.353   1.681   6.258
 9352SOL    HW228956   3.430   1.580   6.361
 9353SOL     OW28957   0.863   4.439   0.653
 9353SOL    HW128958   0.772   4.472   0.679
 9353SOL    HW228959   0.855   4.371   0.580
 9354SOL     OW28960   0.386   2.086   5.987
 9354SOL    HW128961   0.411   2.179   5.962
 9354SOL    HW228962   0.287   2.073   5.975
 9355SOL     OW28963   0.634   1.584   4.288
 9355SOL    HW128964   0.671   1.513   4.228
 9355SOL    HW228965   0.707   1.620   4.347
 9356SOL     OW28966   4.619   6.231   2.021
 9356SOL    HW128967   4.698   6.256   1.966
 9356SOL    HW228968   4.611   6.293   2.099
 9357SOL     OW28969   2.295   3.343   6.801
 9357SOL    HW128970   2.387   3.372   6.827
 9357SOL    HW228971   2.235   3.348   6.881
 9358SOL     OW28972   6.448   3.342   2.390
 9358SOL    HW128973   6.490   3.314   2.304
 9358SOL    HW228974   6.508   3.406   2.438
 9359SOL     OW28975   0.852   3.471   5.719
 9359SOL    HW128976   0.806   3.517   5.795
 9359SOL    HW228977   0.923   3.531   5.681
 9360SOL     OW28978   1.652   5.430   6.741
 9360SOL    HW128979   1.703   5.513   6.719
 9360SOL    HW228980   1.713   5.352   6.742
 9361SOL     OW28981   1.353   6.367   2.663
 9361SOL    HW128982   1.377   6.330   2.753
 9361SOL    HW228983   1.274   6.317   2.627
 9362SOL     OW28984   2.104   3.516   3.065
 9362SOL    HW128985   2.056   3.556   2.987
 9362SOL    HW228986   2.117   3.585   3.136
 9363SOL     OW28987   3.626   6.801   2.118
 9363SOL    HW128988   3.561   6.808   2.043
 9363SOL    HW228989   3.644   6.704   2.137
 9364SOL     OW28990   4.075   3.043   6.313
 9364SOL    HW128991   4.072   3.007   6.407
 9364SOL    HW228992   4.159   3.012   6.268
 9365SOL     OW28993   2.457   2.049   4.562
 9365SOL    HW128994   2.388   2.115   4.590
 9365SOL    HW228995   2.422   1.992   4.488
 9366SOL     OW28996   3.373   6.309   6.071
 9366SOL    HW128997   3.398   6.406   6.060
 9366SOL    HW228998   3.332   6.275   5.987
 9367SOL     OW28999   0.255   6.394   2.369
 9367SOL    HW129000   0.337   6.452   2.373
 9367SOL    HW229001   0.174   6.452   2.367
 9368SOL     OW29002   2.893   1.258   2.907
 9368SOL    HW129003   2.854   1.311   2.982
 9368SOL    HW229004   2.825   1.250   2.834
 9369SOL     OW29005   6.184   6.405   4.995
 9369SOL    HW129006   6.114   6.351   4.948
 9369SOL    HW229007   6.146   6.494   5.019
 9370SOL     OW29008   5.018   0.641   3.187
 9370SOL    HW129009   4.970   0.625   3.101
 9370SOL    HW229010   4.951   0.657   3.260
 9371SOL     OW29011   2.652   5.391   0.167
 9371SOL    HW129012   2.665   5.312   0.107
 9371SOL    HW229013   2.563   5.384   0.212
 9372SOL     OW29014   5.808   6.610   2.493
 9372SOL    HW129015   5.789   6.707   2.474
 9372SOL    HW229016   5.833   6.564   2.408
 9373SOL     OW29017   4.905   2.321   3.090
 9373SOL    HW129018   4.842   2.319   3.168
 9373SOL    HW229019   4.994   2.357   3.119
 9374SOL     OW29020   0.644   3.743   0.243
 9374SOL    HW129021   0.728   3.722   0.292
 9374SOL    HW229022   0.654   3.719   0.147
 9375SOL     OW29023   0.477   1.285   2.289
 9375SOL    HW129024   0.426   1.199   2.286
 9375SOL    HW229025   0.510   1.300   2.382
 9376SOL     OW29026   2.602   4.245   1.456
 9376SOL    HW129027   2.597   4.344   1.470
 9376SOL    HW229028   2.516   4.211   1.420
 9377SOL     OW29029   2.440   5.358   4.356
 9377SOL    HW129030   2.364   5.314   4.404
 9377SOL    HW229031   2.524   5.347   4.411
 9378SOL     OW29032   1.795   1.382   4.244
 9378SOL    HW129033   1.794   1.417   4.151
 9378SOL    HW229034   1.702   1.364   4.275
 9379SOL     OW29035   4.358   6.334   5.727
 9379SOL    HW129036   4.291   6.264   5.751
 9379SOL    HW229037   4.390   6.319   5.633
 9380SOL     OW29038   5.357   5.492   4.775
 9380SOL    HW129039   5.345   5.393   4.770
 9380SOL    HW229040   5.292   5.537   4.713
 9381SOL     OW29041   3.560   2.694   6.159
 9381SOL    HW129042   3.517   2.780   6.131
 9381SOL    HW229043   3.524   2.619   6.104
 9382SOL     OW29044   3.745   0.707   3.693
 9382SOL    HW129045   3.737   0.699   3.792
 9382SOL    HW229046   3.674   0.769   3.658
 9383SOL     OW29047   0.319   5.461   4.629
 9383SOL    HW129048   0.335   5.440   4.725
 9383SOL    HW229049   0.261   5.542   4.621
 9384SOL     OW29050   4.036   0.387   2.349
 9384SOL    HW129051   4.007   0.330   2.427
 9384SOL    HW229052   3.955   0.412   2.296
 9385SOL     OW29053   4.785   1.280   3.470
 9385SOL    HW129054   4.708   1.289   3.533
 9385SOL    HW229055   4.868   1.258   3.521
 9386SOL     OW29056   1.756   6.055   5.208
 9386SOL    HW129057   1.812   5.979   5.176
 9386SOL    HW229058   1.668   6.020   5.241
 9387SOL     OW29059   2.725   1.838   6.557
 9387SOL    HW129060   2.719   1.777   6.478
 9387SOL    HW229061   2.803   1.901   6.545
 9388SOL     OW29062   3.187   5.802   2.539
 9388SOL    HW129063   3.253   5.824   2.610
 9388SOL    HW229064   3.215   5.846   2.453
 9389SOL     OW29065   2.102   6.821   3.479
 9389SOL    HW129066   2.114   6.887   3.405
 9389SOL    HW229067   2.107   6.869   3.567
 9390SOL     OW29068   5.186   5.043   6.010
 9390SOL    HW129069   5.255   5.104   5.971
 9390SOL    HW229070   5.204   4.949   5.981
 9391SOL     OW29071   2.148   1.774   5.087
 9391SOL    HW129072   2.207   1.696   5.066
 9391SOL    HW229073   2.092   1.753   5.167
 9392SOL     OW29074   5.898   6.233   5.004
 9392SOL    HW129075   5.814   6.183   4.982
 9392SOL    HW229076   5.875   6.316   5.055
 9393SOL     OW29077   3.200   6.138   6.690
 9393SOL    HW129078   3.107   6.170   6.679
 9393SOL    HW229079   3.264   6.215   6.683
 9394SOL     OW29080   6.958   0.913   1.699
 9394SOL    HW129081   0.025   0.954   1.714
 9394SOL    HW229082   6.969   0.822   1.659
 9395SOL     OW29083   2.527   1.666   1.330
 9395SOL    HW129084   2.548   1.724   1.251
 9395SOL    HW229085   2.610   1.618   1.359
 9396SOL     OW29086   2.307   4.168   4.150
 9396SOL    HW129087   2.283   4.073   4.132
 9396SOL    HW229088   2.305   4.185   4.248
 9397SOL     OW29089   4.896   0.307   6.340
 9397SOL    HW129090   4.953   0.225   6.331
 9397SOL    HW229091   4.930   0.378   6.277
 9398SOL     OW29092   6.999   1.164   4.920
 9398SOL    HW129093   6.980   1.246   4.973
 9398SOL    HW229094   0.007   1.189   4.828
 9399SOL     OW29095   0.988   2.333   5.864
 9399SOL    HW129096   0.944   2.421   5.849
 9399SOL    HW229097   1.057   2.318   5.793
 9400SOL     OW29098   4.493   0.755   1.977
 9400SOL    HW129099   4.584   0.771   2.014
 9400SOL    HW229100   4.474   0.823   1.906
 9401SOL     OW29101   6.577   0.812   3.934
 9401SOL    HW129102   6.605   0.804   3.838
 9401SOL    HW229103   6.646   0.769   3.992
 9402SOL     OW29104   1.497   5.213   2.702
 9402SOL    HW129105   1.415   5.195   2.648
 9402SOL    HW229106   1.521   5.310   2.694
 9403SOL     OW29107   6.690   1.302   2.859
 9403SOL    HW129108   6.621   1.305   2.786
 9403SOL    HW229109   6.722   1.208   2.871
 9404SOL     OW29110   1.137   3.223   0.433
 9404SOL    HW129111   1.180   3.142   0.471
 9404SOL    HW229112   1.040   3.224   0.457
 9405SOL     OW29113   2.530   4.462   3.828
 9405SOL    HW129114   2.533   4.472   3.728
 9405SOL    HW229115   2.603   4.517   3.869
 9406SOL     OW29116   6.721   2.740   5.873
 9406SOL    HW129117   6.746   2.832   5.841
 9406SOL    HW229118   6.621   2.730   5.869
 9407SOL     OW29119   3.103   4.950   3.585
 9407SOL    HW129120   3.200   4.972   3.593
 9407SOL    HW229121   3.078   4.885   3.656
 9408SOL     OW29122   6.567   2.931   6.061
 9408SOL    HW129123   6.499   2.975   6.002
 9408SOL    HW229124   6.624   3.001   6.105
 9409SOL     OW29125   5.869   5.840   0.326
 9409SOL    HW129126   5.900   5.929   0.290
 9409SOL    HW229127   5.942   5.799   0.380
 9410SOL     OW29128   2.513   0.276   1.529
 9410SOL    HW129129   2.476   0.287   1.436
 9410SOL    HW229130   2.588   0.341   1.542
 9411SOL     OW29131   3.581   3.246   2.305
 9411SOL    HW129132   3.525   3.305   2.247
 9411SOL    HW229133   3.643   3.192   2.248
 9412SOL     OW29134   0.420   1.316   2.792
 9412SOL    HW129135   0.371   1.255   2.731
 9412SOL    HW229136   0.486   1.263   2.846
 9413SOL     OW29137   3.796   5.695   3.668
 9413SOL    HW129138   3.892   5.709   3.693
 9413SOL    HW229139   3.792   5.642   3.583
 9414SOL     OW29140   2.909   1.007   3.011
 9414SOL    HW129141   2.923   1.093   2.962
 9414SOL    HW229142   2.980   0.997   3.081
 9415SOL     OW29143   2.423   7.009   2.073
 9415SOL    HW129144   2.367   7.001   1.991
 9415SOL    HW229145   2.469   6.922   2.092
 9416SOL     OW29146   6.940   2.232   0.477
 9416SOL    HW129147   6.993   2.164   0.528
 9416SOL    HW229148   6.957   2.221   0.379
 9417SOL     OW29149   4.533   0.584   0.648
 9417SOL    HW129150   4.544   0.592   0.747
 9417SOL    HW229151   4.615   0.542   0.609
 9418SOL     OW29152   3.590   0.481   1.250
 9418SOL    HW129153   3.640   0.425   1.316
 9418SOL    HW229154   3.494   0.455   1.250
 9419SOL     OW29155   2.767   4.606   5.673
 9419SOL    HW129156   2.684   4.558   5.644
 9419SOL    HW229157   2.769   4.611   5.772
 9420SOL     OW29158   5.816   4.236   5.661
 9420SOL    HW129159   5.805   4.288   5.745
 9420SOL    HW229160   5.881   4.161   5.675
 9421SOL     OW29161   2.454   6.394   4.401
 9421SOL    HW129162   2.489   6.411   4.309
 9421SOL    HW229163   2.461   6.296   4.421
 9422SOL     OW29164   3.198   5.661   2.940
 9422SOL    HW129165   3.221   5.715   3.020
 9422SOL    HW229166   3.158   5.574   2.969
 9423SOL     OW29167   2.863   6.412   3.795
 9423SOL    HW129168   2.765   6.430   3.791
 9423SOL    HW229169   2.900   6.447   3.881
 9424SOL     OW29170   5.086   2.388   5.021
 9424SOL    HW129171   5.026   2.463   4.994
 9424SOL    HW229172   5.074   2.367   5.118
 9425SOL     OW29173   5.866   3.727   0.951
 9425SOL    HW129174   5.878   3.636   0.911
 9425SOL    HW229175   5.887   3.797   0.883
 9426SOL     OW29176   3.901   1.693   6.210
 9426SOL    HW129177   3.835   1.667   6.279
 9426SOL    HW229178   3.904   1.623   6.138
 9427SOL     OW29179   2.347   5.362   2.913
 9427SOL    HW129180   2.329   5.410   2.827
 9427SOL    HW229181   2.371   5.429   2.984
 9428SOL     OW29182   6.893   1.095   1.266
 9428SOL    HW129183   6.991   1.073   1.262
 9428SOL    HW229184   6.867   1.113   1.361
 9429SOL     OW29185   2.180   3.852   2.919
 9429SOL    HW129186   2.112   3.898   2.861
 9429SOL    HW229187   2.271   3.870   2.882
 9430SOL     OW29188   0.199   3.641   4.418
 9430SOL    HW129189   0.115   3.649   4.471
 9430SOL    HW229190   0.278   3.652   4.477
 9431SOL     OW29191   6.616   4.087   0.733
 9431SOL    HW129192   6.703   4.077   0.685
 9431SOL    HW229193   6.632   4.097   0.831
 9432SOL     OW29194   5.426   0.136   3.503
 9432SOL    HW129195   5.352   0.082   3.543
 9432SOL    HW229196   5.497   0.074   3.470
 9433SOL     OW29197   3.173   6.221   2.959
 9433SOL    HW129198   3.131   6.163   3.029
 9433SOL    HW229199   3.272   6.224   2.973
 9434SOL     OW29200   5.269   5.889   2.639
 9434SOL    HW129201   5.205   5.871   2.564
 9434SOL    HW229202   5.358   5.848   2.617
 9435SOL     OW29203   0.128   2.823   4.115
 9435SOL    HW129204   0.209   2.882   4.117
 9435SOL    HW229205   0.088   2.819   4.206
 9436SOL     OW29206   1.748   2.907   1.362
 9436SOL    HW129207   1.652   2.921   1.338
 9436SOL    HW229208   1.772   2.811   1.350
 9437SOL     OW29209   1.287   5.657   3.068
 9437SOL    HW129210   1.325   5.681   3.157
 9437SOL    HW229211   1.192   5.687   3.064
 9438SOL     OW29212   0.509   0.245   1.470
 9438SOL    HW129213   0.589   0.280   1.519
 9438SOL    HW229214   0.528   0.244   1.372
 9439SOL     OW29215   0.096   3.287   0.750
 9439SOL    HW129216   0.075   3.383   0.768
 9439SOL    HW229217   0.173   3.258   0.807
 9440SOL     OW29218   3.920   4.888   3.296
 9440SOL    HW129219   3.851   4.916   3.229
 9440SOL    HW229220   3.878   4.885   3.387
 9441SOL     OW29221   6.151   4.339   5.821
 9441SOL    HW129222   6.117   4.255   5.864
 9441SOL    HW229223   6.241   4.322   5.780
 9442SOL     OW29224   4.446   3.541   1.285
 9442SOL    HW129225   4.526   3.590   1.249
 9442SOL    HW229226   4.470   3.496   1.371
 9443SOL     OW29227   2.697   5.180   0.883
 9443SOL    HW129228   2.631   5.214   0.815
 9443SOL    HW229229   2.681   5.225   0.971
 9444SOL     OW29230   1.048   3.399   1.040
 9444SOL    HW129231   1.128   3.340   1.032
 9444SOL    HW229232   1.057   3.456   1.121
 9445SOL     OW29233   5.878   2.876   2.802
 9445SOL    HW129234   5.836   2.814   2.869
 9445SOL    HW229235   5.815   2.952   2.784
 9446SOL     OW29236   6.386   5.640   4.103
 9446SOL    HW129237   6.365   5.732   4.136
 9446SOL    HW229238   6.416   5.645   4.008
 9447SOL     OW29239   6.031   4.852   3.282
 9447SOL    HW129240   5.999   4.769   3.328
 9447SOL    HW229241   5.957   4.919   3.278
 9448SOL     OW29242   0.111   6.984   6.719
 9448SOL    HW129243   0.020   7.009   6.684
 9448SOL    HW229244   0.101   6.924   6.798
 9449SOL     OW29245   6.075   6.852   0.050
 9449SOL    HW129246   6.058   6.815   6.981
 9449SOL    HW229247   5.990   6.889   0.087
 9450SOL     OW29248   1.852   5.478   4.352
 9450SOL    HW129249   1.848   5.420   4.433
 9450SOL    HW229250   1.937   5.461   4.303
 9451SOL     OW29251   4.379   0.320   6.179
 9451SOL    HW129252   4.472   0.357   6.186
 9451SOL    HW229253   4.375   0.230   6.221
 9452SOL     OW29254   1.610   4.070   0.474
 9452SOL    HW129255   1.657   4.015   0.404
 9452SOL    HW229256   1.623   4.028   0.564
 9453SOL     OW29257   2.459   4.449   3.303
 9453SOL    HW129258   2.361   4.468   3.304
 9453SOL    HW229259   2.474   4.354   3.332
 9454SOL     OW29260   3.370   3.954   6.563
 9454SOL    HW129261   3.469   3.943   6.568
 9454SOL    HW229262   3.341   3.945   6.468
 9455SOL     OW29263   2.464   1.328   3.650
 9455SOL    HW129264   2.432   1.256   3.588
 9455SOL    HW229265   2.519   1.394   3.599
 9456SOL     OW29266   0.058   3.957   1.036
 9456SOL    HW129267   0.095   3.886   0.975
 9456SOL    HW229268   0.022   4.032   0.981
 9457SOL     OW29269   1.139   3.652   4.788
 9457SOL    HW129270   1.222   3.605   4.820
 9457SOL    HW229271   1.067   3.643   4.857
 9458SOL     OW29272   1.041   3.034   6.998
 9458SOL    HW129273   0.997   3.023   0.064
 9458SOL    HW229274   1.045   3.131   6.975
 9459SOL     OW29275   5.838   4.475   3.983
 9459SOL    HW129276   5.890   4.511   3.906
 9459SOL    HW229277   5.836   4.542   4.057
 9460SOL     OW29278   1.431   3.656   4.182
 9460SOL    HW129279   1.420   3.753   4.163
 9460SOL    HW229280   1.432   3.642   4.281
 9461SOL     OW29281   0.222   1.773   1.702
 9461SOL    HW129282   0.132   1.768   1.659
 9461SOL    HW229283   0.219   1.729   1.792
 9462SOL     OW29284   2.141   3.437   3.351
 9462SOL    HW129285   2.220   3.435   3.290
 9462SOL    HW229286   2.060   3.404   3.302
 9463SOL     OW29287   6.466   0.407   1.343
 9463SOL    HW129288   6.557   0.425   1.381
 9463SOL    HW229289   6.452   0.308   1.333
 9464SOL     OW29290   6.092   0.629   0.853
 9464SOL    HW129291   6.144   0.608   0.770
 9464SOL    HW229292   6.134   0.707   0.900
 9465SOL     OW29293   0.906   4.545   2.083
 9465SOL    HW129294   0.851   4.488   2.023
 9465SOL    HW229295   1.003   4.532   2.063
 9466SOL     OW29296   3.918   4.576   5.635
 9466SOL    HW129297   3.950   4.484   5.658
 9466SOL    HW229298   3.996   4.632   5.606
 9467SOL     OW29299   1.486   2.478   1.844
 9467SOL    HW129300   1.547   2.416   1.894
 9467SOL    HW229301   1.441   2.540   1.909
 9468SOL     OW29302   5.892   3.888   6.757
 9468SOL    HW129303   5.981   3.882   6.804
 9468SOL    HW229304   5.851   3.797   6.753
 9469SOL     OW29305   6.300   5.213   1.664
 9469SOL    HW129306   6.264   5.293   1.714
 9469SOL    HW229307   6.376   5.173   1.716
 9470SOL     OW29308   4.873   3.357   5.917
 9470SOL    HW129309   4.864   3.367   5.817
 9470SOL    HW229310   4.966   3.327   5.939
 9471SOL     OW29311   6.614   2.012   4.412
 9471SOL    HW129312   6.534   2.054   4.370
 9471SOL    HW229313   6.666   1.962   4.343
 9472SOL     OW29314   6.221   3.016   5.359
 9472SOL    HW129315   6.249   3.082   5.429
 9472SOL    HW229316   6.196   3.065   5.275
 9473SOL     OW29317   2.721   5.050   6.800
 9473SOL    HW129318   2.692   4.955   6.789
 9473SOL    HW229319   2.775   5.078   6.721
 9474SOL     OW29320   6.951   3.469   6.796
 9474SOL    HW129321   6.985   3.377   6.813
 9474SOL    HW229322   6.860   3.464   6.753
 9475SOL     OW29323   3.820   3.350   6.857
 9475SOL    HW129324   3.823   3.254   6.885
 9475SOL    HW229325   3.879   3.364   6.778
 9476SOL     OW29326   4.013   3.871   4.661
 9476SOL    HW129327   4.014   3.774   4.686
 9476SOL    HW229328   4.044   3.881   4.567
 9477SOL     OW29329   0.717   2.788   0.805
 9477SOL    HW129330   0.644   2.857   0.808
 9477SOL    HW229331   0.698   2.724   0.730
 9478SOL     OW29332   4.870   3.013   0.587
 9478SOL    HW129333   4.883   2.969   0.498
 9478SOL    HW229334   4.805   2.960   0.641
 9479SOL     OW29335   4.188   6.151   6.817
 9479SOL    HW129336   4.162   6.091   6.741
 9479SOL    HW229337   4.105   6.188   6.859
 9480SOL     OW29338   5.777   4.773   0.834
 9480SOL    HW129339   5.845   4.726   0.891
 9480SOL    HW229340   5.820   4.802   0.748
 9481SOL     OW29341   5.267   3.077   2.419
 9481SOL    HW129342   5.168   3.090   2.426
 9481SOL    HW229343   5.311   3.163   2.394
 9482SOL     OW29344   0.323   1.062   2.940
 9482SOL    HW129345   0.277   0.988   2.989
 9482SOL    HW229346   0.274   1.082   2.856
 9483SOL     OW29347   2.179   0.801   0.902
 9483SOL    HW129348   2.104   0.760   0.953
 9483SOL    HW229349   2.147   0.880   0.851
 9484SOL     OW29350   4.581   0.374   4.122
 9484SOL    HW129351   4.619   0.361   4.214
 9484SOL    HW229352   4.619   0.304   4.061
 9485SOL     OW29353   0.629   1.155   0.212
 9485SOL    HW129354   0.573   1.232   0.180
 9485SOL    HW229355   0.641   1.162   0.311
 9486SOL     OW29356   4.083   6.678   0.983
 9486SOL    HW129357   4.011   6.729   1.030
 9486SOL    HW229358   4.113   6.601   1.040
 9487SOL     OW29359   3.597   3.684   4.357
 9487SOL    HW129360   3.687   3.660   4.393
 9487SOL    HW229361   3.595   3.782   4.337
 9488SOL     OW29362   2.988   6.763   0.975
 9488SOL    HW129363   3.049   6.684   0.983
 9488SOL    HW229364   3.043   6.845   0.957
 9489SOL     OW29365   4.609   4.586   0.821
 9489SOL    HW129366   4.691   4.529   0.810
 9489SOL    HW229367   4.617   4.638   0.906
 9490SOL     OW29368   5.969   4.709   1.942
 9490SOL    HW129369   6.050   4.718   2.000
 9490SOL    HW229370   5.945   4.613   1.933
 9491SOL     OW29371   5.925   4.846   3.928
 9491SOL    HW129372   5.829   4.826   3.948
 9491SOL    HW229373   5.939   4.846   3.829
 9492SOL     OW29374   3.669   2.900   4.350
 9492SOL    HW129375   3.571   2.888   4.334
 9492SOL    HW229376   3.703   2.825   4.407
 9493SOL     OW29377   3.001   5.525   4.414
 9493SOL    HW129378   3.094   5.559   4.430
 9493SOL    HW229379   2.990   5.504   4.317
 9494SOL     OW29380   5.050   2.967   2.678
 9494SOL    HW129381   5.026   3.021   2.598
 9494SOL    HW229382   5.142   2.991   2.709
 9495SOL     OW29383   6.375   1.531   3.722
 9495SOL    HW129384   6.277   1.550   3.733
 9495SOL    HW229385   6.416   1.599   3.661
 9496SOL     OW29386   5.826   3.537   1.427
 9496SOL    HW129387   5.874   3.546   1.514
 9496SOL    HW229388   5.852   3.611   1.366
 9497SOL     OW29389   5.504   6.731   5.700
 9497SOL    HW129390   5.474   6.822   5.730
 9497SOL    HW229391   5.535   6.736   5.605
 9498SOL     OW29392   4.448   6.754   4.613
 9498SOL    HW129393   4.478   6.831   4.670
 9498SOL    HW229394   4.527   6.698   4.588
 9499SOL     OW29395   2.211   4.730   6.265
 9499SOL    HW129396   2.193   4.750   6.169
 9499SOL    HW229397   2.196   4.812   6.320
 9500SOL     OW29398   5.156   0.046   1.119
 9500SOL    HW129399   5.084   7.012   1.159
 9500SOL    HW229400   5.165   0.025   1.021
 9501SOL     OW29401   2.523   1.344   4.875
 9501SOL    HW129402   2.438   1.361   4.925
 9501SOL    HW229403   2.583   1.423   4.884
 9502SOL     OW29404   5.440   3.181   4.903
 9502SOL    HW129405   5.422   3.144   4.812
 9502SOL    HW229406   5.488   3.268   4.895
 9503SOL     OW29407   0.588   1.935   1.391
 9503SOL    HW129408   0.527   1.916   1.468
 9503SOL    HW229409   0.662   1.995   1.420
 9504SOL     OW29410   0.450   2.303   0.346
 9504SOL    HW129411   0.374   2.237   0.342
 9504SOL    HW229412   0.537   2.254   0.339
 9505SOL     OW29413   4.691   4.740   4.212
 9505SOL    HW129414   4.597   4.763   4.237
 9505SOL    HW229415   4.724   4.806   4.144
 9506SOL     OW29416   1.086   2.147   6.331
 9506SOL    HW129417   1.110   2.156   6.234
 9506SOL    HW229418   0.991   2.117   6.339
 9507SOL     OW29419   0.939   2.058   3.074
 9507SOL    HW129420   0.861   2.052   3.011
 9507SOL    HW229421   1.021   2.024   3.028
 9508SOL     OW29422   6.325   2.001   1.266
 9508SOL    HW129423   6.342   2.063   1.342
 9508SOL    HW229424   6.267   2.047   1.198
 9509SOL     OW29425   0.931   0.976   4.151
 9509SOL    HW129426   0.909   0.956   4.247
 9509SOL    HW229427   0.993   0.905   4.116
 9510SOL     OW29428   1.261   3.758   3.812
 9510SOL    HW129429   1.285   3.677   3.866
 9510SOL    HW229430   1.161   3.765   3.806
 9511SOL     OW29431   1.608   0.566   0.785
 9511SOL    HW129432   1.542   0.505   0.739
 9511SOL    HW229433   1.698   0.523   0.786
 9512SOL     OW29434   6.019   1.325   1.446
 9512SOL    HW129435   6.018   1.351   1.542
 9512SOL    HW229436   6.040   1.227   1.438
 9513SOL     OW29437   2.169   3.702   6.488
 9513SOL    HW129438   2.109   3.623   6.473
 9513SOL    HW229439   2.262   3.678   6.463
 9514SOL     OW29440   2.117   5.454   5.818
 9514SOL    HW129441   2.149   5.368   5.857
 9514SOL    HW229442   2.069   5.507   5.888
 9515SOL     OW29443   1.831   5.730   0.729
 9515SOL    HW129444   1.839   5.782   0.814
 9515SOL    HW229445   1.887   5.772   0.658
 9516SOL     OW29446   5.921   4.622   6.046
 9516SOL    HW129447   5.892   4.717   6.056
 9516SOL    HW229448   6.019   4.616   6.065
 9517SOL     OW29449   1.962   4.819   1.075
 9517SOL    HW129450   1.907   4.901   1.089
 9517SOL    HW229451   2.055   4.845   1.050
 9518SOL     OW29452   2.210   2.142   0.247
 9518SOL    HW129453   2.214   2.102   0.155
 9518SOL    HW229454   2.234   2.072   0.314
 9519SOL     OW29455   3.916   3.688   4.998
 9519SOL    HW129456   3.949   3.765   5.052
 9519SOL    HW229457   3.986   3.616   4.997
 9520SOL     OW29458   1.648   2.020   3.652
 9520SOL    HW129459   1.740   2.012   3.614
 9520SOL    HW229460   1.581   2.001   3.580
 9521SOL     OW29461   4.712   5.686   1.613
 9521SOL    HW129462   4.738   5.621   1.542
 9521SOL    HW229463   4.694   5.638   1.698
 9522SOL     OW29464   2.585   5.873   1.104
 9522SOL    HW129465   2.573   5.948   1.168
 9522SOL    HW229466   2.659   5.814   1.135
 9523SOL     OW29467   2.568   4.629   4.994
 9523SOL    HW129468   2.539   4.538   5.024
 9523SOL    HW229469   2.666   4.640   5.009
 9524SOL     OW29470   3.205   2.896   1.410
 9524SOL    HW129471   3.191   2.797   1.408
 9524SOL    HW229472   3.142   2.937   1.476
 9525SOL     OW29473   2.429   3.040   5.557
 9525SOL    HW129474   2.388   3.008   5.642
 9525SOL    HW229475   2.370   3.015   5.480
 9526SOL     OW29476   5.316   5.044   1.423
 9526SOL    HW129477   5.395   5.038   1.483
 9526SOL    HW229478   5.343   5.089   1.337
 9527SOL     OW29479   1.050   0.299   3.302
 9527SOL    HW129480   1.131   0.261   3.257
 9527SOL    HW229481   1.077   0.368   3.369
 9528SOL     OW29482   0.121   1.343   0.375
 9528SOL    HW129483   0.119   1.343   0.475
 9528SOL    HW229484   0.029   1.326   0.339
 9529SOL     OW29485   6.194   3.200   5.677
 9529SOL    HW129486   6.252   3.225   5.600
 9529SOL    HW229487   6.195   3.274   5.744
 9530SOL     OW29488   1.856   3.763   2.092
 9530SOL    HW129489   1.814   3.734   2.005
 9530SOL    HW229490   1.912   3.689   2.128
 9531SOL     OW29491   4.762   5.107   2.706
 9531SOL    HW129492   4.778   5.200   2.673
 9531SOL    HW229493   4.849   5.068   2.738
 9532SOL     OW29494   6.786   6.768   2.216
 9532SOL    HW129495   6.806   6.773   2.314
 9532SOL    HW229496   6.861   6.808   2.164
 9533SOL     OW29497   6.824   0.110   6.143
 9533SOL    HW129498   6.796   0.020   6.174
 9533SOL    HW229499   6.913   0.104   6.098
 9534SOL     OW29500   6.960   3.655   5.184
 9534SOL    HW129501   6.939   3.671   5.280
 9534SOL    HW229502   6.875   3.638   5.134
 9535SOL     OW29503   2.549   1.473   5.875
 9535SOL    HW129504   2.592   1.403   5.932
 9535SOL    HW229505   2.451   1.457   5.870
 9536SOL     OW29506   2.696   4.281   5.286
 9536SOL    HW129507   2.792   4.254   5.293
 9536SOL    HW229508   2.688   4.379   5.303
 9537SOL     OW29509   2.966   6.646   3.030
 9537SOL    HW129510   2.945   6.640   2.933
 9537SOL    HW229511   3.046   6.588   3.050
 9538SOL     OW29512   6.304   2.301   3.707
 9538SOL    HW129513   6.373   2.291   3.636
 9538SOL    HW229514   6.275   2.396   3.712
 9539SOL     OW29515   3.086   3.735   5.221
 9539SOL    HW129516   3.061   3.656   5.166
 9539SOL    HW229517   3.174   3.771   5.190
 9540SOL     OW29518   6.073   4.261   4.540
 9540SOL    HW129519   5.998   4.325   4.559
 9540SOL    HW229520   6.051   4.206   4.460
 9541SOL     OW29521   3.511   0.947   5.637
 9541SOL    HW129522   3.603   0.964   5.603
 9541SOL    HW229523   3.444   0.990   5.577
 9542SOL     OW29524   5.635   4.225   4.487
 9542SOL    HW129525   5.629   4.223   4.387
 9542SOL    HW229526   5.573   4.157   4.526
 9543SOL     OW29527   3.455   1.174   5.156
 9543SOL    HW129528   3.486   1.148   5.065
 9543SOL    HW229529   3.359   1.146   5.168
 9544SOL     OW29530   0.086   1.235   3.829
 9544SOL    HW129531   0.041   1.202   3.746
 9544SOL    HW229532   0.019   1.244   3.903
 9545SOL     OW29533   6.230   5.436   3.805
 9545SOL    HW129534   6.243   5.381   3.888
 9545SOL    HW229535   6.317   5.479   3.780
 9546SOL     OW29536   3.011   2.470   5.681
 9546SOL    HW129537   2.987   2.393   5.622
 9546SOL    HW229538   2.942   2.542   5.671
 9547SOL     OW29539   2.370   6.654   4.514
 9547SOL    HW129540   2.387   6.561   4.482
 9547SOL    HW229541   2.351   6.653   4.612
 9548SOL     OW29542   5.832   6.222   6.194
 9548SOL    HW129543   5.733   6.225   6.212
 9548SOL    HW229544   5.869   6.315   6.200
 9549SOL     OW29545   2.867   3.246   1.150
 9549SOL    HW129546   2.840   3.327   1.098
 9549SOL    HW229547   2.861   3.266   1.248
 9550SOL     OW29548   0.152   1.668   0.898
 9550SOL    HW129549   0.223   1.711   0.843
 9550SOL    HW229550   0.126   1.728   0.973
 9551SOL     OW29551   6.053   1.451   4.058
 9551SOL    HW129552   6.054   1.510   4.139
 9551SOL    HW229553   5.970   1.468   4.005
 9552SOL     OW29554   1.034   6.576   2.846
 9552SOL    HW129555   1.134   6.576   2.846
 9552SOL    HW229556   1.001   6.527   2.765
 9553SOL     OW29557   6.067   3.969   7.020
 9553SOL    HW129558   6.106   3.966   0.089
 9553SOL    HW229559   6.108   4.044   6.969
 9554SOL     OW29560   2.764   0.470   1.509
 9554SOL    HW129561   2.858   0.438   1.516
 9554SOL    HW229562   2.761   0.555   1.457
 9555SOL     OW29563   1.175   0.631   2.887
 9555SOL    HW129564   1.164   0.720   2.845
 9555SOL    HW229565   1.203   0.564   2.818
 9556SOL     OW29566   1.777   2.209   1.199
 9556SOL    HW129567   1.736   2.247   1.116
 9556SOL    HW229568   1.802   2.113   1.183
 9557SOL     OW29569   0.108   0.303   2.775
 9557SOL    HW129570   0.105   0.401   2.792
 9557SOL    HW229571   0.022   0.261   2.805
 9558SOL     OW29572   6.540   6.228   4.569
 9558SOL    HW129573   6.627   6.180   4.550
 9558SOL    HW229574   6.533   6.309   4.511
 9559SOL     OW29575   0.820   4.252   0.856
 9559SOL    HW129576   0.859   4.313   0.788
 9559SOL    HW229577   0.879   4.250   0.937
 9560SOL     OW29578   1.176   1.724   3.288
 9560SOL    HW129579   1.181   1.631   3.324
 9560SOL    HW229580   1.091   1.735   3.236
 9561SOL     OW29581   1.112   6.186   0.342
 9561SOL    HW129582   1.205   6.222   0.352
 9561SOL    HW229583   1.047   6.255   0.374
 9562SOL     OW29584   3.290   0.262   5.458
 9562SOL    HW129585   3.225   0.305   5.520
 9562SOL    HW229586   3.383   0.293   5.479
 9563SOL     OW29587   6.183   0.088   0.645
 9563SOL    HW129588   6.281   0.066   0.647
 9563SOL    HW229589   6.139   0.048   0.725
 9564SOL     OW29590   3.079   0.317   6.951
 9564SOL    HW129591   3.027   0.258   7.012
 9564SOL    HW229592   3.176   0.293   6.956
 9565SOL     OW29593   4.181   6.005   4.966
 9565SOL    HW129594   4.128   6.067   5.025
 9565SOL    HW229595   4.278   6.022   4.980
 9566SOL     OW29596   2.455   4.862   6.594
 9566SOL    HW129597   2.382   4.805   6.556
 9566SOL    HW229598   2.522   4.882   6.522
 9567SOL     OW29599   5.822   4.549   0.058
 9567SOL    HW129600   5.893   4.482   0.081
 9567SOL    HW229601   5.748   4.504   0.008
 9568SOL     OW29602   4.452   2.819   6.786
 9568SOL    HW129603   4.438   2.887   6.858
 9568SOL    HW229604   4.432   2.728   6.822
 9569SOL     OW29605   0.076   0.580   2.949
 9569SOL    HW129606   0.059   0.663   3.001
 9569SOL    HW229607   0.157   0.533   2.986
 9570SOL     OW29608   0.721   2.740   2.566
 9570SOL    HW129609   0.644   2.677   2.559
 9570SOL    HW229610   0.710   2.797   2.647
 9571SOL     OW29611   2.213   3.602   6.819
 9571SOL    HW129612   2.260   3.666   6.758
 9571SOL    HW229613   2.245   3.509   6.801
 9572SOL     OW29614   1.746   5.878   1.337
 9572SOL    HW129615   1.782   5.869   1.429
 9572SOL    HW229616   1.790   5.810   1.277
 9573SOL     OW29617   1.074   1.310   6.732
 9573SOL    HW129618   0.986   1.269   6.754
 9573SOL    HW229619   1.111   1.356   6.812
 9574SOL     OW29620   3.575   3.052   3.985
 9574SOL    HW129621   3.523   3.022   4.065
 9574SOL    HW229622   3.624   3.137   4.007
 9575SOL     OW29623   5.966   1.633   1.072
 9575SOL    HW129624   6.031   1.695   1.029
 9575SOL    HW229625   5.884   1.626   1.014
 9576SOL     OW29626   2.914   0.563   2.697
 9576SOL    HW129627   2.965   0.636   2.743
 9576SOL    HW229628   2.816   0.579   2.708
 9577SOL     OW29629   1.080   0.482   4.205
 9577SOL    HW129630   1.069   0.433   4.119
 9577SOL    HW229631   1.156   0.547   4.197
 9578SOL     OW29632   0.190   3.939   3.513
 9578SOL    HW129633   0.275   3.981   3.545
 9578SOL    HW229634   0.151   3.882   3.585
 9579SOL     OW29635   2.082   5.633   2.486
 9579SOL    HW129636   2.095   5.729   2.510
 9579SOL    HW229637   2.144   5.577   2.541
 9580SOL     OW29638   4.351   3.068   1.010
 9580SOL    HW129639   4.432   3.020   0.975
 9580SOL    HW229640   4.379   3.150   1.060
 9581SOL     OW29641   1.222   5.477   6.102
 9581SOL    HW129642   1.312   5.447   6.133
 9581SOL    HW229643   1.159   5.399   6.103
 9582SOL     OW29644   4.634   4.673   4.678
 9582SOL    HW129645   4.662   4.717   4.593
 9582SOL    HW229646   4.535   4.681   4.689
 9583SOL     OW29647   3.199   4.414   1.093
 9583SOL    HW129648   3.113   4.430   1.142
 9583SOL    HW229649   3.181   4.414   0.995
 9584SOL     OW29650   6.596   6.424   0.268
 9584SOL    HW129651   6.595   6.458   0.362
 9584SOL    HW229652   6.532   6.348   0.259
 9585SOL     OW29653   6.132   0.400   3.469
 9585SOL    HW129654   6.096   0.492   3.453
 9585SOL    HW229655   6.223   0.392   3.429
 9586SOL     OW29656   5.654   3.981   2.207
 9586SOL    HW129657   5.633   3.934   2.122
 9586SOL    HW229658   5.740   3.945   2.245
 9587SOL     OW29659   6.115   0.492   2.491
 9587SOL    HW129660   6.077   0.425   2.427
 9587SOL    HW229661   6.198   0.532   2.452
 9588SOL     OW29662   0.603   1.673   2.331
 9588SOL    HW129663   0.531   1.739   2.351
 9588SOL    HW229664   0.579   1.620   2.250
 9589SOL     OW29665   2.759   5.416   6.337
 9589SOL    HW129666   2.837   5.385   6.282
 9589SOL    HW229667   2.774   5.390   6.433
 9590SOL     OW29668   0.171   4.617   2.157
 9590SOL    HW129669   0.172   4.706   2.112
 9590SOL    HW229670   0.264   4.581   2.160
 9591SOL     OW29671   2.669   6.060   0.470
 9591SOL    HW129672   2.597   6.110   0.421
 9591SOL    HW229673   2.756   6.109   0.462
 9592SOL     OW29674   3.739   4.525   1.642
 9592SOL    HW129675   3.833   4.532   1.674
 9592SOL    HW229676   3.681   4.589   1.691
 9593SOL     OW29677   6.248   0.993   4.827
 9593SOL    HW129678   6.260   1.088   4.855
 9593SOL    HW229679   6.238   0.988   4.728
 9594SOL     OW29680   1.560   5.857   3.705
 9594SOL    HW129681   1.631   5.804   3.752
 9594SOL    HW229682   1.471   5.830   3.739
 9595SOL     OW29683   2.025   4.400   4.965
 9595SOL    HW129684   2.121   4.426   4.954
 9595SOL    HW229685   1.988   4.368   4.878
 9596SOL     OW29686   0.141   5.883   0.252
 9596SOL    HW129687   0.195   5.812   0.297
 9596SOL    HW229688   0.108   5.850   0.164
 9597SOL     OW29689   0.376   4.473   0.567
 9597SOL    HW129690   0.363   4.540   0.493
 9597SOL    HW229691   0.451   4.503   0.626
 9598SOL     OW29692   0.487   3.836   5.238
 9598SOL    HW129693   0.431   3.908   5.279
 9598SOL    HW229694   0.436   3.790   5.165
 9599SOL     OW29695   3.011   0.704   5.310
 9599SOL    HW129696   3.101   0.734   5.341
 9599SOL    HW229697   2.941   0.738   5.372
 9600SOL     OW29698   1.858   6.934   6.663
 9600SOL    HW129699   1.773   6.908   6.709
 9600SOL    HW229700   1.850   6.917   6.565
 9601SOL     OW29701   6.243   4.421   0.068
 9601SOL    HW129702   6.317   4.446   0.131
 9601SOL    HW229703   6.275   4.348   0.007
 9602SOL     OW29704   6.301   5.150   6.745
 9602SOL    HW129705   6.263   5.058   6.742
 9602SOL    HW229706   6.345   5.171   6.658
 9603SOL     OW29707   3.154   0.525   4.878
 9603SOL    HW129708   3.094   0.561   4.949
 9603SOL    HW229709   3.217   0.458   4.919
 9604SOL     OW29710   5.182   0.343   0.697
 9604SOL    HW129711   5.245   0.267   0.686
 9604SOL    HW229712   5.217   0.406   0.766
 9605SOL     OW29713   0.679   5.082   5.299
 9605SOL    HW129714   0.629   5.137   5.231
 9605SOL    HW229715   0.614   5.042   5.363
 9606SOL     OW29716   1.447   6.184   5.065
 9606SOL    HW129717   1.522   6.239   5.027
 9606SOL    HW229718   1.479   6.090   5.078
 9607SOL     OW29719   1.109   2.104   2.123
 9607SOL    HW129720   1.110   2.031   2.191
 9607SOL    HW229721   1.139   2.067   2.034
 9608SOL     OW29722   6.640   6.256   2.359
 9608SOL    HW129723   6.638   6.348   2.319
 9608SOL    HW229724   6.712   6.251   2.428
 9609SOL     OW29725   1.383   3.579   5.439
 9609SOL    HW129726   1.380   3.605   5.342
 9609SOL    HW229727   1.450   3.636   5.486
 9610SOL     OW29728   1.466   3.955   4.594
 9610SOL    HW129729   1.462   3.936   4.692
 9610SOL    HW229730   1.383   3.918   4.550
 9611SOL     OW29731   0.234   6.492   0.515
 9611SOL    HW129732   0.230   6.587   0.485
 9611SOL    HW229733   0.143   6.452   0.513
 9612SOL     OW29734   6.177   3.209   1.429
 9612SOL    HW129735   6.133   3.220   1.340
 9612SOL    HW229736   6.108   3.198   1.500
 9613SOL     OW29737   4.081   6.031   3.719
 9613SOL    HW129738   3.992   6.018   3.674
 9613SOL    HW229739   4.080   6.117   3.770
 9614SOL     OW29740   3.660   3.198   1.363
 9614SOL    HW129741   3.621   3.238   1.445
 9614SOL    HW229742   3.589   3.187   1.293
 9615SOL     OW29743   0.989   6.897   2.457
 9615SOL    HW129744   1.052   6.857   2.391
 9615SOL    HW229745   0.983   6.996   2.442
 9616SOL     OW29746   4.284   4.111   0.584
 9616SOL    HW129747   4.347   4.138   0.512
 9616SOL    HW229748   4.320   4.031   0.632
 9617SOL     OW29749   0.660   3.613   4.440
 9617SOL    HW129750   0.726   3.662   4.383
 9617SOL    HW229751   0.628   3.532   4.391
 9618SOL     OW29752   4.816   6.800   6.115
 9618SOL    HW129753   4.732   6.852   6.104
 9618SOL    HW229754   4.823   6.767   6.209
 9619SOL     OW29755   1.161   0.481   0.447
 9619SOL    HW129756   1.208   0.569   0.447
 9619SOL    HW229757   1.201   0.422   0.516
 9620SOL     OW29758   5.376   1.753   6.550
 9620SOL    HW129759   5.337   1.843   6.569
 9620SOL    HW229760   5.347   1.722   6.459
 9621SOL     OW29761   1.741   1.213   2.776
 9621SOL    HW129762   1.712   1.299   2.733
 9621SOL    HW229763   1.667   1.146   2.769
 9622SOL     OW29764   5.623   1.179   6.822
 9622SOL    HW129765   5.697   1.154   6.884
 9622SOL    HW229766   5.657   1.183   6.728
 9623SOL     OW29767   4.558   5.316   5.605
 9623SOL    HW129768   4.562   5.409   5.640
 9623SOL    HW229769   4.608   5.255   5.667
 9624SOL     OW29770   5.441   4.614   4.099
 9624SOL    HW129771   5.487   4.703   4.102
 9624SOL    HW229772   5.451   4.568   4.188
 9625SOL     OW29773   5.254   4.423   7.008
 9625SOL    HW129774   5.319   4.385   6.943
 9625SOL    HW229775   5.287   4.512   0.017
 9626SOL     OW29776   2.487   5.867   5.535
 9626SOL    HW129777   2.493   5.781   5.585
 9626SOL    HW229778   2.535   5.939   5.586
 9627SOL     OW29779   6.844   3.890   4.837
 9627SOL    HW129780   6.807   3.812   4.787
 9627SOL    HW229781   6.939   3.871   4.864
 9628SOL     OW29782   6.164   4.024   0.758
 9628SOL    HW129783   6.225   4.101   0.737
 9628SOL    HW229784   6.203   3.971   0.833
 9629SOL     OW29785   6.648   5.762   2.734
 9629SOL    HW129786   6.624   5.838   2.674
 9629SOL    HW229787   6.748   5.751   2.734
 9630SOL     OW29788   6.481   6.229   5.535
 9630SOL    HW129789   6.472   6.142   5.486
 9630SOL    HW229790   6.514   6.211   5.628
 9631SOL     OW29791   4.782   2.340   0.726
 9631SOL    HW129792   4.871   2.312   0.760
 9631SOL    HW229793   4.788   2.358   0.628
 9632SOL     OW29794   2.475   5.326   1.980
 9632SOL    HW129795   2.465   5.228   1.964
 9632SOL    HW229796   2.385   5.368   1.990
 9633SOL     OW29797   3.789   4.438   0.640
 9633SOL    HW129798   3.883   4.403   0.644
 9633SOL    HW229799   3.788   4.525   0.590
 9634SOL     OW29800   0.357   5.511   3.414
 9634SOL    HW129801   0.314   5.505   3.324
 9634SOL    HW229802   0.342   5.602   3.452
 9635SOL     OW29803   1.941   4.015   5.279
 9635SOL    HW129804   2.034   3.978   5.274
 9635SOL    HW229805   1.945   4.110   5.312
 9636SOL     OW29806   4.324   1.867   6.120
 9636SOL    HW129807   4.353   1.934   6.188
 9636SOL    HW229808   4.386   1.873   6.041
 9637SOL     OW29809   4.038   2.699   1.112
 9637SOL    HW129810   3.980   2.619   1.124
 9637SOL    HW229811   4.122   2.672   1.065
 9638SOL     OW29812   0.045   3.174   6.184
 9638SOL    HW129813   0.047   3.230   6.267
 9638SOL    HW229814   0.009   3.228   6.108
 9639SOL     OW29815   4.203   2.214   2.026
 9639SOL    HW129816   4.224   2.137   2.086
 9639SOL    HW229817   4.111   2.203   1.988
 9640SOL     OW29818   3.289   0.738   2.738
 9640SOL    HW129819   3.216   0.674   2.715
 9640SOL    HW229820   3.321   0.783   2.654
 9641SOL     OW29821   5.769   5.572   1.818
 9641SOL    HW129822   5.828   5.647   1.850
 9641SOL    HW229823   5.816   5.485   1.832
 9642SOL     OW29824   1.245   5.974   4.715
 9642SOL    HW129825   1.332   5.930   4.690
 9642SOL    HW229826   1.212   6.028   4.637
 9643SOL     OW29827   5.033   3.859   3.569
 9643SOL    HW129828   5.082   3.801   3.504
 9643SOL    HW229829   5.065   3.839   3.662
 9644SOL     OW29830   1.008   5.885   5.461
 9644SOL    HW129831   1.030   5.846   5.551
 9644SOL    HW229832   0.978   5.812   5.400
 9645SOL     OW29833   2.837   4.799   4.186
 9645SOL    HW129834   2.935   4.818   4.191
 9645SOL    HW229835   2.797   4.806   4.278
 9646SOL     OW29836   2.425   5.061   1.932
 9646SOL    HW129837   2.382   4.971   1.922
 9646SOL    HW229838   2.498   5.056   2.001
 9647SOL     OW29839   0.051   6.710   3.243
 9647SOL    HW129840   0.069   6.776   3.316
 9647SOL    HW229841   0.087   6.621   3.270
 9648SOL     OW29842   4.171   2.717   6.941
 9648SOL    HW129843   4.230   2.657   6.995
 9648SOL    HW229844   4.157   2.802   6.991
 9649SOL     OW29845   2.044   4.319   6.995
 9649SOL    HW129846   1.970   4.353   6.937
 9649SOL    HW229847   2.081   4.394   0.026
 9650SOL     OW29848   5.087   4.337   2.820
 9650SOL    HW129849   5.118   4.413   2.762
 9650SOL    HW229850   4.997   4.305   2.788
 9651SOL     OW29851   5.487   1.585   1.094
 9651SOL    HW129852   5.551   1.557   1.166
 9651SOL    HW229853   5.411   1.520   1.090
 9652SOL     OW29854   0.935   4.660   1.487
 9652SOL    HW129855   0.893   4.572   1.507
 9652SOL    HW229856   0.960   4.664   1.390
 9653SOL     OW29857   4.517   4.898   4.507
 9653SOL    HW129858   4.435   4.852   4.543
 9653SOL    HW229859   4.513   4.900   4.408
 9654SOL     OW29860   2.936   3.522   2.947
 9654SOL    HW129861   2.925   3.599   3.010
 9654SOL    HW229862   2.964   3.441   2.998
 9655SOL     OW29863   0.264   2.090   0.305
 9655SOL    HW129864   0.283   1.993   0.320
 9655SOL    HW229865   0.177   2.114   0.349
 9656SOL     OW29866   4.466   3.079   1.341
 9656SOL    HW129867   4.441   2.995   1.292
 9656SOL    HW229868   4.411   3.085   1.425
 9657SOL     OW29869   5.476   3.200   2.678
 9657SOL    HW129870   5.568   3.161   2.680
 9657SOL    HW229871   5.472   3.279   2.740
 9658SOL     OW29872   5.743   1.336   2.711
 9658SOL    HW129873   5.755   1.237   2.707
 9658SOL    HW229874   5.737   1.365   2.807
 9659SOL     OW29875   0.824   3.460   7.009
 9659SOL    HW129876   0.825   3.419   0.077
 9659SOL    HW229877   0.753   3.530   7.005
 9660SOL     OW29878   0.725   6.891   3.081
 9660SOL    HW129879   0.811   6.940   3.095
 9660SOL    HW229880   0.649   6.954   3.090
 9661SOL     OW29881   3.367   6.498   1.724
 9661SOL    HW129882   3.323   6.409   1.736
 9661SOL    HW229883   3.297   6.570   1.726
 9662SOL     OW29884   4.254   3.166   5.871
 9662SOL    HW129885   4.194   3.139   5.796
 9662SOL    HW229886   4.288   3.259   5.855
 9663SOL     OW29887   0.289   5.848   2.675
 9663SOL    HW129888   0.191   5.863   2.685
 9663SOL    HW229889   0.316   5.867   2.581
 9664SOL     OW29890   5.626   5.268   4.012
 9664SOL    HW129891   5.555   5.210   3.971
 9664SOL    HW229892   5.652   5.340   3.948
 9665SOL     OW29893   5.945   6.482   6.394
 9665SOL    HW129894   5.950   6.531   6.481
 9665SOL    HW229895   5.979   6.389   6.406
 9666SOL     OW29896   6.508   3.834   1.898
 9666SOL    HW129897   6.488   3.738   1.878
 9666SOL    HW229898   6.595   3.840   1.948
 9667SOL     OW29899   4.074   4.016   0.253
 9667SOL    HW129900   4.022   4.028   0.337
 9667SOL    HW229901   4.026   3.953   0.192
 9668SOL     OW29902   0.665   0.548   6.411
 9668SOL    HW129903   0.615   0.465   6.434
 9668SOL    HW229904   0.631   0.586   6.325
 9669SOL     OW29905   2.051   6.879   2.043
 9669SOL    HW129906   1.993   6.810   1.999
 9669SOL    HW229907   2.003   6.917   2.123
 9670SOL     OW29908   6.892   4.804   6.124
 9670SOL    HW129909   6.891   4.877   6.192
 9670SOL    HW229910   6.821   4.821   6.056
 9671SOL     OW29911   0.157   4.479   0.735
 9671SOL    HW129912   0.232   4.457   0.672
 9671SOL    HW229913   0.113   4.564   0.705
 9672SOL     OW29914   2.197   5.382   3.336
 9672SOL    HW129915   2.249   5.429   3.265
 9672SOL    HW229916   2.244   5.297   3.362
 9673SOL     OW29917   3.970   4.065   1.087
 9673SOL    HW129918   3.926   4.020   1.009
 9673SOL    HW229919   3.902   4.118   1.137
 9674SOL     OW29920   3.457   6.852   3.413
 9674SOL    HW129921   3.503   6.937   3.388
 9674SOL    HW229922   3.361   6.871   3.435
 9675SOL     OW29923   5.507   2.344   6.255
 9675SOL    HW129924   5.499   2.444   6.252
 9675SOL    HW229925   5.509   2.309   6.161
 9676SOL     OW29926   0.900   2.793   5.721
 9676SOL    HW129927   0.961   2.852   5.669
 9676SOL    HW229928   0.875   2.838   5.806
 9677SOL     OW29929   6.171   5.334   5.010
 9677SOL    HW129930   6.168   5.235   4.999
 9677SOL    HW229931   6.176   5.378   4.921
 9678SOL     OW29932   2.946   3.751   4.243
 9678SOL    HW129933   2.984   3.807   4.316
 9678SOL    HW229934   2.907   3.667   4.282
 9679SOL     OW29935   3.009   0.126   3.075
 9679SOL    HW129936   2.950   0.188   3.128
 9679SOL    HW229937   2.953   0.054   3.035
 9680SOL     OW29938   3.940   0.509   3.885
 9680SOL    HW129939   4.012   0.493   3.953
 9680SOL    HW229940   3.863   0.555   3.930
 9681SOL     OW29941   2.621   1.996   0.665
 9681SOL    HW129942   2.634   1.911   0.615
 9681SOL    HW229943   2.524   2.011   0.682
 9682SOL     OW29944   4.676   4.183   3.586
 9682SOL    HW129945   4.658   4.280   3.601
 9682SOL    HW229946   4.630   4.129   3.656
 9683SOL     OW29947   3.106   6.617   1.754
 9683SOL    HW129948   3.039   6.588   1.686
 9683SOL    HW229949   3.066   6.689   1.811
 9684SOL     OW29950   0.782   3.124   6.148
 9684SOL    HW129951   0.687   3.092   6.139
 9684SOL    HW229952   0.782   3.212   6.196
 9685SOL     OW29953   4.795   4.276   1.022
 9685SOL    HW129954   4.726   4.207   1.045
 9685SOL    HW229955   4.752   4.366   1.017
 9686SOL     OW29956   0.735   3.354   6.373
 9686SOL    HW129957   0.643   3.374   6.338
 9686SOL    HW229958   0.729   3.325   6.468
 9687SOL     OW29959   1.048   0.488   3.918
 9687SOL    HW129960   1.088   0.495   3.826
 9687SOL    HW229961   1.005   0.399   3.929
 9688SOL     OW29962   1.227   3.140   1.136
 9688SOL    HW129963   1.252   3.170   1.044
 9688SOL    HW229964   1.228   3.040   1.139
 9689SOL     OW29965   0.816   4.587   6.425
 9689SOL    HW129966   0.741   4.637   6.468
 9689SOL    HW229967   0.840   4.630   6.338
 9690SOL     OW29968   6.180   5.996   6.733
 9690SOL    HW129969   6.119   5.922   6.760
 9690SOL    HW229970   6.142   6.084   6.762
 9691SOL     OW29971   3.338   4.636   0.894
 9691SOL    HW129972   3.353   4.648   0.992
 9691SOL    HW229973   3.318   4.540   0.874
 9692SOL     OW29974   3.924   6.125   1.645
 9692SOL    HW129975   3.912   6.032   1.679
 9692SOL    HW229976   3.927   6.188   1.723
 9693SOL     OW29977   5.765   3.958   2.586
 9693SOL    HW129978   5.817   4.031   2.542
 9693SOL    HW229979   5.764   3.877   2.526
 9694SOL     OW29980   3.108   1.321   1.503
 9694SOL    HW129981   3.115   1.355   1.409
 9694SOL    HW229982   3.199   1.321   1.545
 9695SOL     OW29983   0.251   2.655   3.145
 9695SOL    HW129984   0.220   2.675   3.238
 9695SOL    HW229985   0.228   2.560   3.122
 9696SOL     OW29986   5.438   2.550   1.394
 9696SOL    HW129987   5.405   2.533   1.487
 9696SOL    HW229988   5.391   2.489   1.330
 9697SOL     OW29989   0.153   5.066   6.984
 9697SOL    HW129990   0.223   5.134   6.966
 9697SOL    HW229991   0.071   5.088   6.932
 9698SOL     OW29992   5.523   2.018   6.108
 9698SOL    HW129993   5.449   1.989   6.047
 9698SOL    HW229994   5.563   2.103   6.074
 9699SOL     OW29995   6.316   6.269   6.712
 9699SOL    HW129996   6.241   6.248   6.775
 9699SOL    HW229997   6.308   6.212   6.630
 9700SOL     OW29998   5.169   5.745   5.079
 9700SOL    HW129999   5.212   5.677   5.021
 9700SOL    HW230000   5.179   5.836   5.037
 9701SOL     OW30001   4.313   5.184   5.213
 9701SOL    HW130002   4.348   5.273   5.240
 9701SOL    HW230003   4.214   5.188   5.203
 9702SOL     OW30004   4.271   1.655   6.773
 9702SOL    HW130005   4.325   1.573   6.787
 9702SOL    HW230006   4.329   1.727   6.735
 9703SOL     OW30007   4.983   3.691   3.833
 9703SOL    HW130008   4.947   3.686   3.926
 9703SOL    HW230009   5.051   3.764   3.827
 9704SOL     OW30010   3.413   6.762   1.382
 9704SOL    HW130011   3.435   6.665   1.383
 9704SOL    HW230012   3.331   6.778   1.438
 9705SOL     OW30013   5.877   3.837   6.167
 9705SOL    HW130014   5.796   3.810   6.114
 9705SOL    HW230015   5.850   3.857   6.261
 9706SOL     OW30016   1.881   2.911   0.810
 9706SOL    HW130017   1.830   2.974   0.869
 9706SOL    HW230018   1.969   2.953   0.786
 9707SOL     OW30019   6.224   4.433   2.440
 9707SOL    HW130020   6.237   4.462   2.534
 9707SOL    HW230021   6.313   4.427   2.394
 9708SOL     OW30022   1.222   1.766   3.721
 9708SOL    HW130023   1.210   1.824   3.802
 9708SOL    HW230024   1.318   1.742   3.711
 9709SOL     OW30025   5.292   6.337   2.889
 9709SOL    HW130026   5.268   6.241   2.871
 9709SOL    HW230027   5.374   6.340   2.946
 9710SOL     OW30028   6.948   1.848   1.813
 9710SOL    HW130029   6.971   1.871   1.718
 9710SOL    HW230030   6.927   1.751   1.820
 9711SOL     OW30031   3.767   5.223   5.818
 9711SOL    HW130032   3.837   5.289   5.792
 9711SOL    HW230033   3.676   5.263   5.804
 9712SOL     OW30034   5.448   3.828   6.786
 9712SOL    HW130035   5.481   3.920   6.808
 9712SOL    HW230036   5.383   3.833   6.710
 9713SOL     OW30037   1.872   4.058   3.515
 9713SOL    HW130038   1.828   4.048   3.604
 9713SOL    HW230039   1.834   4.136   3.467
 9714SOL     OW30040   4.334   6.375   6.769
 9714SOL    HW130041   4.269   6.299   6.761
 9714SOL    HW230042   4.327   6.414   6.861
 9715SOL     OW30043   5.810   4.087   0.406
 9715SOL    HW130044   5.803   3.990   0.429
 9715SOL    HW230045   5.906   4.115   0.408
 9716SOL     OW30046   3.601   4.340   6.685
 9716SOL    HW130047   3.592   4.308   6.591
 9716SOL    HW230048   3.537   4.290   6.744
 9717SOL     OW30049   5.072   6.886   6.050
 9717SOL    HW130050   4.992   6.826   6.048
 9717SOL    HW230051   5.134   6.858   6.123
 9718SOL     OW30052   5.549   3.343   0.326
 9718SOL    HW130053   5.452   3.330   0.346
 9718SOL    HW230054   5.593   3.392   0.401
 9719SOL     OW30055   6.414   0.529   5.933
 9719SOL    HW130056   6.415   0.543   6.032
 9719SOL    HW230057   6.382   0.436   5.913
 9720SOL     OW30058   0.610   4.953   2.275
 9720SOL    HW130059   0.578   4.860   2.292
 9720SOL    HW230060   0.556   4.994   2.201
 9721SOL     OW30061   0.355   2.128   0.641
 9721SOL    HW130062   0.440   2.151   0.690
 9721SOL    HW230063   0.378   2.079   0.556
 9722SOL     OW30064   4.269   1.260   4.452
 9722SOL    HW130065   4.242   1.289   4.360
 9722SOL    HW230066   4.223   1.317   4.520
 9723SOL     OW30067   3.125   6.763   3.283
 9723SOL    HW130068   3.075   6.846   3.307
 9723SOL    HW230069   3.176   6.778   3.198
 9724SOL     OW30070   1.489   4.932   6.555
 9724SOL    HW130071   1.482   4.993   6.476
 9724SOL    HW230072   1.400   4.922   6.599
 9725SOL     OW30073   5.095   5.851   6.031
 9725SOL    HW130074   5.037   5.901   5.966
 9725SOL    HW230075   5.189   5.849   5.997
 9726SOL     OW30076   4.838   1.489   4.247
 9726SOL    HW130077   4.899   1.566   4.226
 9726SOL    HW230078   4.766   1.519   4.309
 9727SOL     OW30079   1.233   2.216   0.116
 9727SOL    HW130080   1.148   2.222   0.063
 9727SOL    HW230081   1.292   2.294   0.093
 9728SOL     OW30082   0.975   0.175   5.781
 9728SOL    HW130083   0.960   0.251   5.719
 9728SOL    HW230084   0.916   0.098   5.755
 9729SOL     OW30085   1.494   4.496   3.103
 9729SOL    HW130086   1.591   4.519   3.095
 9729SOL    HW230087   1.470   4.426   3.036
 9730SOL     OW30088   2.021   4.225   3.718
 9730SOL    HW130089   2.091   4.276   3.766
 9730SOL    HW230090   2.038   4.230   3.619
 9731SOL     OW30091   5.373   4.654   1.112
 9731SOL    HW130092   5.435   4.622   1.040
 9731SOL    HW230093   5.341   4.576   1.166
 9732SOL     OW30094   0.075   5.301   2.616
 9732SOL    HW130095   0.126   5.343   2.541
 9732SOL    HW230096   7.002   5.327   2.611
 9733SOL     OW30097   4.891   5.126   0.284
 9733SOL    HW130098   4.939   5.137   0.372
 9733SOL    HW230099   4.885   5.215   0.239
 9734SOL     OW30100   6.509   1.684   0.636
 9734SOL    HW130101   6.583   1.620   0.655
 9734SOL    HW230102   6.529   1.734   0.551
 9735SOL     OW30103   2.159   3.704   3.545
 9735SOL    HW130104   2.170   3.793   3.501
 9735SOL    HW230105   2.171   3.632   3.478
 9736SOL     OW30106   6.234   1.875   6.141
 9736SOL    HW130107   6.280   1.962   6.156
 9736SOL    HW230108   6.298   1.800   6.158
 9737SOL     OW30109   5.491   2.702   3.396
 9737SOL    HW130110   5.489   2.612   3.351
 9737SOL    HW230111   5.410   2.712   3.454
 9738SOL     OW30112   2.537   0.072   0.377
 9738SOL    HW130113   2.493   0.160   0.358
 9738SOL    HW230114   2.528   0.051   0.475
 9739SOL     OW30115   5.420   5.385   1.410
 9739SOL    HW130116   5.423   5.376   1.310
 9739SOL    HW230117   5.482   5.319   1.452
 9740SOL     OW30118   6.889   0.933   3.587
 9740SOL    HW130119   6.971   0.990   3.579
 9740SOL    HW230120   6.842   0.929   3.500
 9741SOL     OW30121   3.692   2.029   2.487
 9741SOL    HW130122   3.674   1.939   2.448
 9741SOL    HW230123   3.719   2.092   2.415
 9742SOL     OW30124   4.529   1.305   0.501
 9742SOL    HW130125   4.613   1.308   0.448
 9742SOL    HW230126   4.549   1.326   0.597
 9743SOL     OW30127   6.813   3.158   4.217
 9743SOL    HW130128   6.831   3.060   4.210
 9743SOL    HW230129   6.722   3.173   4.256
 9744SOL     OW30130   1.573   6.813   2.083
 9744SOL    HW130131   1.568   6.870   2.001
 9744SOL    HW230132   1.662   6.769   2.088
 9745SOL     OW30133   5.329   2.338   6.451
 9745SOL    HW130134   5.395   2.342   6.376
 9745SOL    HW230135   5.240   2.310   6.416
 9746SOL     OW30136   6.405   0.156   5.345
 9746SOL    HW130137   6.328   0.215   5.369
 9746SOL    HW230138   6.423   0.093   5.420
 9747SOL     OW30139   2.616   1.640   1.801
 9747SOL    HW130140   2.618   1.710   1.730
 9747SOL    HW230141   2.546   1.572   1.779
 9748SOL     OW30142   0.042   0.187   3.405
 9748SOL    HW130143   0.037   0.095   3.444
 9748SOL    HW230144   7.003   0.248   3.455
 9749SOL     OW30145   2.128   0.272   4.194
 9749SOL    HW130146   2.201   0.312   4.139
 9749SOL    HW230147   2.168   0.209   4.261
 9750SOL     OW30148   5.947   3.784   3.760
 9750SOL    HW130149   5.868   3.786   3.699
 9750SOL    HW230150   5.916   3.775   3.855
 9751SOL     OW30151   2.295   0.764   0.445
 9751SOL    HW130152   2.274   0.668   0.424
 9751SOL    HW230153   2.372   0.768   0.508
 9752SOL     OW30154   4.026   2.212   4.950
 9752SOL    HW130155   4.072   2.296   4.978
 9752SOL    HW230156   3.951   2.234   4.887
 9753SOL     OW30157   0.164   5.357   6.131
 9753SOL    HW130158   0.098   5.377   6.058
 9753SOL    HW230159   0.238   5.423   6.129
 9754SOL     OW30160   1.979   0.565   0.350
 9754SOL    HW130161   1.934   0.480   0.323
 9754SOL    HW230162   1.917   0.642   0.334
 9755SOL     OW30163   3.832   3.629   4.484
 9755SOL    HW130164   3.865   3.642   4.577
 9755SOL    HW230165   3.896   3.671   4.420
 9756SOL     OW30166   5.613   3.222   6.648
 9756SOL    HW130167   5.629   3.288   6.574
 9756SOL    HW230168   5.682   3.150   6.644
 9757SOL     OW30169   6.093   4.308   4.112
 9757SOL    HW130170   6.083   4.332   4.016
 9757SOL    HW230171   6.004   4.309   4.156
 9758SOL     OW30172   3.132   0.261   6.188
 9758SOL    HW130173   3.142   0.302   6.097
 9758SOL    HW230174   3.119   0.162   6.179
 9759SOL     OW30175   1.137   0.740   0.114
 9759SOL    HW130176   1.157   0.646   0.084
 9759SOL    HW230177   1.206   0.802   0.077
 9760SOL     OW30178   5.057   2.974   5.802
 9760SOL    HW130179   4.990   2.914   5.845
 9760SOL    HW230180   5.041   2.977   5.703
 9761SOL     OW30181   0.282   1.509   2.548
 9761SOL    HW130182   0.320   1.500   2.640
 9761SOL    HW230183   0.285   1.421   2.501
 9762SOL     OW30184   3.011   1.928   4.892
 9762SOL    HW130185   2.990   1.984   4.972
 9762SOL    HW230186   3.025   1.987   4.813
 9763SOL     OW30187   4.630   1.923   2.511
 9763SOL    HW130188   4.711   1.887   2.465
 9763SOL    HW230189   4.575   1.848   2.546
 9764SOL     OW30190   0.229   2.777   2.914
 9764SOL    HW130191   0.308   2.820   2.871
 9764SOL    HW230192   0.254   2.743   3.005
 9765SOL     OW30193   6.742   6.764   3.413
 9765SOL    HW130194   6.644   6.759   3.434
 9765SOL    HW230195   6.755   6.809   3.325
 9766SOL     OW30196   2.939   0.317   2.017
 9766SOL    HW130197   2.859   0.286   1.966
 9766SOL    HW230198   2.976   0.399   1.972
 9767SOL     OW30199   4.214   1.243   5.545
 9767SOL    HW130200   4.191   1.324   5.598
 9767SOL    HW230201   4.261   1.177   5.605
 9768SOL     OW30202   5.522   1.077   1.825
 9768SOL    HW130203   5.439   1.132   1.827
 9768SOL    HW230204   5.540   1.039   1.916
 9769SOL     OW30205   3.896   1.061   4.046
 9769SOL    HW130206   3.850   1.070   3.958
 9769SOL    HW230207   3.843   1.109   4.117
 9770SOL     OW30208   4.267   1.338   6.188
 9770SOL    HW130209   4.359   1.299   6.188
 9770SOL    HW230210   4.267   1.421   6.243
 9771SOL     OW30211   2.721   6.386   0.339
 9771SOL    HW130212   2.779   6.331   0.400
 9771SOL    HW230213   2.724   6.481   0.369
 9772SOL     OW30214   2.057   6.127   1.577
 9772SOL    HW130215   2.096   6.035   1.583
 9772SOL    HW230216   1.960   6.123   1.602
 9773SOL     OW30217   5.097   5.513   3.945
 9773SOL    HW130218   5.194   5.492   3.955
 9773SOL    HW230219   5.045   5.428   3.937
 9774SOL     OW30220   0.146   5.433   1.875
 9774SOL    HW130221   0.093   5.447   1.959
 9774SOL    HW230222   0.098   5.474   1.798
 9775SOL     OW30223   2.820   0.645   3.103
 9775SOL    HW130224   2.724   0.617   3.099
 9775SOL    HW230225   2.832   0.714   3.174
 9776SOL     OW30226   1.218   4.780   5.040
 9776SOL    HW130227   1.138   4.806   4.985
 9776SOL    HW230228   1.280   4.726   4.984
 9777SOL     OW30229   6.622   5.922   6.881
 9777SOL    HW130230   6.539   5.873   6.855
 9777SOL    HW230231   6.650   5.983   6.807
 9778SOL     OW30232   0.433   0.708   4.507
 9778SOL    HW130233   0.507   0.768   4.537
 9778SOL    HW230234   0.471   0.624   4.468
 9779SOL     OW30235   0.990   1.520   4.364
 9779SOL    HW130236   1.020   1.604   4.321
 9779SOL    HW230237   0.982   1.448   4.296
 9780SOL     OW30238   2.070   2.602   0.848
 9780SOL    HW130239   2.072   2.598   0.748
 9780SOL    HW230240   2.052   2.696   0.877
 9781SOL     OW30241   2.261   3.069   4.306
 9781SOL    HW130242   2.346   3.018   4.291
 9781SOL    HW230243   2.263   3.112   4.396
 9782SOL     OW30244   0.261   0.614   1.179
 9782SOL    HW130245   0.227   0.542   1.118
 9782SOL    HW230246   0.193   0.687   1.186
 9783SOL     OW30247   3.957   2.187   2.985
 9783SOL    HW130248   3.875   2.228   2.945
 9783SOL    HW230249   3.965   2.092   2.955
 9784SOL     OW30250   3.095   1.815   5.589
 9784SOL    HW130251   3.084   1.838   5.492
 9784SOL    HW230252   3.163   1.875   5.630
 9785SOL     OW30253   1.253   2.544   6.585
 9785SOL    HW130254   1.332   2.493   6.620
 9785SOL    HW230255   1.232   2.514   6.492
 9786SOL     OW30256   2.435   3.888   6.952
 9786SOL    HW130257   2.394   3.961   7.006
 9786SOL    HW230258   2.404   3.799   6.986
 9787SOL     OW30259   3.613   3.732   2.367
 9787SOL    HW130260   3.529   3.698   2.327
 9787SOL    HW230261   3.632   3.682   2.452
 9788SOL     OW30262   1.041   0.725   3.662
 9788SOL    HW130263   1.130   0.738   3.620
 9788SOL    HW230264   1.052   0.708   3.760
 9789SOL     OW30265   1.942   5.842   0.517
 9789SOL    HW130266   1.894   5.842   0.429
 9789SOL    HW230267   1.946   5.936   0.553
 9790SOL     OW30268   6.882   4.470   6.623
 9790SOL    HW130269   6.846   4.495   6.534
 9790SOL    HW230270   6.858   4.540   6.690
 9791SOL     OW30271   0.160   0.900   1.059
 9791SOL    HW130272   0.224   0.970   1.091
 9791SOL    HW230273   0.101   0.872   1.134
 9792SOL     OW30274   4.198   4.670   0.344
 9792SOL    HW130275   4.283   4.622   0.320
 9792SOL    HW230276   4.125   4.640   0.282
 9793SOL     OW30277   4.426   6.690   2.915
 9793SOL    HW130278   4.391   6.770   2.964
 9793SOL    HW230279   4.351   6.625   2.901
 9794SOL     OW30280   0.065   4.197   0.214
 9794SOL    HW130281   6.994   4.162   0.217
 9794SOL    HW230282   0.090   4.235   0.303
 9795SOL     OW30283   2.334   1.917   4.343
 9795SOL    HW130284   2.309   1.821   4.360
 9795SOL    HW230285   2.264   1.960   4.285
 9796SOL     OW30286   3.350   2.890   2.225
 9796SOL    HW130287   3.429   2.832   2.205
 9796SOL    HW230288   3.339   2.957   2.151
 9797SOL     OW30289   1.947   5.426   6.927
 9797SOL    HW130290   1.948   5.329   6.904
 9797SOL    HW230291   2.011   5.475   6.868
 9798SOL     OW30292   2.574   0.273   2.051
 9798SOL    HW130293   2.554   0.181   2.084
 9798SOL    HW230294   2.582   0.271   1.952
 9799SOL     OW30295   2.950   3.212   5.046
 9799SOL    HW130296   3.002   3.141   5.093
 9799SOL    HW230297   2.937   3.186   4.950
 9800SOL     OW30298   3.731   5.260   4.793
 9800SOL    HW130299   3.635   5.256   4.762
 9800SOL    HW230300   3.778   5.177   4.763
 9801SOL     OW30301   4.541   4.313   0.175
 9801SOL    HW130302   4.628   4.346   0.137
 9801SOL    HW230303   4.522   4.221   0.139
 9802SOL     OW30304   0.052   4.099   1.597
 9802SOL    HW130305   0.019   4.004   1.605
 9802SOL    HW230306   0.032   4.133   1.505
 9803SOL     OW30307   1.409   2.406   6.781
 9803SOL    HW130308   1.363   2.408   6.869
 9803SOL    HW230309   1.429   2.311   6.756
 9804SOL     OW30310   1.398   5.716   3.325
 9804SOL    HW130311   1.438   5.784   3.386
 9804SOL    HW230312   1.405   5.626   3.366
 9805SOL     OW30313   1.330   6.461   4.306
 9805SOL    HW130314   1.334   6.461   4.206
 9805SOL    HW230315   1.310   6.554   4.338
 9806SOL     OW30316   1.121   0.858   6.531
 9806SOL    HW130317   1.158   0.951   6.541
 9806SOL    HW230318   1.022   0.862   6.522
 9807SOL     OW30319   2.962   4.428   6.882
 9807SOL    HW130320   3.052   4.427   6.927
 9807SOL    HW230321   2.938   4.335   6.853
 9808SOL     OW30322   3.893   0.503   5.259
 9808SOL    HW130323   3.842   0.517   5.173
 9808SOL    HW230324   3.920   0.407   5.265
 9809SOL     OW30325   1.473   2.804   6.378
 9809SOL    HW130326   1.419   2.888   6.387
 9809SOL    HW230327   1.416   2.733   6.337
 9810SOL     OW30328   1.959   2.819   3.645
 9810SOL    HW130329   2.029   2.853   3.582
 9810SOL    HW230330   1.892   2.891   3.664
 9811SOL     OW30331   5.444   4.454   3.193
 9811SOL    HW130332   5.368   4.475   3.254
 9811SOL    HW230333   5.456   4.354   3.188
 9812SOL     OW30334   3.640   2.765   5.866
 9812SOL    HW130335   3.674   2.676   5.834
 9812SOL    HW230336   3.600   2.755   5.957
 9813SOL     OW30337   5.734   1.526   0.660
 9813SOL    HW130338   5.703   1.441   0.617
 9813SOL    HW230339   5.683   1.603   0.620
 9814SOL     OW30340   6.991   0.009   0.296
 9814SOL    HW130341   0.065   7.009   0.308
 9814SOL    HW230342   6.975   0.036   0.201
 9815SOL     OW30343   5.222   4.154   3.769
 9815SOL    HW130344   5.287   4.214   3.817
 9815SOL    HW230345   5.258   4.133   3.678
 9816SOL     OW30346   0.540   1.056   6.333
 9816SOL    HW130347   0.511   1.085   6.242
 9816SOL    HW230348   0.470   0.995   6.372
 9817SOL     OW30349   2.753   6.912   3.519
 9817SOL    HW130350   2.683   6.982   3.528
 9817SOL    HW230351   2.831   6.949   3.469
 9818SOL     OW30352   1.302   0.721   4.572
 9818SOL    HW130353   1.208   0.725   4.539
 9818SOL    HW230354   1.333   0.626   4.572
 9819SOL     OW30355   4.929   3.152   4.135
 9819SOL    HW130356   4.905   3.245   4.107
 9819SOL    HW230357   4.898   3.136   4.228
 9820SOL     OW30358   4.194   3.259   6.593
 9820SOL    HW130359   4.291   3.258   6.617
 9820SOL    HW230360   4.157   3.166   6.598
 9821SOL     OW30361   5.339   0.648   6.747
 9821SOL    HW130362   5.401   0.665   6.670
 9821SOL    HW230363   5.390   0.602   6.820
 9822SOL     OW30364   2.884   5.965   3.543
 9822SOL    HW130365   2.890   6.052   3.494
 9822SOL    HW230366   2.857   5.982   3.638
 9823SOL     OW30367   2.540   1.307   6.345
 9823SOL    HW130368   2.533   1.369   6.267
 9823SOL    HW230369   2.582   1.221   6.316
 9824SOL     OW30370   1.992   4.774   4.403
 9824SOL    HW130371   1.934   4.745   4.327
 9824SOL    HW230372   1.984   4.709   4.478
 9825SOL     OW30373   5.193   5.755   4.701
 9825SOL    HW130374   5.125   5.688   4.729
 9825SOL    HW230375   5.176   5.842   4.749
 9826SOL     OW30376   4.797   5.056   5.669
 9826SOL    HW130377   4.819   5.113   5.749
 9826SOL    HW230378   4.777   4.963   5.699
 9827SOL     OW30379   2.102   3.651   3.807
 9827SOL    HW130380   2.139   3.651   3.714
 9827SOL    HW230381   2.109   3.743   3.846
 9828SOL     OW30382   2.330   2.424   5.524
 9828SOL    HW130383   2.362   2.515   5.500
 9828SOL    HW230384   2.373   2.394   5.609
 9829SOL     OW30385   4.202   5.389   5.881
 9829SOL    HW130386   4.164   5.387   5.974
 9829SOL    HW230387   4.301   5.377   5.885
 9830SOL     OW30388   5.429   2.281   2.332
 9830SOL    HW130389   5.374   2.364   2.340
 9830SOL    HW230390   5.412   2.238   2.243
 9831SOL     OW30391   1.859   5.309   1.663
 9831SOL    HW130392   1.797   5.364   1.720
 9831SOL    HW230393   1.941   5.287   1.714
 9832SOL     OW30394   5.084   5.856   2.086
 9832SOL    HW130395   5.063   5.954   2.089
 9832SOL    HW230396   5.018   5.806   2.142
 9833SOL     OW30397   3.043   3.553   4.824
 9833SOL    HW130398   2.984   3.495   4.768
 9833SOL    HW230399   3.050   3.515   4.916
 9834SOL     OW30400   2.458   4.161   5.331
 9834SOL    HW130401   2.541   4.202   5.292
 9834SOL    HW230402   2.426   4.087   5.272
 9835SOL     OW30403   4.076   3.345   5.042
 9835SOL    HW130404   4.133   3.273   5.003
 9835SOL    HW230405   4.100   3.433   5.001
 9836SOL     OW30406   6.637   4.016   3.390
 9836SOL    HW130407   6.562   4.003   3.456
 9836SOL    HW230408   6.716   4.055   3.437
 9837SOL     OW30409   3.593   0.260   2.462
 9837SOL    HW130410   3.604   0.217   2.373
 9837SOL    HW230411   3.635   0.351   2.459
 9838SOL     OW30412   1.749   6.882   0.626
 9838SOL    HW130413   1.838   6.851   0.659
 9838SOL    HW230414   1.737   6.853   0.531
 9839SOL     OW30415   5.240   0.081   3.730
 9839SOL    HW130416   5.280   0.102   3.819
 9839SOL    HW230417   5.142   0.103   3.732
 9840SOL     OW30418   5.484   2.015   0.760
 9840SOL    HW130419   5.564   1.998   0.702
 9840SOL    HW230420   5.414   1.946   0.742
 9841SOL     OW30421   1.589   4.880   4.834
 9841SOL    HW130422   1.652   4.858   4.760
 9841SOL    HW230423   1.500   4.904   4.795
 9842SOL     OW30424   3.110   3.326   1.870
 9842SOL    HW130425   3.067   3.259   1.930
 9842SOL    HW230426   3.206   3.336   1.894
 9843SOL     OW30427   6.642   0.426   1.578
 9843SOL    HW130428   6.740   0.405   1.569
 9843SOL    HW230429   6.602   0.369   1.649
 9844SOL     OW30430   6.384   0.663   2.966
 9844SOL    HW130431   6.307   0.715   3.002
 9844SOL    HW230432   6.351   0.579   2.923
 9845SOL     OW30433   2.301   2.905   3.120
 9845SOL    HW130434   2.377   2.846   3.092
 9845SOL    HW230435   2.277   2.885   3.215
 9846SOL     OW30436   3.549   2.788   2.073
 9846SOL    HW130437   3.633   2.815   2.121
 9846SOL    HW230438   3.545   2.689   2.066
 9847SOL     OW30439   3.439   2.911   3.528
 9847SOL    HW130440   3.480   2.932   3.617
 9847SOL    HW230441   3.355   2.858   3.542
 9848SOL     OW30442   4.182   3.167   5.363
 9848SOL    HW130443   4.232   3.127   5.287
 9848SOL    HW230444   4.088   3.133   5.362
 9849SOL     OW30445   0.733   6.635   6.526
 9849SOL    HW130446   0.760   6.540   6.542
 9849SOL    HW230447   0.787   6.673   6.451
 9850SOL     OW30448   6.361   6.931   3.956
 9850SOL    HW130449   6.346   6.840   3.917
 9850SOL    HW230450   6.459   6.943   3.975
 9851SOL     OW30451   6.990   0.466   4.728
 9851SOL    HW130452   6.932   0.412   4.789
 9851SOL    HW230453   0.019   0.533   4.782
 9852SOL     OW30454   3.292   1.366   3.931
 9852SOL    HW130455   3.196   1.347   3.912
 9852SOL    HW230456   3.328   1.298   3.995
 9853SOL     OW30457   5.101   4.066   4.567
 9853SOL    HW130458   5.008   4.077   4.601
 9853SOL    HW230459   5.165   4.116   4.627
 9854SOL     OW30460   6.468   5.833   4.821
 9854SOL    HW130461   6.385   5.830   4.877
 9854SOL    HW230462   6.446   5.805   4.728
 9855SOL     OW30463   2.126   3.814   1.063
 9855SOL    HW130464   2.170   3.736   1.019
 9855SOL    HW230465   2.096   3.788   1.155
 9856SOL     OW30466   4.826   4.082   4.404
 9856SOL    HW130467   4.787   4.172   4.382
 9856SOL    HW230468   4.870   4.086   4.493
 9857SOL     OW30469   4.996   2.717   2.582
 9857SOL    HW130470   5.029   2.802   2.624
 9857SOL    HW230471   4.915   2.685   2.632
 9858SOL     OW30472   6.998   0.454   1.803
 9858SOL    HW130473   0.054   0.397   1.826
 9858SOL    HW230474   6.948   0.413   1.727
 9859SOL     OW30475   6.355   6.104   2.892
 9859SOL    HW130476   6.309   6.156   2.820
 9859SOL    HW230477   6.288   6.048   2.940
 9860SOL     OW30478   1.872   2.363   3.672
 9860SOL    HW130479   1.929   2.400   3.600
 9860SOL    HW230480   1.860   2.432   3.744
 9861SOL     OW30481   3.074   0.513   3.156
 9861SOL    HW130482   3.009   0.587   3.171
 9861SOL    HW230483   3.154   0.526   3.214
 9862SOL     OW30484   3.414   3.096   6.757
 9862SOL    HW130485   3.372   3.079   6.668
 9862SOL    HW230486   3.488   3.164   6.746
 9863SOL     OW30487   3.745   6.903   2.418
 9863SOL    HW130488   3.811   6.834   2.446
 9863SOL    HW230489   3.792   6.976   2.368
 9864SOL     OW30490   4.022   6.546   3.776
 9864SOL    HW130491   3.948   6.537   3.843
 9864SOL    HW230492   4.067   6.634   3.789
 9865SOL     OW30493   1.499   6.962   4.763
 9865SOL    HW130494   1.548   6.966   4.675
 9865SOL    HW230495   1.509   6.870   4.802
 9866SOL     OW30496   4.884   4.561   6.245
 9866SOL    HW130497   4.824   4.496   6.292
 9866SOL    HW230498   4.869   4.653   6.283
 9867SOL     OW30499   6.718   1.790   1.095
 9867SOL    HW130500   6.629   1.799   1.139
 9867SOL    HW230501   6.743   1.694   1.087
 9868SOL     OW30502   0.756   3.343   5.068
 9868SOL    HW130503   0.706   3.264   5.104
 9868SOL    HW230504   0.845   3.349   5.112
 9869SOL     OW30505   0.526   2.523   1.583
 9869SOL    HW130506   0.456   2.587   1.549
 9869SOL    HW230507   0.484   2.433   1.598
 9870SOL     OW30508   3.843   5.940   2.490
 9870SOL    HW130509   3.788   5.982   2.418
 9870SOL    HW230510   3.830   5.841   2.489
 9871SOL     OW30511   6.546   4.870   6.209
 9871SOL    HW130512   6.594   4.812   6.143
 9871SOL    HW230513   6.472   4.919   6.162
 9872SOL     OW30514   2.650   5.287   5.236
 9872SOL    HW130515   2.664   5.201   5.284
 9872SOL    HW230516   2.552   5.309   5.236
 9873SOL     OW30517   2.384   2.440   0.774
 9873SOL    HW130518   2.325   2.450   0.854
 9873SOL    HW230519   2.338   2.477   0.694
 9874SOL     OW30520   5.278   3.549   5.113
 9874SOL    HW130521   5.374   3.577   5.107
 9874SOL    HW230522   5.267   3.458   5.072
 9875SOL     OW30523   6.029   5.846   1.581
 9875SOL    HW130524   6.026   5.746   1.585
 9875SOL    HW230525   5.936   5.881   1.565
 9876SOL     OW30526   5.638   1.068   3.977
 9876SOL    HW130527   5.677   1.105   4.062
 9876SOL    HW230528   5.679   0.979   3.958
 9877SOL     OW30529   6.317   4.857   4.553
 9877SOL    HW130530   6.256   4.807   4.491
 9877SOL    HW230531   6.406   4.869   4.509
 9878SOL     OW30532   2.936   4.237   5.562
 9878SOL    HW130533   2.971   4.232   5.655
 9878SOL    HW230534   2.950   4.149   5.516
 9879SOL     OW30535   5.014   6.106   5.210
 9879SOL    HW130536   4.931   6.061   5.244
 9879SOL    HW230537   5.019   6.096   5.111
 9880SOL     OW30538   3.788   0.842   0.116
 9880SOL    HW130539   3.839   0.758   0.098
 9880SOL    HW230540   3.851   0.920   0.113
 9881SOL     OW30541   0.916   1.557   5.065
 9881SOL    HW130542   0.937   1.459   5.060
 9881SOL    HW230543   0.825   1.574   5.027
 9882SOL     OW30544   1.750   3.924   4.878
 9882SOL    HW130545   1.760   3.905   4.975
 9882SOL    HW230546   1.669   3.980   4.862
 9883SOL     OW30547   1.280   6.144   0.874
 9883SOL    HW130548   1.252   6.106   0.786
 9883SOL    HW230549   1.283   6.071   0.942
 9884SOL     OW30550   4.975   2.410   1.021
 9884SOL    HW130551   4.981   2.475   1.097
 9884SOL    HW230552   4.885   2.366   1.022
 9885SOL     OW30553   6.779   1.943   4.937
 9885SOL    HW130554   6.871   1.942   4.900
 9885SOL    HW230555   6.715   1.980   4.869
 9886SOL     OW30556   0.918   5.256   1.986
 9886SOL    HW130557   0.876   5.177   2.032
 9886SOL    HW230558   1.013   5.235   1.963
 9887SOL     OW30559   3.778   0.172   6.931
 9887SOL    HW130560   3.819   0.133   6.849
 9887SOL    HW230561   3.706   0.236   6.905
 9888SOL     OW30562   5.048   5.288   2.682
 9888SOL    HW130563   5.031   5.221   2.610
 9888SOL    HW230564   5.113   5.356   2.648
 9889SOL     OW30565   6.067   4.457   0.919
 9889SOL    HW130566   6.043   4.361   0.932
 9889SOL    HW230567   6.134   4.485   0.987
 9890SOL     OW30568   0.582   2.512   1.093
 9890SOL    HW130569   0.624   2.441   1.150
 9890SOL    HW230570   0.571   2.595   1.146
 9891SOL     OW30571   5.904   3.056   1.678
 9891SOL    HW130572   5.853   3.142   1.668
 9891SOL    HW230573   5.846   2.980   1.648
 9892SOL     OW30574   1.581   5.212   2.405
 9892SOL    HW130575   1.584   5.239   2.502
 9892SOL    HW230576   1.554   5.291   2.350
 9893SOL     OW30577   6.433   0.373   2.455
 9893SOL    HW130578   6.397   0.326   2.374
 9893SOL    HW230579   6.460   0.305   2.524
 9894SOL     OW30580   2.942   1.985   6.562
 9894SOL    HW130581   2.989   1.903   6.528
 9894SOL    HW230582   2.966   2.000   6.657
 9895SOL     OW30583   5.059   3.742   5.583
 9895SOL    HW130584   4.975   3.792   5.565
 9895SOL    HW230585   5.091   3.700   5.498
 9896SOL     OW30586   5.426   1.353   0.691
 9896SOL    HW130587   5.471   1.355   0.602
 9896SOL    HW230588   5.471   1.285   0.749
 9897SOL     OW30589   5.537   0.261   2.327
 9897SOL    HW130590   5.587   0.260   2.240
 9897SOL    HW230591   5.529   0.355   2.360
 9898SOL     OW30592   0.718   4.682   6.131
 9898SOL    HW130593   0.698   4.729   6.046
 9898SOL    HW230594   0.666   4.596   6.135
 9899SOL     OW30595   1.258   5.278   2.245
 9899SOL    HW130596   1.281   5.184   2.269
 9899SOL    HW230597   1.342   5.333   2.245
 9900SOL     OW30598   1.528   3.345   1.857
 9900SOL    HW130599   1.535   3.245   1.867
 9900SOL    HW230600   1.550   3.388   1.945
 9901SOL     OW30601   3.274   0.752   6.930
 9901SOL    HW130602   3.236   0.844   6.932
 9901SOL    HW230603   3.207   0.689   6.888
 9902SOL     OW30604   3.927   4.303   1.384
 9902SOL    HW130605   3.858   4.249   1.336
 9902SOL    HW230606   3.963   4.250   1.461
 9903SOL     OW30607   5.445   1.872   1.350
 9903SOL    HW130608   5.454   1.961   1.396
 9903SOL    HW230609   5.470   1.881   1.254
 9904SOL     OW30610   0.549   3.812   6.393
 9904SOL    HW130611   0.612   3.872   6.442
 9904SOL    HW230612   0.522   3.737   6.452
 9905SOL     OW30613   2.160   0.394   5.837
 9905SOL    HW130614   2.151   0.296   5.855
 9905SOL    HW230615   2.182   0.441   5.923
 9906SOL     OW30616   1.952   3.472   0.676
 9906SOL    HW130617   2.033   3.420   0.699
 9906SOL    HW230618   1.973   3.570   0.681
 9907SOL     OW30619   1.118   0.874   1.633
 9907SOL    HW130620   1.151   0.968   1.632
 9907SOL    HW230621   1.112   0.839   1.540
 9908SOL     OW30622   0.047   2.838   5.169
 9908SOL    HW130623   0.039   2.786   5.254
 9908SOL    HW230624   6.981   2.839   5.123
 9909SOL     OW30625   3.863   0.733   2.470
 9909SOL    HW130626   3.857   0.832   2.458
 9909SOL    HW230627   3.959   0.706   2.474
 9910SOL     OW30628   1.584   5.452   1.382
 9910SOL    HW130629   1.590   5.529   1.446
 9910SOL    HW230630   1.510   5.469   1.317
 9911SOL     OW30631   2.900   5.927   2.121
 9911SOL    HW130632   2.986   5.942   2.071
 9911SOL    HW230633   2.881   5.829   2.126
 9912SOL     OW30634   3.913   1.070   1.605
 9912SOL    HW130635   3.970   0.997   1.567
 9912SOL    HW230636   3.971   1.147   1.631
 9913SOL     OW30637   5.925   2.843   1.369
 9913SOL    HW130638   5.903   2.779   1.442
 9913SOL    HW230639   5.844   2.897   1.346
 9914SOL     OW30640   6.965   6.895   5.597
 9914SOL    HW130641   0.013   6.831   5.568
 9914SOL    HW230642   6.879   6.871   5.552
 9915SOL     OW30643   5.704   1.480   3.194
 9915SOL    HW130644   5.715   1.503   3.097
 9915SOL    HW230645   5.656   1.393   3.202
 9916SOL     OW30646   1.839   2.198   3.314
 9916SOL    HW130647   1.865   2.295   3.311
 9916SOL    HW230648   1.769   2.180   3.245
 9917SOL     OW30649   3.473   3.478   5.358
 9917SOL    HW130650   3.511   3.570   5.342
 9917SOL    HW230651   3.533   3.428   5.421
 9918SOL     OW30652   1.133   3.072   2.430
 9918SOL    HW130653   1.219   3.098   2.387
 9918SOL    HW230654   1.067   3.047   2.360
 9919SOL     OW30655   2.647   5.722   2.184
 9919SOL    HW130656   2.664   5.635   2.136
 9919SOL    HW230657   2.570   5.710   2.247
 9920SOL     OW30658   4.640   0.445   2.944
 9920SOL    HW130659   4.731   0.488   2.949
 9920SOL    HW230660   4.589   0.485   2.868
 9921SOL     OW30661   4.519   0.200   4.904
 9921SOL    HW130662   4.466   0.242   4.977
 9921SOL    HW230663   4.552   0.270   4.841
 9922SOL     OW30664   3.960   4.440   1.109
 9922SOL    HW130665   4.030   4.403   1.048
 9922SOL    HW230666   3.964   4.392   1.197
 9923SOL     OW30667   6.217   3.631   0.461
 9923SOL    HW130668   6.216   3.731   0.459
 9923SOL    HW230669   6.311   3.599   0.460
 9924SOL     OW30670   4.996   1.637   3.195
 9924SOL    HW130671   5.057   1.713   3.219
 9924SOL    HW230672   5.037   1.584   3.122
 9925SOL     OW30673   0.770   4.717   3.794
 9925SOL    HW130674   0.691   4.778   3.804
 9925SOL    HW230675   0.826   4.721   3.877
 9926SOL     OW30676   3.883   2.817   0.639
 9926SOL    HW130677   3.797   2.768   0.649
 9926SOL    HW230678   3.877   2.905   0.686
 9927SOL     OW30679   1.385   1.209   0.586
 9927SOL    HW130680   1.446   1.135   0.558
 9927SOL    HW230681   1.426   1.258   0.663
 9928SOL     OW30682   5.721   3.806   3.213
 9928SOL    HW130683   5.814   3.772   3.195
 9928SOL    HW230684   5.668   3.806   3.128
 9929SOL     OW30685   3.772   4.056   4.715
 9929SOL    HW130686   3.793   4.097   4.804
 9929SOL    HW230687   3.781   3.956   4.722
 9930SOL     OW30688   0.601   6.794   6.145
 9930SOL    HW130689   0.560   6.866   6.201
 9930SOL    HW230690   0.692   6.772   6.180
 9931SOL     OW30691   7.004   5.979   4.119
 9931SOL    HW130692   7.009   5.895   4.064
 9931SOL    HW230693   6.945   6.045   4.073
 9932SOL     OW30694   2.792   2.288   5.950
 9932SOL    HW130695   2.815   2.368   6.006
 9932SOL    HW230696   2.865   2.221   5.957
 9933SOL     OW30697   1.786   6.909   4.069
 9933SOL    HW130698   1.876   6.894   4.109
 9933SOL    HW230699   1.781   6.865   3.980
 9934SOL     OW30700   6.832   1.696   6.173
 9934SOL    HW130701   6.795   1.788   6.167
 9934SOL    HW230702   6.775   1.640   6.233
 9935SOL     OW30703   2.859   0.256   1.165
 9935SOL    HW130704   2.875   0.230   1.261
 9935SOL    HW230705   2.775   0.309   1.158
 9936SOL     OW30706   6.461   4.932   0.556
 9936SOL    HW130707   6.367   4.925   0.521
 9936SOL    HW230708   6.473   4.867   0.631
 9937SOL     OW30709   0.774   1.211   1.979
 9937SOL    HW130710   0.794   1.304   2.007
 9937SOL    HW230711   0.779   1.204   1.879
 9938SOL     OW30712   5.744   5.617   4.080
 9938SOL    HW130713   5.826   5.577   4.120
 9938SOL    HW230714   5.726   5.575   3.991
 9939SOL     OW30715   2.857   3.095   0.634
 9939SOL    HW130716   2.854   3.142   0.546
 9939SOL    HW230717   2.921   3.142   0.695
 9940SOL     OW30718   1.292   0.237   2.143
 9940SOL    HW130719   1.247   0.254   2.055
 9940SOL    HW230720   1.291   0.139   2.163
 9941SOL     OW30721   3.229   4.716   6.150
 9941SOL    HW130722   3.163   4.666   6.094
 9941SOL    HW230723   3.180   4.775   6.214
 9942SOL     OW30724   4.102   5.484   2.337
 9942SOL    HW130725   4.035   5.430   2.287
 9942SOL    HW230726   4.115   5.572   2.290
 9943SOL     OW30727   0.994   4.850   6.461
 9943SOL    HW130728   0.917   4.890   6.412
 9943SOL    HW230729   1.002   4.753   6.436
 9944SOL     OW30730   0.906   4.505   6.758
 9944SOL    HW130731   0.827   4.446   6.739
 9944SOL    HW230732   0.989   4.459   6.726
 9945SOL     OW30733   4.677   5.379   6.828
 9945SOL    HW130734   4.578   5.371   6.820
 9945SOL    HW230735   4.714   5.293   6.864
 9946SOL     OW30736   6.394   0.125   3.257
 9946SOL    HW130737   6.409   0.154   3.351
 9946SOL    HW230738   6.309   0.166   3.223
 9947SOL     OW30739   2.850   2.276   4.896
 9947SOL    HW130740   2.811   2.304   4.984
 9947SOL    HW230741   2.950   2.274   4.904
 9948SOL     OW30742   6.196   5.845   4.899
 9948SOL    HW130743   6.165   5.915   4.963
 9948SOL    HW230744   6.170   5.755   4.934
 9949SOL     OW30745   0.557   4.854   3.901
 9949SOL    HW130746   0.580   4.822   3.993
 9949SOL    HW230747   0.458   4.861   3.892
 9950SOL     OW30748   6.086   6.227   6.883
 9950SOL    HW130749   5.986   6.235   6.881
 9950SOL    HW230750   6.121   6.267   6.967
 9951SOL     OW30751   0.735   2.508   3.230
 9951SOL    HW130752   0.816   2.566   3.228
 9951SOL    HW230753   0.668   2.547   3.293
 9952SOL     OW30754   2.036   3.988   0.871
 9952SOL    HW130755   2.121   3.990   0.820
 9952SOL    HW230756   2.039   3.915   0.939
 9953SOL     OW30757   6.032   1.838   3.655
 9953SOL    HW130758   6.050   1.748   3.693
 9953SOL    HW230759   6.112   1.897   3.671
 9954SOL     OW30760   1.562   0.093   5.269
 9954SOL    HW130761   1.615   0.049   5.341
 9954SOL    HW230762   1.593   0.060   5.180
 9955SOL     OW30763   4.514   3.515   6.187
 9955SOL    HW130764   4.467   3.427   6.181
 9955SOL    HW230765   4.496   3.568   6.104
 9956SOL     OW30766   0.450   5.087   3.735
 9956SOL    HW130767   0.418   5.182   3.724
 9956SOL    HW230768   0.488   5.076   3.827
 9957SOL     OW30769   5.900   0.452   1.901
 9957SOL    HW130770   5.940   0.514   1.969
 9957SOL    HW230771   5.969   0.388   1.869
 9958SOL     OW30772   2.808   5.946   6.809
 9958SOL    HW130773   2.736   6.006   6.845
 9958SOL    HW230774   2.896   5.972   6.849
 9959SOL     OW30775   4.108   3.636   3.464
 9959SOL    HW130776   4.189   3.588   3.497
 9959SOL    HW230777   4.122   3.665   3.369
 9960SOL     OW30778   0.671   6.675   2.295
 9960SOL    HW130779   0.572   6.682   2.283
 9960SOL    HW230780   0.712   6.766   2.286
 9961SOL     OW30781   1.756   5.140   4.385
 9961SOL    HW130782   1.758   5.218   4.447
 9961SOL    HW230783   1.839   5.085   4.398
 9962SOL     OW30784   4.482   0.538   2.729
 9962SOL    HW130785   4.544   0.613   2.705
 9962SOL    HW230786   4.390   0.574   2.745
 9963SOL     OW30787   2.108   2.701   6.162
 9963SOL    HW130788   2.087   2.690   6.259
 9963SOL    HW230789   2.184   2.766   6.152
 9964SOL     OW30790   4.325   4.638   6.069
 9964SOL    HW130791   4.273   4.554   6.088
 9964SOL    HW230792   4.353   4.640   5.973
 9965SOL     OW30793   3.612   4.815   5.458
 9965SOL    HW130794   3.521   4.847   5.434
 9965SOL    HW230795   3.653   4.879   5.524
 9966SOL     OW30796   2.846   5.444   2.322
 9966SOL    HW130797   2.753   5.438   2.287
 9966SOL    HW230798   2.868   5.540   2.340
 9967SOL     OW30799   5.392   5.824   1.580
 9967SOL    HW130800   5.314   5.864   1.628
 9967SOL    HW230801   5.389   5.725   1.590
 9968SOL     OW30802   3.461   5.361   6.390
 9968SOL    HW130803   3.487   5.303   6.468
 9968SOL    HW230804   3.518   5.338   6.312
 9969SOL     OW30805   0.589   2.620   4.040
 9969SOL    HW130806   0.527   2.557   4.087
 9969SOL    HW230807   0.592   2.706   4.091
 9970SOL     OW30808   6.512   4.524   1.941
 9970SOL    HW130809   6.571   4.557   1.867
 9970SOL    HW230810   6.471   4.602   1.989
 9971SOL     OW30811   2.497   4.199   0.464
 9971SOL    HW130812   2.487   4.238   0.373
 9971SOL    HW230813   2.458   4.107   0.465
 9972SOL     OW30814   3.578   4.587   0.195
 9972SOL    HW130815   3.551   4.616   0.287
 9972SOL    HW230816   3.498   4.581   0.136
 9973SOL     OW30817   4.211   2.116   4.695
 9973SOL    HW130818   4.149   2.119   4.617
 9973SOL    HW230819   4.191   2.035   4.751
 9974SOL     OW30820   6.140   3.659   3.365
 9974SOL    HW130821   6.182   3.571   3.342
 9974SOL    HW230822   6.210   3.730   3.370
 9975SOL     OW30823   0.151   4.503   0.205
 9975SOL    HW130824   0.052   4.497   0.194
 9975SOL    HW230825   0.183   4.433   0.269
 9976SOL     OW30826   6.943   5.691   5.561
 9976SOL    HW130827   6.853   5.729   5.539
 9976SOL    HW230828   7.010   5.765   5.568
 9977SOL     OW30829   6.664   4.906   5.739
 9977SOL    HW130830   6.585   4.853   5.708
 9977SOL    HW230831   6.661   4.998   5.700
 9978SOL     OW30832   6.461   2.281   3.940
 9978SOL    HW130833   6.442   2.353   4.007
 9978SOL    HW230834   6.425   2.308   3.851
 9979SOL     OW30835   6.648   5.033   6.380
 9979SOL    HW130836   6.597   4.973   6.318
 9979SOL    HW230837   6.715   4.978   6.430
 9980SOL     OW30838   1.459   1.390   6.411
 9980SOL    HW130839   1.435   1.359   6.503
 9980SOL    HW230840   1.516   1.472   6.418
 9981SOL     OW30841   2.463   1.880   1.152
 9981SOL    HW130842   2.365   1.888   1.171
 9981SOL    HW230843   2.478   1.810   1.082
 9982SOL     OW30844   0.732   1.843   2.910
 9982SOL    HW130845   0.683   1.785   2.975
 9982SOL    HW230846   0.667   1.904   2.865
 9983SOL     OW30847   1.299   1.941   1.729
 9983SOL    HW130848   1.297   1.927   1.828
 9983SOL    HW230849   1.357   2.020   1.708
 9984SOL     OW30850   1.297   0.152   0.467
 9984SOL    HW130851   1.396   0.138   0.469
 9984SOL    HW230852   1.262   0.157   0.560
 9985SOL     OW30853   3.072   0.724   1.254
 9985SOL    HW130854   3.132   0.729   1.334
 9985SOL    HW230855   3.108   0.783   1.182
 9986SOL     OW30856   5.401   4.160   6.507
 9986SOL    HW130857   5.459   4.132   6.584
 9986SOL    HW230858   5.310   4.121   6.518
 9987SOL     OW30859   5.131   1.988   2.918
 9987SOL    HW130860   5.109   1.890   2.917
 9987SOL    HW230861   5.084   2.034   2.843
 9988SOL     OW30862   0.100   5.740   5.045
 9988SOL    HW130863   0.009   5.721   5.006
 9988SOL    HW230864   0.110   5.838   5.058
 9989SOL     OW30865   5.292   3.587   2.475
 9989SOL    HW130866   5.198   3.587   2.440
 9989SOL    HW230867   5.348   3.649   2.420
 9990SOL     OW30868   2.660   6.667   3.454
 9990SOL    HW130869   2.724   6.620   3.515
 9990SOL    HW230870   2.689   6.762   3.442
 9991SOL     OW30871   1.147   2.977   5.041
 9991SOL    HW130872   1.086   3.012   4.970
 9991SOL    HW230873   1.176   2.884   5.017
 9992SOL     OW30874   5.183   3.600   0.637
 9992SOL    HW130875   5.179   3.697   0.658
 9992SOL    HW230876   5.113   3.551   0.689
 9993SOL     OW30877   4.539   6.834   2.638
 9993SOL    HW130878   4.488   6.774   2.699
 9993SOL    HW230879   4.627   6.792   2.615
 9994SOL     OW30880   6.655   3.716   4.470
 9994SOL    HW130881   6.732   3.705   4.407
 9994SOL    HW230882   6.638   3.814   4.484
 9995SOL     OW30883   2.726   6.959   2.587
 9995SOL    HW130884   2.731   6.921   2.679
 9995SOL    HW230885   2.794   0.008   2.577
 9996SOL     OW30886   2.812   2.204   1.185
 9996SOL    HW130887   2.715   2.182   1.195
 9996SOL    HW230888   2.821   2.299   1.158
 9997SOL     OW30889   4.046   2.006   0.968
 9997SOL    HW130890   4.115   2.079   0.962
 9997SOL    HW230891   3.965   2.032   0.915
 9998SOL     OW30892   6.844   3.783   2.036
 9998SOL    HW130893   6.801   3.701   1.998
 9998SOL    HW230894   6.943   3.779   2.019
 9999SOL     OW30895   6.268   4.470   4.532
 9999SOL    HW130896   6.190   4.408   4.517
 9999SOL    HW230897   6.273   4.536   4.457
10000SOL     OW30898   5.973   2.533   6.819
10000SOL    HW130899   5.929   2.458   6.770
10000SOL    HW230900   6.007   2.500   6.907
10001SOL     OW30901   5.003   1.260   1.616
10001SOL    HW130902   5.098   1.291   1.630
10001SOL    HW230903   5.002   1.160   1.607
10002SOL     OW30904   1.416   0.662   1.378
10002SOL    HW130905   1.489   0.709   1.329
10002SOL    HW230906   1.452   0.626   1.465
10003SOL     OW30907   3.888   2.074   3.606
10003SOL    HW130908   3.832   2.068   3.688
10003SOL    HW230909   3.976   2.116   3.629
10004SOL     OW30910   4.921   2.933   4.513
10004SOL    HW130911   5.012   2.951   4.552
10004SOL    HW230912   4.928   2.865   4.441
10005SOL     OW30913   4.777   5.662   3.394
10005SOL    HW130914   4.744   5.720   3.469
10005SOL    HW230915   4.838   5.592   3.430
10006SOL     OW30916   5.709   1.126   4.262
10006SOL    HW130917   5.732   1.038   4.302
10006SOL    HW230918   5.761   1.198   4.308
10007SOL     OW30919   1.008   4.574   4.956
10007SOL    HW130920   1.068   4.535   5.026
10007SOL    HW230921   0.994   4.671   4.973
10008SOL     OW30922   3.994   1.540   4.074
10008SOL    HW130923   3.922   1.607   4.095
10008SOL    HW230924   4.077   1.588   4.045
10009SOL     OW30925   2.090   3.825   1.373
10009SOL    HW130926   2.008   3.801   1.424
10009SOL    HW230927   2.124   3.914   1.404
10010SOL     OW30928   2.168   6.631   6.977
10010SOL    HW130929   2.198   6.715   6.931
10010SOL    HW230930   2.083   6.599   6.936
10011SOL     OW30931   0.162   2.507   5.173
10011SOL    HW130932   0.164   2.577   5.244
10011SOL    HW230933   0.154   2.417   5.215
10012SOL     OW30934   5.198   7.000   2.790
10012SOL    HW130935   5.188   6.981   2.692
10012SOL    HW230936   5.251   6.927   2.833
10013SOL     OW30937   1.805   1.692   4.213
10013SOL    HW130938   1.746   1.633   4.157
10013SOL    HW230939   1.861   1.749   4.154
10014SOL     OW30940   6.470   2.590   0.128
10014SOL    HW130941   6.453   2.615   0.223
10014SOL    HW230942   6.538   2.517   0.124
10015SOL     OW30943   2.869   4.312   0.330
10015SOL    HW130944   2.933   4.276   0.262
10015SOL    HW230945   2.776   4.282   0.308
10016SOL     OW30946   2.383   0.166   5.000
10016SOL    HW130947   2.311   0.207   4.943
10016SOL    HW230948   2.365   0.186   5.096
10017SOL     OW30949   1.862   2.653   2.130
10017SOL    HW130950   1.920   2.581   2.093
10017SOL    HW230951   1.891   2.742   2.093
10018SOL     OW30952   5.352   6.606   6.144
10018SOL    HW130953   5.296   6.614   6.061
10018SOL    HW230954   5.438   6.559   6.122
10019SOL     OW30955   1.376   1.832   3.135
10019SOL    HW130956   1.316   1.812   3.213
10019SOL    HW230957   1.464   1.788   3.149
10020SOL     OW30958   6.990   2.511   1.121
10020SOL    HW130959   6.939   2.476   1.199
10020SOL    HW230960   0.065   2.495   1.134
10021SOL     OW30961   0.977   2.858   1.345
10021SOL    HW130962   1.005   2.954   1.335
10021SOL    HW230963   1.054   2.805   1.381
10022SOL     OW30964   3.311   6.817   1.046
10022SOL    HW130965   3.287   6.818   0.949
10022SOL    HW230966   3.395   6.764   1.059
10023SOL     OW30967   1.697   5.361   5.839
10023SOL    HW130968   1.775   5.398   5.890
10023SOL    HW230969   1.730   5.298   5.768
10024SOL     OW30970   2.229   6.672   2.047
10024SOL    HW130971   2.170   6.752   2.034
10024SOL    HW230972   2.306   6.698   2.105
10025SOL     OW30973   1.128   0.813   1.075
10025SOL    HW130974   1.078   0.727   1.088
10025SOL    HW230975   1.064   0.885   1.048
10026SOL     OW30976   4.825   6.396   3.750
10026SOL    HW130977   4.745   6.424   3.696
10026SOL    HW230978   4.794   6.362   3.839
10027SOL     OW30979   0.734   4.475   5.021
10027SOL    HW130980   0.738   4.383   4.983
10027SOL    HW230981   0.826   4.514   5.026
10028SOL     OW30982   1.476   1.739   1.607
10028SOL    HW130983   1.413   1.804   1.649
10028SOL    HW230984   1.569   1.756   1.640
10029SOL     OW30985   3.267   1.728   3.615
10029SOL    HW130986   3.183   1.770   3.581
10029SOL    HW230987   3.293   1.771   3.701
10030SOL     OW30988   2.447   6.675   4.174
10030SOL    HW130989   2.471   6.581   4.200
10030SOL    HW230990   2.531   6.726   4.156
10031SOL     OW30991   6.106   5.218   3.625
10031SOL    HW130992   6.148   5.248   3.539
10031SOL    HW230993   6.109   5.293   3.691
10032SOL     OW30994   3.232   1.051   5.242
10032SOL    HW130995   3.230   1.129   5.304
10032SOL    HW230996   3.255   0.968   5.293
10033SOL     OW30997   4.891   2.362   4.212
10033SOL    HW130998   4.950   2.413   4.275
10033SOL    HW230999   4.930   2.364   4.121
10034SOL     OW31000   3.069   0.200   4.194
10034SOL    HW131001   3.147   0.220   4.135
10034SOL    HW231002   3.020   0.284   4.214
10035SOL     OW31003   6.873   4.281   2.143
10035SOL    HW131004   6.783   4.274   2.101
10035SOL    HW231005   6.879   4.218   2.221
10036SOL     OW31006   5.392   1.717   0.677
10036SOL    HW131007   5.441   1.746   0.595
10036SOL    HW231008   5.403   1.618   0.689
10037SOL     OW31009   5.722   1.657   0.923
10037SOL    HW131010   5.699   1.605   0.841
10037SOL    HW231011   5.669   1.622   1.001
10038SOL     OW31012   4.022   1.151   6.668
10038SOL    HW131013   3.987   1.057   6.675
10038SOL    HW231014   4.076   1.172   6.749
10039SOL     OW31015   3.413   0.234   4.027
10039SOL    HW131016   3.354   0.153   4.033
10039SOL    HW231017   3.434   0.253   3.931
10040SOL     OW31018   4.060   5.784   6.237
10040SOL    HW131019   4.054   5.700   6.293
10040SOL    HW231020   4.123   5.769   6.161
10041SOL     OW31021   4.047   6.273   6.098
10041SOL    HW131022   4.076   6.259   6.192
10041SOL    HW231023   4.068   6.367   6.070
10042SOL     OW31024   0.874   1.586   4.618
10042SOL    HW131025   0.776   1.599   4.635
10042SOL    HW231026   0.890   1.576   4.520
10043SOL     OW31027   6.628   2.051   4.707
10043SOL    HW131028   6.710   2.056   4.650
10043SOL    HW231029   6.555   2.006   4.656
10044SOL     OW31030   2.707   1.482   5.185
10044SOL    HW131031   2.761   1.541   5.246
10044SOL    HW231032   2.724   1.507   5.090
10045SOL     OW31033   3.890   0.601   3.205
10045SOL    HW131034   3.952   0.676   3.182
10045SOL    HW231035   3.799   0.620   3.167
10046SOL     OW31036   2.304   3.994   0.734
10046SOL    HW131037   2.301   3.989   0.634
10046SOL    HW231038   2.390   4.038   0.762
10047SOL     OW31039   0.751   3.931   5.170
10047SOL    HW131040   0.765   3.940   5.071
10047SOL    HW231041   0.654   3.923   5.189
10048SOL     OW31042   6.294   0.917   2.761
10048SOL    HW131043   6.383   0.881   2.731
10048SOL    HW231044   6.274   0.884   2.853
10049SOL     OW31045   0.416   1.764   6.454
10049SOL    HW131046   0.438   1.700   6.380
10049SOL    HW231047   0.343   1.726   6.511
10050SOL     OW31048   5.455   4.077   4.616
10050SOL    HW131049   5.430   3.980   4.618
10050SOL    HW231050   5.375   4.133   4.635
10051SOL     OW31051   6.265   3.656   5.682
10051SOL    HW131052   6.252   3.724   5.754
10051SOL    HW231053   6.186   3.596   5.678
10052SOL     OW31054   1.682   1.319   3.101
10052SOL    HW131055   1.721   1.402   3.061
10052SOL    HW231056   1.608   1.344   3.164
10053SOL     OW31057   3.808   5.439   3.024
10053SOL    HW131058   3.885   5.415   2.965
10053SOL    HW231059   3.790   5.538   3.018
10054SOL     OW31060   5.484   6.024   6.497
10054SOL    HW131061   5.552   6.074   6.444
10054SOL    HW231062   5.414   5.987   6.436
10055SOL     OW31063   6.031   1.186   4.702
10055SOL    HW131064   6.077   1.208   4.788
10055SOL    HW231065   5.957   1.121   4.719
10056SOL     OW31066   5.419   4.318   2.904
10056SOL    HW131067   5.363   4.244   2.864
10056SOL    HW231068   5.360   4.379   2.956
10057SOL     OW31069   4.188   2.519   5.554
10057SOL    HW131070   4.093   2.523   5.524
10057SOL    HW231071   4.231   2.437   5.517
10058SOL     OW31072   6.550   3.414   5.366
10058SOL    HW131073   6.620   3.458   5.423
10058SOL    HW231074   6.589   3.387   5.279
10059SOL     OW31075   0.063   1.302   0.659
10059SOL    HW131076   7.017   1.230   0.661
10059SOL    HW231077   0.094   1.321   0.752
10060SOL     OW31078   2.191   3.072   2.266
10060SOL    HW131079   2.158   3.125   2.344
10060SOL    HW231080   2.180   3.126   2.182
10061SOL     OW31081   4.507   1.363   4.493
10061SOL    HW131082   4.580   1.307   4.532
10061SOL    HW231083   4.428   1.305   4.473
10062SOL     OW31084   5.454   0.301   3.739
10062SOL    HW131085   5.444   0.235   3.663
10062SOL    HW231086   5.469   0.251   3.824
10063SOL     OW31087   2.716   0.869   4.000
10063SOL    HW131088   2.716   0.883   4.098
10063SOL    HW231089   2.692   0.954   3.953
10064SOL     OW31090   4.780   6.563   0.374
10064SOL    HW131091   4.748   6.472   0.401
10064SOL    HW231092   4.704   6.615   0.334
10065SOL     OW31093   2.641   6.834   2.826
10065SOL    HW131094   2.596   6.832   2.916
10065SOL    HW231095   2.572   6.830   2.754
10066SOL     OW31096   0.550   2.378   4.229
10066SOL    HW131097   0.624   2.403   4.292
10066SOL    HW231098   0.540   2.278   4.226
10067SOL     OW31099   0.383   3.707   4.997
10067SOL    HW131100   0.301   3.711   5.054
10067SOL    HW231101   0.367   3.648   4.918
10068SOL     OW31102   0.582   3.507   3.467
10068SOL    HW131103   0.660   3.570   3.459
10068SOL    HW231104   0.614   3.419   3.503
10069SOL     OW31105   3.241   4.956   1.556
10069SOL    HW131106   3.298   5.005   1.490
10069SOL    HW231107   3.300   4.911   1.624
10070SOL     OW31108   6.934   6.447   5.228
10070SOL    HW131109   0.005   6.416   5.238
10070SOL    HW231110   6.924   6.498   5.142
10071SOL     OW31111   6.542   5.867   4.476
10071SOL    HW131112   6.610   5.940   4.477
10071SOL    HW231113   6.453   5.905   4.452
10072SOL     OW31114   0.676   6.822   4.150
10072SOL    HW131115   0.727   6.864   4.225
10072SOL    HW231116   0.578   6.828   4.168
10073SOL     OW31117   6.781   4.167   4.281
10073SOL    HW131118   6.822   4.133   4.366
10073SOL    HW231119   6.761   4.091   4.220
10074SOL     OW31120   2.425   0.080   6.098
10074SOL    HW131121   2.396   0.001   6.043
10074SOL    HW231122   2.517   0.064   6.134
10075SOL     OW31123   1.672   2.394   2.019
10075SOL    HW131124   1.729   2.343   2.083
10075SOL    HW231125   1.730   2.441   1.953
10076SOL     OW31126   5.965   5.885   3.414
10076SOL    HW131127   5.999   5.907   3.505
10076SOL    HW231128   5.958   5.969   3.360
10077SOL     OW31129   4.602   3.421   0.253
10077SOL    HW131130   4.522   3.382   0.298
10077SOL    HW231131   4.619   3.372   0.167
10078SOL     OW31132   6.460   6.256   4.098
10078SOL    HW131133   6.400   6.261   4.178
10078SOL    HW231134   6.555   6.268   4.127
10079SOL     OW31135   5.962   3.037   3.532
10079SOL    HW131136   6.046   2.993   3.499
10079SOL    HW231137   5.888   3.019   3.468
10080SOL     OW31138   5.436   0.828   5.776
10080SOL    HW131139   5.410   0.905   5.832
10080SOL    HW231140   5.443   0.857   5.680
10081SOL     OW31141   0.606   1.665   0.205
10081SOL    HW131142   0.638   1.687   0.297
10081SOL    HW231143   0.679   1.619   0.154
10082SOL     OW31144   0.672   5.240   1.838
10082SOL    HW131145   0.619   5.271   1.917
10082SOL    HW231146   0.767   5.268   1.850
10083SOL     OW31147   3.771   0.288   3.809
10083SOL    HW131148   3.828   0.370   3.817
10083SOL    HW231149   3.770   0.240   3.897
10084SOL     OW31150   1.336   0.589   5.786
10084SOL    HW131151   1.261   0.652   5.805
10084SOL    HW231152   1.401   0.633   5.724
10085SOL     OW31153   3.122   6.603   0.697
10085SOL    HW131154   3.033   6.619   0.739
10085SOL    HW231155   3.110   6.563   0.606
10086SOL     OW31156   6.120   5.857   2.971
10086SOL    HW131157   6.038   5.821   3.017
10086SOL    HW231158   6.177   5.781   2.941
10087SOL     OW31159   6.487   5.732   3.868
10087SOL    HW131160   6.475   5.660   3.799
10087SOL    HW231161   6.551   5.801   3.833
10088SOL     OW31162   6.739   6.796   2.503
10088SOL    HW131163   6.790   6.777   2.587
10088SOL    HW231164   6.667   6.863   2.522
10089SOL     OW31165   2.859   2.134   3.679
10089SOL    HW131166   2.957   2.114   3.681
10089SOL    HW231167   2.818   2.091   3.598
10090SOL     OW31168   6.996   5.067   1.789
10090SOL    HW131169   6.958   5.093   1.878
10090SOL    HW231170   0.036   4.990   1.802
10091SOL     OW31171   6.800   5.789   6.548
10091SOL    HW131172   6.708   5.751   6.544
10091SOL    HW231173   6.797   5.881   6.586
10092SOL     OW31174   2.025   3.087   6.327
10092SOL    HW131175   2.115   3.101   6.285
10092SOL    HW231176   2.036   3.041   6.415
10093SOL     OW31177   4.545   3.512   5.334
10093SOL    HW131178   4.600   3.446   5.383
10093SOL    HW231179   4.603   3.587   5.302
10094SOL     OW31180   2.781   5.853   1.475
10094SOL    HW131181   2.684   5.864   1.453
10094SOL    HW231182   2.792   5.841   1.574
10095SOL     OW31183   5.311   1.328   4.565
10095SOL    HW131184   5.243   1.370   4.624
10095SOL    HW231185   5.336   1.238   4.601
10096SOL     OW31186   4.741   6.384   2.474
10096SOL    HW131187   4.753   6.350   2.567
10096SOL    HW231188   4.830   6.389   2.429
10097SOL     OW31189   1.529   2.014   0.025
10097SOL    HW131190   1.469   2.003   6.969
10097SOL    HW231191   1.586   1.933   0.034
10098SOL     OW31192   2.805   0.255   5.176
10098SOL    HW131193   2.769   0.345   5.198
10098SOL    HW231194   2.904   0.260   5.167
10099SOL     OW31195   0.902   4.633   0.856
10099SOL    HW131196   0.957   4.555   0.828
10099SOL    HW231197   0.889   4.695   0.779
10100SOL     OW31198   5.093   6.327   5.371
10100SOL    HW131199   5.075   6.274   5.288
10100SOL    HW231200   5.105   6.264   5.449
10101SOL     OW31201   6.925   2.956   2.085
10101SOL    HW131202   6.964   2.874   2.043
10101SOL    HW231203   6.826   2.950   2.084
10102SOL     OW31204   0.173   1.047   1.695
10102SOL    HW131205   0.156   1.111   1.770
10102SOL    HW231206   0.271   1.039   1.680
10103SOL     OW31207   2.200   0.164   5.561
10103SOL    HW131208   2.249   0.248   5.582
10103SOL    HW231209   2.250   0.086   5.597
10104SOL     OW31210   1.377   2.104   5.654
10104SOL    HW131211   1.400   2.044   5.578
10104SOL    HW231212   1.383   2.200   5.625
10105SOL     OW31213   2.175   0.154   5.975
10105SOL    HW131214   2.168   0.056   5.957
10105SOL    HW231215   2.250   0.171   6.040
10106SOL     OW31216   3.571   6.656   0.802
10106SOL    HW131217   3.588   6.557   0.809
10106SOL    HW231218   3.566   6.695   0.893
10107SOL     OW31219   5.152   1.584   5.980
10107SOL    HW131220   5.122   1.609   6.072
10107SOL    HW231221   5.226   1.516   5.986
10108SOL     OW31222   6.861   1.274   0.339
10108SOL    HW131223   6.833   1.307   0.430
10108SOL    HW231224   6.851   1.175   0.335
10109SOL     OW31225   0.033   0.751   0.895
10109SOL    HW131226   0.079   0.806   0.964
10109SOL    HW231227   6.990   0.690   0.940
10110SOL     OW31228   4.935   4.826   3.931
10110SOL    HW131229   5.005   4.758   3.953
10110SOL    HW231230   4.867   4.785   3.871
10111SOL     OW31231   6.896   3.638   3.596
10111SOL    HW131232   6.798   3.630   3.580
10111SOL    HW231233   6.913   3.645   3.694
10112SOL     OW31234   5.892   3.157   3.182
10112SOL    HW131235   5.878   3.237   3.240
10112SOL    HW231236   5.980   3.166   3.134
10113SOL     OW31237   4.384   6.934   0.526
10113SOL    HW131238   4.309   6.929   0.460
10113SOL    HW231239   4.446   7.008   0.500
10114SOL     OW31240   4.287   2.013   2.192
10114SOL    HW131241   4.358   1.948   2.167
10114SOL    HW231242   4.301   2.044   2.286
10115SOL     OW31243   4.396   2.128   5.202
10115SOL    HW131244   4.469   2.153   5.138
10115SOL    HW231245   4.354   2.042   5.172
10116SOL     OW31246   0.692   6.583   6.810
10116SOL    HW131247   0.706   6.584   6.711
10116SOL    HW231248   0.727   6.668   6.849
10117SOL     OW31249   6.687   6.526   5.729
10117SOL    HW131250   6.684   6.573   5.818
10117SOL    HW231251   6.594   6.511   5.696
10118SOL     OW31252   2.569   4.526   3.558
10118SOL    HW131253   2.640   4.591   3.586
10118SOL    HW231254   2.575   4.511   3.460
10119SOL     OW31255   6.470   5.081   3.754
10119SOL    HW131256   6.374   5.077   3.783
10119SOL    HW231257   6.515   4.995   3.777
10120SOL     OW31258   1.843   3.827   4.195
10120SOL    HW131259   1.820   3.746   4.142
10120SOL    HW231260   1.769   3.847   4.259
10121SOL     OW31261   5.715   3.985   0.137
10121SOL    HW131262   5.702   4.011   0.232
10121SOL    HW231263   5.783   3.912   0.132
10122SOL     OW31264   5.252   2.751   3.524
10122SOL    HW131265   5.179   2.778   3.461
10122SOL    HW231266   5.240   2.656   3.552
10123SOL     OW31267   5.267   6.330   0.745
10123SOL    HW131268   5.195   6.379   0.697
10123SOL    HW231269   5.342   6.309   0.681
10124SOL     OW31270   1.565   4.991   0.601
10124SOL    HW131271   1.603   4.946   0.521
10124SOL    HW231272   1.593   5.087   0.602
10125SOL     OW31273   2.129   1.191   0.951
10125SOL    HW131274   2.170   1.151   0.869
10125SOL    HW231275   2.180   1.159   1.032
10126SOL     OW31276   0.409   0.167   6.969
10126SOL    HW131277   0.429   0.205   6.878
10126SOL    HW231278   0.493   0.126   7.006
10127SOL     OW31279   2.148   3.883   0.151
10127SOL    HW131280   2.183   3.805   0.099
10127SOL    HW231281   2.107   3.851   0.236
10128SOL     OW31282   3.239   0.915   5.706
10128SOL    HW131283   3.339   0.908   5.706
10128SOL    HW231284   3.210   0.987   5.770
10129SOL     OW31285   6.940   1.479   2.248
10129SOL    HW131286   6.854   1.461   2.296
10129SOL    HW231287   6.985   1.392   2.226
10130SOL     OW31288   0.720   3.697   1.330
10130SOL    HW131289   0.685   3.612   1.289
10130SOL    HW231290   0.649   3.738   1.387
10131SOL     OW31291   2.211   0.215   4.630
10131SOL    HW131292   2.187   0.171   4.544
10131SOL    HW231293   2.129   0.253   4.672
10132SOL     OW31294   1.842   0.582   3.156
10132SOL    HW131295   1.919   0.643   3.172
10132SOL    HW231296   1.869   0.510   3.093
10133SOL     OW31297   4.585   6.669   1.109
10133SOL    HW131298   4.518   6.720   1.055
10133SOL    HW231299   4.567   6.571   1.101
10134SOL     OW31300   5.347   1.398   2.799
10134SOL    HW131301   5.290   1.391   2.717
10134SOL    HW231302   5.313   1.335   2.868
10135SOL     OW31303   5.095   2.535   4.343
10135SOL    HW131304   5.093   2.622   4.393
10135SOL    HW231305   5.156   2.543   4.264
10136SOL     OW31306   5.376   1.664   2.289
10136SOL    HW131307   5.456   1.642   2.346
10136SOL    HW231308   5.293   1.637   2.337
10137SOL     OW31309   0.442   4.483   5.442
10137SOL    HW131310   0.398   4.471   5.531
10137SOL    HW231311   0.540   4.496   5.454
10138SOL     OW31312   5.616   3.278   0.074
10138SOL    HW131313   5.595   3.315   0.165
10138SOL    HW231314   5.553   3.202   0.055
10139SOL     OW31315   2.928   3.811   4.824
10139SOL    HW131316   2.837   3.811   4.866
10139SOL    HW231317   2.973   3.723   4.843
10140SOL     OW31318   0.295   6.752   6.716
10140SOL    HW131319   0.356   6.829   6.733
10140SOL    HW231320   0.343   6.666   6.736
10141SOL     OW31321   4.489   1.216   5.043
10141SOL    HW131322   4.453   1.212   4.950
10141SOL    HW231323   4.418   1.249   5.105
10142SOL     OW31324   6.174   6.537   5.781
10142SOL    HW131325   6.123   6.513   5.698
10142SOL    HW231326   6.270   6.551   5.758
10143SOL     OW31327   5.316   2.409   0.395
10143SOL    HW131328   5.323   2.508   0.409
10143SOL    HW231329   5.254   2.370   0.463
10144SOL     OW31330   4.460   6.940   6.018
10144SOL    HW131331   4.535   7.000   6.047
10144SOL    HW231332   4.373   6.989   6.026
10145SOL     OW31333   3.864   5.514   2.704
10145SOL    HW131334   3.873   5.606   2.743
10145SOL    HW231335   3.924   5.451   2.753
10146SOL     OW31336   6.294   4.118   4.471
10146SOL    HW131337   6.270   4.024   4.497
10146SOL    HW231338   6.234   4.182   4.517
10147SOL     OW31339   4.973   4.212   6.839
10147SOL    HW131340   4.873   4.214   6.850
10147SOL    HW231341   5.016   4.189   6.926
10148SOL     OW31342   5.893   4.753   0.221
10148SOL    HW131343   5.895   4.831   0.158
10148SOL    HW231344   5.847   4.676   0.176
10149SOL     OW31345   4.951   3.853   1.338
10149SOL    HW131346   4.973   3.809   1.251
10149SOL    HW231347   4.877   3.919   1.325
10150SOL     OW31348   4.245   3.217   1.564
10150SOL    HW131349   4.291   3.146   1.618
10150SOL    HW231350   4.183   3.269   1.624
10151SOL     OW31351   1.412   6.761   6.702
10151SOL    HW131352   1.336   6.723   6.648
10151SOL    HW231353   1.434   6.699   6.777
10152SOL     OW31354   6.748   6.184   3.811
10152SOL    HW131355   6.839   6.209   3.779
10152SOL    HW231356   6.755   6.141   3.902
10153SOL     OW31357   5.214   6.260   3.836
10153SOL    HW131358   5.314   6.261   3.842
10153SOL    HW231359   5.182   6.340   3.787
10154SOL     OW31360   3.677   6.539   5.261
10154SOL    HW131361   3.644   6.631   5.240
10154SOL    HW231362   3.733   6.506   5.185
10155SOL     OW31363   5.049   2.423   5.296
10155SOL    HW131364   4.966   2.478   5.301
10155SOL    HW231365   5.029   2.329   5.325
10156SOL     OW31366   5.375   0.587   1.658
10156SOL    HW131367   5.295   0.534   1.630
10156SOL    HW231368   5.453   0.526   1.669
10157SOL     OW31369   6.951   2.105   0.231
10157SOL    HW131370   6.852   2.094   0.217
10157SOL    HW231371   6.989   2.158   0.156
10158SOL     OW31372   6.134   6.484   0.896
10158SOL    HW131373   6.065   6.415   0.877
10158SOL    HW231374   6.179   6.512   0.811
10159SOL     OW31375   3.771   3.389   2.714
10159SOL    HW131376   3.824   3.364   2.633
10159SOL    HW231377   3.825   3.370   2.796
10160SOL     OW31378   1.366   3.845   3.506
10160SOL    HW131379   1.382   3.930   3.556
10160SOL    HW231380   1.333   3.775   3.569
10161SOL     OW31381   3.530   4.240   6.440
10161SOL    HW131382   3.556   4.143   6.432
10161SOL    HW231383   3.512   4.278   6.350
10162SOL     OW31384   3.003   4.519   0.878
10162SOL    HW131385   2.934   4.447   0.890
10162SOL    HW231386   3.087   4.477   0.843
10163SOL     OW31387   0.460   4.101   7.008
10163SOL    HW131388   0.362   4.099   0.006
10163SOL    HW231389   0.474   4.146   6.920
10164SOL     OW31390   5.705   3.773   4.596
10164SOL    HW131391   5.615   3.796   4.633
10164SOL    HW231392   5.727   3.678   4.615
10165SOL     OW31393   6.555   2.273   3.513
10165SOL    HW131394   6.601   2.187   3.535
10165SOL    HW231395   6.609   2.323   3.445
10166SOL     OW31396   2.212   1.537   1.215
10166SOL    HW131397   2.287   1.541   1.281
10166SOL    HW231398   2.174   1.628   1.200
10167SOL     OW31399   0.041   5.790   0.040
10167SOL    HW131400   6.971   5.797   0.002
10167SOL    HW231401   0.084   5.706   0.008
10168SOL     OW31402   6.771   2.342   6.085
10168SOL    HW131403   6.779   2.264   6.147
10168SOL    HW231404   6.678   2.377   6.087
10169SOL     OW31405   6.557   3.478   3.109
10169SOL    HW131406   6.468   3.443   3.079
10169SOL    HW231407   6.543   3.553   3.174
10170SOL     OW31408   6.151   5.863   6.242
10170SOL    HW131409   6.106   5.893   6.325
10170SOL    HW231410   6.093   5.797   6.194
10171SOL     OW31411   0.513   2.340   3.921
10171SOL    HW131412   0.584   2.327   3.990
10171SOL    HW231413   0.503   2.257   3.867
10172SOL     OW31414   0.879   6.480   4.351
10172SOL    HW131415   0.806   6.412   4.340
10172SOL    HW231416   0.897   6.524   4.263
10173SOL     OW31417   2.264   3.265   6.547
10173SOL    HW131418   2.255   3.292   6.643
10173SOL    HW231419   2.243   3.167   6.538
10174SOL     OW31420   4.954   4.530   3.652
10174SOL    HW131421   4.870   4.564   3.609
10174SOL    HW231422   4.959   4.431   3.643
10175SOL     OW31423   5.843   2.143   3.542
10175SOL    HW131424   5.837   2.222   3.480
10175SOL    HW231425   5.936   2.106   3.539
10176SOL     OW31426   6.336   2.717   5.414
10176SOL    HW131427   6.325   2.815   5.403
10176SOL    HW231428   6.283   2.685   5.492
10177SOL     OW31429   1.402   0.442   0.622
10177SOL    HW131430   1.456   0.364   0.654
10177SOL    HW231431   1.436   0.472   0.533
10178SOL     OW31432   0.889   1.037   0.210
10178SOL    HW131433   0.883   0.975   0.288
10178SOL    HW231434   0.806   1.094   0.207
10179SOL     OW31435   0.972   3.469   6.392
10179SOL    HW131436   0.892   3.417   6.359
10179SOL    HW231437   0.941   3.553   6.436
10180SOL     OW31438   4.815   0.306   0.884
10180SOL    HW131439   4.849   0.381   0.940
10180SOL    HW231440   4.851   0.315   0.791
10181SOL     OW31441   0.623   3.044   0.998
10181SOL    HW131442   0.701   2.990   1.028
10181SOL    HW231443   0.538   3.003   1.031
10182SOL     OW31444   4.952   0.756   6.998
10182SOL    HW131445   4.854   0.774   7.014
10182SOL    HW231446   4.976   0.781   6.904
10183SOL     OW31447   5.755   2.873   5.927
10183SOL    HW131448   5.779   2.878   5.829
10183SOL    HW231449   5.829   2.915   5.980
10184SOL     OW31450   4.748   2.766   6.811
10184SOL    HW131451   4.668   2.724   6.767
10184SOL    HW231452   4.792   2.829   6.747
10185SOL     OW31453   6.201   5.623   2.006
10185SOL    HW131454   6.147   5.614   2.090
10185SOL    HW231455   6.295   5.647   2.030
10186SOL     OW31456   4.895   3.793   4.464
10186SOL    HW131457   4.854   3.882   4.442
10186SOL    HW231458   4.891   3.779   4.563
10187SOL     OW31459   1.452   3.599   6.054
10187SOL    HW131460   1.419   3.508   6.077
10187SOL    HW231461   1.550   3.605   6.076
10188SOL     OW31462   2.463   5.201   6.430
10188SOL    HW131463   2.390   5.178   6.494
10188SOL    HW231464   2.545   5.225   6.480
10189SOL     OW31465   0.881   0.781   6.005
10189SOL    HW131466   0.924   0.722   6.072
10189SOL    HW231467   0.802   0.827   6.046
10190SOL     OW31468   3.988   2.952   1.683
10190SOL    HW131469   3.951   2.960   1.775
10190SOL    HW231470   4.075   2.903   1.686
10191SOL     OW31471   5.079   5.312   6.800
10191SOL    HW131472   5.152   5.245   6.782
10191SOL    HW231473   5.051   5.305   6.896
10192SOL     OW31474   3.413   1.823   5.269
10192SOL    HW131475   3.427   1.802   5.172
10192SOL    HW231476   3.470   1.901   5.295
10193SOL     OW31477   2.970   3.789   2.701
10193SOL    HW131478   3.049   3.774   2.761
10193SOL    HW231479   2.980   3.877   2.654
10194SOL     OW31480   4.689   1.108   4.156
10194SOL    HW131481   4.628   1.100   4.235
10194SOL    HW231482   4.655   1.050   4.082
10195SOL     OW31483   0.026   0.182   1.858
10195SOL    HW131484   6.988   0.169   1.780
10195SOL    HW231485   6.995   0.204   1.940
10196SOL     OW31486   4.625   2.439   3.686
10196SOL    HW131487   4.586   2.462   3.775
10196SOL    HW231488   4.667   2.521   3.646
10197SOL     OW31489   4.501   1.930   3.888
10197SOL    HW131490   4.487   1.978   3.801
10197SOL    HW231491   4.436   1.854   3.894
10198SOL     OW31492   4.088   0.130   1.266
10198SOL    HW131493   4.119   0.213   1.219
10198SOL    HW231494   4.014   0.088   1.214
10199SOL     OW31495   0.874   1.905   7.012
10199SOL    HW131496   0.919   1.993   7.004
10199SOL    HW231497   0.778   1.919   0.012
10200SOL     OW31498   5.268   3.318   5.587
10200SOL    HW131499   5.249   3.338   5.491
10200SOL    HW231500   5.286   3.403   5.636
10201SOL     OW31501   0.430   6.235   0.816
10201SOL    HW131502   0.488   6.229   0.735
10201SOL    HW231503   0.434   6.148   0.866
10202SOL     OW31504   1.859   4.584   0.071
10202SOL    HW131505   1.805   4.503   0.049
10202SOL    HW231506   1.868   4.643   7.014
10203SOL     OW31507   1.282   2.649   1.933
10203SOL    HW131508   1.212   2.670   1.865
10203SOL    HW231509   1.272   2.709   2.012
10204SOL     OW31510   3.382   5.742   6.268
10204SOL    HW131511   3.349   5.693   6.349
10204SOL    HW231512   3.442   5.681   6.215
10205SOL     OW31513   3.098   1.352   2.264
10205SOL    HW131514   3.195   1.334   2.284
10205SOL    HW231515   3.092   1.408   2.181
10206SOL     OW31516   5.211   0.060   6.417
10206SOL    HW131517   5.253   0.116   6.488
10206SOL    HW231518   5.191   0.117   6.338
10207SOL     OW31519   2.301   1.156   6.855
10207SOL    HW131520   2.327   1.062   6.879
10207SOL    HW231521   2.371   1.196   6.796
10208SOL     OW31522   6.502   4.303   3.857
10208SOL    HW131523   6.598   4.297   3.883
10208SOL    HW231524   6.472   4.399   3.862
10209SOL     OW31525   0.306   0.387   5.974
10209SOL    HW131526   0.374   0.456   6.000
10209SOL    HW231527   0.353   0.307   5.935
10210SOL     OW31528   5.305   0.008   1.518
10210SOL    HW131529   5.362   6.953   1.544
10210SOL    HW231530   5.270   0.053   1.599
10211SOL     OW31531   3.966   6.378   5.010
10211SOL    HW131532   3.866   6.381   5.013
10211SOL    HW231533   3.999   6.302   5.066
10212SOL     OW31534   7.016   0.486   5.070
10212SOL    HW131535   6.952   0.563   5.071
10212SOL    HW231536   6.970   0.404   5.104
10213SOL     OW31537   5.295   2.656   2.657
10213SOL    HW131538   5.342   2.628   2.741
10213SOL    HW231539   5.213   2.600   2.645
10214SOL     OW31540   1.159   1.729   2.601
10214SOL    HW131541   1.095   1.661   2.565
10214SOL    HW231542   1.115   1.781   2.673
10215SOL     OW31543   3.651   2.925   3.749
10215SOL    HW131544   3.616   3.011   3.787
10215SOL    HW231545   3.628   2.850   3.810
10216SOL     OW31546   0.706   6.900   0.856
10216SOL    HW131547   0.675   6.981   0.807
10216SOL    HW231548   0.751   6.927   0.941
10217SOL     OW31549   2.328   1.725   3.189
10217SOL    HW131550   2.249   1.764   3.234
10217SOL    HW231551   2.346   1.633   3.225
10218SOL     OW31552   1.697   0.555   2.042
10218SOL    HW131553   1.763   0.539   1.968
10218SOL    HW231554   1.640   0.474   2.053
10219SOL     OW31555   0.062   3.053   2.334
10219SOL    HW131556   6.999   3.053   2.283
10219SOL    HW231557   0.139   3.063   2.270
10220SOL     OW31558   4.338   1.951   1.544
10220SOL    HW131559   4.340   1.861   1.587
10220SOL    HW231560   4.380   1.945   1.453
10221SOL     OW31561   2.015   2.971   4.383
10221SOL    HW131562   2.096   2.999   4.332
10221SOL    HW231563   1.935   2.975   4.324
10222SOL     OW31564   2.745   3.567   5.890
10222SOL    HW131565   2.815   3.626   5.931
10222SOL    HW231566   2.669   3.624   5.859
10223SOL     OW31567   1.823   5.655   6.649
10223SOL    HW131568   1.796   5.709   6.570
10223SOL    HW231569   1.923   5.658   6.660
10224SOL     OW31570   0.011   1.656   5.290
10224SOL    HW131571   0.106   1.659   5.322
10224SOL    HW231572   0.010   1.639   5.192
10225SOL     OW31573   1.934   6.078   6.633
10225SOL    HW131574   1.896   6.170   6.617
10225SOL    HW231575   1.963   6.039   6.545
10226SOL     OW31576   2.555   0.570   6.377
10226SOL    HW131577   2.475   0.625   6.402
10226SOL    HW231578   2.598   0.608   6.295
10227SOL     OW31579   5.224   4.762   0.794
10227SOL    HW131580   5.161   4.753   0.872
10227SOL    HW231581   5.280   4.679   0.788
10228SOL     OW31582   0.729   5.687   2.241
10228SOL    HW131583   0.795   5.625   2.199
10228SOL    HW231584   0.646   5.636   2.264
10229SOL     OW31585   1.091   1.780   4.278
10229SOL    HW131586   1.053   1.818   4.194
10229SOL    HW231587   1.190   1.790   4.278
10230SOL     OW31588   6.248   6.248   3.333
10230SOL    HW131589   6.187   6.313   3.287
10230SOL    HW231590   6.341   6.258   3.297
10231SOL     OW31591   6.083   5.759   5.369
10231SOL    HW131592   5.988   5.791   5.359
10231SOL    HW231593   6.105   5.697   5.294
10232SOL     OW31594   2.950   0.841   4.687
10232SOL    HW131595   2.862   0.829   4.735
10232SOL    HW231596   2.961   0.937   4.662
10233SOL     OW31597   4.971   3.719   5.260
10233SOL    HW131598   4.880   3.681   5.245
10233SOL    HW231599   5.014   3.737   5.171
10234SOL     OW31600   5.300   0.527   0.481
10234SOL    HW131601   5.216   0.485   0.518
10234SOL    HW231602   5.347   0.576   0.554
10235SOL     OW31603   4.105   3.211   0.185
10235SOL    HW131604   4.107   3.118   0.148
10235SOL    HW231605   4.033   3.264   0.139
10236SOL     OW31606   2.058   0.226   1.690
10236SOL    HW131607   2.050   0.249   1.787
10236SOL    HW231608   1.969   0.237   1.646
10237SOL     OW31609   6.615   4.442   0.865
10237SOL    HW131610   6.667   4.366   0.902
10237SOL    HW231611   6.645   4.527   0.908
10238SOL     OW31612   3.357   4.156   3.700
10238SOL    HW131613   3.443   4.146   3.649
10238SOL    HW231614   3.375   4.148   3.798
10239SOL     OW31615   1.578   3.756   5.535
10239SOL    HW131616   1.669   3.774   5.499
10239SOL    HW231617   1.575   3.777   5.632
10240SOL     OW31618   2.075   4.698   3.420
10240SOL    HW131619   2.148   4.737   3.475
10240SOL    HW231620   1.990   4.748   3.437
10241SOL     OW31621   6.658   0.433   2.289
10241SOL    HW131622   6.646   0.352   2.232
10241SOL    HW231623   6.587   0.436   2.359
10242SOL     OW31624   6.969   1.114   6.968
10242SOL    HW131625   6.898   1.070   7.022
10242SOL    HW231626   6.927   1.176   6.902
10243SOL     OW31627   1.126   4.747   1.637
10243SOL    HW131628   1.084   4.747   1.727
10243SOL    HW231629   1.068   4.697   1.573
10244SOL     OW31630   0.879   4.166   0.480
10244SOL    HW131631   0.969   4.196   0.511
10244SOL    HW231632   0.880   4.068   0.462
10245SOL     OW31633   2.718   4.515   6.755
10245SOL    HW131634   2.655   4.441   6.779
10245SOL    HW231635   2.811   4.490   6.782
10246SOL     OW31636   3.491   4.165   3.961
10246SOL    HW131637   3.580   4.119   3.965
10246SOL    HW231638   3.489   4.238   4.030
10247SOL     OW31639   0.022   5.466   5.740
10247SOL    HW131640   6.998   5.540   5.691
10247SOL    HW231641   0.015   5.482   5.838
10248SOL     OW31642   3.152   6.785   2.186
10248SOL    HW131643   3.093   6.806   2.264
10248SOL    HW231644   3.220   6.857   2.175
10249SOL     OW31645   3.235   1.107   5.894
10249SOL    HW131646   3.322   1.157   5.891
10249SOL    HW231647   3.237   1.042   5.969
10250SOL     OW31648   6.899   2.849   0.885
10250SOL    HW131649   6.889   2.948   0.884
10250SOL    HW231650   6.833   2.809   0.950
10251SOL     OW31651   2.295   2.156   5.464
10251SOL    HW131652   2.316   2.165   5.366
10251SOL    HW231653   2.263   2.243   5.499
10252SOL     OW31654   4.826   4.743   0.005
10252SOL    HW131655   4.885   4.663   7.017
10252SOL    HW231656   4.740   4.715   0.049
10253SOL     OW31657   3.745   6.015   0.283
10253SOL    HW131658   3.839   6.009   0.315
10253SOL    HW231659   3.714   6.110   0.284
10254SOL     OW31660   5.098   1.914   5.149
10254SOL    HW131661   5.130   1.976   5.220
10254SOL    HW231662   5.123   1.820   5.173
10255SOL     OW31663   1.848   6.808   1.099
10255SOL    HW131664   1.779   6.833   1.168
10255SOL    HW231665   1.894   6.723   1.127
10256SOL     OW31666   5.968   1.064   1.867
10256SOL    HW131667   5.947   0.980   1.818
10256SOL    HW231668   6.062   1.091   1.850
10257SOL     OW31669   1.843   5.307   4.589
10257SOL    HW131670   1.770   5.334   4.651
10257SOL    HW231671   1.909   5.249   4.638
10258SOL     OW31672   3.620   1.094   4.526
10258SOL    HW131673   3.660   1.139   4.445
10258SOL    HW231674   3.673   1.012   4.547
10259SOL     OW31675   0.334   4.270   3.381
10259SOL    HW131676   0.314   4.350   3.437
10259SOL    HW231677   0.260   4.258   3.313
10260SOL     OW31678   0.377   0.638   3.325
10260SOL    HW131679   0.458   0.653   3.268
10260SOL    HW231680   0.404   0.639   3.421
10261SOL     OW31681   0.027   5.612   3.004
10261SOL    HW131682   6.964   5.662   2.992
10261SOL    HW231683   0.013   5.515   2.984
10262SOL     OW31684   1.999   6.799   4.380
10262SOL    HW131685   1.998   6.699   4.385
10262SOL    HW231686   2.035   6.827   4.291
10263SOL     OW31687   5.215   0.832   6.342
10263SOL    HW131688   5.203   0.825   6.243
10263SOL    HW231689   5.140   0.784   6.388
10264SOL     OW31690   5.905   2.661   5.972
10264SOL    HW131691   5.832   2.726   5.951
10264SOL    HW231692   5.875   2.569   5.944
10265SOL     OW31693   3.055   2.040   3.111
10265SOL    HW131694   2.982   2.108   3.099
10265SOL    HW231695   3.101   2.056   3.199
10266SOL     OW31696   3.120   3.026   4.929
10266SOL    HW131697   3.194   3.092   4.935
10266SOL    HW231698   3.158   2.933   4.926
10267SOL     OW31699   6.314   1.477   0.004
10267SOL    HW131700   6.300   1.418   6.948
10267SOL    HW231701   6.225   1.498   0.046
10268SOL     OW31702   5.417   5.075   1.980
10268SOL    HW131703   5.326   5.087   2.020
10268SOL    HW231704   5.486   5.080   2.052
10269SOL     OW31705   0.469   2.775   5.363
10269SOL    HW131706   0.552   2.818   5.400
10269SOL    HW231707   0.420   2.842   5.307
10270SOL     OW31708   3.273   5.139   3.138
10270SOL    HW131709   3.296   5.194   3.058
10270SOL    HW231710   3.205   5.187   3.193
10271SOL     OW31711   3.515   2.494   6.957
10271SOL    HW131712   3.523   2.594   6.951
10271SOL    HW231713   3.577   2.451   6.892
10272SOL     OW31714   0.683   0.336   5.160
10272SOL    HW131715   0.688   0.351   5.259
10272SOL    HW231716   0.600   0.377   5.124
10273SOL     OW31717   4.096   5.400   2.887
10273SOL    HW131718   4.076   5.314   2.934
10273SOL    HW231719   4.168   5.384   2.819
10274SOL     OW31720   6.880   4.809   4.646
10274SOL    HW131721   6.863   4.796   4.744
10274SOL    HW231722   6.795   4.794   4.595
10275SOL     OW31723   0.838   6.687   1.594
10275SOL    HW131724   0.868   6.726   1.681
10275SOL    HW231725   0.816   6.591   1.606
10276SOL     OW31726   5.767   5.516   5.360
10276SOL    HW131727   5.816   5.601   5.378
10276SOL    HW231728   5.680   5.536   5.316
10277SOL     OW31729   2.374   5.508   4.141
10277SOL    HW131730   2.407   5.448   4.214
10277SOL    HW231731   2.315   5.457   4.080
10278SOL     OW31732   6.680   1.015   4.825
10278SOL    HW131733   6.635   0.993   4.911
10278SOL    HW231734   6.664   1.112   4.803
10279SOL     OW31735   2.548   5.598   4.718
10279SOL    HW131736   2.517   5.615   4.625
10279SOL    HW231737   2.596   5.679   4.752
10280SOL     OW31738   1.255   4.131   1.126
10280SOL    HW131739   1.282   4.069   1.200
10280SOL    HW231740   1.282   4.092   1.038
10281SOL     OW31741   6.076   1.052   2.691
10281SOL    HW131742   6.090   1.149   2.712
10281SOL    HW231743   6.160   1.002   2.710
10282SOL     OW31744   6.381   4.200   4.214
10282SOL    HW131745   6.293   4.209   4.167
10282SOL    HW231746   6.367   4.213   4.312
10283SOL     OW31747   0.591   3.633   0.902
10283SOL    HW131748   0.674   3.655   0.952
10283SOL    HW231749   0.525   3.590   0.963
10284SOL     OW31750   5.355   3.269   5.288
10284SOL    HW131751   5.286   3.257   5.216
10284SOL    HW231752   5.421   3.338   5.258
10285SOL     OW31753   4.855   1.066   1.186
10285SOL    HW131754   4.850   1.101   1.093
10285SOL    HW231755   4.947   1.084   1.223
10286SOL     OW31756   3.375   1.811   3.898
10286SOL    HW131757   3.277   1.823   3.913
10286SOL    HW231758   3.419   1.901   3.890
10287SOL     OW31759   2.492   6.231   0.738
10287SOL    HW131760   2.496   6.134   0.716
10287SOL    HW231761   2.526   6.246   0.831
10288SOL     OW31762   5.151   6.057   2.381
10288SOL    HW131763   5.216   6.080   2.308
10288SOL    HW231764   5.162   6.122   2.456
10289SOL     OW31765   3.260   1.028   2.146
10289SOL    HW131766   3.207   1.054   2.226
10289SOL    HW231767   3.207   1.048   2.063
10290SOL     OW31768   2.909   3.698   1.740
10290SOL    HW131769   2.885   3.695   1.643
10290SOL    HW231770   2.871   3.618   1.786
10291SOL     OW31771   3.541   0.873   3.670
10291SOL    HW131772   3.512   0.906   3.581
10291SOL    HW231773   3.523   0.944   3.739
10292SOL     OW31774   1.986   0.610   4.871
10292SOL    HW131775   1.935   0.686   4.831
10292SOL    HW231776   1.943   0.583   4.958
10293SOL     OW31777   1.720   5.194   3.581
10293SOL    HW131778   1.659   5.184   3.660
10293SOL    HW231779   1.812   5.162   3.606
10294SOL     OW31780   5.738   3.654   2.538
10294SOL    HW131781   5.761   3.600   2.619
10294SOL    HW231782   5.672   3.604   2.482
10295SOL     OW31783   5.543   5.202   6.227
10295SOL    HW131784   5.614   5.180   6.293
10295SOL    HW231785   5.553   5.144   6.146
10296SOL     OW31786   4.589   3.004   0.401
10296SOL    HW131787   4.570   2.907   0.419
10296SOL    HW231788   4.595   3.053   0.488
10297SOL     OW31789   2.025   6.532   6.588
10297SOL    HW131790   1.974   6.569   6.511
10297SOL    HW231791   2.053   6.437   6.568
10298SOL     OW31792   3.574   5.033   2.065
10298SOL    HW131793   3.480   5.045   2.032
10298SOL    HW231794   3.602   4.937   2.053
10299SOL     OW31795   4.888   5.210   2.342
10299SOL    HW131796   4.835   5.252   2.414
10299SOL    HW231797   4.827   5.161   2.279
10300SOL     OW31798   1.630   4.854   3.346
10300SOL    HW131799   1.581   4.823   3.265
10300SOL    HW231800   1.566   4.901   3.407
10301SOL     OW31801   5.835   1.821   3.840
10301SOL    HW131802   5.746   1.866   3.850
10301SOL    HW231803   5.876   1.846   3.752
10302SOL     OW31804   0.841   5.578   3.780
10302SOL    HW131805   0.871   5.550   3.871
10302SOL    HW231806   0.775   5.511   3.744
10303SOL     OW31807   2.251   6.125   2.466
10303SOL    HW131808   2.306   6.072   2.402
10303SOL    HW231809   2.203   6.197   2.417
10304SOL     OW31810   5.128   0.651   2.414
10304SOL    HW131811   5.109   0.554   2.403
10304SOL    HW231812   5.042   0.702   2.414
10305SOL     OW31813   0.443   4.834   6.804
10305SOL    HW131814   0.388   4.798   6.879
10305SOL    HW231815   0.535   4.796   6.808
10306SOL     OW31816   4.286   6.578   0.001
10306SOL    HW131817   4.194   6.574   6.987
10306SOL    HW231818   4.312   6.488   0.037
10307SOL     OW31819   2.275   2.248   4.630
10307SOL    HW131820   2.248   2.260   4.726
10307SOL    HW231821   2.194   2.229   4.575
10308SOL     OW31822   2.523   5.083   4.503
10308SOL    HW131823   2.566   5.100   4.591
10308SOL    HW231824   2.591   5.050   4.438
10309SOL     OW31825   5.883   1.263   4.485
10309SOL    HW131826   5.929   1.277   4.397
10309SOL    HW231827   5.950   1.239   4.554
10310SOL     OW31828   4.369   3.002   1.658
10310SOL    HW131829   4.392   2.934   1.589
10310SOL    HW231830   4.432   2.996   1.735
10311SOL     OW31831   0.676   5.928   1.116
10311SOL    HW131832   0.771   5.919   1.087
10311SOL    HW231833   0.672   5.939   1.215
10312SOL     OW31834   2.373   6.363   1.366
10312SOL    HW131835   2.337   6.276   1.332
10312SOL    HW231836   2.348   6.436   1.302
10313SOL     OW31837   4.341   0.308   1.350
10313SOL    HW131838   4.319   0.268   1.439
10313SOL    HW231839   4.263   0.360   1.316
10314SOL     OW31840   0.004   0.354   2.346
10314SOL    HW131841   0.068   0.373   2.420
10314SOL    HW231842   7.001   0.440   2.301
10315SOL     OW31843   6.342   5.483   4.357
10315SOL    HW131844   6.345   5.385   4.335
10315SOL    HW231845   6.346   5.536   4.273
10316SOL     OW31846   6.657   2.350   5.050
10316SOL    HW131847   6.709   2.400   4.981
10316SOL    HW231848   6.719   2.310   5.117
10317SOL     OW31849   3.705   5.811   5.590
10317SOL    HW131850   3.792   5.786   5.632
10317SOL    HW231851   3.640   5.736   5.600
10318SOL     OW31852   5.091   6.088   6.693
10318SOL    HW131853   5.071   6.018   6.762
10318SOL    HW231854   5.018   6.156   6.692
10319SOL     OW31855   2.011   2.738   5.721
10319SOL    HW131856   2.100   2.721   5.762
10319SOL    HW231857   1.943   2.675   5.761
10320SOL     OW31858   0.770   0.720   1.992
10320SOL    HW131859   0.783   0.741   1.896
10320SOL    HW231860   0.689   0.663   2.003
10321SOL     OW31861   4.344   0.611   3.254
10321SOL    HW131862   4.295   0.666   3.322
10321SOL    HW231863   4.362   0.667   3.173
10322SOL     OW31864   6.681   6.081   6.188
10322SOL    HW131865   6.759   6.111   6.243
10322SOL    HW231866   6.678   5.981   6.184
10323SOL     OW31867   6.239   3.386   5.890
10323SOL    HW131868   6.158   3.340   5.926
10323SOL    HW231869   6.285   3.436   5.964
10324SOL     OW31870   2.980   3.244   3.014
10324SOL    HW131871   2.917   3.208   3.084
10324SOL    HW231872   3.041   3.171   2.984
10325SOL     OW31873   6.475   3.893   2.965
10325SOL    HW131874   6.548   3.887   3.033
10325SOL    HW231875   6.505   3.848   2.881
10326SOL     OW31876   3.967   3.425   0.364
10326SOL    HW131877   3.914   3.510   0.370
10326SOL    HW231878   4.038   3.424   0.434
10327SOL     OW31879   2.385   1.860   1.466
10327SOL    HW131880   2.426   1.776   1.429
10327SOL    HW231881   2.456   1.917   1.505
10328SOL     OW31882   5.987   3.239   1.230
10328SOL    HW131883   5.888   3.231   1.244
10328SOL    HW231884   6.006   3.318   1.171
10329SOL     OW31885   3.430   0.462   4.217
10329SOL    HW131886   3.506   0.526   4.217
10329SOL    HW231887   3.444   0.392   4.147
10330SOL     OW31888   3.885   5.697   1.982
10330SOL    HW131889   3.953   5.628   2.007
10330SOL    HW231890   3.814   5.700   2.051
10331SOL     OW31891   6.361   0.812   4.105
10331SOL    HW131892   6.373   0.783   4.199
10331SOL    HW231893   6.451   0.827   4.063
10332SOL     OW31894   6.099   1.476   0.319
10332SOL    HW131895   6.045   1.480   0.403
10332SOL    HW231896   6.064   1.545   0.254
10333SOL     OW31897   6.586   4.376   4.231
10333SOL    HW131898   6.660   4.314   4.259
10333SOL    HW231899   6.502   4.323   4.217
10334SOL     OW31900   2.549   5.954   4.243
10334SOL    HW131901   2.622   5.898   4.281
10334SOL    HW231902   2.469   5.896   4.223
10335SOL     OW31903   2.661   4.787   6.759
10335SOL    HW131904   2.694   4.695   6.781
10335SOL    HW231905   2.580   4.781   6.702
10336SOL     OW31906   5.582   0.285   3.097
10336SOL    HW131907   5.500   0.244   3.139
10336SOL    HW231908   5.571   0.384   3.093
10337SOL     OW31909   6.498   6.438   5.975
10337SOL    HW131910   6.561   6.516   5.984
10337SOL    HW231911   6.515   6.373   6.049
10338SOL     OW31912   3.016   6.166   1.921
10338SOL    HW131913   3.058   6.246   1.878
10338SOL    HW231914   3.087   6.109   1.962
10339SOL     OW31915   2.914   5.456   0.290
10339SOL    HW131916   2.969   5.374   0.307
10339SOL    HW231917   2.823   5.429   0.258
10340SOL     OW31918   1.654   5.239   0.601
10340SOL    HW131919   1.636   5.294   0.520
10340SOL    HW231920   1.750   5.251   0.629
10341SOL     OW31921   2.186   3.342   1.672
10341SOL    HW131922   2.266   3.375   1.722
10341SOL    HW231923   2.115   3.412   1.673
10342SOL     OW31924   1.875   6.007   5.963
10342SOL    HW131925   1.971   5.981   5.960
10342SOL    HW231926   1.840   6.016   5.869
10343SOL     OW31927   2.025   4.012   0.553
10343SOL    HW131928   2.012   4.061   0.639
10343SOL    HW231929   2.008   4.073   0.476
10344SOL     OW31930   4.098   3.420   1.702
10344SOL    HW131931   4.118   3.403   1.799
10344SOL    HW231932   4.155   3.496   1.670
10345SOL     OW31933   1.695   0.733   5.975
10345SOL    HW131934   1.743   0.750   6.061
10345SOL    HW231935   1.659   0.640   5.974
10346SOL     OW31936   6.159   1.176   0.956
10346SOL    HW131937   6.253   1.164   0.990
10346SOL    HW231938   6.099   1.110   1.001
10347SOL     OW31939   5.120   2.480   2.488
10347SOL    HW131940   5.106   2.579   2.487
10347SOL    HW231941   5.144   2.449   2.397
10348SOL     OW31942   6.583   1.835   6.768
10348SOL    HW131943   6.540   1.757   6.814
10348SOL    HW231944   6.603   1.906   6.835
10349SOL     OW31945   6.937   1.636   0.382
10349SOL    HW131946   7.011   1.692   0.346
10349SOL    HW231947   6.968   1.590   0.465
10350SOL     OW31948   2.402   6.489   5.155
10350SOL    HW131949   2.482   6.430   5.163
10350SOL    HW231950   2.323   6.444   5.196
10351SOL     OW31951   5.751   5.148   6.386
10351SOL    HW131952   5.781   5.137   6.480
10351SOL    HW231953   5.821   5.198   6.335
10352SOL     OW31954   5.676   1.527   6.671
10352SOL    HW131955   5.720   1.468   6.604
10352SOL    HW231956   5.700   1.622   6.653
10353SOL     OW31957   6.559   2.597   4.525
10353SOL    HW131958   6.648   2.602   4.479
10353SOL    HW231959   6.522   2.504   4.516
10354SOL     OW31960   0.098   2.217   1.852
10354SOL    HW131961   0.060   2.218   1.760
10354SOL    HW231962   0.080   2.129   1.896
10355SOL     OW31963   1.389   0.607   0.936
10355SOL    HW131964   1.410   0.617   1.034
10355SOL    HW231965   1.475   0.598   0.885
10356SOL     OW31966   0.043   3.778   5.660
10356SOL    HW131967   6.988   3.750   5.715
10356SOL    HW231968   0.125   3.783   5.717
10357SOL     OW31969   3.778   2.724   6.577
10357SOL    HW131970   3.779   2.682   6.487
10357SOL    HW231971   3.685   2.723   6.614
10358SOL     OW31972   0.345   2.832   3.739
10358SOL    HW131973   0.282   2.759   3.764
10358SOL    HW231974   0.328   2.913   3.796
10359SOL     OW31975   5.194   1.654   1.643
10359SOL    HW131976   5.198   1.661   1.543
10359SOL    HW231977   5.112   1.603   1.669
10360SOL     OW31978   5.149   5.842   1.755
10360SOL    HW131979   5.062   5.889   1.746
10360SOL    HW231980   5.143   5.772   1.826
10361SOL     OW31981   2.440   1.089   2.815
10361SOL    HW131982   2.379   1.013   2.791
10361SOL    HW231983   2.526   1.080   2.766
10362SOL     OW31984   0.733   5.120   3.078
10362SOL    HW131985   0.741   5.132   2.979
10362SOL    HW231986   0.689   5.032   3.097
10363SOL     OW31987   5.068   2.712   1.511
10363SOL    HW131988   5.072   2.615   1.487
10363SOL    HW231989   5.161   2.748   1.517
10364SOL     OW31990   4.380   4.184   1.386
10364SOL    HW131991   4.413   4.102   1.340
10364SOL    HW231992   4.396   4.264   1.328
10365SOL     OW31993   5.904   4.355   6.845
10365SOL    HW131994   5.997   4.346   6.880
10365SOL    HW231995   5.852   4.272   6.868
10366SOL     OW31996   3.217   6.687   3.745
10366SOL    HW131997   3.164   6.772   3.753
10366SOL    HW231998   3.173   6.627   3.678
10367SOL     OW31999   6.922   1.574   1.856
10367SOL    HW132000   6.854   1.503   1.875
10367SOL    HW232001   6.989   1.540   1.790
10368SOL     OW32002   1.802   1.379   2.320
10368SOL    HW132003   1.823   1.281   2.315
10368SOL    HW232004   1.876   1.426   2.368
10369SOL     OW32005   3.338   6.853   5.942
10369SOL    HW132006   3.329   6.934   6.000
10369SOL    HW232007   3.285   6.867   5.858
10370SOL     OW32008   6.867   0.806   5.390
10370SOL    HW132009   6.810   0.879   5.429
10370SOL    HW232010   6.907   0.838   5.304
10371SOL     OW32011   2.092   6.383   4.689
10371SOL    HW132012   2.098   6.438   4.605
10371SOL    HW232013   2.062   6.441   4.765
10372SOL     OW32014   2.459   1.315   0.001
10372SOL    HW132015   2.529   1.247   0.024
10372SOL    HW232016   2.385   1.270   6.974
10373SOL     OW32017   1.751   6.603   5.191
10373SOL    HW132018   1.832   6.626   5.244
10373SOL    HW232019   1.674   6.587   5.254
10374SOL     OW32020   3.459   0.492   3.679
10374SOL    HW132021   3.499   0.402   3.698
10374SOL    HW232022   3.505   0.533   3.600
10375SOL     OW32023   2.370   2.419   6.106
10375SOL    HW132024   2.410   2.336   6.147
10375SOL    HW232025   2.301   2.393   6.039
10376SOL     OW32026   1.165   5.774   4.249
10376SOL    HW132027   1.158   5.868   4.283
10376SOL    HW232028   1.245   5.729   4.289
10377SOL     OW32029   0.105   0.737   2.248
10377SOL    HW132030   0.128   0.786   2.164
10377SOL    HW232031   0.063   0.801   2.313
10378SOL     OW32032   6.000   5.705   5.783
10378SOL    HW132033   6.043   5.796   5.786
10378SOL    HW232034   5.936   5.702   5.706
10379SOL     OW32035   3.171   5.966   4.265
10379SOL    HW132036   3.264   6.002   4.266
10379SOL    HW232037   3.108   6.038   4.234
10380SOL     OW32038   0.750   2.444   4.403
10380SOL    HW132039   0.693   2.523   4.423
10380SOL    HW232040   0.809   2.424   4.481
10381SOL     OW32041   4.189   3.931   1.211
10381SOL    HW132042   4.106   3.953   1.161
10381SOL    HW232043   4.165   3.880   1.294
10382SOL     OW32044   2.482   5.476   1.438
10382SOL    HW132045   2.446   5.449   1.348
10382SOL    HW232046   2.461   5.405   1.505
10383SOL     OW32047   1.319   4.070   0.599
10383SOL    HW132048   1.287   3.990   0.548
10383SOL    HW232049   1.241   4.127   0.625
10384SOL     OW32050   6.511   0.003   0.939
10384SOL    HW132051   6.546   0.097   0.936
10384SOL    HW232052   6.422   0.002   0.984
10385SOL     OW32053   3.939   5.991   6.372
10385SOL    HW132054   4.000   5.923   6.332
10385SOL    HW232055   3.847   5.980   6.332
10386SOL     OW32056   6.817   1.189   5.661
10386SOL    HW132057   6.869   1.117   5.615
10386SOL    HW232058   6.737   1.149   5.705
10387SOL     OW32059   4.452   1.998   3.307
10387SOL    HW132060   4.445   2.013   3.405
10387SOL    HW232061   4.524   1.930   3.288
10388SOL     OW32062   2.121   5.690   1.857
10388SOL    HW132063   2.175   5.772   1.839
10388SOL    HW232064   2.061   5.671   1.780
10389SOL     OW32065   6.482   5.122   0.769
10389SOL    HW132066   6.390   5.127   0.807
10389SOL    HW232067   6.477   5.089   0.674
10390SOL     OW32068   1.944   3.753   0.735
10390SOL    HW132069   1.865   3.781   0.790
10390SOL    HW232070   1.989   3.835   0.699
10391SOL     OW32071   0.151   6.085   3.348
10391SOL    HW132072   0.224   6.145   3.317
10391SOL    HW232073   0.187   6.021   3.416
10392SOL     OW32074   6.436   4.488   5.531
10392SOL    HW132075   6.431   4.582   5.565
10392SOL    HW232076   6.372   4.477   5.455
10393SOL     OW32077   2.505   2.434   3.341
10393SOL    HW132078   2.453   2.425   3.256
10393SOL    HW232079   2.575   2.362   3.345
10394SOL     OW32080   2.354   5.359   5.528
10394SOL    HW132081   2.281   5.359   5.459
10394SOL    HW232082   2.418   5.433   5.510
10395SOL     OW32083   0.698   1.067   1.380
10395SOL    HW132084   0.703   0.975   1.342
10395SOL    HW232085   0.651   1.064   1.469
10396SOL     OW32086   3.741   1.126   3.837
10396SOL    HW132087   3.713   1.143   3.743
10396SOL    HW232088   3.662   1.096   3.890
10397SOL     OW32089   3.005   1.431   4.940
10397SOL    HW132090   3.092   1.417   4.893
10397SOL    HW232091   2.995   1.363   5.013
10398SOL     OW32092   6.004   2.169   0.478
10398SOL    HW132093   6.063   2.165   0.397
10398SOL    HW232094   5.910   2.151   0.451
10399SOL     OW32095   5.011   1.848   3.479
10399SOL    HW132096   4.945   1.772   3.476
10399SOL    HW232097   5.014   1.893   3.390
10400SOL     OW32098   4.212   5.702   0.149
10400SOL    HW132099   4.136   5.766   0.136
10400SOL    HW232100   4.230   5.655   0.063
10401SOL     OW32101   0.167   6.463   1.724
10401SOL    HW132102   0.124   6.551   1.743
10401SOL    HW232103   0.111   6.390   1.763
10402SOL     OW32104   0.125   1.244   5.533
10402SOL    HW132105   0.060   1.187   5.585
10402SOL    HW232106   0.077   1.325   5.499
10403SOL     OW32107   4.142   1.988   3.242
10403SOL    HW132108   4.189   2.005   3.155
10403SOL    HW232109   4.099   2.072   3.274
10404SOL     OW32110   6.761   6.055   4.495
10404SOL    HW132111   6.817   6.080   4.575
10404SOL    HW232112   6.809   6.081   4.411
10405SOL     OW32113   0.955   5.976   5.043
10405SOL    HW132114   0.968   5.892   4.991
10405SOL    HW232115   1.025   5.983   5.114
10406SOL     OW32116   2.080   3.245   4.890
10406SOL    HW132117   2.143   3.174   4.859
10406SOL    HW232118   1.988   3.205   4.900
10407SOL     OW32119   2.901   0.055   6.473
10407SOL    HW132120   2.945   0.075   6.561
10407SOL    HW232121   2.897   0.139   6.418
10408SOL     OW32122   4.697   0.060   1.331
10408SOL    HW132123   4.626   0.083   1.265
10408SOL    HW232124   4.686   6.987   1.359
10409SOL     OW32125   0.041   4.246   1.339
10409SOL    HW132126   7.012   4.324   1.374
10409SOL    HW232127   7.009   4.197   1.271
10410SOL     OW32128   5.140   2.143   1.957
10410SOL    HW132129   5.158   2.053   1.917
10410SOL    HW232130   5.057   2.139   2.012
10411SOL     OW32131   3.232   5.972   3.384
10411SOL    HW132132   3.201   6.047   3.443
10411SOL    HW232133   3.332   5.966   3.388
10412SOL     OW32134   0.538   1.257   0.986
10412SOL    HW132135   0.530   1.348   0.946
10412SOL    HW232136   0.574   1.264   1.079
10413SOL     OW32137   6.175   2.841   1.586
10413SOL    HW132138   6.231   2.908   1.635
10413SOL    HW232139   6.080   2.851   1.613
10414SOL     OW32140   3.632   4.721   6.344
10414SOL    HW132141   3.719   4.676   6.363
10414SOL    HW232142   3.600   4.695   6.253
10415SOL     OW32143   1.570   4.404   4.215
10415SOL    HW132144   1.572   4.499   4.244
10415SOL    HW232145   1.476   4.377   4.195
10416SOL     OW32146   5.857   6.793   5.112
10416SOL    HW132147   5.846   6.847   5.196
10416SOL    HW232148   5.777   6.805   5.054
10417SOL     OW32149   4.047   4.911   3.786
10417SOL    HW132150   4.037   4.989   3.848
10417SOL    HW232151   4.126   4.857   3.814
10418SOL     OW32152   6.653   4.773   5.972
10418SOL    HW132153   6.672   4.837   5.897
10418SOL    HW232154   6.603   4.694   5.936
10419SOL     OW32155   3.373   6.611   6.127
10419SOL    HW132156   3.446   6.621   6.195
10419SOL    HW232157   3.389   6.675   6.051
10420SOL     OW32158   0.413   3.475   3.999
10420SOL    HW132159   0.423   3.573   3.981
10420SOL    HW232160   0.357   3.461   4.080
10421SOL     OW32161   0.848   3.650   3.887
10421SOL    HW132162   0.841   3.635   3.986
10421SOL    HW232163   0.810   3.572   3.838
10422SOL     OW32164   6.076   3.372   5.359
10422SOL    HW132165   5.999   3.335   5.307
10422SOL    HW232166   6.127   3.437   5.302
10423SOL     OW32167   5.729   4.854   5.724
10423SOL    HW132168   5.693   4.931   5.671
10423SOL    HW232169   5.810   4.817   5.678
10424SOL     OW32170   3.946   3.120   0.959
10424SOL    HW132171   3.919   3.180   1.035
10424SOL    HW232172   3.867   3.106   0.899
10425SOL     OW32173   0.942   6.436   2.618
10425SOL    HW132174   0.846   6.411   2.610
10425SOL    HW232175   0.970   6.487   2.537
10426SOL     OW32176   5.515   4.737   6.933
10426SOL    HW132177   5.453   4.720   7.009
10426SOL    HW232178   5.571   4.655   6.917
10427SOL     OW32179   4.019   1.286   0.319
10427SOL    HW132180   4.077   1.367   0.323
10427SOL    HW232181   3.979   1.277   0.227
10428SOL     OW32182   3.450   0.626   3.929
10428SOL    HW132183   3.452   0.557   3.856
10428SOL    HW232184   3.366   0.680   3.923
10429SOL     OW32185   6.766   4.144   2.386
10429SOL    HW132186   6.831   4.072   2.410
10429SOL    HW232187   6.735   4.190   2.469
10430SOL     OW32188   4.866   0.143   5.237
10430SOL    HW132189   4.859   0.146   5.137
10430SOL    HW232190   4.933   0.074   5.264
10431SOL     OW32191   2.523   6.125   4.493
10431SOL    HW132192   2.542   6.097   4.399
10431SOL    HW232193   2.490   6.047   4.546
10432SOL     OW32194   6.094   0.235   4.477
10432SOL    HW132195   6.018   0.261   4.417
10432SOL    HW232196   6.059   0.186   4.556
10433SOL     OW32197   0.941   5.964   2.679
10433SOL    HW132198   0.966   5.895   2.747
10433SOL    HW232199   0.920   5.919   2.592
10434SOL     OW32200   3.974   6.055   2.882
10434SOL    HW132201   4.023   6.068   2.796
10434SOL    HW232202   4.035   6.079   2.958
10435SOL     OW32203   0.949   1.563   5.514
10435SOL    HW132204   0.904   1.555   5.603
10435SOL    HW232205   1.008   1.484   5.500
10436SOL     OW32206   6.100   4.866   5.341
10436SOL    HW132207   6.197   4.845   5.351
10436SOL    HW232208   6.047   4.812   5.405
10437SOL     OW32209   4.739   4.230   6.136
10437SOL    HW132210   4.745   4.283   6.221
10437SOL    HW232211   4.663   4.266   6.080
10438SOL     OW32212   0.419   6.247   6.610
10438SOL    HW132213   0.380   6.205   6.692
10438SOL    HW232214   0.464   6.177   6.555
10439SOL     OW32215   4.170   1.437   4.658
10439SOL    HW132216   4.164   1.498   4.578
10439SOL    HW232217   4.212   1.486   4.734
10440SOL     OW32218   0.352   6.783   0.734
10440SOL    HW132219   0.269   6.752   0.781
10440SOL    HW232220   0.354   6.883   0.733
10441SOL     OW32221   4.249   1.489   1.414
10441SOL    HW132222   4.195   1.573   1.425
10441SOL    HW232223   4.188   1.413   1.390
10442SOL     OW32224   4.404   6.842   6.993
10442SOL    HW132225   4.392   6.744   7.006
10442SOL    HW232226   4.337   6.875   6.925
10443SOL     OW32227   4.918   3.417   4.055
10443SOL    HW132228   4.974   3.462   4.125
10443SOL    HW232229   4.845   3.479   4.027
10444SOL     OW32230   4.414   5.809   3.159
10444SOL    HW132231   4.471   5.732   3.186
10444SOL    HW232232   4.324   5.776   3.129
10445SOL     OW32233   0.181   4.331   4.245
10445SOL    HW132234   0.086   4.360   4.260
10445SOL    HW232235   0.220   4.383   4.169
10446SOL     OW32236   2.386   3.250   5.980
10446SOL    HW132237   2.343   3.300   5.904
10446SOL    HW232238   2.479   3.284   5.994
10447SOL     OW32239   0.146   0.717   2.719
10447SOL    HW132240   0.127   0.814   2.735
10447SOL    HW232241   0.110   0.663   2.795
10448SOL     OW32242   4.619   0.782   2.661
10448SOL    HW132243   4.715   0.753   2.670
10448SOL    HW232244   4.617   0.876   2.626
10449SOL     OW32245   1.569   4.995   5.673
10449SOL    HW132246   1.650   5.012   5.728
10449SOL    HW232247   1.534   4.903   5.691
10450SOL     OW32248   0.362   1.129   0.817
10450SOL    HW132249   0.294   1.194   0.853
10450SOL    HW232250   0.454   1.163   0.838
10451SOL     OW32251   2.281   5.530   2.678
10451SOL    HW132252   2.281   5.630   2.682
10451SOL    HW232253   2.375   5.496   2.669
10452SOL     OW32254   6.568   3.132   1.907
10452SOL    HW132255   6.641   3.133   1.839
10452SOL    HW232256   6.498   3.199   1.882
10453SOL     OW32257   4.940   6.954   1.264
10453SOL    HW132258   4.882   0.007   1.295
10453SOL    HW232259   4.897   6.910   1.185
10454SOL     OW32260   4.954   2.939   0.237
10454SOL    HW132261   4.886   3.013   0.240
10454SOL    HW232262   4.953   2.897   0.146
10455SOL     OW32263   6.421   6.882   3.625
10455SOL    HW132264   6.428   6.842   3.534
10455SOL    HW232265   6.395   6.812   3.691
10456SOL     OW32266   1.887   5.453   0.408
10456SOL    HW132267   1.872   5.416   0.317
10456SOL    HW232268   1.812   5.515   0.432
10457SOL     OW32269   3.480   2.760   1.184
10457SOL    HW132270   3.403   2.798   1.132
10457SOL    HW232271   3.445   2.691   1.248
10458SOL     OW32272   6.246   0.740   6.363
10458SOL    HW132273   6.172   0.802   6.336
10458SOL    HW232274   6.331   0.768   6.318
10459SOL     OW32275   4.348   6.332   1.800
10459SOL    HW132276   4.367   6.241   1.836
10459SOL    HW232277   4.387   6.341   1.709
10460SOL     OW32278   0.442   4.119   2.249
10460SOL    HW132279   0.351   4.125   2.291
10460SOL    HW232280   0.511   4.152   2.313
10461SOL     OW32281   6.337   5.271   5.733
10461SOL    HW132282   6.409   5.295   5.668
10461SOL    HW232283   6.251   5.314   5.705
10462SOL     OW32284   5.164   1.425   3.384
10462SOL    HW132285   5.202   1.338   3.351
10462SOL    HW232286   5.096   1.407   3.455
10463SOL     OW32287   4.633   3.252   5.889
10463SOL    HW132288   4.578   3.325   5.849
10463SOL    HW232289   4.725   3.285   5.908
10464SOL     OW32290   6.731   6.498   1.449
10464SOL    HW132291   6.737   6.582   1.394
10464SOL    HW232292   6.777   6.512   1.536
10465SOL     OW32293   6.068   6.121   0.517
10465SOL    HW132294   6.132   6.048   0.540
10465SOL    HW232295   6.119   6.204   0.494
10466SOL     OW32296   4.987   5.277   5.817
10466SOL    HW132297   4.997   5.192   5.869
10466SOL    HW232298   4.955   5.349   5.877
10467SOL     OW32299   2.799   1.073   6.857
10467SOL    HW132300   2.772   1.169   6.844
10467SOL    HW232301   2.816   1.057   6.954
10468SOL     OW32302   4.074   5.153   2.981
10468SOL    HW132303   3.990   5.105   2.956
10468SOL    HW232304   4.103   5.124   3.072
10469SOL     OW32305   4.169   4.662   5.591
10469SOL    HW132306   4.193   4.568   5.613
10469SOL    HW232307   4.182   4.720   5.671
10470SOL     OW32308   2.339   2.767   3.434
10470SOL    HW132309   2.318   2.857   3.472
10470SOL    HW232310   2.405   2.720   3.493
10471SOL     OW32311   3.291   1.620   1.222
10471SOL    HW132312   3.280   1.672   1.138
10471SOL    HW232313   3.249   1.530   1.211
10472SOL     OW32314   3.479   5.689   0.450
10472SOL    HW132315   3.542   5.707   0.375
10472SOL    HW232316   3.504   5.602   0.494
10473SOL     OW32317   6.515   6.950   0.269
10473SOL    HW132318   6.598   6.993   0.232
10473SOL    HW232319   6.541   6.874   0.328
10474SOL     OW32320   3.301   2.174   4.325
10474SOL    HW132321   3.337   2.156   4.234
10474SOL    HW232322   3.205   2.203   4.319
10475SOL     OW32323   4.937   6.422   1.248
10475SOL    HW132324   4.886   6.493   1.296
10475SOL    HW232325   4.886   6.392   1.167
10476SOL     OW32326   6.942   6.179   0.186
10476SOL    HW132327   7.008   6.161   0.259
10476SOL    HW232328   6.912   6.274   0.190
10477SOL     OW32329   0.294   1.136   4.773
10477SOL    HW132330   0.264   1.067   4.838
10477SOL    HW232331   0.232   1.214   4.774
10478SOL     OW32332   6.766   0.715   1.249
10478SOL    HW132333   6.762   0.687   1.153
10478SOL    HW232334   6.712   0.798   1.262
10479SOL     OW32335   0.205   2.381   2.661
10479SOL    HW132336   0.168   2.473   2.642
10479SOL    HW232337   0.235   2.340   2.575
10480SOL     OW32338   6.594   0.220   2.087
10480SOL    HW132339   6.637   0.258   2.005
10480SOL    HW232340   6.630   0.127   2.103
10481SOL     OW32341   2.898   6.845   4.553
10481SOL    HW132342   2.821   6.782   4.553
10481SOL    HW232343   2.876   6.926   4.608
10482SOL     OW32344   6.361   4.968   4.149
10482SOL    HW132345   6.307   4.898   4.103
10482SOL    HW232346   6.394   4.933   4.236
10483SOL     OW32347   6.449   4.507   0.210
10483SOL    HW132348   6.462   4.547   0.301
10483SOL    HW232349   6.472   4.575   0.141
10484SOL     OW32350   6.105   1.602   1.838
10484SOL    HW132351   6.082   1.594   1.935
10484SOL    HW232352   6.068   1.687   1.802
10485SOL     OW32353   3.118   4.067   0.753
10485SOL    HW132354   3.028   4.079   0.794
10485SOL    HW232355   3.186   4.051   0.825
10486SOL     OW32356   0.078   0.832   0.270
10486SOL    HW132357   0.013   0.758   0.252
10486SOL    HW232358   0.123   0.857   0.184
10487SOL     OW32359   4.711   2.062   2.005
10487SOL    HW132360   4.680   2.119   1.929
10487SOL    HW232361   4.709   2.116   2.090
10488SOL     OW32362   3.151   1.569   5.516
10488SOL    HW132363   3.129   1.655   5.563
10488SOL    HW232364   3.067   1.515   5.506
10489SOL     OW32365   0.012   0.124   4.832
10489SOL    HW132366   0.099   0.098   4.873
10489SOL    HW232367   0.008   0.090   4.738
10490SOL     OW32368   5.666   1.919   0.573
10490SOL    HW132369   5.720   1.972   0.509
10490SOL    HW232370   5.614   1.850   0.523
10491SOL     OW32371   2.522   2.208   5.919
10491SOL    HW132372   2.614   2.245   5.904
10491SOL    HW232373   2.493   2.157   5.838
10492SOL     OW32374   5.509   5.990   0.840
10492SOL    HW132375   5.492   6.083   0.875
10492SOL    HW232376   5.580   5.947   0.895
10493SOL     OW32377   3.616   0.211   1.756
10493SOL    HW132378   3.543   0.146   1.732
10493SOL    HW232379   3.576   0.302   1.768
10494SOL     OW32380   5.920   4.453   5.488
10494SOL    HW132381   5.893   4.380   5.551
10494SOL    HW232382   5.901   4.425   5.394
10495SOL     OW32383   1.097   6.214   1.269
10495SOL    HW132384   1.059   6.301   1.301
10495SOL    HW232385   1.151   6.230   1.186
10496SOL     OW32386   6.184   3.335   6.377
10496SOL    HW132387   6.211   3.431   6.381
10496SOL    HW232388   6.113   3.318   6.446
10497SOL     OW32389   2.014   0.351   1.940
10497SOL    HW132390   2.032   0.365   2.038
10497SOL    HW232391   1.927   0.395   1.916
10498SOL     OW32392   4.984   5.481   0.366
10498SOL    HW132393   4.905   5.461   0.308
10498SOL    HW232394   4.953   5.525   0.451
10499SOL     OW32395   4.321   6.871   2.075
10499SOL    HW132396   4.314   6.771   2.068
10499SOL    HW232397   4.417   6.898   2.063
10500SOL     OW32398   6.093   1.235   5.895
10500SOL    HW132399   6.006   1.273   5.865
10500SOL    HW232400   6.149   1.213   5.815
10501SOL     OW32401   2.432   5.837   2.027
10501SOL    HW132402   2.527   5.863   2.012
10501SOL    HW232403   2.416   5.827   2.126
10502SOL     OW32404   2.577   1.984   1.974
10502SOL    HW132405   2.659   2.026   1.936
10502SOL    HW232406   2.514   1.961   1.900
10503SOL     OW32407   4.895   2.771   0.985
10503SOL    HW132408   4.945   2.701   1.035
10503SOL    HW232409   4.896   2.750   0.887
10504SOL     OW32410   1.272   2.500   5.854
10504SOL    HW132411   1.258   2.493   5.755
10504SOL    HW232412   1.364   2.468   5.877
10505SOL     OW32413   5.251   5.493   0.673
10505SOL    HW132414   5.347   5.494   0.704
10505SOL    HW232415   5.236   5.566   0.607
10506SOL     OW32416   0.378   3.814   0.329
10506SOL    HW132417   0.476   3.799   0.314
10506SOL    HW232418   0.363   3.840   0.425
10507SOL     OW32419   1.628   6.668   0.971
10507SOL    HW132420   1.727   6.676   0.957
10507SOL    HW232421   1.581   6.676   0.883
10508SOL     OW32422   6.509   5.580   4.623
10508SOL    HW132423   6.483   5.602   4.528
10508SOL    HW232424   6.535   5.483   4.628
10509SOL     OW32425   6.927   5.487   5.233
10509SOL    HW132426   6.917   5.496   5.134
10509SOL    HW232427   0.000   5.469   5.255
10510SOL     OW32428   5.024   5.579   6.751
10510SOL    HW132429   5.037   5.484   6.781
10510SOL    HW232430   4.959   5.624   6.812
10511SOL     OW32431   2.833   1.260   1.916
10511SOL    HW132432   2.924   1.221   1.900
10511SOL    HW232433   2.837   1.359   1.903
10512SOL     OW32434   4.358   0.600   6.482
10512SOL    HW132435   4.393   0.507   6.488
10512SOL    HW232436   4.355   0.628   6.386
10513SOL     OW32437   6.274   2.374   4.479
10513SOL    HW132438   6.190   2.358   4.427
10513SOL    HW232439   6.268   2.325   4.566
10514SOL     OW32440   0.778   3.064   1.454
10514SOL    HW132441   0.874   3.092   1.447
10514SOL    HW232442   0.772   2.964   1.453
10515SOL     OW32443   0.678   3.287   3.641
10515SOL    HW132444   0.747   3.295   3.714
10515SOL    HW232445   0.718   3.241   3.562
10516SOL     OW32446   4.167   1.485   0.575
10516SOL    HW132447   4.147   1.533   0.489
10516SOL    HW232448   4.183   1.388   0.556
10517SOL     OW32449   0.549   3.246   1.381
10517SOL    HW132450   0.626   3.186   1.359
10517SOL    HW232451   0.508   3.216   1.467
10518SOL     OW32452   6.846   5.832   0.384
10518SOL    HW132453   6.925   5.892   0.374
10518SOL    HW232454   6.772   5.864   0.324
10519SOL     OW32455   3.519   3.492   0.827
10519SOL    HW132456   3.448   3.433   0.787
10519SOL    HW232457   3.566   3.541   0.754
10520SOL     OW32458   0.615   2.192   6.183
10520SOL    HW132459   0.689   2.249   6.147
10520SOL    HW232460   0.650   2.100   6.201
10521SOL     OW32461   6.475   5.623   1.604
10521SOL    HW132462   6.494   5.529   1.629
10521SOL    HW232463   6.464   5.678   1.687
10522SOL     OW32464   0.304   0.271   4.930
10522SOL    HW132465   0.330   0.328   4.853
10522SOL    HW232466   0.308   0.325   5.015
10523SOL     OW32467   0.805   4.670   3.024
10523SOL    HW132468   0.902   4.688   3.011
10523SOL    HW232469   0.769   4.618   2.946
10524SOL     OW32470   0.440   6.740   3.688
10524SOL    HW132471   0.483   6.709   3.603
10524SOL    HW232472   0.490   6.819   3.724
10525SOL     OW32473   4.504   0.539   5.861
10525SOL    HW132474   4.559   0.542   5.777
10525SOL    HW232475   4.430   0.606   5.855
10526SOL     OW32476   1.456   6.507   3.249
10526SOL    HW132477   1.390   6.573   3.213
10526SOL    HW232478   1.501   6.546   3.330
10527SOL     OW32479   0.703   1.345   5.334
10527SOL    HW132480   0.657   1.295   5.406
10527SOL    HW232481   0.642   1.414   5.296
10528SOL     OW32482   1.583   3.116   6.127
10528SOL    HW132483   1.544   3.178   6.059
10528SOL    HW232484   1.538   3.027   6.121
10529SOL     OW32485   2.801   6.590   4.268
10529SOL    HW132486   2.834   6.550   4.354
10529SOL    HW232487   2.764   6.681   4.286
10530SOL     OW32488   1.378   0.153   6.444
10530SOL    HW132489   1.451   0.164   6.377
10530SOL    HW232490   1.416   0.158   6.536
10531SOL     OW32491   1.672   2.774   4.466
10531SOL    HW132492   1.646   2.862   4.506
10531SOL    HW232493   1.762   2.782   4.423
10532SOL     OW32494   0.906   6.725   6.285
10532SOL    HW132495   0.891   6.637   6.240
10532SOL    HW232496   0.992   6.765   6.254
10533SOL     OW32497   3.162   6.580   3.475
10533SOL    HW132498   3.161   6.485   3.444
10533SOL    HW232499   3.146   6.641   3.398
10534SOL     OW32500   6.455   5.633   2.162
10534SOL    HW132501   6.470   5.723   2.119
10534SOL    HW232502   6.494   5.634   2.254
10535SOL     OW32503   1.066   2.137   1.759
10535SOL    HW132504   1.081   2.221   1.708
10535SOL    HW232505   1.146   2.078   1.751
10536SOL     OW32506   4.150   0.973   4.111
10536SOL    HW132507   4.118   0.902   4.174
10536SOL    HW232508   4.073   1.008   4.059
10537SOL     OW32509   4.340   6.333   4.363
10537SOL    HW132510   4.367   6.428   4.379
10537SOL    HW232511   4.241   6.326   4.368
10538SOL     OW32512   5.803   3.170   0.618
10538SOL    HW132513   5.764   3.261   0.626
10538SOL    HW232514   5.898   3.177   0.588
10539SOL     OW32515   0.813   4.916   6.996
10539SOL    HW132516   0.852   5.006   6.977
10539SOL    HW232517   0.795   4.907   0.071
10540SOL     OW32518   1.438   2.881   6.071
10540SOL    HW132519   1.533   2.854   6.053
10540SOL    HW232520   1.392   2.807   6.120
10541SOL     OW32521   3.301   3.828   2.001
10541SOL    HW132522   3.202   3.814   1.996
10541SOL    HW232523   3.347   3.763   1.940
10542SOL     OW32524   0.201   0.936   5.399
10542SOL    HW132525   0.261   1.014   5.414
10542SOL    HW232526   0.253   0.862   5.356
10543SOL     OW32527   0.413   1.626   4.844
10543SOL    HW132528   0.380   1.720   4.849
10543SOL    HW232529   0.364   1.570   4.911
10544SOL     OW32530   2.571   6.753   2.008
10544SOL    HW132531   2.641   6.811   1.967
10544SOL    HW232532   2.509   6.720   1.937
10545SOL     OW32533   0.214   2.092   1.298
10545SOL    HW132534   0.208   1.992   1.303
10545SOL    HW232535   0.163   2.126   1.220
10546SOL     OW32536   1.213   0.265   0.694
10546SOL    HW132537   1.167   0.246   0.781
10546SOL    HW232538   1.294   0.320   0.710
10547SOL     OW32539   4.949   3.108   3.082
10547SOL    HW132540   5.029   3.050   3.069
10547SOL    HW232541   4.899   3.116   2.996
10548SOL     OW32542   5.792   4.669   4.213
10548SOL    HW132543   5.862   4.734   4.242
10548SOL    HW232544   5.726   4.716   4.154
10549SOL     OW32545   0.858   0.244   1.909
10549SOL    HW132546   0.805   0.219   1.828
10549SOL    HW232547   0.955   0.228   1.893
10550SOL     OW32548   4.522   6.993   3.768
10550SOL    HW132549   4.533   6.936   3.686
10550SOL    HW232550   4.502   6.934   3.846
10551SOL     OW32551   1.373   2.698   0.321
10551SOL    HW132552   1.377   2.650   0.408
10551SOL    HW232553   1.451   2.671   0.264
10552SOL     OW32554   2.486   1.144   5.614
10552SOL    HW132555   2.486   1.147   5.514
10552SOL    HW232556   2.412   1.201   5.650
10553SOL     OW32557   0.577   4.331   1.547
10553SOL    HW132558   0.551   4.381   1.464
10553SOL    HW232559   0.496   4.312   1.602
10554SOL     OW32560   5.561   4.598   0.910
10554SOL    HW132561   5.528   4.536   0.839
10554SOL    HW232562   5.635   4.655   0.874
10555SOL     OW32563   1.929   2.510   0.179
10555SOL    HW132564   1.973   2.592   0.217
10555SOL    HW232565   1.960   2.430   0.230
10556SOL     OW32566   1.639   1.630   4.863
10556SOL    HW132567   1.702   1.706   4.875
10556SOL    HW232568   1.576   1.626   4.940
10557SOL     OW32569   1.653   2.906   3.408
10557SOL    HW132570   1.593   2.936   3.334
10557SOL    HW232571   1.748   2.933   3.387
10558SOL     OW32572   4.172   0.012   4.803
10558SOL    HW132573   4.139   0.102   4.773
10558SOL    HW232574   4.140   6.965   4.739
10559SOL     OW32575   4.985   0.991   1.540
10559SOL    HW132576   4.995   1.043   1.456
10559SOL    HW232577   5.008   0.895   1.523
10560SOL     OW32578   4.430   6.860   2.388
10560SOL    HW132579   4.482   6.860   2.474
10560SOL    HW232580   4.492   6.876   2.312
10561SOL     OW32581   3.725   4.217   1.591
10561SOL    HW132582   3.650   4.207   1.656
10561SOL    HW232583   3.747   4.314   1.580
10562SOL     OW32584   3.750   5.648   6.858
10562SOL    HW132585   3.725   5.599   6.774
10562SOL    HW232586   3.744   5.586   6.936
10563SOL     OW32587   0.283   0.995   3.437
10563SOL    HW132588   0.315   0.955   3.523
10563SOL    HW232589   0.362   1.016   3.379
10564SOL     OW32590   5.942   6.068   3.050
10564SOL    HW132591   5.864   6.008   3.034
10564SOL    HW232592   6.027   6.015   3.046
10565SOL     OW32593   0.802   6.527   5.764
10565SOL    HW132594   0.859   6.461   5.813
10565SOL    HW232595   0.709   6.526   5.802
10566SOL     OW32596   3.347   1.609   6.858
10566SOL    HW132597   3.412   1.533   6.850
10566SOL    HW232598   3.368   1.678   6.788
10567SOL     OW32599   2.337   2.054   4.965
10567SOL    HW132600   2.266   2.002   4.918
10567SOL    HW232601   2.426   2.011   4.950
10568SOL     OW32602   6.940   3.192   1.417
10568SOL    HW132603   6.974   3.177   1.510
10568SOL    HW232604   6.844   3.165   1.412
10569SOL     OW32605   5.989   1.313   2.292
10569SOL    HW132606   5.992   1.214   2.309
10569SOL    HW232607   5.937   1.330   2.208
10570SOL     OW32608   1.060   4.690   2.774
10570SOL    HW132609   0.966   4.702   2.741
10570SOL    HW232610   1.066   4.718   2.870
10571SOL     OW32611   6.914   4.514   4.837
10571SOL    HW132612   6.858   4.595   4.818
10571SOL    HW232613   6.854   4.436   4.855
10572SOL     OW32614   6.590   4.132   3.143
10572SOL    HW132615   6.617   4.085   3.227
10572SOL    HW232616   6.635   4.090   3.064
10573SOL     OW32617   5.582   0.315   5.160
10573SOL    HW132618   5.567   0.302   5.258
10573SOL    HW232619   5.509   0.372   5.123
10574SOL     OW32620   1.427   1.573   4.030
10574SOL    HW132621   1.328   1.568   4.016
10574SOL    HW232622   1.457   1.668   4.021
10575SOL     OW32623   0.085   0.824   3.989
10575SOL    HW132624   0.046   0.896   4.047
10575SOL    HW232625   0.094   0.740   4.042
10576SOL     OW32626   6.889   5.908   5.059
10576SOL    HW132627   6.896   6.007   5.071
10576SOL    HW232628   6.866   5.865   5.146
10577SOL     OW32629   2.012   4.660   0.300
10577SOL    HW132630   1.975   4.626   0.214
10577SOL    HW232631   2.032   4.758   0.291
10578SOL     OW32632   4.502   1.710   3.007
10578SOL    HW132633   4.419   1.688   3.059
10578SOL    HW232634   4.579   1.658   3.045
10579SOL     OW32635   4.710   3.007   1.507
10579SOL    HW132636   4.620   3.000   1.464
10579SOL    HW232637   4.705   3.070   1.585
10580SOL     OW32638   6.485   0.592   6.733
10580SOL    HW132639   6.429   0.674   6.720
10580SOL    HW232640   6.506   0.551   6.645
10581SOL     OW32641   5.727   0.068   3.015
10581SOL    HW132642   5.688   0.159   3.027
10581SOL    HW232643   5.664   0.011   2.962
10582SOL     OW32644   4.677   4.578   6.033
10582SOL    HW132645   4.764   4.529   6.038
10582SOL    HW232646   4.625   4.547   5.953
10583SOL     OW32647   3.534   1.380   4.228
10583SOL    HW132648   3.464   1.451   4.232
10583SOL    HW232649   3.619   1.415   4.269
10584SOL     OW32650   6.834   0.514   0.242
10584SOL    HW132651   6.823   0.544   0.337
10584SOL    HW232652   6.849   0.416   0.239
10585SOL     OW32653   2.787   1.944   5.451
10585SOL    HW132654   2.791   2.012   5.377
10585SOL    HW232655   2.779   1.991   5.539
10586SOL     OW32656   6.087   4.775   5.069
10586SOL    HW132657   6.060   4.812   5.158
10586SOL    HW232658   6.061   4.679   5.063
10587SOL     OW32659   6.483   4.692   7.021
10587SOL    HW132660   6.386   4.702   7.000
10587SOL    HW232661   6.526   4.782   0.002
10588SOL     OW32662   1.279   3.292   4.615
10588SOL    HW132663   1.299   3.197   4.640
10588SOL    HW232664   1.259   3.344   4.698
10589SOL     OW32665   6.302   1.468   4.600
10589SOL    HW132666   6.364   1.545   4.589
10589SOL    HW232667   6.274   1.435   4.510
10590SOL     OW32668   0.457   0.505   0.982
10590SOL    HW132669   0.532   0.449   0.946
10590SOL    HW232670   0.406   0.453   1.050
10591SOL     OW32671   1.679   2.093   0.253
10591SOL    HW132672   1.712   2.188   0.254
10591SOL    HW232673   1.610   2.082   0.182
10592SOL     OW32674   6.199   3.607   2.881
10592SOL    HW132675   6.222   3.670   2.956
10592SOL    HW232676   6.184   3.660   2.797
10593SOL     OW32677   1.918   6.138   0.487
10593SOL    HW132678   1.856   6.108   0.414
10593SOL    HW232679   1.968   6.219   0.456
10594SOL     OW32680   5.062   0.939   3.108
10594SOL    HW132681   4.985   0.878   3.125
10594SOL    HW232682   5.134   0.889   3.060
10595SOL     OW32683   5.227   6.400   0.059
10595SOL    HW132684   5.243   6.456   7.001
10595SOL    HW232685   5.139   6.424   0.099
10596SOL     OW32686   4.619   0.958   0.258
10596SOL    HW132687   4.648   0.866   0.233
10596SOL    HW232688   4.645   0.975   0.354
10597SOL     OW32689   2.894   1.401   5.799
10597SOL    HW132690   2.916   1.491   5.760
10597SOL    HW232691   2.816   1.362   5.752
10598SOL     OW32692   3.572   2.765   6.911
10598SOL    HW132693   3.664   2.790   6.940
10598SOL    HW232694   3.508   2.838   6.937
10599SOL     OW32695   5.260   3.447   6.398
10599SOL    HW132696   5.191   3.449   6.326
10599SOL    HW232697   5.230   3.388   6.472
10600SOL     OW32698   3.238   2.576   0.594
10600SOL    HW132699   3.301   2.614   0.527
10600SOL    HW232700   3.144   2.600   0.570
10601SOL     OW32701   1.689   4.477   5.381
10601SOL    HW132702   1.684   4.465   5.282
10601SOL    HW232703   1.721   4.569   5.402
10602SOL     OW32704   2.251   0.689   2.143
10602SOL    HW132705   2.211   0.676   2.053
10602SOL    HW232706   2.350   0.706   2.134
10603SOL     OW32707   3.813   0.157   3.241
10603SOL    HW132708   3.807   0.163   3.141
10603SOL    HW232709   3.880   0.223   3.275
10604SOL     OW32710   6.197   6.014   5.529
10604SOL    HW132711   6.292   5.996   5.553
10604SOL    HW232712   6.163   5.941   5.470
10605SOL     OW32713   2.369   6.751   6.738
10605SOL    HW132714   2.381   6.670   6.681
10605SOL    HW232715   2.458   6.778   6.776
10606SOL     OW32716   0.344   0.394   1.627
10606SOL    HW132717   0.396   0.322   1.581
10606SOL    HW232718   0.293   0.447   1.560
10607SOL     OW32719   4.394   5.078   5.594
10607SOL    HW132720   4.303   5.085   5.554
10607SOL    HW232721   4.431   5.169   5.610
10608SOL     OW32722   6.127   3.150   5.152
10608SOL    HW132723   6.123   3.108   5.061
10608SOL    HW232724   6.035   3.161   5.187
10609SOL     OW32725   2.778   6.517   6.577
10609SOL    HW132726   2.710   6.559   6.517
10609SOL    HW232727   2.732   6.461   6.646
10610SOL     OW32728   0.838   2.072   4.256
10610SOL    HW132729   0.832   2.098   4.159
10610SOL    HW232730   0.926   2.104   4.293
10611SOL     OW32731   2.421   3.753   6.676
10611SOL    HW132732   2.384   3.745   6.583
10611SOL    HW232733   2.460   3.844   6.688
10612SOL     OW32734   3.404   1.791   4.853
10612SOL    HW132735   3.447   1.771   4.765
10612SOL    HW232736   3.305   1.779   4.846
10613SOL     OW32737   5.320   5.962   5.702
10613SOL    HW132738   5.223   5.937   5.709
10613SOL    HW232739   5.333   6.026   5.626
10614SOL     OW32740   5.037   1.946   4.869
10614SOL    HW132741   5.073   1.951   4.962
10614SOL    HW232742   5.064   2.028   4.818
10615SOL     OW32743   4.426   0.594   5.506
10615SOL    HW132744   4.357   0.663   5.487
10615SOL    HW232745   4.495   0.595   5.433
10616SOL     OW32746   2.029   6.933   0.372
10616SOL    HW132747   1.993   6.840   0.369
10616SOL    HW232748   2.120   6.931   0.413
10617SOL     OW32749   3.263   4.008   1.412
10617SOL    HW132750   3.312   3.923   1.392
10617SOL    HW232751   3.167   3.998   1.389
10618SOL     OW32752   1.099   3.560   5.839
10618SOL    HW132753   1.163   3.483   5.840
10618SOL    HW232754   1.085   3.593   5.932
10619SOL     OW32755   0.356   2.956   2.540
10619SOL    HW132756   0.413   2.975   2.459
10619SOL    HW232757   0.262   2.940   2.510
10620SOL     OW32758   1.231   6.252   5.207
10620SOL    HW132759   1.305   6.231   5.144
10620SOL    HW232760   1.170   6.319   5.166
10621SOL     OW32761   0.627   5.015   1.686
10621SOL    HW132762   0.608   4.949   1.758
10621SOL    HW232763   0.642   5.105   1.727
10622SOL     OW32764   5.139   1.864   2.073
10622SOL    HW132765   5.178   1.928   2.139
10622SOL    HW232766   5.040   1.857   2.088
10623SOL     OW32767   0.248   5.023   5.617
10623SOL    HW132768   0.215   4.957   5.685
10623SOL    HW232769   0.237   5.116   5.652
10624SOL     OW32770   1.183   2.437   4.711
10624SOL    HW132771   1.117   2.456   4.784
10624SOL    HW232772   1.219   2.524   4.677
10625SOL     OW32773   0.507   4.886   0.790
10625SOL    HW132774   0.557   4.972   0.782
10625SOL    HW232775   0.481   4.871   0.885
10626SOL     OW32776   2.633   2.791   0.455
10626SOL    HW132777   2.708   2.729   0.480
10626SOL    HW232778   2.570   2.799   0.533
10627SOL     OW32779   4.930   0.264   0.631
10627SOL    HW132780   5.016   0.312   0.645
10627SOL    HW232781   4.948   0.169   0.608
10628SOL     OW32782   4.869   6.278   0.045
10628SOL    HW132783   4.842   6.188   0.078
10628SOL    HW232784   4.799   6.312   7.004
10629SOL     OW32785   2.454   4.901   4.976
10629SOL    HW132786   2.506   4.955   4.910
10629SOL    HW232787   2.467   4.803   4.957
10630SOL     OW32788   6.235   1.309   3.916
10630SOL    HW132789   6.225   1.333   3.819
10630SOL    HW232790   6.181   1.373   3.971
10631SOL     OW32791   3.089   5.152   5.504
10631SOL    HW132792   3.088   5.080   5.435
10631SOL    HW232793   3.014   5.138   5.568
10632SOL     OW32794   5.420   0.858   3.518
10632SOL    HW132795   5.508   0.889   3.555
10632SOL    HW232796   5.420   0.758   3.515
10633SOL     OW32797   2.236   2.590   0.596
10633SOL    HW132798   2.290   2.599   0.513
10633SOL    HW232799   2.201   2.680   0.623
10634SOL     OW32800   3.354   4.187   0.225
10634SOL    HW132801   3.328   4.255   0.294
10634SOL    HW232802   3.374   4.100   0.269
10635SOL     OW32803   1.761   3.516   0.451
10635SOL    HW132804   1.781   3.443   0.386
10635SOL    HW232805   1.817   3.505   0.533
10636SOL     OW32806   0.707   2.311   1.248
10636SOL    HW132807   0.618   2.266   1.256
10636SOL    HW232808   0.776   2.244   1.220
10637SOL     OW32809   2.131   4.531   5.757
10637SOL    HW132810   2.150   4.483   5.843
10637SOL    HW232811   2.217   4.552   5.711
10638SOL     OW32812   5.906   5.728   2.722
10638SOL    HW132813   5.908   5.637   2.765
10638SOL    HW232814   5.998   5.755   2.698
10639SOL     OW32815   1.030   3.396   3.260
10639SOL    HW132816   1.102   3.379   3.326
10639SOL    HW232817   1.044   3.485   3.216
10640SOL     OW32818   4.086   0.511   4.759
10640SOL    HW132819   4.129   0.543   4.843
10640SOL    HW232820   3.986   0.517   4.767
10641SOL     OW32821   2.451   2.358   1.881
10641SOL    HW132822   2.518   2.309   1.937
10641SOL    HW232823   2.450   2.455   1.907
10642SOL     OW32824   6.380   2.645   1.632
10642SOL    HW132825   6.438   2.680   1.558
10642SOL    HW232826   6.308   2.712   1.652
10643SOL     OW32827   1.806   5.412   5.041
10643SOL    HW132828   1.804   5.324   5.088
10643SOL    HW232829   1.899   5.431   5.009
10644SOL     OW32830   5.564   2.775   2.611
10644SOL    HW132831   5.577   2.845   2.680
10644SOL    HW232832   5.473   2.735   2.619
10645SOL     OW32833   1.831   2.950   4.674
10645SOL    HW132834   1.867   3.023   4.615
10645SOL    HW232835   1.907   2.892   4.704
10646SOL     OW32836   1.106   0.185   6.754
10646SOL    HW132837   1.094   0.199   6.656
10646SOL    HW232838   1.189   0.232   6.784
10647SOL     OW32839   2.739   5.306   4.853
10647SOL    HW132840   2.827   5.297   4.900
10647SOL    HW232841   2.682   5.372   4.902
10648SOL     OW32842   6.049   3.973   6.009
10648SOL    HW132843   5.975   3.925   6.057
10648SOL    HW232844   6.063   4.063   6.050
10649SOL     OW32845   0.126   4.513   2.447
10649SOL    HW132846   0.117   4.563   2.361
10649SOL    HW232847   0.099   4.572   2.523
10650SOL     OW32848   0.907   0.045   3.818
10650SOL    HW132849   0.855   7.021   3.747
10650SOL    HW232850   0.914   7.010   3.899
10651SOL     OW32851   5.559   6.659   0.237
10651SOL    HW132852   5.543   6.563   0.214
10651SOL    HW232853   5.644   6.666   0.290
10652SOL     OW32854   3.524   0.069   5.348
10652SOL    HW132855   3.545   0.132   5.273
10652SOL    HW232856   3.604   0.061   5.408
10653SOL     OW32857   4.079   5.117   3.335
10653SOL    HW132858   4.041   5.030   3.367
10653SOL    HW232859   4.005   5.176   3.302
10654SOL     OW32860   5.290   1.113   1.029
10654SOL    HW132861   5.215   1.100   0.964
10654SOL    HW232862   5.359   1.042   1.014
10655SOL     OW32863   2.321   5.754   0.713
10655SOL    HW132864   2.268   5.692   0.655
10655SOL    HW232865   2.406   5.708   0.741
10656SOL     OW32866   6.987   1.956   2.686
10656SOL    HW132867   6.929   1.889   2.640
10656SOL    HW232868   0.060   1.929   2.675
10657SOL     OW32869   6.147   0.254   5.462
10657SOL    HW132870   6.093   0.326   5.419
10657SOL    HW232871   6.134   0.256   5.561
10658SOL     OW32872   6.211   5.014   4.962
10658SOL    HW132873   6.156   4.940   4.999
10658SOL    HW232874   6.194   5.022   4.863
10659SOL     OW32875   0.408   5.389   1.095
10659SOL    HW132876   0.352   5.319   1.050
10659SOL    HW232877   0.430   5.359   1.188
10660SOL     OW32878   5.139   4.081   6.587
10660SOL    HW132879   5.104   4.171   6.615
10660SOL    HW232880   5.082   4.044   6.515
10661SOL     OW32881   1.071   6.414   1.633
10661SOL    HW132882   1.161   6.412   1.589
10661SOL    HW232883   1.079   6.456   1.723
10662SOL     OW32884   5.149   6.601   3.085
10662SOL    HW132885   5.092   6.543   3.142
10662SOL    HW232886   5.147   6.568   2.990
10663SOL     OW32887   0.564   1.924   1.900
10663SOL    HW132888   0.523   2.004   1.944
10663SOL    HW232889   0.663   1.933   1.898
10664SOL     OW32890   6.661   4.242   5.001
10664SOL    HW132891   6.684   4.265   4.906
10664SOL    HW232892   6.705   4.156   5.026
10665SOL     OW32893   0.957   1.351   0.846
10665SOL    HW132894   0.890   1.366   0.774
10665SOL    HW232895   0.910   1.343   0.934
10666SOL     OW32896   3.524   4.181   1.765
10666SOL    HW132897   3.490   4.166   1.858
10666SOL    HW232898   3.457   4.147   1.699
10667SOL     OW32899   4.088   3.154   5.654
10667SOL    HW132900   4.069   3.056   5.644
10667SOL    HW232901   4.058   3.203   5.572
10668SOL     OW32902   2.732   0.513   5.288
10668SOL    HW132903   2.643   0.509   5.334
10668SOL    HW232904   2.749   0.607   5.257
10669SOL     OW32905   5.453   6.995   1.116
10669SOL    HW132906   5.454   6.897   1.134
10669SOL    HW232907   5.358   0.004   1.114
10670SOL     OW32908   5.243   4.207   4.767
10670SOL    HW132909   5.250   4.302   4.798
10670SOL    HW232910   5.233   4.147   4.847
10671SOL     OW32911   2.807   2.268   3.065
10671SOL    HW132912   2.855   2.247   2.979
10671SOL    HW232913   2.739   2.340   3.048
10672SOL     OW32914   6.530   3.048   0.745
10672SOL    HW132915   6.552   2.952   0.728
10672SOL    HW232916   6.492   3.088   0.662
10673SOL     OW32917   1.159   1.329   6.353
10673SOL    HW132918   1.140   1.289   6.263
10673SOL    HW232919   1.245   1.379   6.350
10674SOL     OW32920   3.729   4.111   2.227
10674SOL    HW132921   3.774   4.200   2.220
10674SOL    HW232922   3.716   4.072   2.136
10675SOL     OW32923   1.795   6.944   6.398
10675SOL    HW132924   1.712   6.898   6.428
10675SOL    HW232925   1.828   6.902   6.313
10676SOL     OW32926   6.590   6.332   6.244
10676SOL    HW132927   6.643   6.253   6.212
10676SOL    HW232928   6.645   6.385   6.309
10677SOL     OW32929   1.306   0.625   2.458
10677SOL    HW132930   1.405   0.635   2.458
10677SOL    HW232931   1.280   0.548   2.400
10678SOL     OW32932   3.496   5.920   4.202
10678SOL    HW132933   3.467   5.954   4.113
10678SOL    HW232934   3.573   5.975   4.236
10679SOL     OW32935   4.921   6.045   5.930
10679SOL    HW132936   4.836   6.009   5.890
10679SOL    HW232937   4.904   6.070   6.025
10680SOL     OW32938   2.867   1.934   2.901
10680SOL    HW132939   2.901   1.993   2.827
10680SOL    HW232940   2.934   1.933   2.975
10681SOL     OW32941   0.755   3.329   0.225
10681SOL    HW132942   0.669   3.360   0.266
10681SOL    HW232943   0.818   3.299   0.297
10682SOL     OW32944   1.797   0.876   4.735
10682SOL    HW132945   1.788   0.790   4.685
10682SOL    HW232946   1.850   0.941   4.680
10683SOL     OW32947   3.427   1.906   3.479
10683SOL    HW132948   3.389   1.825   3.523
10683SOL    HW232949   3.527   1.898   3.474
10684SOL     OW32950   5.216   3.986   1.014
10684SOL    HW132951   5.251   3.968   1.106
10684SOL    HW232952   5.173   4.076   1.013
10685SOL     OW32953   0.767   5.514   2.471
10685SOL    HW132954   0.767   5.551   2.378
10685SOL    HW232955   0.676   5.525   2.512
10686SOL     OW32956   1.270   5.046   6.128
10686SOL    HW132957   1.353   4.996   6.101
10686SOL    HW232958   1.243   5.017   6.220
10687SOL     OW32959   6.954   5.242   1.587
10687SOL    HW132960   6.860   5.220   1.562
10687SOL    HW232961   6.973   5.208   1.680
10688SOL     OW32962   6.201   4.416   3.090
10688SOL    HW132963   6.156   4.346   3.034
10688SOL    HW232964   6.146   4.434   3.171
10689SOL     OW32965   0.535   5.957   3.446
10689SOL    HW132966   0.583   5.878   3.407
10689SOL    HW232967   0.591   6.039   3.435
10690SOL     OW32968   0.363   6.149   3.153
10690SOL    HW132969   0.408   6.222   3.206
10690SOL    HW232970   0.324   6.188   3.070
10691SOL     OW32971   0.515   2.329   2.292
10691SOL    HW132972   0.522   2.253   2.356
10691SOL    HW232973   0.497   2.294   2.200
10692SOL     OW32974   2.568   5.704   3.256
10692SOL    HW132975   2.645   5.646   3.281
10692SOL    HW232976   2.596   5.767   3.183
10693SOL     OW32977   2.601   0.118   0.052
10693SOL    HW132978   2.666   0.138   7.001
10693SOL    HW232979   2.572   0.203   0.095
10694SOL     OW32980   5.277   6.522   1.706
10694SOL    HW132981   5.272   6.599   1.770
10694SOL    HW232982   5.240   6.551   1.617
10695SOL     OW32983   5.351   2.059   3.077
10695SOL    HW132984   5.268   2.049   3.022
10695SOL    HW232985   5.425   2.006   3.036
10696SOL     OW32986   6.977   3.626   3.887
10696SOL    HW132987   7.020   3.571   3.959
10696SOL    HW232988   6.883   3.648   3.914
10697SOL     OW32989   0.180   6.272   4.337
10697SOL    HW132990   0.243   6.348   4.354
10697SOL    HW232991   0.158   6.227   4.424
10698SOL     OW32992   4.228   5.727   5.069
10698SOL    HW132993   4.201   5.821   5.051
10698SOL    HW232994   4.245   5.680   4.982
10699SOL     OW32995   4.166   3.130   1.826
10699SOL    HW132996   4.118   3.074   1.759
10699SOL    HW232997   4.264   3.127   1.807
10700SOL     OW32998   6.941   6.901   1.354
10700SOL    HW132999   6.995   6.878   1.273
10700SOL    HW233000   6.859   6.844   1.357
10701SOL     OW33001   3.339   5.727   0.046
10701SOL    HW133002   3.416   5.731   0.110
10701SOL    HW233003   3.361   5.780   6.988
10702SOL     OW33004   5.856   2.896   1.935
10702SOL    HW133005   5.846   2.946   2.021
10702SOL    HW233006   5.874   2.960   1.860
10703SOL     OW33007   3.436   4.156   5.109
10703SOL    HW133008   3.425   4.230   5.176
10703SOL    HW233009   3.494   4.188   5.034
10704SOL     OW33010   6.605   5.376   1.636
10704SOL    HW133011   6.615   5.306   1.708
10704SOL    HW233012   6.628   5.336   1.548
10705SOL     OW33013   6.171   4.446   1.976
10705SOL    HW133014   6.205   4.436   1.883
10705SOL    HW233015   6.170   4.356   2.021
10706SOL     OW33016   4.868   0.009   2.484
10706SOL    HW133017   4.927   6.961   2.446
10706SOL    HW233018   4.783   0.015   2.431
10707SOL     OW33019   0.326   6.368   3.634
10707SOL    HW133020   0.369   6.417   3.710
10707SOL    HW233021   0.285   6.284   3.668
10708SOL     OW33022   4.243   0.937   2.609
10708SOL    HW133023   4.277   0.982   2.526
10708SOL    HW233024   4.269   0.840   2.606
10709SOL     OW33025   6.052   6.666   5.283
10709SOL    HW133026   6.003   6.685   5.369
10709SOL    HW233027   6.037   6.742   5.220
10710SOL     OW33028   0.298   6.588   5.043
10710SOL    HW133029   0.308   6.490   5.025
10710SOL    HW233030   0.357   6.614   5.119
10711SOL     OW33031   1.708   5.678   3.835
10711SOL    HW133032   1.739   5.652   3.927
10711SOL    HW233033   1.674   5.597   3.788
10712SOL     OW33034   2.433   0.909   1.560
10712SOL    HW133035   2.412   0.815   1.587
10712SOL    HW233036   2.358   0.946   1.506
10713SOL     OW33037   0.888   3.746   1.601
10713SOL    HW133038   0.798   3.728   1.641
10713SOL    HW233039   0.893   3.704   1.511
10714SOL     OW33040   5.984   3.715   5.136
10714SOL    HW133041   6.007   3.759   5.223
10714SOL    HW233042   6.029   3.625   5.131
10715SOL     OW33043   4.770   6.815   3.139
10715SOL    HW133044   4.840   6.879   3.108
10715SOL    HW233045   4.680   6.859   3.135
10716SOL     OW33046   5.895   2.783   4.640
10716SOL    HW133047   5.947   2.806   4.557
10716SOL    HW233048   5.798   2.778   4.617
10717SOL     OW33049   1.146   2.602   0.981
10717SOL    HW133050   1.159   2.518   0.928
10717SOL    HW233051   1.057   2.599   1.027
10718SOL     OW33052   0.925   2.945   6.559
10718SOL    HW133053   1.001   2.881   6.570
10718SOL    HW233054   0.960   3.037   6.544
10719SOL     OW33055   5.218   5.332   0.085
10719SOL    HW133056   5.257   5.353   7.018
10719SOL    HW233057   5.120   5.316   0.075
10720SOL     OW33058   6.318   3.313   5.479
10720SOL    HW133059   6.388   3.355   5.421
10720SOL    HW233060   6.228   3.323   5.434
10721SOL     OW33061   6.193   4.404   5.444
10721SOL    HW133062   6.217   4.307   5.445
10721SOL    HW233063   6.094   4.414   5.449
10722SOL     OW33064   0.260   3.833   0.605
10722SOL    HW133065   0.261   3.733   0.607
10722SOL    HW233066   0.259   3.869   0.699
10723SOL     OW33067   0.371   4.126   6.097
10723SOL    HW133068   0.458   4.123   6.047
10723SOL    HW233069   0.388   4.153   6.192
10724SOL     OW33070   4.386   1.007   6.894
10724SOL    HW133071   4.322   0.933   6.870
10724SOL    HW233072   4.456   1.014   6.823
10725SOL     OW33073   0.079   4.779   4.301
10725SOL    HW133074   0.117   4.871   4.287
10725SOL    HW233075   0.063   4.764   4.399
10726SOL     OW33076   5.431   6.468   5.776
10726SOL    HW133077   5.347   6.491   5.824
10726SOL    HW233078   5.470   6.550   5.734
10727SOL     OW33079   0.335   5.328   4.362
10727SOL    HW133080   0.405   5.258   4.378
10727SOL    HW233081   0.313   5.373   4.448
10728SOL     OW33082   6.154   6.152   1.333
10728SOL    HW133083   6.203   6.236   1.354
10728SOL    HW233084   6.169   6.085   1.406
10729SOL     OW33085   5.848   0.739   2.548
10729SOL    HW133086   5.911   0.744   2.626
10729SOL    HW233087   5.888   0.787   2.470
10730SOL     OW33088   2.371   0.271   1.265
10730SOL    HW133089   2.291   0.234   1.218
10730SOL    HW233090   2.350   0.362   1.301
10731SOL     OW33091   2.764   5.681   0.344
10731SOL    HW133092   2.799   5.741   0.415
10731SOL    HW233093   2.838   5.624   0.309
10732SOL     OW33094   5.196   5.484   2.563
10732SOL    HW133095   5.142   5.568   2.560
10732SOL    HW233096   5.248   5.480   2.648
10733SOL     OW33097   5.098   1.970   6.754
10733SOL    HW133098   5.137   1.989   6.844
10733SOL    HW233099   5.147   1.893   6.712
10734SOL     OW33100   1.243   0.232   0.204
10734SOL    HW133101   1.177   0.307   0.205
10734SOL    HW233102   1.260   0.201   0.298
10735SOL     OW33103   1.733   4.610   3.071
10735SOL    HW133104   1.729   4.706   3.042
10735SOL    HW233105   1.810   4.565   3.026
10736SOL     OW33106   0.446   0.220   3.309
10736SOL    HW133107   0.482   0.284   3.240
10736SOL    HW233108   0.388   0.269   3.373
10737SOL     OW33109   1.551   1.734   0.410
10737SOL    HW133110   1.455   1.720   0.385
10737SOL    HW233111   1.606   1.743   0.326
10738SOL     OW33112   2.405   0.390   2.918
10738SOL    HW133113   2.324   0.384   2.977
10738SOL    HW233114   2.487   0.377   2.973
10739SOL     OW33115   0.117   1.474   1.617
10739SOL    HW133116   0.172   1.505   1.539
10739SOL    HW233117   0.177   1.445   1.691
10740SOL     OW33118   1.539   4.258   5.458
10740SOL    HW133119   1.566   4.199   5.534
10740SOL    HW233120   1.595   4.341   5.459
10741SOL     OW33121   0.287   0.425   3.012
10741SOL    HW133122   0.381   0.400   3.036
10741SOL    HW233123   0.224   0.382   3.077
10742SOL     OW33124   6.248   0.386   1.532
10742SOL    HW133125   6.184   0.435   1.474
10742SOL    HW233126   6.340   0.390   1.491
10743SOL     OW33127   2.394   1.666   4.063
10743SOL    HW133128   2.370   1.577   4.103
10743SOL    HW233129   2.324   1.733   4.089
10744SOL     OW33130   2.720   1.429   2.320
10744SOL    HW133131   2.732   1.482   2.236
10744SOL    HW233132   2.715   1.491   2.398
10745SOL     OW33133   0.847   4.917   0.887
10745SOL    HW133134   0.775   4.935   0.954
10745SOL    HW233135   0.933   4.955   0.920
10746SOL     OW33136   1.889   3.728   1.540
10746SOL    HW133137   1.924   3.634   1.551
10746SOL    HW233138   1.881   3.770   1.630
10747SOL     OW33139   4.527   0.974   3.211
10747SOL    HW133140   4.469   0.975   3.292
10747SOL    HW233141   4.471   0.991   3.130
10748SOL     OW33142   3.450   0.616   0.891
10748SOL    HW133143   3.507   0.653   0.964
10748SOL    HW233144   3.507   0.578   0.819
10749SOL     OW33145   0.255   4.808   3.897
10749SOL    HW133146   0.273   4.710   3.906
10749SOL    HW233147   0.177   4.833   3.953
10750SOL     OW33148   4.080   6.301   4.384
10750SOL    HW133149   4.001   6.273   4.329
10750SOL    HW233150   4.060   6.388   4.428
10751SOL     OW33151   0.963   3.817   5.293
10751SOL    HW133152   0.888   3.876   5.263
10751SOL    HW233153   1.050   3.855   5.262
10752SOL     OW33154   6.616   3.733   6.317
10752SOL    HW133155   6.633   3.831   6.306
10752SOL    HW233156   6.530   3.709   6.270
10753SOL     OW33157   5.345   0.715   3.853
10753SOL    HW133158   5.388   0.670   3.774
10753SOL    HW233159   5.372   0.811   3.855
10754SOL     OW33160   1.599   2.275   3.816
10754SOL    HW133161   1.577   2.215   3.739
10754SOL    HW233162   1.530   2.347   3.823
10755SOL     OW33163   0.707   2.196   0.391
10755SOL    HW133164   0.744   2.121   0.337
10755SOL    HW233165   0.735   2.187   0.486
10756SOL     OW33166   6.608   4.486   6.919
10756SOL    HW133167   6.555   4.564   6.953
10756SOL    HW233168   6.693   4.519   6.879
10757SOL     OW33169   1.233   3.534   0.600
10757SOL    HW133170   1.297   3.461   0.625
10757SOL    HW233171   1.175   3.503   0.525
10758SOL     OW33172   1.183   6.777   5.307
10758SOL    HW133173   1.198   6.839   5.384
10758SOL    HW233174   1.085   6.775   5.284
10759SOL     OW33175   1.776   3.236   6.919
10759SOL    HW133176   1.679   3.211   6.925
10759SOL    HW233177   1.793   3.318   6.973
10760SOL     OW33178   6.984   0.961   0.547
10760SOL    HW133179   0.037   0.947   0.485
10760SOL    HW233180   7.018   0.988   0.637
10761SOL     OW33181   0.831   2.060   6.337
10761SOL    HW133182   0.782   2.140   6.372
10761SOL    HW233183   0.775   1.978   6.347
10762SOL     OW33184   3.965   1.790   5.099
10762SOL    HW133185   4.007   1.812   5.187
10762SOL    HW233186   3.907   1.709   5.109
10763SOL     OW33187   4.525   6.135   1.149
10763SOL    HW133188   4.486   6.044   1.162
10763SOL    HW233189   4.621   6.127   1.122
10764SOL     OW33190   5.808   1.627   5.431
10764SOL    HW133191   5.812   1.651   5.334
10764SOL    HW233192   5.718   1.587   5.452
10765SOL     OW33193   5.704   2.977   1.258
10765SOL    HW133194   5.699   3.076   1.251
10765SOL    HW233195   5.620   2.941   1.298
10766SOL     OW33196   3.247   3.242   1.022
10766SOL    HW133197   3.228   3.307   1.096
10766SOL    HW233198   3.256   3.150   1.060
10767SOL     OW33199   1.254   0.513   6.935
10767SOL    HW133200   1.318   0.440   6.916
10767SOL    HW233201   1.290   0.599   6.898
10768SOL     OW33202   4.473   5.453   1.154
10768SOL    HW133203   4.415   5.534   1.157
10768SOL    HW233204   4.541   5.457   1.227
10769SOL     OW33205   1.857   5.030   4.915
10769SOL    HW133206   1.794   4.992   4.847
10769SOL    HW233207   1.949   4.999   4.897
10770SOL     OW33208   5.654   0.159   4.945
10770SOL    HW133209   5.739   0.107   4.947
10770SOL    HW233210   5.645   0.211   5.030
10771SOL     OW33211   4.748   1.068   4.461
10771SOL    HW133212   4.736   1.126   4.541
10771SOL    HW233213   4.846   1.049   4.448
10772SOL     OW33214   6.291   6.256   4.317
10772SOL    HW133215   6.298   6.315   4.397
10772SOL    HW233216   6.306   6.161   4.344
10773SOL     OW33217   6.423   5.297   5.966
10773SOL    HW133218   6.406   5.291   5.867
10773SOL    HW233219   6.349   5.350   6.008
10774SOL     OW33220   1.620   1.610   6.410
10774SOL    HW133221   1.551   1.670   6.370
10774SOL    HW233222   1.653   1.649   6.496
10775SOL     OW33223   0.598   3.401   0.443
10775SOL    HW133224   0.589   3.354   0.532
10775SOL    HW233225   0.509   3.438   0.417
10776SOL     OW33226   1.773   6.101   0.008
10776SOL    HW133227   1.783   6.024   6.968
10776SOL    HW233228   1.795   6.186   6.984
10777SOL     OW33229   4.304   6.585   4.453
10777SOL    HW133230   4.205   6.587   4.470
10777SOL    HW233231   4.348   6.659   4.505
10778SOL     OW33232   5.667   6.111   4.938
10778SOL    HW133233   5.729   6.033   4.944
10778SOL    HW233234   5.577   6.080   4.910
10779SOL     OW33235   6.378   4.994   3.396
10779SOL    HW133236   6.467   5.028   3.428
10779SOL    HW233237   6.374   4.895   3.408
10780SOL     OW33238   1.489   0.091   3.780
10780SOL    HW133239   1.390   0.086   3.773
10780SOL    HW233240   1.515   0.102   3.876
10781SOL     OW33241   3.972   1.777   3.253
10781SOL    HW133242   3.891   1.793   3.197
10781SOL    HW233243   4.025   1.861   3.258
10782SOL     OW33244   6.711   1.588   3.614
10782SOL    HW133245   6.782   1.621   3.551
10782SOL    HW233246   6.641   1.658   3.623
10783SOL     OW33247   1.174   3.340   3.490
10783SOL    HW133248   1.133   3.283   3.562
10783SOL    HW233249   1.253   3.388   3.527
10784SOL     OW33250   2.826   6.983   2.923
10784SOL    HW133251   2.748   6.924   2.901
10784SOL    HW233252   2.911   6.936   2.898
10785SOL     OW33253   0.877   4.806   0.634
10785SOL    HW133254   0.798   4.797   0.574
10785SOL    HW233255   0.856   4.869   0.708
10786SOL     OW33256   4.838   4.299   2.679
10786SOL    HW133257   4.884   4.215   2.648
10786SOL    HW233258   4.827   4.361   2.603
10787SOL     OW33259   3.291   1.785   4.466
10787SOL    HW133260   3.350   1.813   4.542
10787SOL    HW233261   3.323   1.828   4.381
10788SOL     OW33262   2.372   4.446   6.677
10788SOL    HW133263   2.358   4.531   6.729
10788SOL    HW233264   2.289   4.426   6.624
10789SOL     OW33265   5.633   3.038   0.351
10789SOL    HW133266   5.689   3.003   0.276
10789SOL    HW233267   5.690   3.095   0.411
10790SOL     OW33268   1.333   0.399   3.248
10790SOL    HW133269   1.401   0.347   3.298
10790SOL    HW233270   1.302   0.476   3.304
10791SOL     OW33271   6.933   0.349   0.887
10791SOL    HW133272   7.018   0.336   0.938
10791SOL    HW233273   6.945   0.313   0.794
10792SOL     OW33274   3.658   3.167   1.896
10792SOL    HW133275   3.694   3.086   1.851
10792SOL    HW233276   3.634   3.236   1.828
10793SOL     OW33277   5.462   2.567   4.466
10793SOL    HW133278   5.526   2.506   4.512
10793SOL    HW233279   5.481   2.568   4.368
10794SOL     OW33280   3.100   3.870   3.496
10794SOL    HW133281   3.140   3.782   3.470
10794SOL    HW233282   3.060   3.862   3.587
10795SOL     OW33283   6.749   3.363   3.706
10795SOL    HW133284   6.737   3.325   3.798
10795SOL    HW233285   6.846   3.370   3.685
10796SOL     OW33286   4.943   6.499   0.162
10796SOL    HW133287   4.878   6.538   0.227
10796SOL    HW233288   4.903   6.416   0.122
10797SOL     OW33289   3.692   2.036   1.076
10797SOL    HW133290   3.642   2.070   0.996
10797SOL    HW233291   3.711   2.111   1.139
10798SOL     OW33292   2.230   6.286   0.766
10798SOL    HW133293   2.239   6.381   0.737
10798SOL    HW233294   2.319   6.240   0.757
10799SOL     OW33295   3.605   1.045   2.363
10799SOL    HW133296   3.654   1.116   2.312
10799SOL    HW233297   3.611   1.065   2.461
10800SOL     OW33298   0.970   0.020   6.944
10800SOL    HW133299   0.888   0.051   6.992
10800SOL    HW233300   1.003   0.093   6.884
10801SOL     OW33301   0.867   6.579   5.522
10801SOL    HW133302   0.952   6.630   5.519
10801SOL    HW233303   0.846   6.553   5.616
10802SOL     OW33304   1.500   2.863   3.623
10802SOL    HW133305   1.567   2.909   3.682
10802SOL    HW233306   1.528   2.873   3.527
10803SOL     OW33307   4.273   4.416   5.654
10803SOL    HW133308   4.301   4.364   5.573
10803SOL    HW233309   4.210   4.362   5.709
10804SOL     OW33310   6.048   3.818   1.867
10804SOL    HW133311   5.971   3.846   1.925
10804SOL    HW233312   6.031   3.725   1.834
10805SOL     OW33313   3.819   6.972   6.756
10805SOL    HW133314   3.784   6.914   6.683
10805SOL    HW233315   3.907   6.936   6.788
10806SOL     OW33316   4.752   4.365   6.413
10806SOL    HW133317   4.772   4.271   6.441
10806SOL    HW233318   4.731   4.421   6.493
10807SOL     OW33319   1.258   6.513   3.464
10807SOL    HW133320   1.174   6.461   3.448
10807SOL    HW233321   1.322   6.498   3.389
10808SOL     OW33322   6.510   3.899   6.574
10808SOL    HW133323   6.548   3.831   6.637
10808SOL    HW233324   6.554   3.890   6.485
10809SOL     OW33325   2.964   5.692   3.596
10809SOL    HW133326   2.994   5.705   3.691
10809SOL    HW233327   2.941   5.780   3.556
10810SOL     OW33328   2.052   0.262   4.976
10810SOL    HW133329   2.023   0.262   4.880
10810SOL    HW233330   2.010   0.340   5.023
10811SOL     OW33331   4.450   4.834   5.754
10811SOL    HW133332   4.386   4.800   5.823
10811SOL    HW233333   4.417   4.922   5.719
10812SOL     OW33334   1.130   3.741   1.717
10812SOL    HW133335   1.141   3.832   1.754
10812SOL    HW233336   1.042   3.735   1.669
10813SOL     OW33337   2.166   5.642   6.952
10813SOL    HW133338   2.117   5.654   0.016
10813SOL    HW233339   2.259   5.678   6.960
10814SOL     OW33340   1.684   6.324   6.756
10814SOL    HW133341   1.749   6.386   6.800
10814SOL    HW233342   1.713   6.308   6.661
10815SOL     OW33343   4.819   4.529   2.915
10815SOL    HW133344   4.742   4.484   2.870
10815SOL    HW233345   4.868   4.584   2.848
10816SOL     OW33346   1.505   2.159   1.642
10816SOL    HW133347   1.538   2.214   1.565
10816SOL    HW233348   1.561   2.076   1.650
10817SOL     OW33349   5.448   6.749   2.285
10817SOL    HW133350   5.535   6.715   2.248
10817SOL    HW233351   5.455   6.756   2.384
10818SOL     OW33352   4.603   4.502   5.429
10818SOL    HW133353   4.673   4.450   5.380
10818SOL    HW233354   4.646   4.568   5.490
10819SOL     OW33355   6.647   4.308   0.255
10819SOL    HW133356   6.585   4.380   0.224
10819SOL    HW233357   6.594   4.225   0.274
10820SOL     OW33358   5.966   5.522   3.840
10820SOL    HW133359   5.997   5.603   3.890
10820SOL    HW233360   6.045   5.464   3.819
10821SOL     OW33361   5.857   6.468   2.275
10821SOL    HW133362   5.864   6.371   2.295
10821SOL    HW233363   5.837   6.481   2.178
10822SOL     OW33364   1.235   2.934   3.206
10822SOL    HW133365   1.138   2.951   3.187
10822SOL    HW233366   1.258   2.971   3.297
10823SOL     OW33367   1.684   5.426   1.823
10823SOL    HW133368   1.609   5.424   1.889
10823SOL    HW233369   1.665   5.494   1.753
10824SOL     OW33370   5.753   0.843   3.931
10824SOL    HW133371   5.740   0.758   3.982
10824SOL    HW233372   5.757   0.823   3.833
10825SOL     OW33373   3.492   6.893   6.368
10825SOL    HW133374   3.549   6.817   6.338
10825SOL    HW233375   3.454   6.874   6.458
10826SOL     OW33376   0.208   3.294   3.170
10826SOL    HW133377   0.182   3.364   3.104
10826SOL    HW233378   0.288   3.245   3.137
10827SOL     OW33379   6.073   3.998   4.127
10827SOL    HW133380   6.120   3.914   4.152
10827SOL    HW233381   6.071   4.060   4.206
10828SOL     OW33382   0.983   4.751   1.872
10828SOL    HW133383   0.929   4.675   1.909
10828SOL    HW233384   0.926   4.832   1.864
10829SOL     OW33385   3.594   2.421   0.893
10829SOL    HW133386   3.523   2.488   0.873
10829SOL    HW233387   3.639   2.445   0.979
10830SOL     OW33388   5.081   1.428   3.821
10830SOL    HW133389   5.120   1.406   3.910
10830SOL    HW233390   5.134   1.503   3.780
10831SOL     OW33391   4.149   5.719   2.196
10831SOL    HW133392   4.202   5.803   2.190
10831SOL    HW233393   4.177   5.657   2.123
10832SOL     OW33394   0.595   2.657   0.584
10832SOL    HW133395   0.517   2.599   0.561
10832SOL    HW233396   0.615   2.718   0.507
10833SOL     OW33397   1.361   1.421   2.244
10833SOL    HW133398   1.396   1.461   2.328
10833SOL    HW233399   1.426   1.354   2.208
10834SOL     OW33400   1.704   2.044   6.165
10834SOL    HW133401   1.664   1.972   6.108
10834SOL    HW233402   1.760   2.003   6.237
10835SOL     OW33403   6.421   2.275   0.277
10835SOL    HW133404   6.451   2.188   0.317
10835SOL    HW233405   6.474   2.350   0.317
10836SOL     OW33406   0.032   1.631   4.767
10836SOL    HW133407   6.980   1.640   4.700
10836SOL    HW233408   0.118   1.614   4.718
10837SOL     OW33409   6.770   4.815   0.504
10837SOL    HW133410   6.675   4.784   0.493
10837SOL    HW233411   6.773   4.914   0.503
10838SOL     OW33412   5.893   6.453   4.757
10838SOL    HW133413   5.885   6.467   4.659
10838SOL    HW233414   5.960   6.516   4.795
10839SOL     OW33415   3.375   3.056   0.801
10839SOL    HW133416   3.344   3.150   0.815
10839SOL    HW233417   3.459   3.040   0.853
10840SOL     OW33418   3.742   5.780   1.494
10840SOL    HW133419   3.684   5.821   1.423
10840SOL    HW233420   3.687   5.720   1.552
10841SOL     OW33421   4.154   6.085   0.512
10841SOL    HW133422   4.169   6.174   0.469
10841SOL    HW233423   4.242   6.038   0.523
10842SOL     OW33424   5.238   2.948   1.402
10842SOL    HW133425   5.173   3.023   1.400
10842SOL    HW233426   5.223   2.888   1.324
10843SOL     OW33427   0.399   2.278   1.652
10843SOL    HW133428   0.413   2.179   1.653
10843SOL    HW233429   0.361   2.307   1.740
10844SOL     OW33430   0.503   0.093   4.021
10844SOL    HW133431   0.460   0.054   4.102
10844SOL    HW233432   0.463   0.183   4.001
10845SOL     OW33433   3.540   0.490   6.031
10845SOL    HW133434   3.458   0.510   6.083
10845SOL    HW233435   3.540   0.543   5.946
10846SOL     OW33436   4.611   2.884   0.994
10846SOL    HW133437   4.539   2.839   1.048
10846SOL    HW233438   4.699   2.872   1.040
10847SOL     OW33439   3.804   3.548   6.444
10847SOL    HW133440   3.732   3.545   6.514
10847SOL    HW233441   3.762   3.547   6.353
10848SOL     OW33442   2.553   2.591   0.014
10848SOL    HW133443   2.618   2.590   0.090
10848SOL    HW233444   2.461   2.575   0.049
10849SOL     OW33445   2.579   4.945   2.901
10849SOL    HW133446   2.485   4.916   2.922
10849SOL    HW233447   2.632   4.867   2.868
10850SOL     OW33448   3.591   5.775   0.207
10850SOL    HW133449   3.649   5.855   0.218
10850SOL    HW233450   3.644   5.699   0.168
10851SOL     OW33451   2.816   3.248   6.889
10851SOL    HW133452   2.900   3.196   6.879
10851SOL    HW233453   2.786   3.245   6.985
10852SOL     OW33454   1.017   6.308   0.036
10852SOL    HW133455   1.099   6.259   0.008
10852SOL    HW233456   1.015   6.398   7.014
10853SOL     OW33457   3.495   2.254   5.667
10853SOL    HW133458   3.502   2.210   5.757
10853SOL    HW233459   3.440   2.337   5.675
10854SOL     OW33460   5.036   0.293   5.410
10854SOL    HW133461   4.988   0.257   5.490
10854SOL    HW233462   4.993   0.258   5.327
10855SOL     OW33463   2.776   6.575   1.880
10855SOL    HW133464   2.685   6.612   1.899
10855SOL    HW233465   2.774   6.476   1.895
10856SOL     OW33466   5.811   1.592   2.239
10856SOL    HW133467   5.776   1.508   2.198
10856SOL    HW233468   5.846   1.572   2.331
10857SOL     OW33469   5.967   2.804   3.244
10857SOL    HW133470   6.045   2.826   3.302
10857SOL    HW233471   5.956   2.875   3.174
10858SOL     OW33472   0.590   2.634   6.597
10858SOL    HW133473   0.670   2.574   6.597
10858SOL    HW233474   0.549   2.635   6.688
10859SOL     OW33475   2.133   3.435   3.986
10859SOL    HW133476   2.149   3.358   3.924
10859SOL    HW233477   2.139   3.521   3.935
10860SOL     OW33478   6.545   0.615   5.710
10860SOL    HW133479   6.644   0.605   5.719
10860SOL    HW233480   6.501   0.593   5.797
10861SOL     OW33481   3.970   3.029   3.072
10861SOL    HW133482   3.913   2.990   3.145
10861SOL    HW233483   4.044   3.083   3.114
10862SOL     OW33484   2.576   2.038   6.660
10862SOL    HW133485   2.628   2.105   6.714
10862SOL    HW233486   2.634   1.959   6.641
10863SOL     OW33487   3.959   0.761   2.758
10863SOL    HW133488   3.914   0.672   2.749
10863SOL    HW233489   3.930   0.821   2.685
10864SOL     OW33490   3.443   5.173   0.711
10864SOL    HW133491   3.456   5.249   0.774
10864SOL    HW233492   3.346   5.152   0.703
10865SOL     OW33493   6.075   1.569   3.144
10865SOL    HW133494   6.056   1.541   3.238
10865SOL    HW233495   6.053   1.667   3.134
10866SOL     OW33496   4.500   5.251   0.431
10866SOL    HW133497   4.477   5.262   0.334
10866SOL    HW233498   4.505   5.154   0.453
10867SOL     OW33499   3.373   3.916   0.328
10867SOL    HW133500   3.275   3.916   0.348
10867SOL    HW233501   3.389   3.872   0.240
10868SOL     OW33502   2.501   2.055   3.867
10868SOL    HW133503   2.595   2.024   3.863
10868SOL    HW233504   2.493   2.145   3.823
10869NA      NA33505   0.471   2.333   6.353
10870NA      NA33506   4.448   4.582   5.216
10871NA      NA33507   2.180   4.147   2.207
10872NA      NA33508   4.910   4.058   3.565
10873NA      NA33509   4.232   2.333   5.243
10874NA      NA33510   3.243   4.456   1.552
10875NA      NA33511   0.368   4.655   0.173
10876NA      NA33512   3.345   3.514   2.867
10877NA      NA33513   5.258   5.279   1.034
10878NA      NA33514   3.282   0.031   5.375
10879NA      NA33515   5.903   5.763   0.796
10880NA      NA33516   2.282   0.805   5.175
10881NA      NA33517   3.993   4.906   1.736
10882NA      NA33518   3.836   3.068   1.449
   7.02303   7.02303   7.02303
