Generated by trjconv : CNT in water t= 197.00000
33518
    1C        C    1   2.841   2.768   4.748
    1C        C    2   2.903   2.723   4.867
    1C        C    3   2.850   2.776   4.985
    1C        C    4   2.844   2.768   4.260
    1C        C    5   2.898   2.722   4.382
    1C        C    6   2.848   2.769   4.505
    1C        C    7   3.009   2.634   4.627
    1C        C    8   2.895   2.717   4.628
    1C        C    9   3.074   2.598   4.747
    1C        C   10   3.010   2.631   4.869
    1C        C   11   3.182   2.490   4.977
    1C        C   12   3.061   2.561   4.979
    1C        C   13   2.846   2.766   3.773
    1C        C   14   2.896   2.715   3.895
    1C        C   15   2.846   2.769   4.016
    1C        C   16   3.020   2.649   4.139
    1C        C   17   2.900   2.723   4.138
    1C        C   18   3.080   2.613   4.262
    1C        C   19   3.014   2.642   4.384
    1C        C   20   3.208   2.558   4.505
    1C        C   21   3.073   2.601   4.505
    1C        C   22   3.278   2.535   4.626
    1C        C   23   3.206   2.546   4.747
    1C        C   24   3.412   2.481   4.865
    1C        C   25   3.270   2.499   4.865
    1C        C   26   3.489   2.475   4.983
    1C        C   27   2.851   2.770   3.282
    1C        C   28   2.907   2.726   3.405
    1C        C   29   2.852   2.770   3.528
    1C        C   30   3.015   2.636   3.652
    1C        C   31   2.903   2.723   3.651
    1C        C   32   3.077   2.605   3.774
    1C        C   33   3.013   2.636   3.896
    1C        C   34   3.210   2.555   4.018
    1C        C   35   3.079   2.608   4.018
    1C        C   36   3.278   2.534   4.140
    1C        C   37   3.212   2.561   4.262
    1C        C   38   3.415   2.505   4.384
    1C        C   39   3.277   2.536   4.385
    1C        C   40   3.486   2.503   4.506
    1C        C   41   3.416   2.508   4.628
    1C        C   42   3.631   2.480   4.745
    1C        C   43   3.489   2.479   4.746
    1C        C   44   3.707   2.484   4.864
    1C        C   45   3.628   2.473   4.979
    1C        C   46   2.838   2.752   2.795
    1C        C   47   2.894   2.709   2.918
    1C        C   48   2.844   2.760   3.040
    1C        C   49   3.018   2.636   3.163
    1C        C   50   2.900   2.715   3.161
    1C        C   51   3.081   2.604   3.285
    1C        C   52   3.017   2.638   3.406
    1C        C   53   3.206   2.546   3.528
    1C        C   54   3.076   2.602   3.529
    1C        C   55   3.276   2.529   3.650
    1C        C   56   3.210   2.556   3.772
    1C        C   57   3.415   2.507   3.896
    1C        C   58   3.276   2.534   3.895
    1C        C   59   3.487   2.504   4.017
    1C        C   60   3.417   2.508   4.140
    1C        C   61   3.628   2.504   4.258
    1C        C   62   3.487   2.498   4.262
    1C        C   63   3.700   2.510   4.380
    1C        C   64   3.627   2.505   4.501
    1C        C   65   3.835   2.542   4.620
    1C        C   66   3.698   2.504   4.623
    1C        C   67   3.902   2.567   4.741
    1C        C   68   3.842   2.526   4.862
    1C        C   69   4.050   2.585   4.977
    1C        C   70   3.921   2.531   4.978
    1C        C   71   2.826   2.736   2.310
    1C        C   72   2.881   2.694   2.433
    1C        C   73   2.828   2.746   2.553
    1C        C   74   3.012   2.635   2.672
    1C        C   75   2.888   2.701   2.673
    1C        C   76   3.076   2.604   2.795
    1C        C   77   3.014   2.636   2.918
    1C        C   78   3.206   2.542   3.038
    1C        C   79   3.076   2.599   3.040
    1C        C   80   3.276   2.525   3.159
    1C        C   81   3.212   2.550   3.282
    1C        C   82   3.414   2.500   3.404
    1C        C   83   3.275   2.526   3.407
    1C        C   84   3.485   2.499   3.527
    1C        C   85   3.416   2.509   3.649
    1C        C   86   3.624   2.504   3.770
    1C        C   87   3.483   2.498   3.773
    1C        C   88   3.698   2.512   3.890
    1C        C   89   3.629   2.504   4.013
    1C        C   90   3.835   2.547   4.136
    1C        C   91   3.699   2.510   4.136
    1C        C   92   3.901   2.574   4.258
    1C        C   93   3.837   2.543   4.380
    1C        C   94   4.031   2.633   4.501
    1C        C   95   3.906   2.568   4.500
    1C        C   96   4.093   2.671   4.622
    1C        C   97   4.028   2.632   4.741
    1C        C   98   4.194   2.762   4.863
    1C        C   99   4.099   2.655   4.863
    1C        C  100   4.211   2.842   4.977
    1C        C  101   2.822   2.732   2.076
    1C        C  102   2.995   2.594   2.191
    1C        C  103   2.878   2.677   2.192
    1C        C  104   3.066   2.578   2.313
    1C        C  105   3.003   2.622   2.432
    1C        C  106   3.202   2.537   2.551
    1C        C  107   3.070   2.590   2.552
    1C        C  108   3.272   2.525   2.672
    1C        C  109   3.203   2.544   2.794
    1C        C  110   3.412   2.500   2.913
    1C        C  111   3.272   2.520   2.915
    1C        C  112   3.483   2.499   3.035
    1C        C  113   3.415   2.499   3.159
    1C        C  114   3.626   2.496   3.279
    1C        C  115   3.484   2.490   3.282
    1C        C  116   3.694   2.509   3.402
    1C        C  117   3.626   2.500   3.526
    1C        C  118   3.833   2.544   3.645
    1C        C  119   3.695   2.511   3.648
    1C        C  120   3.898   2.571   3.767
    1C        C  121   3.834   2.550   3.891
    1C        C  122   4.026   2.638   4.015
    1C        C  123   3.900   2.574   4.013
    1C        C  124   4.090   2.674   4.136
    1C        C  125   4.029   2.635   4.257
    1C        C  126   4.201   2.760   4.381
    1C        C  127   4.091   2.670   4.379
    1C        C  128   4.247   2.820   4.500
    1C        C  129   4.195   2.768   4.622
    1C        C  130   4.327   2.936   4.741
    1C        C  131   4.246   2.819   4.743
    1C        C  132   4.352   3.007   4.860
    1C        C  133   4.284   2.960   4.973
    1C        C  134   3.174   2.476   2.080
    1C        C  135   3.038   2.508   2.085
    1C        C  136   3.261   2.482   2.190
    1C        C  137   3.196   2.522   2.309
    1C        C  138   3.406   2.478   2.428
    1C        C  139   3.268   2.505   2.430
    1C        C  140   3.480   2.481   2.548
    1C        C  141   3.411   2.498   2.671
    1C        C  142   3.624   2.492   2.792
    1C        C  143   3.483   2.487   2.792
    1C        C  144   3.694   2.506   2.914
    1C        C  145   3.624   2.497   3.036
    1C        C  146   3.834   2.536   3.156
    1C        C  147   3.696   2.506   3.157
    1C        C  148   3.900   2.563   3.277
    1C        C  149   3.831   2.546   3.399
    1C        C  150   4.024   2.631   3.524
    1C        C  151   3.898   2.567   3.522
    1C        C  152   4.085   2.670   3.645
    1C        C  153   4.025   2.633   3.768
    1C        C  154   4.191   2.764   3.890
    1C        C  155   4.082   2.674   3.891
    1C        C  156   4.243   2.815   4.011
    1C        C  157   4.196   2.767   4.135
    1C        C  158   4.335   2.924   4.255
    1C        C  159   4.247   2.814   4.259
    1C        C  160   4.376   2.985   4.376
    1C        C  161   4.329   2.934   4.499
    1C        C  162   4.440   3.117   4.619
    1C        C  163   4.370   2.994   4.620
    1C        C  164   4.470   3.186   4.738
    1C        C  165   4.425   3.128   4.858
    1C        C  166   4.514   3.323   4.972
    1C        C  167   4.473   3.190   4.975
    1C        C  168   3.478   2.439   2.072
    1C        C  169   3.401   2.463   2.187
    1C        C  170   3.619   2.469   2.306
    1C        C  171   3.477   2.463   2.307
    1C        C  172   3.691   2.489   2.425
    1C        C  173   3.621   2.491   2.548
    1C        C  174   3.827   2.545   2.665
    1C        C  175   3.692   2.502   2.669
    1C        C  176   3.896   2.565   2.787
    1C        C  177   3.831   2.543   2.910
    1C        C  178   4.027   2.622   3.033
    1C        C  179   3.899   2.562   3.033
    1C        C  180   4.087   2.662   3.155
    1C        C  181   4.024   2.632   3.277
    1C        C  182   4.196   2.752   3.401
    1C        C  183   4.082   2.668   3.401
    1C        C  184   4.245   2.807   3.521
    1C        C  185   4.193   2.762   3.645
    1C        C  186   4.337   2.916   3.764
    1C        C  187   4.246   2.807   3.768
    1C        C  188   4.374   2.977   3.885
    1C        C  189   4.334   2.924   4.010
    1C        C  190   4.440   3.106   4.129
    1C        C  191   4.376   2.980   4.132
    1C        C  192   4.466   3.174   4.250
    1C        C  193   4.440   3.111   4.374
    1C        C  194   4.504   3.315   4.493
    1C        C  195   4.465   3.180   4.495
    1C        C  196   4.519   3.391   4.612
    1C        C  197   4.506   3.324   4.736
    1C        C  198   4.554   3.539   4.851
    1C        C  199   4.528   3.398   4.855
    1C        C  200   4.588   3.618   4.965
    1C        C  201   3.617   2.422   2.071
    1C        C  202   3.828   2.510   2.184
    1C        C  203   3.692   2.465   2.184
    1C        C  204   3.898   2.547   2.302
    1C        C  205   3.827   2.529   2.423
    1C        C  206   4.021   2.625   2.544
    1C        C  207   3.893   2.566   2.542
    1C        C  208   4.083   2.663   2.665
    1C        C  209   4.024   2.626   2.787
    1C        C  210   4.196   2.747   2.907
    1C        C  211   4.084   2.661   2.910
    1C        C  212   4.246   2.799   3.029
    1C        C  213   4.195   2.753   3.152
    1C        C  214   4.332   2.910   3.274
    1C        C  215   4.243   2.800   3.277
    1C        C  216   4.375   2.970   3.394
    1C        C  217   4.337   2.914   3.518
    1C        C  218   4.437   3.100   3.641
    1C        C  219   4.375   2.973   3.640
    1C        C  220   4.459   3.170   3.762
    1C        C  221   4.438   3.103   3.885
    1C        C  222   4.502   3.307   4.006
    1C        C  223   4.469   3.169   4.005
    1C        C  224   4.515   3.380   4.126
    1C        C  225   4.503   3.310   4.248
    1C        C  226   4.516   3.524   4.366
    1C        C  227   4.513   3.383   4.369
    1C        C  228   4.517   3.598   4.486
    1C        C  229   4.536   3.531   4.608
    1C        C  230   4.506   3.746   4.728
    1C        C  231   4.539   3.607   4.727
    1C        C  232   4.500   3.821   4.848
    1C        C  233   4.550   3.753   4.959
    1C        C  234   4.020   2.614   2.061
    1C        C  235   3.898   2.548   2.068
    1C        C  236   4.083   2.655   2.178
    1C        C  237   4.024   2.613   2.299
    1C        C  238   4.202   2.733   2.421
    1C        C  239   4.083   2.656   2.420
    1C        C  240   4.253   2.787   2.542
    1C        C  241   4.199   2.745   2.665
    1C        C  242   4.339   2.904   2.786
    1C        C  243   4.253   2.792   2.786
    1C        C  244   4.372   2.968   2.908
    1C        C  245   4.333   2.911   3.031
    1C        C  246   4.436   3.096   3.150
    1C        C  247   4.375   2.968   3.153
    1C        C  248   4.456   3.164   3.273
    1C        C  249   4.432   3.099   3.396
    1C        C  250   4.498   3.302   3.515
    1C        C  251   4.460   3.166   3.518
    1C        C  252   4.511   3.372   3.637
    1C        C  253   4.497   3.306   3.761
    1C        C  254   4.519   3.517   3.878
    1C        C  255   4.510   3.376   3.883
    1C        C  256   4.516   3.589   3.999
    1C        C  257   4.516   3.521   4.123
    1C        C  258   4.496   3.735   4.244
    1C        C  259   4.510   3.595   4.244
    1C        C  260   4.478   3.807   4.364
    1C        C  261   4.486   3.736   4.485
    1C        C  262   4.429   3.942   4.604
    1C        C  263   4.477   3.809   4.606
    1C        C  264   4.404   4.014   4.724
    1C        C  265   4.435   3.947   4.844
    1C        C  266   4.313   4.126   4.956
    1C        C  267   4.393   4.012   4.960
    1C        C  268   4.263   2.774   2.060
    1C        C  269   4.198   2.738   2.179
    1C        C  270   4.345   2.892   2.299
    1C        C  271   4.256   2.780   2.300
    1C        C  272   4.383   2.955   2.419
    1C        C  273   4.345   2.894   2.541
    1C        C  274   4.447   3.082   2.662
    1C        C  275   4.381   2.957   2.662
    1C        C  276   4.477   3.151   2.781
    1C        C  277   4.449   3.086   2.904
    1C        C  278   4.508   3.290   3.025
    1C        C  279   4.470   3.154   3.026
    1C        C  280   4.514   3.364   3.144
    1C        C  281   4.494   3.300   3.269
    1C        C  282   4.517   3.510   3.392
    1C        C  283   4.509   3.369   3.391
    1C        C  284   4.514   3.584   3.512
    1C        C  285   4.516   3.513   3.634
    1C        C  286   4.486   3.725   3.753
    1C        C  287   4.514   3.586   3.755
    1C        C  288   4.472   3.794   3.875
    1C        C  289   4.493   3.729   3.999
    1C        C  290   4.431   3.933   4.115
    1C        C  291   4.481   3.801   4.120
    1C        C  292   4.399   3.997   4.237
    1C        C  293   4.429   3.940   4.362
    1C        C  294   4.328   4.130   4.480
    1C        C  295   4.395   4.006   4.483
    1C        C  296   4.287   4.192   4.600
    1C        C  297   4.331   4.136   4.721
    1C        C  298   4.199   4.314   4.838
    1C        C  299   4.284   4.199   4.840
    1C        C  300   4.170   4.399   4.949
    1C        C  301   4.355   2.879   2.060
    1C        C  302   4.469   3.067   2.174
    1C        C  303   4.392   2.947   2.176
    1C        C  304   4.490   3.139   2.295
    1C        C  305   4.449   3.080   2.417
    1C        C  306   4.507   3.284   2.537
    1C        C  307   4.469   3.148   2.539
    1C        C  308   4.519   3.356   2.658
    1C        C  309   4.503   3.290   2.782
    1C        C  310   4.526   3.502   2.899
    1C        C  311   4.517   3.361   2.903
    1C        C  312   4.521   3.575   3.020
    1C        C  313   4.518   3.505   3.143
    1C        C  314   4.487   3.714   3.265
    1C        C  315   4.508   3.574   3.266
    1C        C  316   4.473   3.789   3.384
    1C        C  317   4.491   3.724   3.508
    1C        C  318   4.426   3.926   3.625
    1C        C  319   4.473   3.793   3.630
    1C        C  320   4.393   3.988   3.748
    1C        C  321   4.424   3.927   3.872
    1C        C  322   4.323   4.115   3.990
    1C        C  323   4.397   3.994   3.993
    1C        C  324   4.284   4.172   4.113
    1C        C  325   4.324   4.118   4.237
    1C        C  326   4.188   4.286   4.353
    1C        C  327   4.283   4.182   4.356
    1C        C  328   4.139   4.342   4.473
    1C        C  329   4.190   4.295   4.596
    1C        C  330   4.027   4.439   4.715
    1C        C  331   4.138   4.351   4.715
    1C        C  332   3.973   4.499   4.831
    1C        C  333   4.054   4.478   4.944
    1C        C  334   4.556   3.271   2.064
    1C        C  335   4.532   3.133   2.064
    1C        C  336   4.539   3.351   2.178
    1C        C  337   4.516   3.278   2.297
    1C        C  338   4.527   3.496   2.413
    1C        C  339   4.522   3.354   2.416
    1C        C  340   4.520   3.569   2.534
    1C        C  341   4.521   3.498   2.655
    1C        C  342   4.494   3.710   2.775
    1C        C  343   4.520   3.571   2.776
    1C        C  344   4.480   3.781   2.897
    1C        C  345   4.497   3.714   3.020
    1C        C  346   4.427   3.915   3.136
    1C        C  347   4.477   3.783   3.142
    1C        C  348   4.395   3.981   3.256
    1C        C  349   4.427   3.922   3.381
    1C        C  350   4.327   4.111   3.501
    1C        C  351   4.401   3.990   3.502
    1C        C  352   4.278   4.165   3.622
    1C        C  353   4.319   4.108   3.744
    1C        C  354   4.184   4.271   3.868
    1C        C  355   4.282   4.169   3.867
    1C        C  356   4.127   4.317   3.989
    1C        C  357   4.185   4.273   4.110
    1C        C  358   4.013   4.402   4.231
    1C        C  359   4.131   4.326   4.230
    1C        C  360   3.954   4.449   4.351
    1C        C  361   4.022   4.421   4.472
    1C        C  362   3.831   4.518   4.593
    1C        C  363   3.961   4.464   4.592
    1C        C  364   3.764   4.549   4.714
    1C        C  365   3.841   4.548   4.832
    1C        C  366   3.627   4.593   4.951
    1C        C  367   3.764   4.568   4.947
    1C        C  368   4.511   3.564   2.055
    1C        C  369   4.529   3.491   2.174
    1C        C  370   4.505   3.708   2.289
    1C        C  371   4.527   3.568   2.292
    1C        C  372   4.484   3.779   2.409
    1C        C  373   4.504   3.710   2.531
    1C        C  374   4.424   3.907   2.651
    1C        C  375   4.478   3.777   2.652
    1C        C  376   4.395   3.975   2.772
    1C        C  377   4.428   3.912   2.893
    1C        C  378   4.323   4.100   3.012
    1C        C  379   4.396   3.979   3.014
    1C        C  380   4.280   4.157   3.134
    1C        C  381   4.324   4.103   3.257
    1C        C  382   4.180   4.260   3.379
    1C        C  383   4.284   4.164   3.378
    1C        C  384   4.126   4.310   3.500
    1C        C  385   4.180   4.267   3.623
    1C        C  386   4.009   4.390   3.744
    1C        C  387   4.129   4.314   3.746
    1C        C  388   3.944   4.423   3.865
    1C        C  389   4.006   4.390   3.988
    1C        C  390   3.819   4.489   4.107
    1C        C  391   3.949   4.435   4.109
    1C        C  392   3.754   4.510   4.231
    1C        C  393   3.823   4.501   4.354
    1C        C  394   3.615   4.549   4.472
    1C        C  395   3.755   4.527   4.475
    1C        C  396   3.547   4.565   4.595
    1C        C  397   3.623   4.567   4.713
    1C        C  398   3.413   4.547   4.840
    1C        C  399   3.552   4.573   4.835
    1C        C  400   3.342   4.514   4.956
    1C        C  401   4.505   3.703   2.053
    1C        C  402   4.450   3.915   2.163
    1C        C  403   4.493   3.780   2.169
    1C        C  404   4.415   3.976   2.285
    1C        C  405   4.441   3.914   2.409
    1C        C  406   4.329   4.097   2.527
    1C        C  407   4.400   3.975   2.529
    1C        C  408   4.282   4.152   2.648
    1C        C  409   4.323   4.097   2.771
    1C        C  410   4.177   4.254   2.890
    1C        C  411   4.281   4.159   2.891
    1C        C  412   4.123   4.300   3.013
    1C        C  413   4.180   4.258   3.135
    1C        C  414   4.004   4.377   3.255
    1C        C  415   4.123   4.301   3.257
    1C        C  416   3.944   4.416   3.377
    1C        C  417   4.006   4.384   3.500
    1C        C  418   3.816   4.476   3.621
    1C        C  419   3.947   4.424   3.622
    1C        C  420   3.747   4.500   3.742
    1C        C  421   3.815   4.479   3.864
    1C        C  422   3.611   4.533   3.987
    1C        C  423   3.750   4.511   3.986
    1C        C  424   3.543   4.538   4.111
    1C        C  425   3.615   4.534   4.232
    1C        C  426   3.400   4.540   4.357
    1C        C  427   3.541   4.549   4.352
    1C        C  428   3.332   4.534   4.481
    1C        C  429   3.407   4.551   4.600
    1C        C  430   3.196   4.512   4.723
    1C        C  431   3.336   4.536   4.722
    1C        C  432   3.125   4.493   4.844
    1C        C  433   3.204   4.497   4.959
    1C        C  434   4.382   4.121   2.047
    1C        C  435   4.446   3.996   2.049
    1C        C  436   4.308   4.162   2.162
    1C        C  437   4.341   4.098   2.284
    1C        C  438   4.188   4.252   2.403
    1C        C  439   4.291   4.155   2.403
    1C        C  440   4.131   4.300   2.522
    1C        C  441   4.183   4.253   2.645
    1C        C  442   4.012   4.380   2.765
    1C        C  443   4.128   4.301   2.766
    1C        C  444   3.944   4.411   2.885
    1C        C  445   4.004   4.376   3.008
    1C        C  446   3.814   4.466   3.132
    1C        C  447   3.944   4.411   3.131
    1C        C  448   3.748   4.491   3.254
    1C        C  449   3.816   4.474   3.377
    1C        C  450   3.608   4.523   3.498
    1C        C  451   3.747   4.496   3.499
    1C        C  452   3.539   4.533   3.621
    1C        C  453   3.609   4.528   3.743
    1C        C  454   3.398   4.534   3.866
    1C        C  455   3.539   4.542   3.866
    1C        C  456   3.331   4.527   3.990
    1C        C  457   3.402   4.532   4.113
    1C        C  458   3.192   4.504   4.237
    1C        C  459   3.330   4.533   4.235
    1C        C  460   3.126   4.484   4.360
    1C        C  461   3.193   4.510   4.482
    1C        C  462   2.993   4.436   4.605
    1C        C  463   3.125   4.488   4.603
    1C        C  464   2.929   4.402   4.726
    1C        C  465   2.991   4.441   4.848
    1C        C  466   2.805   4.336   4.960
    1C        C  467   2.905   4.434   4.962
    1C        C  468   4.125   4.278   2.045
    1C        C  469   4.197   4.252   2.162
    1C        C  470   4.012   4.371   2.279
    1C        C  471   4.133   4.298   2.281
    1C        C  472   3.945   4.400   2.400
    1C        C  473   4.009   4.372   2.523
    1C        C  474   3.813   4.461   2.643
    1C        C  475   3.945   4.408   2.643
    1C        C  476   3.746   4.486   2.764
    1C        C  477   3.813   4.463   2.886
    1C        C  478   3.609   4.515   3.011
    1C        C  479   3.748   4.488   3.009
    1C        C  480   3.538   4.525   3.133
    1C        C  481   3.609   4.519   3.254
    1C        C  482   3.397   4.529   3.378
    1C        C  483   3.538   4.530   3.376
    1C        C  484   3.326   4.522   3.500
    1C        C  485   3.397   4.530   3.622
    1C        C  486   3.190   4.494   3.744
    1C        C  487   3.327   4.527   3.744
    1C        C  488   3.127   4.474   3.869
    1C        C  489   3.194   4.494   3.992
    1C        C  490   3.000   4.415   4.115
    1C        C  491   3.126   4.479   4.115
    1C        C  492   2.942   4.382   4.240
    1C        C  493   2.998   4.425   4.362
    1C        C  494   2.826   4.304   4.486
    1C        C  495   2.933   4.395   4.484
    1C        C  496   2.768   4.258   4.607
    1C        C  497   2.816   4.316   4.727
    1C        C  498   2.660   4.168   4.848
    1C        C  499   2.750   4.276   4.845
    1C        C  500   2.593   4.118   4.961
    1C        C  501   4.008   4.353   2.042
    1C        C  502   3.818   4.459   2.155
    1C        C  503   3.950   4.407   2.157
    1C        C  504   3.749   4.477   2.277
    1C        C  505   3.815   4.454   2.400
    1C        C  506   3.606   4.503   2.519
    1C        C  507   3.745   4.479   2.520
    1C        C  508   3.537   4.516   2.642
    1C        C  509   3.607   4.513   2.765
    1C        C  510   3.398   4.521   2.887
    1C        C  511   3.539   4.518   2.888
    1C        C  512   3.326   4.522   3.009
    1C        C  513   3.396   4.528   3.132
    1C        C  514   3.191   4.488   3.257
    1C        C  515   3.328   4.524   3.255
    1C        C  516   3.121   4.467   3.378
    1C        C  517   3.188   4.493   3.499
    1C        C  518   2.993   4.412   3.624
    1C        C  519   3.120   4.474   3.622
    1C        C  520   2.935   4.377   3.749
    1C        C  521   2.999   4.415   3.869
    1C        C  522   2.832   4.286   3.996
    1C        C  523   2.943   4.374   3.992
    1C        C  524   2.783   4.238   4.120
    1C        C  525   2.832   4.293   4.240
    1C        C  526   2.692   4.140   4.367
    1C        C  527   2.777   4.253   4.364
    1C        C  528   2.646   4.084   4.488
    1C        C  529   2.680   4.148   4.609
    1C        C  530   2.586   3.960   4.733
    1C        C  531   2.631   4.095   4.730
    1C        C  532   2.548   3.901   4.856
    1C        C  533   2.533   3.992   4.966
    1C        C  534   3.620   4.547   2.040
    1C        C  535   3.756   4.512   2.042
    1C        C  536   3.539   4.525   2.156
    1C        C  537   3.611   4.510   2.278
    1C        C  538   3.395   4.514   2.399
    1C        C  539   3.536   4.518   2.398
    1C        C  540   3.325   4.507   2.521
    1C        C  541   3.396   4.512   2.643
    1C        C  542   3.187   4.483   2.767
    1C        C  543   3.326   4.508   2.766
    1C        C  544   3.124   4.456   2.890
    1C        C  545   3.191   4.482   3.012
    1C        C  546   2.997   4.401   3.134
    1C        C  547   3.126   4.460   3.135
    1C        C  548   2.937   4.367   3.258
    1C        C  549   2.993   4.407   3.381
    1C        C  550   2.823   4.283   3.508
    1C        C  551   2.931   4.375   3.504
    1C        C  552   2.775   4.234   3.632
    1C        C  553   2.824   4.290   3.752
    1C        C  554   2.691   4.128   3.875
    1C        C  555   2.777   4.240   3.875
    1C        C  556   2.653   4.068   3.998
    1C        C  557   2.691   4.131   4.118
    1C        C  558   2.600   3.949   4.246
    1C        C  559   2.656   4.079   4.245
    1C        C  560   2.572   3.884   4.368
    1C        C  561   2.592   3.953   4.489
    1C        C  562   2.538   3.750   4.616
    1C        C  563   2.571   3.888   4.613
    1C        C  564   2.516   3.681   4.738
    1C        C  565   2.523   3.760   4.856
    1C        C  566   2.531   3.546   4.980
    1C        C  567   2.530   3.685   4.974
    1C        C  568   3.328   4.470   2.039
    1C        C  569   3.398   4.505   2.155
    1C        C  570   3.187   4.470   2.280
    1C        C  571   3.325   4.503   2.277
    1C        C  572   3.118   4.454   2.402
    1C        C  573   3.186   4.481   2.522
    1C        C  574   2.990   4.405   2.647
    1C        C  575   3.118   4.464   2.645
    1C        C  576   2.929   4.368   2.769
    1C        C  577   2.993   4.402   2.891
    1C        C  578   2.823   4.277   3.016
    1C        C  579   2.935   4.364   3.013
    1C        C  580   2.780   4.224   3.140
    1C        C  581   2.828   4.278   3.262
    1C        C  582   2.693   4.117   3.384
    1C        C  583   2.776   4.232   3.385
    1C        C  584   2.654   4.061   3.507
    1C        C  585   2.688   4.123   3.630
    1C        C  586   2.589   3.940   3.756
    1C        C  587   2.651   4.067   3.754
    1C        C  588   2.572   3.874   3.880
    1C        C  589   2.595   3.939   4.003
    1C        C  590   2.541   3.738   4.131
    1C        C  591   2.577   3.875   4.128
    1C        C  592   2.526   3.672   4.255
    1C        C  593   2.531   3.749   4.374
    1C        C  594   2.516   3.537   4.501
    1C        C  595   2.524   3.678   4.496
    1C        C  596   2.522   3.463   4.622
    1C        C  597   2.518   3.539   4.741
    1C        C  598   2.540   3.329   4.863
    1C        C  599   2.531   3.470   4.863
    1C        C  600   2.538   3.249   4.979
    1C        C  601   3.196   4.430   2.043
    1C        C  602   2.982   4.396   2.159
    1C        C  603   3.118   4.439   2.159
    1C        C  604   2.924   4.361   2.284
    1C        C  605   2.989   4.395   2.405
    1C        C  606   2.818   4.274   2.530
    1C        C  607   2.928   4.362   2.528
    1C        C  608   2.765   4.228   2.653
    1C        C  609   2.820   4.278   2.773
    1C        C  610   2.688   4.113   2.896
    1C        C  611   2.771   4.227   2.895
    1C        C  612   2.653   4.052   3.018
    1C        C  613   2.692   4.113   3.140
    1C        C  614   2.589   3.931   3.264
    1C        C  615   2.651   4.058   3.263
    1C        C  616   2.568   3.868   3.389
    1C        C  617   2.591   3.934   3.512
    1C        C  618   2.535   3.733   3.637
    1C        C  619   2.564   3.871   3.635
    1C        C  620   2.524   3.667   3.762
    1C        C  621   2.532   3.739   3.883
    1C        C  622   2.519   3.530   4.013
    1C        C  623   2.528   3.671   4.008
    1C        C  624   2.519   3.458   4.134
    1C        C  625   2.524   3.531   4.255
    1C        C  626   2.540   3.325   4.379
    1C        C  627   2.518   3.464   4.380
    1C        C  628   2.558   3.254   4.500
    1C        C  629   2.543   3.324   4.622
    1C        C  630   2.595   3.117   4.745
    1C        C  631   2.557   3.254   4.744
    1C        C  632   2.617   3.048   4.867
    1C        C  633   2.563   3.112   4.983
    1C        C  634   2.789   4.299   2.051
    1C        C  635   2.891   4.394   2.047
    1C        C  636   2.747   4.233   2.168
    1C        C  637   2.808   4.280   2.287
    1C        C  638   2.676   4.115   2.411
    1C        C  639   2.761   4.227   2.409
    1C        C  640   2.639   4.052   2.532
    1C        C  641   2.680   4.115   2.651
    1C        C  642   2.580   3.929   2.776
    1C        C  643   2.646   4.054   2.774
    1C        C  644   2.558   3.860   2.897
    1C        C  645   2.591   3.925   3.018
    1C        C  646   2.530   3.727   3.149
    1C        C  647   2.564   3.864   3.142
    1C        C  648   2.520   3.657   3.272
    1C        C  649   2.534   3.731   3.392
    1C        C  650   2.514   3.522   3.520
    1C        C  651   2.523   3.663   3.515
    1C        C  652   2.519   3.455   3.644
    1C        C  653   2.517   3.526   3.766
    1C        C  654   2.540   3.319   3.891
    1C        C  655   2.519   3.459   3.890
    1C        C  656   2.558   3.249   4.013
    1C        C  657   2.540   3.319   4.135
    1C        C  658   2.612   3.122   4.260
    1C        C  659   2.561   3.254   4.258
    1C        C  660   2.643   3.058   4.382
    1C        C  661   2.608   3.122   4.503
    1C        C  662   2.713   2.938   4.624
    1C        C  663   2.629   3.052   4.624
    1C        C  664   2.752   2.879   4.745
    1C        C  665   2.700   2.931   4.867
    1C        C  666   2.743   2.865   4.982
    1C        C  667   2.678   4.028   2.053
    1C        C  668   2.686   4.106   2.169
    1C        C  669   2.589   3.916   2.292
    1C        C  670   2.646   4.047   2.291
    1C        C  671   2.559   3.850   2.413
    1C        C  672   2.581   3.923   2.532
    1C        C  673   2.524   3.721   2.659
    1C        C  674   2.557   3.859   2.655
    1C        C  675   2.514   3.651   2.781
    1C        C  676   2.528   3.722   2.903
    1C        C  677   2.513   3.515   3.029
    1C        C  678   2.520   3.656   3.027
    1C        C  679   2.514   3.445   3.152
    1C        C  680   2.511   3.516   3.274
    1C        C  681   2.541   3.311   3.402
    1C        C  682   2.515   3.450   3.398
    1C        C  683   2.559   3.246   3.526
    1C        C  684   2.541   3.315   3.648
    1C        C  685   2.611   3.117   3.770
    1C        C  686   2.556   3.247   3.771
    1C        C  687   2.640   3.054   3.894
    1C        C  688   2.609   3.118   4.016
    1C        C  689   2.710   2.932   4.139
    1C        C  690   2.639   3.055   4.139
    1C        C  691   2.754   2.877   4.261
    1C        C  692   2.715   2.937   4.383
    1C        C  693   2.758   2.878   4.504
    1C        C  694   2.617   3.902   2.056
    1C        C  695   2.524   3.708   2.176
    1C        C  696   2.574   3.840   2.174
    1C        C  697   2.511   3.637   2.298
    1C        C  698   2.525   3.713   2.416
    1C        C  699   2.490   3.507   2.544
    1C        C  700   2.509   3.647   2.540
    1C        C  701   2.501   3.436   2.666
    1C        C  702   2.504   3.510   2.786
    1C        C  703   2.534   3.302   2.912
    1C        C  704   2.507   3.440   2.909
    1C        C  705   2.552   3.234   3.035
    1C        C  706   2.534   3.306   3.155
    1C        C  707   2.601   3.109   3.281
    1C        C  708   2.549   3.241   3.280
    1C        C  709   2.636   3.047   3.403
    1C        C  710   2.611   3.114   3.524
    1C        C  711   2.712   2.931   3.651
    1C        C  712   2.640   3.053   3.648
    1C        C  713   2.756   2.875   3.773
    1C        C  714   2.711   2.932   3.894
    1C        C  715   2.755   2.878   4.016
    1C        C  716   2.450   3.501   2.062
    1C        C  717   2.489   3.635   2.062
    1C        C  718   2.465   3.423   2.181
    1C        C  719   2.485   3.497   2.301
    1C        C  720   2.515   3.293   2.426
    1C        C  721   2.485   3.431   2.426
    1C        C  722   2.540   3.224   2.547
    1C        C  723   2.530   3.298   2.667
    1C        C  724   2.595   3.098   2.794
    1C        C  725   2.550   3.232   2.790
    1C        C  726   2.625   3.033   2.916
    1C        C  727   2.593   3.099   3.037
    1C        C  728   2.712   2.926   3.161
    1C        C  729   2.631   3.042   3.161
    1C        C  730   2.753   2.871   3.284
    1C        C  731   2.712   2.928   3.407
    1C        C  732   2.755   2.872   3.530
    1C        C  733   2.493   3.198   2.074
    1C        C  734   2.483   3.281   2.186
    1C        C  735   2.583   3.089   2.309
    1C        C  736   2.519   3.216   2.307
    1C        C  737   2.604   3.018   2.430
    1C        C  738   2.581   3.089   2.550
    1C        C  739   2.700   2.915   2.672
    1C        C  740   2.619   3.031   2.672
    1C        C  741   2.743   2.857   2.793
    1C        C  742   2.707   2.918   2.915
    1C        C  743   2.750   2.865   3.039
    1C        C  744   2.542   3.068   2.076
    1C        C  745   2.687   2.902   2.188
    1C        C  746   2.610   3.020   2.189
    1C        C  747   2.733   2.844   2.308
    1C        C  748   2.688   2.905   2.427
    1C        C  749   2.739   2.856   2.550
    1C        C  750   2.739   2.843   2.072
    1C        C  751   3.669   2.317   1.981
    1C        O  752   3.704   2.202   2.021
    1C        O  753   3.648   2.325   1.842
    1C        C  754   4.615   3.047   1.976
    1C        O  755   4.602   3.046   1.851
    1C        O  756   4.738   2.987   2.009
    1C        C  757   4.455   4.222   1.968
    1C        O  758   4.479   4.335   2.019
    1C        O  759   4.472   4.216   1.829
    1C        C  760   3.580   4.652   1.943
    1C        O  761   3.595   4.773   1.973
    1C        O  762   3.594   4.645   1.804
    1C        C  763   2.878   4.491   1.936
    1C        O  764   2.954   4.482   1.837
    1C        O  765   2.767   4.576   1.926
    1C        C  766   2.325   3.474   1.986
    1C        O  767   2.331   3.451   1.862
    1C        O  768   2.199   3.501   2.039
    1C        C  769   4.717   3.589   5.032
    1C        O  770   4.732   3.487   5.105
    1C        O  771   4.821   3.682   5.026
    1C        C  772   4.278   4.457   5.033
    1C        O  773   4.267   4.482   5.156
    1C        O  774   4.395   4.521   4.992
    1C        C  775   4.138   2.530   5.083
    1C        O  776   4.230   2.446   5.064
    1C        O  777   4.158   2.594   5.206
    1C        C  778   2.887   4.546   5.057
    1C        O  779   2.809   4.643   5.034
    1C        O  780   2.917   4.528   5.192
    1C        C  781   2.490   3.032   5.085
    1C        O  782   2.383   2.976   5.050
    1C        O  783   2.495   3.071   5.218
    1C        C  784   2.406   3.989   5.042
    1C        O  785   2.299   4.013   4.981
    1C        O  786   2.398   3.993   5.181
    1C        C  787   2.954   2.399   2.030
    1C        O  788   2.907   2.409   1.914
    1C        O  789   2.942   2.268   2.076
    1C        C  790   3.188   2.380   5.076
    1C        O  791   3.186   2.260   5.037
    1C        O  792   3.131   2.389   5.203
    1C        H  793   4.305   3.000   5.070
    1C        H  794   4.156   2.815   5.065
    1C        H  795   4.479   3.139   5.069
    1C        H  796   4.518   3.374   5.066
    1C        H  797   4.573   3.811   5.046
    1C        H  798   4.434   3.987   5.056
    1C        H  799   4.265   4.151   5.048
    1C        H  800   4.013   4.509   5.038
    1C        H  801   3.813   4.601   5.037
    1C        H  802   3.597   4.675   5.013
    1C        H  803   3.394   4.468   5.038
    1C        H  804   3.147   4.492   5.049
    1C        H  805   3.902   2.461   5.057
    1C        H  806   3.675   2.446   5.071
    1C        H  807   3.030   2.595   5.076
    1C        H  808   3.443   2.415   5.058
    1C        H  809   2.906   2.775   5.077
    1C        H  810   2.730   2.913   5.077
    1C        H  811   2.496   3.290   5.069
    1C        H  812   2.525   3.500   5.077
    1C        H  813   2.503   3.734   5.066
    1C        H  814   2.578   4.183   5.045
    1C        H  815   2.814   4.272   5.046
    1C        H  816   2.745   2.898   1.980
    1C        H  817   2.817   2.665   1.992
    1C        H  818   3.210   2.429   1.991
    1C        H  819   3.431   2.455   1.977
    1C        H  820   3.836   2.576   1.986
    1C        H  821   4.038   2.660   1.966
    1C        H  822   4.227   2.748   1.963
    1C        H  823   4.367   2.927   1.965
    1C        H  824   4.614   3.317   1.987
    1C        H  825   4.483   3.516   1.964
    1C        H  826   4.505   3.752   1.958
    1C        H  827   3.816   4.551   1.962
    1C        H  828   3.941   4.329   1.962
    1C        H  829   4.143   4.215   1.960
    1C        H  830   4.519   3.983   1.972
    1C        H  831   2.615   3.848   1.963
    1C        H  832   2.748   4.045   1.974
    1C        H  833   2.733   4.283   1.961
    1C        H  834   3.378   4.469   1.944
    1C        H  835   3.151   4.400   1.951
    1C        H  836   2.518   2.998   1.999
    1C        H  837   2.448   3.232   1.983
    1C        H  838   2.495   3.683   1.966
    2V3OU   H29  839   2.802   3.546   1.970
    2V3OU   C27  840   2.785   3.494   2.068
    2V3OU   H27  841   2.730   3.568   2.132
    2V3OU   H28  842   2.723   3.402   2.051
    2V3OU   O11  843   2.909   3.470   2.134
    2V3OU   C15  844   2.923   3.390   2.246
    2V3OU   C13  845   3.052   3.372   2.299
    2V3OU   C14  846   3.080   3.265   2.385
    2V3OU   C16  847   2.980   3.181   2.431
    2V3OU    H6  848   2.993   3.100   2.505
    2V3OU   C12  849   3.214   3.229   2.437
    2V3OU    O2  850   3.238   3.127   2.505
    2V3OU   C10  851   3.328   3.312   2.394
    2V3OU    C8  852   3.458   3.272   2.425
    2V3OU   O10  853   3.489   3.161   2.496
    2V3OU   H26  854   3.403   3.116   2.500
    2V3OU    C6  855   3.567   3.353   2.380
    2V3OU    C5  856   3.539   3.466   2.304
    2V3OU    C4  857   3.705   3.298   2.387
    2V3OU    H4  858   3.721   3.235   2.480
    2V3OU    H5  859   3.710   3.227   2.299
    2V3OU    C2  860   3.818   3.400   2.379
    2V3OU    O6  861   3.809   3.478   2.499
    2V3OU   H21  862   3.766   3.563   2.482
    2V3OU    C3  863   3.781   3.495   2.265
    2V3OU    H2  864   3.856   3.579   2.253
    2V3OU    H3  865   3.784   3.440   2.167
    2V3OU   C25  866   3.953   3.328   2.373
    2V3OU    O7  867   4.005   3.295   2.267
    2V3OU   C26  868   4.037   3.294   2.495
    2V3OU   H22  869   4.065   3.393   2.539
    2V3OU   H23  870   4.124   3.230   2.465
    2V3OU    O8  871   3.971   3.211   2.588
    2V3OU   H24  872   3.923   3.274   2.643
    2V3OU    C1  873   3.647   3.566   2.277
    2V3OU    H1  874   3.626   3.617   2.178
    2V3OU    O3  875   3.661   3.655   2.387
    2V3OU   C19  876   3.619   3.790   2.366
    2V3OU    H9  877   3.520   3.800   2.313
    2V3OU    O4  878   3.716   3.847   2.280
    2V3OU   C20  879   3.844   3.875   2.338
    2V3OU   H10  880   3.895   3.774   2.345
    2V3OU   C24  881   3.610   3.858   2.503
    2V3OU   H16  882   3.542   3.790   2.561
    2V3OU   H17  883   3.567   3.961   2.495
    2V3OU   C23  884   3.750   3.874   2.562
    2V3OU   H15  885   3.795   3.772   2.584
    2V3OU    N1  886   3.736   3.955   2.682
    2V3OU   H19  887   3.798   3.920   2.752
    2V3OU   H20  888   3.646   3.938   2.722
    2V3OU   C21  889   3.852   3.949   2.471
    2V3OU   H11  890   3.954   3.928   2.516
    2V3OU    O5  891   3.826   4.088   2.478
    2V3OU   H18  892   3.786   4.100   2.566
    2V3OU   C22  893   3.912   3.949   2.224
    2V3OU   H12  894   3.862   4.047   2.200
    2V3OU   H13  895   3.904   3.890   2.129
    2V3OU   H14  896   4.021   3.963   2.246
    2V3OU   C11  897   3.160   3.472   2.288
    2V3OU    O1  898   3.130   3.585   2.245
    2V3OU    C9  899   3.298   3.426   2.315
    2V3OU    C7  900   3.405   3.499   2.265
    2V3OU    O9  901   3.384   3.623   2.209
    2V3OU   H25  902   3.288   3.633   2.221
    2V3OU   C17  903   2.819   3.306   2.290
    2V3OU    H7  904   2.721   3.351   2.277
    2V3OU   C18  905   2.852   3.208   2.383
    2V3OU    H8  906   2.780   3.164   2.453
    3SOL     OW  907   3.530   4.634   1.017
    3SOL    HW1  908   3.510   4.551   1.069
    3SOL    HW2  909   3.557   4.610   0.924
    4SOL     OW  910   6.900   6.019   1.603
    4SOL    HW1  911   6.982   6.003   1.547
    4SOL    HW2  912   6.834   5.946   1.586
    5SOL     OW  913   4.323   1.516   2.672
    5SOL    HW1  914   4.274   1.434   2.646
    5SOL    HW2  915   4.405   1.526   2.615
    6SOL     OW  916   3.870   1.556   0.986
    6SOL    HW1  917   3.852   1.469   1.030
    6SOL    HW2  918   3.937   1.544   0.913
    7SOL     OW  919   6.920   3.759   2.118
    7SOL    HW1  920   6.857   3.787   2.191
    7SOL    HW2  921   6.946   3.664   2.131
    8SOL     OW  922   2.683   0.218   6.327
    8SOL    HW1  923   2.754   0.252   6.266
    8SOL    HW2  924   2.709   0.128   6.361
    9SOL     OW  925   6.832   5.647   6.524
    9SOL    HW1  926   6.869   5.618   6.613
    9SOL    HW2  927   6.802   5.743   6.531
   10SOL     OW  928   0.787   5.426   5.887
   10SOL    HW1  929   0.769   5.359   5.815
   10SOL    HW2  930   0.766   5.518   5.853
   11SOL     OW  931   2.658   0.390   6.532
   11SOL    HW1  932   2.665   0.333   6.614
   11SOL    HW2  933   2.649   0.332   6.451
   12SOL     OW  934   3.761   6.453   4.294
   12SOL    HW1  935   3.797   6.546   4.284
   12SOL    HW2  936   3.831   6.395   4.335
   13SOL     OW  937   3.523   5.746   3.865
   13SOL    HW1  938   3.478   5.678   3.923
   13SOL    HW2  939   3.485   5.837   3.885
   14SOL     OW  940   4.817   4.942   6.288
   14SOL    HW1  941   4.902   4.986   6.261
   14SOL    HW2  942   4.749   4.953   6.216
   15SOL     OW  943   1.267   5.734   1.474
   15SOL    HW1  944   1.186   5.735   1.533
   15SOL    HW2  945   1.342   5.782   1.520
   16SOL     OW  946   5.470   3.017   5.899
   16SOL    HW1  947   5.495   3.065   5.983
   16SOL    HW2  948   5.538   2.947   5.878
   17SOL     OW  949   5.257   6.301   5.429
   17SOL    HW1  950   5.312   6.224   5.398
   17SOL    HW2  951   5.160   6.275   5.431
   18SOL     OW  952   3.422   0.879   5.993
   18SOL    HW1  953   3.424   0.780   6.010
   18SOL    HW2  954   3.489   0.901   5.922
   19SOL     OW  955   0.475   0.397   3.249
   19SOL    HW1  956   0.553   0.453   3.277
   19SOL    HW2  957   0.476   0.385   3.150
   20SOL     OW  958   5.256   2.629   4.464
   20SOL    HW1  959   5.318   2.617   4.542
   20SOL    HW2  960   5.237   2.726   4.452
   21SOL     OW  961   3.209   2.027   2.304
   21SOL    HW1  962   3.133   2.091   2.309
   21SOL    HW2  963   3.289   2.073   2.266
   22SOL     OW  964   2.197   6.748   6.869
   22SOL    HW1  965   2.275   6.776   6.926
   22SOL    HW2  966   2.130   6.821   6.867
   23SOL     OW  967   4.700   6.346   3.147
   23SOL    HW1  968   4.728   6.264   3.197
   23SOL    HW2  969   4.607   6.371   3.172
   24SOL     OW  970   4.942   1.057   3.717
   24SOL    HW1  971   4.948   1.034   3.620
   24SOL    HW2  972   4.950   1.156   3.729
   25SOL     OW  973   3.061   0.146   5.052
   25SOL    HW1  974   3.012   0.129   4.967
   25SOL    HW2  975   3.098   0.239   5.051
   26SOL     OW  976   6.678   0.931   0.374
   26SOL    HW1  977   6.723   0.848   0.405
   26SOL    HW2  978   6.676   0.998   0.449
   27SOL     OW  979   0.890   1.341   1.914
   27SOL    HW1  980   0.861   1.379   2.002
   27SOL    HW2  981   0.849   1.251   1.902
   28SOL     OW  982   3.629   1.604   6.564
   28SOL    HW1  983   3.620   1.571   6.658
   28SOL    HW2  984   3.567   1.681   6.551
   29SOL     OW  985   4.827   2.579   1.961
   29SOL    HW1  986   4.835   2.501   2.022
   29SOL    HW2  987   4.809   2.662   2.014
   30SOL     OW  988   3.391   1.342   4.250
   30SOL    HW1  989   3.413   1.292   4.166
   30SOL    HW2  990   3.465   1.330   4.316
   31SOL     OW  991   0.692   2.653   5.820
   31SOL    HW1  992   0.659   2.572   5.772
   31SOL    HW2  993   0.698   2.730   5.756
   32SOL     OW  994   0.475   1.494   3.260
   32SOL    HW1  995   0.531   1.411   3.252
   32SOL    HW2  996   0.531   1.567   3.299
   33SOL     OW  997   2.197   3.884   6.788
   33SOL    HW1  998   2.267   3.815   6.808
   33SOL    HW2  999   2.202   3.956   6.857
   34SOL     OW 1000   2.442   1.637   3.718
   34SOL    HW1 1001   2.531   1.609   3.755
   34SOL    HW2 1002   2.414   1.723   3.759
   35SOL     OW 1003   3.595   2.955   6.620
   35SOL    HW1 1004   3.579   3.042   6.668
   35SOL    HW2 1005   3.597   2.971   6.521
   36SOL     OW 1006   6.097   0.921   5.717
   36SOL    HW1 1007   6.041   0.942   5.797
   36SOL    HW2 1008   6.185   0.884   5.747
   37SOL     OW 1009   1.037   0.442   0.456
   37SOL    HW1 1010   1.044   0.430   0.555
   37SOL    HW2 1011   1.071   0.360   0.410
   38SOL     OW 1012   0.189   4.695   2.658
   38SOL    HW1 1013   0.133   4.696   2.575
   38SOL    HW2 1014   0.205   4.789   2.689
   39SOL     OW 1015   0.120   5.214   6.884
   39SOL    HW1 1016   0.060   5.290   6.908
   39SOL    HW2 1017   0.078   5.161   6.810
   40SOL     OW 1018   5.307   2.254   1.768
   40SOL    HW1 1019   5.334   2.341   1.809
   40SOL    HW2 1020   5.250   2.272   1.688
   41SOL     OW 1021   6.740   6.260   4.356
   41SOL    HW1 1022   6.817   6.213   4.399
   41SOL    HW2 1023   6.736   6.354   4.389
   42SOL     OW 1024   2.606   5.190   5.316
   42SOL    HW1 1025   2.650   5.106   5.284
   42SOL    HW2 1026   2.546   5.226   5.245
   43SOL     OW 1027   5.392   6.726   5.436
   43SOL    HW1 1028   5.386   6.648   5.499
   43SOL    HW2 1029   5.312   6.726   5.376
   44SOL     OW 1030   5.560   2.113   6.568
   44SOL    HW1 1031   5.483   2.171   6.540
   44SOL    HW2 1032   5.595   2.064   6.488
   45SOL     OW 1033   3.443   6.832   3.303
   45SOL    HW1 1034   3.426   6.902   3.372
   45SOL    HW2 1035   3.499   6.759   3.342
   46SOL     OW 1036   0.854   3.576   3.198
   46SOL    HW1 1037   0.943   3.602   3.237
   46SOL    HW2 1038   0.855   3.479   3.175
   47SOL     OW 1039   5.196   4.835   1.427
   47SOL    HW1 1040   5.249   4.883   1.357
   47SOL    HW2 1041   5.103   4.819   1.393
   48SOL     OW 1042   6.583   2.688   5.988
   48SOL    HW1 1043   6.621   2.662   6.077
   48SOL    HW2 1044   6.643   2.654   5.915
   49SOL     OW 1045   4.850   3.943   1.661
   49SOL    HW1 1046   4.820   3.852   1.689
   49SOL    HW2 1047   4.829   4.009   1.733
   50SOL     OW 1048   6.366   2.154   5.369
   50SOL    HW1 1049   6.305   2.182   5.295
   50SOL    HW2 1050   6.337   2.197   5.455
   51SOL     OW 1051   3.281   6.409   2.639
   51SOL    HW1 1052   3.205   6.377   2.583
   51SOL    HW2 1053   3.280   6.509   2.643
   52SOL     OW 1054   5.013   2.038   3.424
   52SOL    HW1 1055   5.059   1.954   3.395
   52SOL    HW2 1056   4.940   2.060   3.360
   53SOL     OW 1057   3.775   6.875   4.675
   53SOL    HW1 1058   3.806   6.942   4.742
   53SOL    HW2 1059   3.681   6.848   4.696
   54SOL     OW 1060   3.855   4.738   1.104
   54SOL    HW1 1061   3.818   4.758   1.013
   54SOL    HW2 1062   3.783   4.699   1.161
   55SOL     OW 1063   3.018   1.585   6.276
   55SOL    HW1 1064   3.087   1.556   6.342
   55SOL    HW2 1065   3.052   1.663   6.223
   56SOL     OW 1066   0.388   0.512   1.355
   56SOL    HW1 1067   0.324   0.466   1.417
   56SOL    HW2 1068   0.337   0.554   1.280
   57SOL     OW 1069   5.470   0.407   0.885
   57SOL    HW1 1070   5.569   0.392   0.893
   57SOL    HW2 1071   5.454   0.496   0.843
   58SOL     OW 1072   6.604   6.555   6.041
   58SOL    HW1 1073   6.691   6.604   6.044
   58SOL    HW2 1074   6.562   6.569   5.951
   59SOL     OW 1075   0.979   1.658   5.939
   59SOL    HW1 1076   0.990   1.602   5.857
   59SOL    HW2 1077   0.938   1.746   5.914
   60SOL     OW 1078   5.331   1.235   6.018
   60SOL    HW1 1079   5.246   1.274   5.985
   60SOL    HW2 1080   5.407   1.297   5.997
   61SOL     OW 1081   5.047   2.174   4.948
   61SOL    HW1 1082   4.953   2.151   4.973
   61SOL    HW2 1083   5.102   2.185   5.030
   62SOL     OW 1084   0.106   1.069   2.768
   62SOL    HW1 1085   0.021   1.115   2.742
   62SOL    HW2 1086   0.173   1.138   2.796
   63SOL     OW 1087   5.572   1.274   4.062
   63SOL    HW1 1088   5.505   1.290   3.989
   63SOL    HW2 1089   5.649   1.223   4.025
   64SOL     OW 1090   0.181   3.602   5.856
   64SOL    HW1 1091   0.122   3.675   5.821
   64SOL    HW2 1092   0.143   3.567   5.942
   65SOL     OW 1093   0.135   4.698   5.697
   65SOL    HW1 1094   0.232   4.720   5.703
   65SOL    HW2 1095   0.111   4.634   5.770
   66SOL     OW 1096   3.886   0.780   5.769
   66SOL    HW1 1097   3.815   0.712   5.756
   66SOL    HW2 1098   3.861   0.842   5.843
   67SOL     OW 1099   5.294   4.183   5.813
   67SOL    HW1 1100   5.335   4.100   5.775
   67SOL    HW2 1101   5.195   4.171   5.820
   68SOL     OW 1102   5.507   0.574   6.747
   68SOL    HW1 1103   5.497   0.658   6.800
   68SOL    HW2 1104   5.506   0.595   6.649
   69SOL     OW 1105   0.971   3.849   5.957
   69SOL    HW1 1106   0.937   3.755   5.952
   69SOL    HW2 1107   0.993   3.872   6.051
   70SOL     OW 1108   5.686   4.693   4.470
   70SOL    HW1 1109   5.706   4.789   4.453
   70SOL    HW2 1110   5.686   4.676   4.569
   71SOL     OW 1111   4.075   1.743   3.267
   71SOL    HW1 1112   4.122   1.812   3.321
   71SOL    HW2 1113   4.087   1.653   3.310
   72SOL     OW 1114   2.543   6.515   4.484
   72SOL    HW1 1115   2.529   6.416   4.480
   72SOL    HW2 1116   2.638   6.536   4.460
   73SOL     OW 1117   3.323   1.309   0.939
   73SOL    HW1 1118   3.342   1.401   0.905
   73SOL    HW2 1119   3.319   1.245   0.862
   74SOL     OW 1120   5.380   6.594   6.733
   74SOL    HW1 1121   5.286   6.572   6.707
   74SOL    HW2 1122   5.428   6.511   6.763
   75SOL     OW 1123   3.738   0.056   0.017
   75SOL    HW1 1124   3.662   0.116   0.043
   75SOL    HW2 1125   3.707   7.015   6.974
   76SOL     OW 1126   2.669   2.700   0.996
   76SOL    HW1 1127   2.672   2.605   1.027
   76SOL    HW2 1128   2.594   2.712   0.931
   77SOL     OW 1129   6.487   6.423   3.262
   77SOL    HW1 1130   6.455   6.345   3.315
   77SOL    HW2 1131   6.413   6.489   3.250
   78SOL     OW 1132   6.096   0.816   6.893
   78SOL    HW1 1133   6.037   0.807   6.813
   78SOL    HW2 1134   6.102   0.729   6.942
   79SOL     OW 1135   3.207   5.964   0.186
   79SOL    HW1 1136   3.131   5.933   0.243
   79SOL    HW2 1137   3.250   5.884   0.142
   80SOL     OW 1138   5.280   2.063   3.743
   80SOL    HW1 1139   5.306   2.057   3.839
   80SOL    HW2 1140   5.181   2.054   3.734
   81SOL     OW 1141   2.156   0.052   3.063
   81SOL    HW1 1142   2.149   0.147   3.093
   81SOL    HW2 1143   2.241   0.038   3.013
   82SOL     OW 1144   6.804   5.028   1.116
   82SOL    HW1 1145   6.735   4.962   1.086
   82SOL    HW2 1146   6.844   4.998   1.202
   83SOL     OW 1147   0.118   0.726   0.543
   83SOL    HW1 1148   0.208   0.731   0.586
   83SOL    HW2 1149   0.109   0.638   0.494
   84SOL     OW 1150   5.498   2.707   3.565
   84SOL    HW1 1151   5.468   2.740   3.655
   84SOL    HW2 1152   5.419   2.669   3.516
   85SOL     OW 1153   1.851   1.969   4.413
   85SOL    HW1 1154   1.922   1.937   4.350
   85SOL    HW2 1155   1.775   2.007   4.361
   86SOL     OW 1156   6.951   0.619   4.900
   86SOL    HW1 1157   6.998   0.557   4.837
   86SOL    HW2 1158   7.000   0.705   4.905
   87SOL     OW 1159   5.388   3.588   0.508
   87SOL    HW1 1160   5.293   3.564   0.490
   87SOL    HW2 1161   5.393   3.658   0.579
   88SOL     OW 1162   3.495   1.759   6.084
   88SOL    HW1 1163   3.515   1.771   5.987
   88SOL    HW2 1164   3.566   1.701   6.125
   89SOL     OW 1165   1.249   2.642   5.571
   89SOL    HW1 1166   1.152   2.649   5.548
   89SOL    HW2 1167   1.295   2.727   5.548
   90SOL     OW 1168   3.878   5.869   2.389
   90SOL    HW1 1169   3.794   5.842   2.435
   90SOL    HW2 1170   3.899   5.964   2.410
   91SOL     OW 1171   4.605   4.378   4.903
   91SOL    HW1 1172   4.590   4.287   4.942
   91SOL    HW2 1173   4.526   4.436   4.922
   92SOL     OW 1174   3.510   4.644   0.500
   92SOL    HW1 1175   3.464   4.733   0.495
   92SOL    HW2 1176   3.539   4.617   0.408
   93SOL     OW 1177   2.675   4.160   6.615
   93SOL    HW1 1178   2.641   4.154   6.521
   93SOL    HW2 1179   2.751   4.224   6.619
   94SOL     OW 1180   2.448   6.035   6.100
   94SOL    HW1 1181   2.541   6.068   6.119
   94SOL    HW2 1182   2.418   6.072   6.012
   95SOL     OW 1183   1.162   0.624   3.005
   95SOL    HW1 1184   1.169   0.611   2.907
   95SOL    HW2 1185   1.066   0.615   3.033
   96SOL     OW 1186   3.055   0.289   5.332
   96SOL    HW1 1187   3.014   0.200   5.349
   96SOL    HW2 1188   3.087   0.293   5.237
   97SOL     OW 1189   2.071   3.066   5.810
   97SOL    HW1 1190   2.073   2.977   5.765
   97SOL    HW2 1191   2.164   3.092   5.836
   98SOL     OW 1192   6.709   3.529   0.724
   98SOL    HW1 1193   6.780   3.461   0.745
   98SOL    HW2 1194   6.620   3.494   0.752
   99SOL     OW 1195   4.148   3.671   0.791
   99SOL    HW1 1196   4.181   3.577   0.783
   99SOL    HW2 1197   4.146   3.714   0.700
  100SOL     OW 1198   6.890   0.097   5.076
  100SOL    HW1 1199   6.928   0.136   4.992
  100SOL    HW2 1200   6.964   0.065   5.135
  101SOL     OW 1201   1.889   5.338   2.264
  101SOL    HW1 1202   1.975   5.287   2.258
  101SOL    HW2 1203   1.889   5.412   2.196
  102SOL     OW 1204   3.906   6.689   2.668
  102SOL    HW1 1205   3.971   6.762   2.647
  102SOL    HW2 1206   3.892   6.633   2.586
  103SOL     OW 1207   2.768   0.746   2.322
  103SOL    HW1 1208   2.860   0.767   2.287
  103SOL    HW2 1209   2.708   0.720   2.247
  104SOL     OW 1210   0.582   5.367   2.865
  104SOL    HW1 1211   0.506   5.430   2.851
  104SOL    HW2 1212   0.598   5.355   2.963
  105SOL     OW 1213   6.661   2.623   6.898
  105SOL    HW1 1214   6.623   2.580   6.816
  105SOL    HW2 1215   6.632   2.718   6.903
  106SOL     OW 1216   3.386   6.084   4.958
  106SOL    HW1 1217   3.347   5.992   4.965
  106SOL    HW2 1218   3.466   6.081   4.898
  107SOL     OW 1219   2.047   1.368   1.420
  107SOL    HW1 1220   1.993   1.293   1.382
  107SOL    HW2 1221   2.037   1.450   1.363
  108SOL     OW 1222   3.717   4.990   5.991
  108SOL    HW1 1223   3.816   4.984   5.981
  108SOL    HW2 1224   3.686   5.082   5.965
  109SOL     OW 1225   0.013   0.560   1.769
  109SOL    HW1 1226   0.050   0.479   1.724
  109SOL    HW2 1227   0.049   0.566   1.862
  110SOL     OW 1228   3.098   5.566   5.042
  110SOL    HW1 1229   3.162   5.514   5.100
  110SOL    HW2 1230   3.022   5.600   5.099
  111SOL     OW 1231   2.292   1.159   4.282
  111SOL    HW1 1232   2.315   1.166   4.379
  111SOL    HW2 1233   2.358   1.212   4.228
  112SOL     OW 1234   4.961   6.856   6.247
  112SOL    HW1 1235   5.050   6.899   6.265
  112SOL    HW2 1236   4.895   6.926   6.220
  113SOL     OW 1237   6.039   6.173   2.994
  113SOL    HW1 1238   5.941   6.160   2.985
  113SOL    HW2 1239   6.074   6.115   3.068
  114SOL     OW 1240   0.506   0.177   1.272
  114SOL    HW1 1241   0.556   0.262   1.289
  114SOL    HW2 1242   0.511   0.154   1.175
  115SOL     OW 1243   4.096   1.437   3.378
  115SOL    HW1 1244   4.018   1.452   3.439
  115SOL    HW2 1245   4.090   1.346   3.337
  116SOL     OW 1246   5.663   4.781   1.619
  116SOL    HW1 1247   5.600   4.856   1.635
  116SOL    HW2 1248   5.622   4.715   1.557
  117SOL     OW 1249   1.400   1.593   0.725
  117SOL    HW1 1250   1.464   1.567   0.797
  117SOL    HW2 1251   1.309   1.606   0.764
  118SOL     OW 1252   1.732   1.004   3.581
  118SOL    HW1 1253   1.739   1.091   3.533
  118SOL    HW2 1254   1.790   1.005   3.662
  119SOL     OW 1255   0.288   1.233   0.131
  119SOL    HW1 1256   0.231   1.275   0.061
  119SOL    HW2 1257   0.353   1.169   0.088
  120SOL     OW 1258   6.369   6.774   6.914
  120SOL    HW1 1259   6.330   6.847   6.857
  120SOL    HW2 1260   6.436   6.814   6.977
  121SOL     OW 1261   2.022   3.749   6.213
  121SOL    HW1 1262   1.996   3.689   6.137
  121SOL    HW2 1263   1.960   3.735   6.290
  122SOL     OW 1264   2.263   4.022   6.551
  122SOL    HW1 1265   2.227   3.978   6.633
  122SOL    HW2 1266   2.256   4.121   6.560
  123SOL     OW 1267   0.467   1.127   1.904
  123SOL    HW1 1268   0.538   1.152   1.838
  123SOL    HW2 1269   0.482   1.033   1.936
  124SOL     OW 1270   4.536   3.034   0.854
  124SOL    HW1 1271   4.602   2.975   0.808
  124SOL    HW2 1272   4.532   3.010   0.951
  125SOL     OW 1273   3.511   1.827   1.524
  125SOL    HW1 1274   3.437   1.888   1.496
  125SOL    HW2 1275   3.513   1.822   1.624
  126SOL     OW 1276   2.607   3.822   1.042
  126SOL    HW1 1277   2.530   3.783   0.992
  126SOL    HW2 1278   2.575   3.859   1.129
  127SOL     OW 1279   0.625   5.360   6.777
  127SOL    HW1 1280   0.630   5.279   6.836
  127SOL    HW2 1281   0.617   5.331   6.682
  128SOL     OW 1282   5.041   3.064   1.341
  128SOL    HW1 1283   5.122   3.009   1.321
  128SOL    HW2 1284   5.052   3.154   1.299
  129SOL     OW 1285   2.526   3.056   6.177
  129SOL    HW1 1286   2.591   3.037   6.104
  129SOL    HW2 1287   2.469   2.975   6.193
  130SOL     OW 1288   1.011   1.932   4.041
  130SOL    HW1 1289   0.992   1.835   4.050
  130SOL    HW2 1290   1.021   1.955   3.944
  131SOL     OW 1291   5.231   1.809   3.677
  131SOL    HW1 1292   5.294   1.886   3.667
  131SOL    HW2 1293   5.182   1.794   3.591
  132SOL     OW 1294   2.153   2.136   1.082
  132SOL    HW1 1295   2.211   2.118   1.161
  132SOL    HW2 1296   2.149   2.235   1.065
  133SOL     OW 1297   4.723   6.668   3.769
  133SOL    HW1 1298   4.800   6.699   3.824
  133SOL    HW2 1299   4.681   6.588   3.811
  134SOL     OW 1300   6.772   1.502   2.393
  134SOL    HW1 1301   6.701   1.557   2.349
  134SOL    HW2 1302   6.731   1.447   2.466
  135SOL     OW 1303   5.561   3.916   3.722
  135SOL    HW1 1304   5.464   3.902   3.705
  135SOL    HW2 1305   5.613   3.897   3.639
  136SOL     OW 1306   3.406   3.784   5.980
  136SOL    HW1 1307   3.453   3.854   6.033
  136SOL    HW2 1308   3.309   3.806   5.973
  137SOL     OW 1309   5.555   2.060   4.807
  137SOL    HW1 1310   5.510   2.149   4.814
  137SOL    HW2 1311   5.537   2.007   4.890
  138SOL     OW 1312   1.067   4.335   2.607
  138SOL    HW1 1313   1.007   4.338   2.527
  138SOL    HW2 1314   1.012   4.344   2.690
  139SOL     OW 1315   2.176   0.172   4.672
  139SOL    HW1 1316   2.133   0.147   4.759
  139SOL    HW2 1317   2.174   0.093   4.610
  140SOL     OW 1318   0.842   5.502   2.863
  140SOL    HW1 1319   0.769   5.434   2.865
  140SOL    HW2 1320   0.906   5.481   2.789
  141SOL     OW 1321   6.214   3.116   5.239
  141SOL    HW1 1322   6.241   3.058   5.316
  141SOL    HW2 1323   6.167   3.197   5.273
  142SOL     OW 1324   1.171   3.989   0.808
  142SOL    HW1 1325   1.124   4.069   0.846
  142SOL    HW2 1326   1.128   3.906   0.842
  143SOL     OW 1327   5.952   4.340   1.599
  143SOL    HW1 1328   5.853   4.341   1.591
  143SOL    HW2 1329   5.984   4.245   1.606
  144SOL     OW 1330   1.177   6.649   5.886
  144SOL    HW1 1331   1.196   6.647   5.788
  144SOL    HW2 1332   1.184   6.557   5.924
  145SOL     OW 1333   6.914   5.552   0.247
  145SOL    HW1 1334   6.830   5.498   0.243
  145SOL    HW2 1335   6.891   5.648   0.266
  146SOL     OW 1336   4.732   0.293   6.693
  146SOL    HW1 1337   4.786   0.349   6.757
  146SOL    HW2 1338   4.676   0.229   6.746
  147SOL     OW 1339   6.468   3.714   6.381
  147SOL    HW1 1340   6.399   3.661   6.431
  147SOL    HW2 1341   6.424   3.760   6.304
  148SOL     OW 1342   7.004   5.339   6.520
  148SOL    HW1 1343   6.922   5.365   6.470
  148SOL    HW2 1344   7.002   5.381   6.611
  149SOL     OW 1345   3.025   1.543   4.064
  149SOL    HW1 1346   3.073   1.519   4.148
  149SOL    HW2 1347   2.927   1.550   4.082
  150SOL     OW 1348   5.720   5.768   6.569
  150SOL    HW1 1349   5.728   5.775   6.668
  150SOL    HW2 1350   5.799   5.719   6.533
  151SOL     OW 1351   2.945   2.186   0.654
  151SOL    HW1 1352   2.900   2.214   0.738
  151SOL    HW2 1353   2.968   2.089   0.659
  152SOL     OW 1354   1.193   0.924   2.526
  152SOL    HW1 1355   1.161   1.009   2.569
  152SOL    HW2 1356   1.265   0.884   2.582
  153SOL     OW 1357   2.865   0.726   1.699
  153SOL    HW1 1358   2.771   0.762   1.696
  153SOL    HW2 1359   2.912   0.762   1.779
  154SOL     OW 1360   0.274   2.037   2.538
  154SOL    HW1 1361   0.247   2.029   2.442
  154SOL    HW2 1362   0.194   2.020   2.596
  155SOL     OW 1363   6.788   1.658   3.186
  155SOL    HW1 1364   6.767   1.690   3.094
  155SOL    HW2 1365   6.767   1.730   3.252
  156SOL     OW 1366   0.254   2.142   0.789
  156SOL    HW1 1367   0.254   2.105   0.696
  156SOL    HW2 1368   0.337   2.114   0.836
  157SOL     OW 1369   5.834   3.097   1.537
  157SOL    HW1 1370   5.862   3.172   1.598
  157SOL    HW2 1371   5.798   3.022   1.592
  158SOL     OW 1372   2.138   5.425   2.496
  158SOL    HW1 1373   2.208   5.438   2.426
  158SOL    HW2 1374   2.066   5.366   2.460
  159SOL     OW 1375   4.337   4.677   2.374
  159SOL    HW1 1376   4.248   4.708   2.342
  159SOL    HW2 1377   4.374   4.610   2.309
  160SOL     OW 1378   5.823   5.443   0.098
  160SOL    HW1 1379   5.817   5.372   0.029
  160SOL    HW2 1380   5.799   5.531   0.058
  161SOL     OW 1381   1.757   5.778   3.757
  161SOL    HW1 1382   1.761   5.866   3.712
  161SOL    HW2 1383   1.772   5.705   3.690
  162SOL     OW 1384   3.493   5.476   0.391
  162SOL    HW1 1385   3.471   5.470   0.294
  162SOL    HW2 1386   3.464   5.565   0.427
  163SOL     OW 1387   5.862   5.526   0.911
  163SOL    HW1 1388   5.789   5.459   0.897
  163SOL    HW2 1389   5.950   5.478   0.909
  164SOL     OW 1390   6.537   4.673   0.331
  164SOL    HW1 1391   6.606   4.633   0.270
  164SOL    HW2 1392   6.483   4.739   0.281
  165SOL     OW 1393   4.983   3.077   1.591
  165SOL    HW1 1394   4.997   3.065   1.492
  165SOL    HW2 1395   4.935   2.997   1.627
  166SOL     OW 1396   6.903   4.442   2.939
  166SOL    HW1 1397   6.841   4.494   2.998
  166SOL    HW2 1398   6.894   4.475   2.845
  167SOL     OW 1399   4.964   2.823   0.870
  167SOL    HW1 1400   5.053   2.847   0.831
  167SOL    HW2 1401   4.892   2.843   0.804
  168SOL     OW 1402   2.319   3.016   1.440
  168SOL    HW1 1403   2.346   3.051   1.530
  168SOL    HW2 1404   2.284   3.090   1.384
  169SOL     OW 1405   4.571   1.129   1.584
  169SOL    HW1 1406   4.659   1.105   1.544
  169SOL    HW2 1407   4.543   1.220   1.552
  170SOL     OW 1408   1.770   1.203   3.423
  170SOL    HW1 1409   1.823   1.287   3.426
  170SOL    HW2 1410   1.681   1.221   3.380
  171SOL     OW 1411   4.110   4.222   6.690
  171SOL    HW1 1412   4.166   4.277   6.753
  171SOL    HW2 1413   4.015   4.224   6.720
  172SOL     OW 1414   6.187   2.134   3.302
  172SOL    HW1 1415   6.111   2.198   3.313
  172SOL    HW2 1416   6.208   2.092   3.390
  173SOL     OW 1417   6.822   1.776   4.556
  173SOL    HW1 1418   6.747   1.726   4.599
  173SOL    HW2 1419   6.796   1.804   4.463
  174SOL     OW 1420   3.804   5.137   3.379
  174SOL    HW1 1421   3.877   5.082   3.339
  174SOL    HW2 1422   3.794   5.222   3.327
  175SOL     OW 1423   2.459   0.296   1.684
  175SOL    HW1 1424   2.428   0.244   1.605
  175SOL    HW2 1425   2.382   0.314   1.745
  176SOL     OW 1426   0.695   4.503   0.550
  176SOL    HW1 1427   0.606   4.524   0.511
  176SOL    HW2 1428   0.732   4.585   0.595
  177SOL     OW 1429   6.309   3.061   2.775
  177SOL    HW1 1430   6.218   3.079   2.812
  177SOL    HW2 1431   6.317   2.965   2.750
  178SOL     OW 1432   2.427   2.699   6.924
  178SOL    HW1 1433   2.508   2.666   6.973
  178SOL    HW2 1434   2.374   2.621   6.891
  179SOL     OW 1435   3.618   0.888   5.494
  179SOL    HW1 1436   3.570   0.804   5.468
  179SOL    HW2 1437   3.568   0.967   5.461
  180SOL     OW 1438   1.872   6.639   0.425
  180SOL    HW1 1439   1.774   6.647   0.440
  180SOL    HW2 1440   1.914   6.730   0.425
  181SOL     OW 1441   3.639   2.640   6.470
  181SOL    HW1 1442   3.576   2.623   6.394
  181SOL    HW2 1443   3.732   2.614   6.442
  182SOL     OW 1444   4.005   1.703   5.005
  182SOL    HW1 1445   3.914   1.666   4.988
  182SOL    HW2 1446   4.070   1.628   5.016
  183SOL     OW 1447   3.496   2.151   3.116
  183SOL    HW1 1448   3.450   2.130   3.202
  183SOL    HW2 1449   3.532   2.245   3.119
  184SOL     OW 1450   1.529   6.260   4.528
  184SOL    HW1 1451   1.547   6.281   4.431
  184SOL    HW2 1452   1.528   6.345   4.580
  185SOL     OW 1453   0.085   1.470   6.012
  185SOL    HW1 1454   0.088   1.440   6.107
  185SOL    HW2 1455   0.054   1.565   6.008
  186SOL     OW 1456   5.871   0.806   4.812
  186SOL    HW1 1457   5.787   0.768   4.850
  186SOL    HW2 1458   5.849   0.872   4.740
  187SOL     OW 1459   4.155   6.873   3.218
  187SOL    HW1 1460   4.094   6.795   3.204
  187SOL    HW2 1461   4.217   6.852   3.294
  188SOL     OW 1462   0.578   1.954   2.882
  188SOL    HW1 1463   0.653   1.974   2.945
  188SOL    HW2 1464   0.533   1.869   2.910
  189SOL     OW 1465   1.845   5.394   1.530
  189SOL    HW1 1466   1.871   5.457   1.603
  189SOL    HW2 1467   1.751   5.363   1.545
  190SOL     OW 1468   5.207   2.000   4.600
  190SOL    HW1 1469   5.207   2.040   4.691
  190SOL    HW2 1470   5.185   2.071   4.533
  191SOL     OW 1471   6.042   6.185   0.159
  191SOL    HW1 1472   6.134   6.147   0.146
  191SOL    HW2 1473   5.974   6.120   0.125
  192SOL     OW 1474   1.002   5.910   2.012
  192SOL    HW1 1475   1.055   5.979   1.962
  192SOL    HW2 1476   1.063   5.837   2.043
  193SOL     OW 1477   5.109   2.673   5.241
  193SOL    HW1 1478   5.098   2.640   5.335
  193SOL    HW2 1479   5.201   2.710   5.230
  194SOL     OW 1480   3.910   0.314   2.763
  194SOL    HW1 1481   3.888   0.360   2.849
  194SOL    HW2 1482   3.844   0.241   2.747
  195SOL     OW 1483   2.012   0.096   5.090
  195SOL    HW1 1484   2.100   0.130   5.055
  195SOL    HW2 1485   1.958   0.061   5.013
  196SOL     OW 1486   2.738   0.197   0.666
  196SOL    HW1 1487   2.797   0.175   0.588
  196SOL    HW2 1488   2.673   0.268   0.638
  197SOL     OW 1489   2.580   6.816   1.620
  197SOL    HW1 1490   2.679   6.829   1.621
  197SOL    HW2 1491   2.541   6.870   1.544
  198SOL     OW 1492   4.736   0.472   2.805
  198SOL    HW1 1493   4.792   0.413   2.747
  198SOL    HW2 1494   4.785   0.558   2.822
  199SOL     OW 1495   6.866   1.951   3.973
  199SOL    HW1 1496   6.781   1.949   3.921
  199SOL    HW2 1497   6.910   1.861   3.969
  200SOL     OW 1498   1.067   3.747   0.856
  200SOL    HW1 1499   1.162   3.714   0.849
  200SOL    HW2 1500   1.005   3.668   0.855
  201SOL     OW 1501   0.256   0.200   6.281
  201SOL    HW1 1502   0.246   0.108   6.321
  201SOL    HW2 1503   0.344   0.239   6.309
  202SOL     OW 1504   3.755   0.741   0.139
  202SOL    HW1 1505   3.778   0.647   0.161
  202SOL    HW2 1506   3.701   0.744   0.055
  203SOL     OW 1507   5.732   2.264   5.159
  203SOL    HW1 1508   5.767   2.293   5.248
  203SOL    HW2 1509   5.634   2.280   5.155
  204SOL     OW 1510   1.208   0.539   5.039
  204SOL    HW1 1511   1.194   0.454   4.989
  204SOL    HW2 1512   1.141   0.546   5.113
  205SOL     OW 1513   0.003   2.274   3.358
  205SOL    HW1 1514   6.988   2.208   3.295
  205SOL    HW2 1515   6.977   2.360   3.353
  206SOL     OW 1516   0.545   4.347   0.761
  206SOL    HW1 1517   0.481   4.422   0.773
  206SOL    HW2 1518   0.634   4.383   0.734
  207SOL     OW 1519   6.410   1.812   3.483
  207SOL    HW1 1520   6.322   1.786   3.444
  207SOL    HW2 1521   6.407   1.907   3.513
  208SOL     OW 1522   6.731   4.575   5.741
  208SOL    HW1 1523   6.680   4.490   5.753
  208SOL    HW2 1524   6.773   4.601   5.828
  209SOL     OW 1525   0.707   5.821   4.264
  209SOL    HW1 1526   0.758   5.904   4.244
  209SOL    HW2 1527   0.631   5.842   4.326
  210SOL     OW 1528   4.240   1.615   0.670
  210SOL    HW1 1529   4.323   1.565   0.694
  210SOL    HW2 1530   4.251   1.711   0.694
  211SOL     OW 1531   2.000   6.474   2.496
  211SOL    HW1 1532   1.915   6.434   2.463
  211SOL    HW2 1533   2.007   6.569   2.466
  212SOL     OW 1534   0.837   4.175   1.918
  212SOL    HW1 1535   0.762   4.145   1.859
  212SOL    HW2 1536   0.879   4.095   1.961
  213SOL     OW 1537   2.931   0.151   0.474
  213SOL    HW1 1538   2.897   0.204   0.396
  213SOL    HW2 1539   3.023   0.182   0.499
  214SOL     OW 1540   4.359   5.318   2.494
  214SOL    HW1 1541   4.319   5.238   2.538
  214SOL    HW2 1542   4.286   5.385   2.475
  215SOL     OW 1543   2.487   3.740   0.794
  215SOL    HW1 1544   2.546   3.814   0.762
  215SOL    HW2 1545   2.507   3.657   0.743
  216SOL     OW 1546   1.429   6.120   3.813
  216SOL    HW1 1547   1.364   6.176   3.863
  216SOL    HW2 1548   1.509   6.175   3.789
  217SOL     OW 1549   1.290   3.054   3.605
  217SOL    HW1 1550   1.268   3.107   3.687
  217SOL    HW2 1551   1.319   2.962   3.633
  218SOL     OW 1552   0.729   3.161   4.391
  218SOL    HW1 1553   0.816   3.186   4.348
  218SOL    HW2 1554   0.746   3.123   4.482
  219SOL     OW 1555   4.334   0.580   0.381
  219SOL    HW1 1556   4.384   0.564   0.296
  219SOL    HW2 1557   4.250   0.631   0.361
  220SOL     OW 1558   3.299   6.859   1.843
  220SOL    HW1 1559   3.319   6.764   1.867
  220SOL    HW2 1560   3.385   6.908   1.825
  221SOL     OW 1561   6.169   4.250   0.946
  221SOL    HW1 1562   6.164   4.240   0.846
  221SOL    HW2 1563   6.224   4.176   0.984
  222SOL     OW 1564   2.049   4.542   5.516
  222SOL    HW1 1565   2.091   4.488   5.443
  222SOL    HW2 1566   1.952   4.519   5.523
  223SOL     OW 1567   6.423   3.310   6.202
  223SOL    HW1 1568   6.514   3.329   6.240
  223SOL    HW2 1569   6.354   3.327   6.273
  224SOL     OW 1570   2.840   1.865   5.355
  224SOL    HW1 1571   2.918   1.860   5.417
  224SOL    HW2 1572   2.813   1.772   5.327
  225SOL     OW 1573   4.712   3.994   6.569
  225SOL    HW1 1574   4.690   4.002   6.472
  225SOL    HW2 1575   4.629   3.972   6.620
  226SOL     OW 1576   0.858   1.327   5.719
  226SOL    HW1 1577   0.793   1.336   5.644
  226SOL    HW2 1578   0.912   1.411   5.727
  227SOL     OW 1579   1.069   4.101   1.674
  227SOL    HW1 1580   1.039   4.196   1.686
  227SOL    HW2 1581   1.117   4.071   1.757
  228SOL     OW 1582   2.789   0.233   3.976
  228SOL    HW1 1583   2.726   0.274   4.043
  228SOL    HW2 1584   2.881   0.232   4.014
  229SOL     OW 1585   6.202   6.239   6.309
  229SOL    HW1 1586   6.279   6.214   6.368
  229SOL    HW2 1587   6.142   6.303   6.357
  230SOL     OW 1588   3.457   4.943   3.556
  230SOL    HW1 1589   3.500   5.002   3.623
  230SOL    HW2 1590   3.376   4.988   3.518
  231SOL     OW 1591   5.845   1.760   0.035
  231SOL    HW1 1592   5.878   1.668   0.009
  231SOL    HW2 1593   5.912   1.802   0.096
  232SOL     OW 1594   0.257   3.299   6.816
  232SOL    HW1 1595   0.283   3.212   6.774
  232SOL    HW2 1596   0.241   3.367   6.744
  233SOL     OW 1597   3.510   1.406   2.920
  233SOL    HW1 1598   3.484   1.503   2.911
  233SOL    HW2 1599   3.441   1.357   2.973
  234SOL     OW 1600   5.482   0.596   6.499
  234SOL    HW1 1601   5.522   0.621   6.411
  234SOL    HW2 1602   5.392   0.555   6.485
  235SOL     OW 1603   4.483   2.450   1.839
  235SOL    HW1 1604   4.505   2.545   1.814
  235SOL    HW2 1605   4.421   2.411   1.771
  236SOL     OW 1606   5.583   2.554   6.659
  236SOL    HW1 1607   5.495   2.580   6.618
  236SOL    HW2 1608   5.571   2.535   6.756
  237SOL     OW 1609   6.639   4.811   1.815
  237SOL    HW1 1610   6.714   4.819   1.749
  237SOL    HW2 1611   6.572   4.883   1.798
  238SOL     OW 1612   5.586   0.995   0.660
  238SOL    HW1 1613   5.489   1.013   0.677
  238SOL    HW2 1614   5.620   0.929   0.726
  239SOL     OW 1615   0.740   5.163   6.602
  239SOL    HW1 1616   0.733   5.102   6.681
  239SOL    HW2 1617   0.786   5.115   6.527
  240SOL     OW 1618   6.743   3.058   3.249
  240SOL    HW1 1619   6.651   3.051   3.287
  240SOL    HW2 1620   6.800   3.115   3.309
  241SOL     OW 1621   2.927   2.194   4.913
  241SOL    HW1 1622   2.974   2.249   4.982
  241SOL    HW2 1623   2.990   2.124   4.878
  242SOL     OW 1624   3.966   3.653   4.235
  242SOL    HW1 1625   3.987   3.580   4.300
  242SOL    HW2 1626   3.920   3.728   4.283
  243SOL     OW 1627   4.803   0.246   6.286
  243SOL    HW1 1628   4.878   0.229   6.350
  243SOL    HW2 1629   4.715   0.235   6.333
  244SOL     OW 1630   5.754   2.838   5.560
  244SOL    HW1 1631   5.754   2.818   5.658
  244SOL    HW2 1632   5.803   2.923   5.542
  245SOL     OW 1633   5.236   2.883   4.054
  245SOL    HW1 1634   5.180   2.965   4.068
  245SOL    HW2 1635   5.332   2.910   4.042
  246SOL     OW 1636   4.565   2.282   3.127
  246SOL    HW1 1637   4.500   2.347   3.087
  246SOL    HW2 1638   4.648   2.331   3.154
  247SOL     OW 1639   2.847   1.639   0.250
  247SOL    HW1 1640   2.923   1.584   0.217
  247SOL    HW2 1641   2.777   1.646   0.179
  248SOL     OW 1642   4.166   1.503   2.378
  248SOL    HW1 1643   4.192   1.432   2.444
  248SOL    HW2 1644   4.075   1.538   2.401
  249SOL     OW 1645   4.214   0.313   5.077
  249SOL    HW1 1646   4.188   0.401   5.115
  249SOL    HW2 1647   4.313   0.300   5.084
  250SOL     OW 1648   4.779   3.068   0.541
  250SOL    HW1 1649   4.740   3.126   0.469
  250SOL    HW2 1650   4.790   3.121   0.625
  251SOL     OW 1651   4.962   3.762   5.494
  251SOL    HW1 1652   4.985   3.703   5.571
  251SOL    HW2 1653   5.014   3.847   5.500
  252SOL     OW 1654   0.018   5.931   5.606
  252SOL    HW1 1655   6.957   5.888   5.634
  252SOL    HW2 1656   0.012   6.030   5.617
  253SOL     OW 1657   2.406   4.617   5.922
  253SOL    HW1 1658   2.433   4.675   5.999
  253SOL    HW2 1659   2.480   4.614   5.855
  254SOL     OW 1660   5.861   2.615   4.107
  254SOL    HW1 1661   5.896   2.591   4.197
  254SOL    HW2 1662   5.865   2.536   4.047
  255SOL     OW 1663   1.720   4.818   5.365
  255SOL    HW1 1664   1.649   4.875   5.405
  255SOL    HW2 1665   1.690   4.786   5.275
  256SOL     OW 1666   6.144   3.697   5.830
  256SOL    HW1 1667   6.148   3.789   5.791
  256SOL    HW2 1668   6.071   3.693   5.898
  257SOL     OW 1669   5.076   0.511   4.155
  257SOL    HW1 1670   5.086   0.413   4.136
  257SOL    HW2 1671   5.073   0.561   4.069
  258SOL     OW 1672   2.183   5.015   4.979
  258SOL    HW1 1673   2.102   4.987   5.031
  258SOL    HW2 1674   2.258   5.036   5.043
  259SOL     OW 1675   6.849   2.239   2.866
  259SOL    HW1 1676   6.934   2.186   2.870
  259SOL    HW2 1677   6.842   2.298   2.947
  260SOL     OW 1678   4.269   0.283   1.515
  260SOL    HW1 1679   4.181   0.285   1.564
  260SOL    HW2 1680   4.310   0.374   1.517
  261SOL     OW 1681   6.623   3.388   0.383
  261SOL    HW1 1682   6.534   3.356   0.350
  261SOL    HW2 1683   6.679   3.310   0.409
  262SOL     OW 1684   0.420   3.458   0.025
  262SOL    HW1 1685   0.350   3.450   6.980
  262SOL    HW2 1686   0.507   3.484   7.007
  263SOL     OW 1687   1.908   1.029   4.409
  263SOL    HW1 1688   1.826   1.020   4.466
  263SOL    HW2 1689   1.983   1.066   4.464
  264SOL     OW 1690   5.951   3.372   0.093
  264SOL    HW1 1691   5.868   3.346   0.043
  264SOL    HW2 1692   5.927   3.420   0.177
  265SOL     OW 1693   5.110   6.690   2.946
  265SOL    HW1 1694   5.168   6.728   3.018
  265SOL    HW2 1695   5.048   6.621   2.986
  266SOL     OW 1696   3.441   2.742   5.787
  266SOL    HW1 1697   3.370   2.805   5.818
  266SOL    HW2 1698   3.510   2.792   5.735
  267SOL     OW 1699   0.423   1.390   6.732
  267SOL    HW1 1700   0.344   1.388   6.670
  267SOL    HW2 1701   0.461   1.298   6.740
  268SOL     OW 1702   3.598   0.910   5.761
  268SOL    HW1 1703   3.624   0.943   5.670
  268SOL    HW2 1704   3.678   0.911   5.821
  269SOL     OW 1705   1.206   3.578   1.694
  269SOL    HW1 1706   1.112   3.607   1.713
  269SOL    HW2 1707   1.213   3.546   1.599
  270SOL     OW 1708   1.222   6.510   0.273
  270SOL    HW1 1709   1.178   6.568   0.341
  270SOL    HW2 1710   1.317   6.538   0.262
  271SOL     OW 1711   6.709   1.888   0.058
  271SOL    HW1 1712   6.719   1.846   6.993
  271SOL    HW2 1713   6.678   1.819   0.123
  272SOL     OW 1714   3.630   5.611   4.490
  272SOL    HW1 1715   3.586   5.630   4.403
  272SOL    HW2 1716   3.570   5.554   4.547
  273SOL     OW 1717   1.990   4.677   4.496
  273SOL    HW1 1718   2.060   4.606   4.497
  273SOL    HW2 1719   1.974   4.708   4.402
  274SOL     OW 1720   4.214   2.316   3.158
  274SOL    HW1 1721   4.161   2.291   3.239
  274SOL    HW2 1722   4.170   2.279   3.076
  275SOL     OW 1723   6.165   4.719   4.281
  275SOL    HW1 1724   6.101   4.711   4.358
  275SOL    HW2 1725   6.181   4.628   4.242
  276SOL     OW 1726   6.542   6.728   3.084
  276SOL    HW1 1727   6.591   6.815   3.095
  276SOL    HW2 1728   6.588   6.672   3.015
  277SOL     OW 1729   1.724   4.322   0.092
  277SOL    HW1 1730   1.651   4.390   0.105
  277SOL    HW2 1731   1.754   4.289   0.182
  278SOL     OW 1732   6.898   5.104   1.795
  278SOL    HW1 1733   6.899   5.059   1.706
  278SOL    HW2 1734   6.804   5.111   1.828
  279SOL     OW 1735   6.207   3.628   4.027
  279SOL    HW1 1736   6.108   3.619   4.041
  279SOL    HW2 1737   6.241   3.706   4.080
  280SOL     OW 1738   3.123   6.801   3.265
  280SOL    HW1 1739   3.213   6.788   3.307
  280SOL    HW2 1740   3.090   6.893   3.284
  281SOL     OW 1741   2.551   4.566   1.720
  281SOL    HW1 1742   2.568   4.588   1.624
  281SOL    HW2 1743   2.637   4.563   1.770
  282SOL     OW 1744   3.197   1.517   6.031
  282SOL    HW1 1745   3.117   1.457   6.027
  282SOL    HW2 1746   3.233   1.531   5.938
  283SOL     OW 1747   6.262   1.521   6.396
  283SOL    HW1 1748   6.185   1.574   6.360
  283SOL    HW2 1749   6.227   1.446   6.452
  284SOL     OW 1750   1.540   4.340   3.328
  284SOL    HW1 1751   1.602   4.347   3.250
  284SOL    HW2 1752   1.453   4.384   3.305
  285SOL     OW 1753   6.023   4.856   4.511
  285SOL    HW1 1754   5.941   4.910   4.491
  285SOL    HW2 1755   6.102   4.917   4.515
  286SOL     OW 1756   3.110   5.853   6.049
  286SOL    HW1 1757   3.200   5.887   6.078
  286SOL    HW2 1758   3.123   5.769   5.996
  287SOL     OW 1759   0.834   3.889   0.551
  287SOL    HW1 1760   0.858   3.964   0.490
  287SOL    HW2 1761   0.741   3.859   0.533
  288SOL     OW 1762   3.691   1.149   6.295
  288SOL    HW1 1763   3.629   1.132   6.219
  288SOL    HW2 1764   3.786   1.142   6.262
  289SOL     OW 1765   0.161   4.379   5.498
  289SOL    HW1 1766   0.222   4.447   5.458
  289SOL    HW2 1767   0.142   4.307   5.430
  290SOL     OW 1768   6.442   2.110   4.681
  290SOL    HW1 1769   6.540   2.114   4.659
  290SOL    HW2 1770   6.425   2.034   4.743
  291SOL     OW 1771   1.641   2.237   4.334
  291SOL    HW1 1772   1.626   2.139   4.328
  291SOL    HW2 1773   1.710   2.264   4.266
  292SOL     OW 1774   1.485   2.418   3.496
  292SOL    HW1 1775   1.421   2.415   3.418
  292SOL    HW2 1776   1.512   2.325   3.521
  293SOL     OW 1777   4.260   6.146   2.380
  293SOL    HW1 1778   4.243   6.114   2.287
  293SOL    HW2 1779   4.253   6.246   2.383
  294SOL     OW 1780   0.840   5.568   6.459
  294SOL    HW1 1781   0.862   5.476   6.428
  294SOL    HW2 1782   0.912   5.631   6.431
  295SOL     OW 1783   3.621   1.797   3.979
  295SOL    HW1 1784   3.695   1.844   4.028
  295SOL    HW2 1785   3.632   1.811   3.881
  296SOL     OW 1786   4.086   1.988   3.000
  296SOL    HW1 1787   4.183   1.965   3.003
  296SOL    HW2 1788   4.033   1.905   2.977
  297SOL     OW 1789   2.515   4.477   3.263
  297SOL    HW1 1790   2.549   4.569   3.280
  297SOL    HW2 1791   2.509   4.461   3.164
  298SOL     OW 1792   3.875   6.163   1.034
  298SOL    HW1 1793   3.835   6.218   0.960
  298SOL    HW2 1794   3.802   6.129   1.093
  299SOL     OW 1795   5.357   3.334   6.088
  299SOL    HW1 1796   5.439   3.278   6.079
  299SOL    HW2 1797   5.376   3.411   6.150
  300SOL     OW 1798   6.946   1.108   2.291
  300SOL    HW1 1799   6.976   1.202   2.310
  300SOL    HW2 1800   6.985   1.046   2.360
  301SOL     OW 1801   4.963   3.465   1.443
  301SOL    HW1 1802   5.041   3.464   1.381
  301SOL    HW2 1803   4.878   3.468   1.390
  302SOL     OW 1804   0.754   0.748   3.182
  302SOL    HW1 1805   0.799   0.832   3.213
  302SOL    HW2 1806   0.691   0.716   3.253
  303SOL     OW 1807   5.828   1.078   2.207
  303SOL    HW1 1808   5.895   1.091   2.135
  303SOL    HW2 1809   5.738   1.062   2.167
  304SOL     OW 1810   2.538   6.953   3.981
  304SOL    HW1 1811   2.556   6.874   3.923
  304SOL    HW2 1812   2.613   7.019   3.973
  305SOL     OW 1813   0.913   3.477   0.426
  305SOL    HW1 1814   0.923   3.440   0.334
  305SOL    HW2 1815   0.952   3.413   0.492
  306SOL     OW 1816   2.065   1.696   3.316
  306SOL    HW1 1817   2.061   1.781   3.262
  306SOL    HW2 1818   2.155   1.655   3.306
  307SOL     OW 1819   4.820   0.223   0.712
  307SOL    HW1 1820   4.829   0.296   0.780
  307SOL    HW2 1821   4.893   0.156   0.726
  308SOL     OW 1822   6.517   3.684   5.037
  308SOL    HW1 1823   6.498   3.746   4.960
  308SOL    HW2 1824   6.594   3.719   5.090
  309SOL     OW 1825   3.021   4.640   6.526
  309SOL    HW1 1826   3.029   4.729   6.569
  309SOL    HW2 1827   2.966   4.579   6.583
  310SOL     OW 1828   6.410   6.871   5.896
  310SOL    HW1 1829   6.446   6.963   5.879
  310SOL    HW2 1830   6.481   6.803   5.876
  311SOL     OW 1831   5.826   5.168   1.381
  311SOL    HW1 1832   5.830   5.135   1.287
  311SOL    HW2 1833   5.835   5.091   1.444
  312SOL     OW 1834   4.354   1.197   5.899
  312SOL    HW1 1835   4.443   1.208   5.854
  312SOL    HW2 1836   4.312   1.287   5.912
  313SOL     OW 1837   3.012   4.076   1.737
  313SOL    HW1 1838   2.939   4.074   1.668
  313SOL    HW2 1839   2.992   4.146   1.805
  314SOL     OW 1840   3.755   4.877   6.795
  314SOL    HW1 1841   3.720   4.882   6.701
  314SOL    HW2 1842   3.802   4.790   6.808
  315SOL     OW 1843   1.131   3.590   3.313
  315SOL    HW1 1844   1.165   3.511   3.364
  315SOL    HW2 1845   1.205   3.628   3.258
  316SOL     OW 1846   2.851   2.338   4.163
  316SOL    HW1 1847   2.895   2.303   4.080
  316SOL    HW2 1848   2.900   2.305   4.244
  317SOL     OW 1849   1.158   0.107   1.032
  317SOL    HW1 1850   1.084   0.121   1.098
  317SOL    HW2 1851   1.168   0.009   1.015
  318SOL     OW 1852   0.941   6.356   6.951
  318SOL    HW1 1853   0.914   6.451   6.936
  318SOL    HW2 1854   0.905   6.299   6.878
  319SOL     OW 1855   6.843   0.843   3.810
  319SOL    HW1 1856   6.932   0.887   3.799
  319SOL    HW2 1857   6.853   0.745   3.796
  320SOL     OW 1858   5.516   2.201   6.909
  320SOL    HW1 1859   5.567   2.117   6.890
  320SOL    HW2 1860   5.447   2.182   6.979
  321SOL     OW 1861   3.345   1.338   1.220
  321SOL    HW1 1862   3.371   1.352   1.124
  321SOL    HW2 1863   3.296   1.418   1.253
  322SOL     OW 1864   3.504   3.987   4.777
  322SOL    HW1 1865   3.586   3.957   4.726
  322SOL    HW2 1866   3.521   4.077   4.818
  323SOL     OW 1867   0.232   3.711   7.010
  323SOL    HW1 1868   0.272   3.798   6.981
  323SOL    HW2 1869   0.301   3.658   0.034
  324SOL     OW 1870   1.997   2.766   3.785
  324SOL    HW1 1871   1.982   2.825   3.706
  324SOL    HW2 1872   2.090   2.777   3.818
  325SOL     OW 1873   1.310   2.960   1.664
  325SOL    HW1 1874   1.280   2.865   1.652
  325SOL    HW2 1875   1.289   2.990   1.757
  326SOL     OW 1876   1.850   5.269   6.078
  326SOL    HW1 1877   1.867   5.365   6.056
  326SOL    HW2 1878   1.765   5.262   6.130
  327SOL     OW 1879   1.489   5.229   3.718
  327SOL    HW1 1880   1.451   5.225   3.625
  327SOL    HW2 1881   1.506   5.324   3.742
  328SOL     OW 1882   2.312   5.830   1.888
  328SOL    HW1 1883   2.370   5.867   1.960
  328SOL    HW2 1884   2.237   5.893   1.869
  329SOL     OW 1885   3.295   4.170   4.448
  329SOL    HW1 1886   3.302   4.268   4.465
  329SOL    HW2 1887   3.381   4.136   4.410
  330SOL     OW 1888   3.359   6.546   1.649
  330SOL    HW1 1889   3.299   6.473   1.682
  330SOL    HW2 1890   3.436   6.506   1.599
  331SOL     OW 1891   4.223   4.693   6.738
  331SOL    HW1 1892   4.167   4.627   6.789
  331SOL    HW2 1893   4.210   4.784   6.777
  332SOL     OW 1894   3.585   2.072   4.650
  332SOL    HW1 1895   3.497   2.057   4.604
  332SOL    HW2 1896   3.649   2.113   4.586
  333SOL     OW 1897   3.079   6.839   6.581
  333SOL    HW1 1898   3.043   6.800   6.496
  333SOL    HW2 1899   3.113   6.765   6.639
  334SOL     OW 1900   2.649   0.241   1.060
  334SOL    HW1 1901   2.736   0.225   1.013
  334SOL    HW2 1902   2.645   0.337   1.090
  335SOL     OW 1903   3.577   6.559   4.498
  335SOL    HW1 1904   3.534   6.477   4.459
  335SOL    HW2 1905   3.666   6.574   4.456
  336SOL     OW 1906   2.920   1.432   3.795
  336SOL    HW1 1907   2.920   1.440   3.894
  336SOL    HW2 1908   2.989   1.493   3.756
  337SOL     OW 1909   6.957   3.348   0.731
  337SOL    HW1 1910   6.961   3.248   0.734
  337SOL    HW2 1911   6.932   3.377   0.639
  338SOL     OW 1912   2.936   2.793   0.973
  338SOL    HW1 1913   2.849   2.745   0.968
  338SOL    HW2 1914   2.999   2.757   0.904
  339SOL     OW 1915   3.712   6.457   4.707
  339SOL    HW1 1916   3.784   6.518   4.676
  339SOL    HW2 1917   3.630   6.472   4.651
  340SOL     OW 1918   5.070   4.258   5.069
  340SOL    HW1 1919   4.983   4.292   5.105
  340SOL    HW2 1920   5.117   4.332   5.021
  341SOL     OW 1921   6.448   0.160   4.335
  341SOL    HW1 1922   6.392   0.077   4.337
  341SOL    HW2 1923   6.480   0.176   4.242
  342SOL     OW 1924   5.695   3.310   7.023
  342SOL    HW1 1925   5.673   3.402   6.992
  342SOL    HW2 1926   5.614   3.252   7.017
  343SOL     OW 1927   2.037   5.767   0.904
  343SOL    HW1 1928   2.073   5.736   0.816
  343SOL    HW2 1929   1.989   5.691   0.948
  344SOL     OW 1930   1.609   4.698   1.874
  344SOL    HW1 1931   1.548   4.774   1.896
  344SOL    HW2 1932   1.671   4.725   1.801
  345SOL     OW 1933   6.817   1.359   5.163
  345SOL    HW1 1934   6.905   1.356   5.210
  345SOL    HW2 1935   6.821   1.301   5.082
  346SOL     OW 1936   2.067   0.806   1.935
  346SOL    HW1 1937   2.064   0.824   1.836
  346SOL    HW2 1938   2.033   0.714   1.953
  347SOL     OW 1939   3.923   6.637   6.194
  347SOL    HW1 1940   3.871   6.553   6.211
  347SOL    HW2 1941   3.872   6.696   6.132
  348SOL     OW 1942   4.805   5.089   1.555
  348SOL    HW1 1943   4.720   5.125   1.516
  348SOL    HW2 1944   4.866   5.060   1.482
  349SOL     OW 1945   6.289   4.637   1.539
  349SOL    HW1 1946   6.258   4.554   1.493
  349SOL    HW2 1947   6.304   4.618   1.636
  350SOL     OW 1948   3.623   3.104   1.886
  350SOL    HW1 1949   3.694   3.062   1.829
  350SOL    HW2 1950   3.652   3.102   1.981
  351SOL     OW 1951   2.415   2.642   0.326
  351SOL    HW1 1952   2.320   2.660   0.299
  351SOL    HW2 1953   2.444   2.711   0.392
  352SOL     OW 1954   3.624   0.260   4.761
  352SOL    HW1 1955   3.605   0.358   4.758
  352SOL    HW2 1956   3.722   0.246   4.748
  353SOL     OW 1957   2.681   7.005   0.803
  353SOL    HW1 1958   2.700   0.066   0.755
  353SOL    HW2 1959   2.735   7.001   0.887
  354SOL     OW 1960   3.864   2.424   0.604
  354SOL    HW1 1961   3.848   2.385   0.695
  354SOL    HW2 1962   3.803   2.382   0.538
  355SOL     OW 1963   6.961   3.177   2.864
  355SOL    HW1 1964   6.939   3.090   2.819
  355SOL    HW2 1965   0.002   3.228   2.810
  356SOL     OW 1966   3.958   5.828   4.851
  356SOL    HW1 1967   3.891   5.784   4.910
  356SOL    HW2 1968   3.946   5.797   4.756
  357SOL     OW 1969   6.490   0.123   5.839
  357SOL    HW1 1970   6.483   0.149   5.935
  357SOL    HW2 1971   6.461   0.199   5.781
  358SOL     OW 1972   5.457   0.285   2.105
  358SOL    HW1 1973   5.481   0.347   2.180
  358SOL    HW2 1974   5.363   0.254   2.118
  359SOL     OW 1975   1.588   2.139   2.437
  359SOL    HW1 1976   1.613   2.076   2.364
  359SOL    HW2 1977   1.671   2.176   2.480
  360SOL     OW 1978   1.896   5.798   5.977
  360SOL    HW1 1979   1.977   5.845   6.013
  360SOL    HW2 1980   1.816   5.857   5.986
  361SOL     OW 1981   5.636   5.850   2.989
  361SOL    HW1 1982   5.724   5.814   2.958
  361SOL    HW2 1983   5.577   5.864   2.909
  362SOL     OW 1984   3.543   4.258   0.876
  362SOL    HW1 1985   3.635   4.280   0.908
  362SOL    HW2 1986   3.494   4.343   0.854
  363SOL     OW 1987   4.521   4.441   3.365
  363SOL    HW1 1988   4.615   4.427   3.398
  363SOL    HW2 1989   4.518   4.422   3.267
  364SOL     OW 1990   0.222   5.812   5.472
  364SOL    HW1 1991   0.241   5.848   5.381
  364SOL    HW2 1992   0.144   5.860   5.511
  365SOL     OW 1993   4.580   5.410   2.605
  365SOL    HW1 1994   4.506   5.381   2.544
  365SOL    HW2 1995   4.543   5.421   2.698
  366SOL     OW 1996   6.013   1.274   0.411
  366SOL    HW1 1997   6.038   1.234   0.499
  366SOL    HW2 1998   6.038   1.212   0.337
  367SOL     OW 1999   5.230   2.896   1.181
  367SOL    HW1 2000   5.227   2.828   1.109
  367SOL    HW2 2001   5.322   2.936   1.185
  368SOL     OW 2002   0.703   4.044   4.988
  368SOL    HW1 2003   0.690   4.002   5.077
  368SOL    HW2 2004   0.754   3.982   4.928
  369SOL     OW 2005   6.197   4.872   1.661
  369SOL    HW1 2006   6.235   4.790   1.619
  369SOL    HW2 2007   6.142   4.846   1.741
  370SOL     OW 2008   3.205   1.964   5.494
  370SOL    HW1 2009   3.134   2.031   5.513
  370SOL    HW2 2010   3.284   2.010   5.453
  371SOL     OW 2011   2.422   3.602   6.559
  371SOL    HW1 2012   2.416   3.663   6.480
  371SOL    HW2 2013   2.330   3.577   6.589
  372SOL     OW 2014   6.557   0.870   5.044
  372SOL    HW1 2015   6.557   0.955   4.992
  372SOL    HW2 2016   6.463   0.835   5.051
  373SOL     OW 2017   6.117   6.695   4.810
  373SOL    HW1 2018   6.203   6.738   4.837
  373SOL    HW2 2019   6.070   6.662   4.892
  374SOL     OW 2020   3.472   0.083   2.367
  374SOL    HW1 2021   3.535   0.146   2.413
  374SOL    HW2 2022   3.423   0.029   2.436
  375SOL     OW 2023   0.524   4.844   4.017
  375SOL    HW1 2024   0.588   4.916   3.990
  375SOL    HW2 2025   0.486   4.800   3.936
  376SOL     OW 2026   1.717   3.337   3.825
  376SOL    HW1 2027   1.663   3.323   3.742
  376SOL    HW2 2028   1.752   3.249   3.857
  377SOL     OW 2029   6.348   2.834   1.988
  377SOL    HW1 2030   6.289   2.776   1.931
  377SOL    HW2 2031   6.407   2.889   1.929
  378SOL     OW 2032   3.181   2.868   5.777
  378SOL    HW1 2033   3.178   2.949   5.835
  378SOL    HW2 2034   3.141   2.889   5.688
  379SOL     OW 2035   6.257   4.395   1.767
  379SOL    HW1 2036   6.290   4.479   1.812
  379SOL    HW2 2037   6.159   4.402   1.752
  380SOL     OW 2038   2.547   1.556   1.493
  380SOL    HW1 2039   2.557   1.604   1.406
  380SOL    HW2 2040   2.634   1.558   1.542
  381SOL     OW 2041   2.193   4.710   1.424
  381SOL    HW1 2042   2.181   4.612   1.410
  381SOL    HW2 2043   2.238   4.726   1.512
  382SOL     OW 2044   5.288   6.011   6.361
  382SOL    HW1 2045   5.294   5.945   6.286
  382SOL    HW2 2046   5.367   6.073   6.357
  383SOL     OW 2047   6.177   2.961   6.320
  383SOL    HW1 2048   6.116   3.027   6.362
  383SOL    HW2 2049   6.258   3.007   6.285
  384SOL     OW 2050   0.514   4.189   5.129
  384SOL    HW1 2051   0.589   4.165   5.068
  384SOL    HW2 2052   0.430   4.199   5.077
  385SOL     OW 2053   4.660   6.279   6.660
  385SOL    HW1 2054   4.641   6.181   6.658
  385SOL    HW2 2055   4.600   6.323   6.728
  386SOL     OW 2056   3.500   0.215   5.365
  386SOL    HW1 2057   3.448   0.198   5.281
  386SOL    HW2 2058   3.598   0.214   5.344
  387SOL     OW 2059   6.972   5.792   3.551
  387SOL    HW1 2060   6.909   5.715   3.544
  387SOL    HW2 2061   0.015   5.786   3.478
  388SOL     OW 2062   0.435   2.387   4.468
  388SOL    HW1 2063   0.451   2.290   4.450
  388SOL    HW2 2064   0.444   2.438   4.383
  389SOL     OW 2065   4.235   4.179   1.689
  389SOL    HW1 2066   4.255   4.099   1.633
  389SOL    HW2 2067   4.314   4.199   1.748
  390SOL     OW 2068   3.415   0.924   0.400
  390SOL    HW1 2069   3.388   0.831   0.426
  390SOL    HW2 2070   3.426   0.929   0.301
  391SOL     OW 2071   2.060   3.975   5.119
  391SOL    HW1 2072   2.013   3.897   5.078
  391SOL    HW2 2073   2.157   3.973   5.095
  392SOL     OW 2074   1.559   3.106   2.247
  392SOL    HW1 2075   1.478   3.131   2.300
  392SOL    HW2 2076   1.551   3.143   2.154
  393SOL     OW 2077   1.461   5.616   0.271
  393SOL    HW1 2078   1.506   5.652   0.352
  393SOL    HW2 2079   1.529   5.592   0.202
  394SOL     OW 2080   0.958   3.064   6.533
  394SOL    HW1 2081   0.959   3.085   6.631
  394SOL    HW2 2082   1.029   3.116   6.487
  395SOL     OW 2083   5.346   4.004   2.032
  395SOL    HW1 2084   5.364   3.908   2.010
  395SOL    HW2 2085   5.427   4.045   2.072
  396SOL     OW 2086   2.424   2.134   2.285
  396SOL    HW1 2087   2.379   2.045   2.298
  396SOL    HW2 2088   2.522   2.119   2.268
  397SOL     OW 2089   5.551   1.425   5.985
  397SOL    HW1 2090   5.645   1.397   6.004
  397SOL    HW2 2091   5.504   1.445   6.071
  398SOL     OW 2092   1.393   6.082   4.687
  398SOL    HW1 2093   1.344   6.015   4.632
  398SOL    HW2 2094   1.430   6.154   4.627
  399SOL     OW 2095   6.389   6.034   4.518
  399SOL    HW1 2096   6.408   6.023   4.420
  399SOL    HW2 2097   6.336   5.955   4.550
  400SOL     OW 2098   6.655   6.252   5.021
  400SOL    HW1 2099   6.564   6.213   5.036
  400SOL    HW2 2100   6.674   6.257   4.923
  401SOL     OW 2101   5.794   6.947   5.939
  401SOL    HW1 2102   5.766   6.980   5.849
  401SOL    HW2 2103   5.863   7.009   5.977
  402SOL     OW 2104   6.290   0.268   2.324
  402SOL    HW1 2105   6.347   0.250   2.244
  402SOL    HW2 2106   6.344   0.255   2.407
  403SOL     OW 2107   3.274   0.321   6.393
  403SOL    HW1 2108   3.201   0.253   6.394
  403SOL    HW2 2109   3.345   0.295   6.459
  404SOL     OW 2110   2.690   5.749   5.514
  404SOL    HW1 2111   2.694   5.662   5.561
  404SOL    HW2 2112   2.777   5.767   5.469
  405SOL     OW 2113   2.161   4.135   3.473
  405SOL    HW1 2114   2.087   4.202   3.486
  405SOL    HW2 2115   2.202   4.114   3.562
  406SOL     OW 2116   0.620   4.870   5.400
  406SOL    HW1 2117   0.704   4.923   5.392
  406SOL    HW2 2118   0.641   4.772   5.397
  407SOL     OW 2119   1.737   2.725   3.570
  407SOL    HW1 2120   1.825   2.713   3.523
  407SOL    HW2 2121   1.686   2.799   3.526
  408SOL     OW 2122   3.260   2.071   3.001
  408SOL    HW1 2123   3.347   2.072   3.050
  408SOL    HW2 2124   3.277   2.075   2.902
  409SOL     OW 2125   6.871   3.439   1.804
  409SOL    HW1 2126   6.812   3.436   1.723
  409SOL    HW2 2127   6.942   3.508   1.791
  410SOL     OW 2128   1.400   1.834   1.416
  410SOL    HW1 2129   1.393   1.862   1.511
  410SOL    HW2 2130   1.416   1.735   1.411
  411SOL     OW 2131   6.367   1.912   2.104
  411SOL    HW1 2132   6.353   1.833   2.044
  411SOL    HW2 2133   6.459   1.947   2.092
  412SOL     OW 2134   3.423   5.011   2.771
  412SOL    HW1 2135   3.405   4.944   2.843
  412SOL    HW2 2136   3.464   4.966   2.693
  413SOL     OW 2137   3.938   5.301   1.751
  413SOL    HW1 2138   3.933   5.227   1.819
  413SOL    HW2 2139   3.939   5.389   1.798
  414SOL     OW 2140   3.651   0.284   3.863
  414SOL    HW1 2141   3.575   0.325   3.813
  414SOL    HW2 2142   3.680   0.200   3.815
  415SOL     OW 2143   0.020   1.444   7.004
  415SOL    HW1 2144   7.012   1.538   7.001
  415SOL    HW2 2145   0.115   1.441   6.972
  416SOL     OW 2146   5.283   4.519   4.733
  416SOL    HW1 2147   5.184   4.507   4.732
  416SOL    HW2 2148   5.324   4.468   4.657
  417SOL     OW 2149   1.913   1.248   6.500
  417SOL    HW1 2150   1.942   1.267   6.406
  417SOL    HW2 2151   1.971   1.298   6.564
  418SOL     OW 2152   2.930   0.058   5.372
  418SOL    HW1 2153   2.841   0.067   5.328
  418SOL    HW2 2154   2.938   6.992   5.413
  419SOL     OW 2155   0.063   6.552   2.962
  419SOL    HW1 2156   0.106   6.463   2.974
  419SOL    HW2 2157   0.092   6.614   3.035
  420SOL     OW 2158   5.574   0.861   6.551
  420SOL    HW1 2159   5.496   0.923   6.550
  420SOL    HW2 2160   5.542   0.767   6.560
  421SOL     OW 2161   5.785   4.132   5.407
  421SOL    HW1 2162   5.691   4.157   5.385
  421SOL    HW2 2163   5.807   4.045   5.363
  422SOL     OW 2164   5.354   1.965   0.457
  422SOL    HW1 2165   5.435   1.962   0.516
  422SOL    HW2 2166   5.364   1.898   0.384
  423SOL     OW 2167   2.468   1.050   6.728
  423SOL    HW1 2168   2.435   1.105   6.805
  423SOL    HW2 2169   2.459   1.103   6.643
  424SOL     OW 2170   2.056   5.133   2.910
  424SOL    HW1 2171   2.004   5.115   2.827
  424SOL    HW2 2172   2.055   5.052   2.969
  425SOL     OW 2173   5.305   1.098   4.961
  425SOL    HW1 2174   5.373   1.055   4.902
  425SOL    HW2 2175   5.286   1.040   5.039
  426SOL     OW 2176   2.247   2.972   5.296
  426SOL    HW1 2177   2.260   2.979   5.395
  426SOL    HW2 2178   2.332   2.994   5.249
  427SOL     OW 2179   5.270   1.325   4.449
  427SOL    HW1 2180   5.344   1.368   4.501
  427SOL    HW2 2181   5.198   1.393   4.432
  428SOL     OW 2182   2.338   0.590   4.586
  428SOL    HW1 2183   2.356   0.573   4.682
  428SOL    HW2 2184   2.289   0.677   4.575
  429SOL     OW 2185   0.700   5.241   4.290
  429SOL    HW1 2186   0.624   5.253   4.354
  429SOL    HW2 2187   0.774   5.193   4.336
  430SOL     OW 2188   1.740   0.393   3.751
  430SOL    HW1 2189   1.714   0.370   3.845
  430SOL    HW2 2190   1.756   0.492   3.744
  431SOL     OW 2191   2.307   2.081   0.674
  431SOL    HW1 2192   2.233   2.113   0.615
  431SOL    HW2 2193   2.346   2.159   0.723
  432SOL     OW 2194   5.427   1.777   1.385
  432SOL    HW1 2195   5.453   1.681   1.395
  432SOL    HW2 2196   5.438   1.805   1.290
  433SOL     OW 2197   3.657   6.359   6.372
  433SOL    HW1 2198   3.684   6.287   6.309
  433SOL    HW2 2199   3.586   6.416   6.330
  434SOL     OW 2200   3.653   6.121   3.842
  434SOL    HW1 2201   3.714   6.126   3.762
  434SOL    HW2 2202   3.560   6.146   3.815
  435SOL     OW 2203   4.005   1.268   5.430
  435SOL    HW1 2204   3.912   1.233   5.441
  435SOL    HW2 2205   4.053   1.262   5.517
  436SOL     OW 2206   3.364   6.089   2.609
  436SOL    HW1 2207   3.335   6.157   2.677
  436SOL    HW2 2208   3.287   6.028   2.589
  437SOL     OW 2209   0.319   1.238   4.756
  437SOL    HW1 2210   0.394   1.250   4.691
  437SOL    HW2 2211   0.242   1.194   4.710
  438SOL     OW 2212   1.364   4.556   2.974
  438SOL    HW1 2213   1.330   4.613   2.899
  438SOL    HW2 2214   1.460   4.579   2.992
  439SOL     OW 2215   5.795   0.842   3.174
  439SOL    HW1 2216   5.814   0.835   3.272
  439SOL    HW2 2217   5.804   0.937   3.145
  440SOL     OW 2218   3.640   1.093   6.817
  440SOL    HW1 2219   3.587   1.092   6.732
  440SOL    HW2 2220   3.728   1.138   6.801
  441SOL     OW 2221   6.142   4.425   2.979
  441SOL    HW1 2222   6.217   4.387   3.033
  441SOL    HW2 2223   6.161   4.520   2.957
  442SOL     OW 2224   5.018   4.111   5.808
  442SOL    HW1 2225   5.000   4.032   5.865
  442SOL    HW2 2226   4.994   4.089   5.713
  443SOL     OW 2227   5.280   4.924   3.315
  443SOL    HW1 2228   5.251   4.893   3.224
  443SOL    HW2 2229   5.365   4.976   3.307
  444SOL     OW 2230   3.904   1.192   6.778
  444SOL    HW1 2231   3.897   1.253   6.699
  444SOL    HW2 2232   3.999   1.164   6.790
  445SOL     OW 2233   2.576   6.318   2.790
  445SOL    HW1 2234   2.505   6.377   2.752
  445SOL    HW2 2235   2.653   6.313   2.726
  446SOL     OW 2236   4.787   5.942   2.879
  446SOL    HW1 2237   4.735   5.932   2.963
  446SOL    HW2 2238   4.761   5.870   2.815
  447SOL     OW 2239   6.430   3.496   5.609
  447SOL    HW1 2240   6.387   3.413   5.643
  447SOL    HW2 2241   6.473   3.479   5.521
  448SOL     OW 2242   2.047   1.417   2.834
  448SOL    HW1 2243   1.953   1.400   2.802
  448SOL    HW2 2244   2.063   1.515   2.841
  449SOL     OW 2245   1.914   2.472   3.330
  449SOL    HW1 2246   1.936   2.549   3.390
  449SOL    HW2 2247   1.964   2.482   3.243
  450SOL     OW 2248   0.795   4.905   3.501
  450SOL    HW1 2249   0.718   4.847   3.478
  450SOL    HW2 2250   0.860   4.908   3.425
  451SOL     OW 2251   6.792   2.482   3.396
  451SOL    HW1 2252   6.702   2.444   3.418
  451SOL    HW2 2253   6.782   2.555   3.329
  452SOL     OW 2254   3.397   6.654   2.844
  452SOL    HW1 2255   3.458   6.576   2.855
  452SOL    HW2 2256   3.405   6.714   2.923
  453SOL     OW 2257   4.535   0.492   6.791
  453SOL    HW1 2258   4.520   0.435   6.711
  453SOL    HW2 2259   4.619   0.544   6.780
  454SOL     OW 2260   6.803   4.094   6.405
  454SOL    HW1 2261   6.806   4.076   6.306
  454SOL    HW2 2262   6.720   4.147   6.426
  455SOL     OW 2263   6.644   3.772   5.759
  455SOL    HW1 2264   6.660   3.823   5.675
  455SOL    HW2 2265   6.647   3.674   5.740
  456SOL     OW 2266   1.634   0.910   3.912
  456SOL    HW1 2267   1.611   0.873   4.003
  456SOL    HW2 2268   1.732   0.927   3.907
  457SOL     OW 2269   1.392   5.848   5.764
  457SOL    HW1 2270   1.386   5.775   5.832
  457SOL    HW2 2271   1.419   5.811   5.676
  458SOL     OW 2272   2.530   0.849   2.978
  458SOL    HW1 2273   2.504   0.926   3.037
  458SOL    HW2 2274   2.586   0.785   3.031
  459SOL     OW 2275   2.276   0.592   5.312
  459SOL    HW1 2276   2.339   0.514   5.311
  459SOL    HW2 2277   2.271   0.630   5.404
  460SOL     OW 2278   1.281   1.501   5.274
  460SOL    HW1 2279   1.291   1.401   5.266
  460SOL    HW2 2280   1.280   1.542   5.183
  461SOL     OW 2281   6.917   4.890   5.233
  461SOL    HW1 2282   6.984   4.867   5.303
  461SOL    HW2 2283   6.919   4.989   5.215
  462SOL     OW 2284   3.665   3.868   4.592
  462SOL    HW1 2285   3.720   3.794   4.630
  462SOL    HW2 2286   3.646   3.850   4.495
  463SOL     OW 2287   5.785   6.772   2.767
  463SOL    HW1 2288   5.837   6.808   2.844
  463SOL    HW2 2289   5.791   6.834   2.689
  464SOL     OW 2290   3.210   6.554   6.221
  464SOL    HW1 2291   3.215   6.579   6.317
  464SOL    HW2 2292   3.162   6.467   6.211
  465SOL     OW 2293   1.312   1.936   0.582
  465SOL    HW1 2294   1.248   2.010   0.603
  465SOL    HW2 2295   1.264   1.849   0.584
  466SOL     OW 2296   3.436   6.190   4.642
  466SOL    HW1 2297   3.440   6.280   4.687
  466SOL    HW2 2298   3.484   6.195   4.554
  467SOL     OW 2299   0.959   1.833   2.494
  467SOL    HW1 2300   0.989   1.826   2.589
  467SOL    HW2 2301   0.974   1.746   2.447
  468SOL     OW 2302   5.005   0.269   6.472
  468SOL    HW1 2303   4.957   0.351   6.504
  468SOL    HW2 2304   5.095   0.295   6.437
  469SOL     OW 2305   3.138   4.503   5.682
  469SOL    HW1 2306   3.060   4.441   5.677
  469SOL    HW2 2307   3.149   4.550   5.594
  470SOL     OW 2308   3.141   6.050   3.321
  470SOL    HW1 2309   3.050   6.078   3.289
  470SOL    HW2 2310   3.158   5.955   3.295
  471SOL     OW 2311   2.638   2.489   4.328
  471SOL    HW1 2312   2.707   2.523   4.264
  471SOL    HW2 2313   2.682   2.429   4.395
  472SOL     OW 2314   5.532   4.365   6.441
  472SOL    HW1 2315   5.502   4.276   6.474
  472SOL    HW2 2316   5.599   4.352   6.367
  473SOL     OW 2317   6.702   2.285   2.539
  473SOL    HW1 2318   6.790   2.247   2.569
  473SOL    HW2 2319   6.705   2.385   2.545
  474SOL     OW 2320   6.210   5.796   4.966
  474SOL    HW1 2321   6.263   5.813   5.050
  474SOL    HW2 2322   6.218   5.875   4.906
  475SOL     OW 2323   5.599   2.688   0.682
  475SOL    HW1 2324   5.634   2.630   0.609
  475SOL    HW2 2325   5.537   2.756   0.644
  476SOL     OW 2326   0.251   4.100   1.900
  476SOL    HW1 2327   0.164   4.139   1.869
  476SOL    HW2 2328   0.232   4.015   1.950
  477SOL     OW 2329   2.704   6.087   4.097
  477SOL    HW1 2330   2.743   5.995   4.089
  477SOL    HW2 2331   2.606   6.083   4.078
  478SOL     OW 2332   4.424   5.974   2.832
  478SOL    HW1 2333   4.398   6.060   2.876
  478SOL    HW2 2334   4.444   5.906   2.903
  479SOL     OW 2335   4.033   3.242   4.069
  479SOL    HW1 2336   4.071   3.328   4.033
  479SOL    HW2 2337   3.987   3.260   4.156
  480SOL     OW 2338   1.584   6.920   2.801
  480SOL    HW1 2339   1.586   6.846   2.733
  480SOL    HW2 2340   1.640   6.996   2.768
  481SOL     OW 2341   1.146   6.019   1.481
  481SOL    HW1 2342   1.067   5.977   1.437
  481SOL    HW2 2343   1.139   6.010   1.580
  482SOL     OW 2344   5.610   4.421   2.939
  482SOL    HW1 2345   5.660   4.342   2.905
  482SOL    HW2 2346   5.649   4.451   3.026
  483SOL     OW 2347   6.180   2.603   2.891
  483SOL    HW1 2348   6.095   2.602   2.944
  483SOL    HW2 2349   6.257   2.583   2.951
  484SOL     OW 2350   1.886   4.158   4.380
  484SOL    HW1 2351   1.806   4.117   4.335
  484SOL    HW2 2352   1.945   4.199   4.311
  485SOL     OW 2353   5.574   3.363   2.509
  485SOL    HW1 2354   5.614   3.357   2.417
  485SOL    HW2 2355   5.566   3.271   2.547
  486SOL     OW 2356   6.193   0.273   6.433
  486SOL    HW1 2357   6.122   0.263   6.364
  486SOL    HW2 2358   6.272   0.321   6.393
  487SOL     OW 2359   0.532   6.973   3.440
  487SOL    HW1 2360   0.500   0.042   3.445
  487SOL    HW2 2361   0.465   6.912   3.483
  488SOL     OW 2362   1.707   6.848   3.055
  488SOL    HW1 2363   1.673   6.862   2.962
  488SOL    HW2 2364   1.805   6.830   3.051
  489SOL     OW 2365   6.170   6.030   4.818
  489SOL    HW1 2366   6.115   6.008   4.738
  489SOL    HW2 2367   6.128   6.107   4.868
  490SOL     OW 2368   1.387   5.628   5.917
  490SOL    HW1 2369   1.304   5.579   5.890
  490SOL    HW2 2370   1.467   5.572   5.895
  491SOL     OW 2371   6.894   3.434   0.499
  491SOL    HW1 2372   6.799   3.407   0.511
  491SOL    HW2 2373   6.900   3.512   0.437
  492SOL     OW 2374   1.619   1.475   5.893
  492SOL    HW1 2375   1.603   1.426   5.807
  492SOL    HW2 2376   1.667   1.561   5.873
  493SOL     OW 2377   2.607   0.128   5.309
  493SOL    HW1 2378   2.559   0.133   5.222
  493SOL    HW2 2379   2.653   0.215   5.327
  494SOL     OW 2380   2.607   1.068   5.998
  494SOL    HW1 2381   2.624   1.040   6.093
  494SOL    HW2 2382   2.571   0.990   5.947
  495SOL     OW 2383   3.962   5.892   5.475
  495SOL    HW1 2384   3.928   5.986   5.469
  495SOL    HW2 2385   3.915   5.836   5.407
  496SOL     OW 2386   6.624   1.755   2.970
  496SOL    HW1 2387   6.635   1.838   2.915
  496SOL    HW2 2388   6.565   1.774   3.048
  497SOL     OW 2389   3.724   1.291   5.767
  497SOL    HW1 2390   3.640   1.254   5.808
  497SOL    HW2 2391   3.785   1.215   5.743
  498SOL     OW 2392   6.936   5.774   1.827
  498SOL    HW1 2393   6.845   5.733   1.834
  498SOL    HW2 2394   6.933   5.868   1.860
  499SOL     OW 2395   3.129   4.845   6.366
  499SOL    HW1 2396   3.060   4.800   6.422
  499SOL    HW2 2397   3.142   4.794   6.281
  500SOL     OW 2398   5.387   2.662   6.501
  500SOL    HW1 2399   5.347   2.753   6.490
  500SOL    HW2 2400   5.408   2.623   6.411
  501SOL     OW 2401   2.107   0.027   2.622
  501SOL    HW1 2402   2.039   0.070   2.682
  501SOL    HW2 2403   2.191   0.012   2.674
  502SOL     OW 2404   1.782   4.652   5.997
  502SOL    HW1 2405   1.706   4.594   5.969
  502SOL    HW2 2406   1.746   4.732   6.044
  503SOL     OW 2407   3.277   4.499   6.576
  503SOL    HW1 2408   3.211   4.466   6.508
  503SOL    HW2 2409   3.299   4.595   6.557
  504SOL     OW 2410   6.706   5.918   2.090
  504SOL    HW1 2411   6.726   5.947   1.997
  504SOL    HW2 2412   6.616   5.876   2.093
  505SOL     OW 2413   3.937   0.033   5.294
  505SOL    HW1 2414   3.974   0.021   5.201
  505SOL    HW2 2415   3.972   6.986   5.353
  506SOL     OW 2416   3.124   5.488   2.797
  506SOL    HW1 2417   3.146   5.569   2.851
  506SOL    HW2 2418   3.173   5.491   2.710
  507SOL     OW 2419   4.317   1.299   1.891
  507SOL    HW1 2420   4.288   1.252   1.807
  507SOL    HW2 2421   4.312   1.235   1.968
  508SOL     OW 2422   6.966   3.495   4.303
  508SOL    HW1 2423   6.993   3.399   4.315
  508SOL    HW2 2424   6.922   3.507   4.214
  509SOL     OW 2425   5.327   0.574   0.144
  509SOL    HW1 2426   5.349   0.585   0.241
  509SOL    HW2 2427   5.395   0.517   0.099
  510SOL     OW 2428   6.223   4.467   5.652
  510SOL    HW1 2429   6.201   4.416   5.569
  510SOL    HW2 2430   6.150   4.533   5.671
  511SOL     OW 2431   1.151   1.531   6.620
  511SOL    HW1 2432   1.241   1.491   6.640
  511SOL    HW2 2433   1.094   1.528   6.702
  512SOL     OW 2434   5.406   2.463   0.180
  512SOL    HW1 2435   5.497   2.495   0.154
  512SOL    HW2 2436   5.397   2.366   0.157
  513SOL     OW 2437   5.852   6.674   2.308
  513SOL    HW1 2438   5.806   6.594   2.348
  513SOL    HW2 2439   5.949   6.672   2.333
  514SOL     OW 2440   7.007   6.460   3.704
  514SOL    HW1 2441   0.052   6.472   3.634
  514SOL    HW2 2442   6.922   6.429   3.662
  515SOL     OW 2443   3.013   0.901   6.523
  515SOL    HW1 2444   3.032   0.805   6.504
  515SOL    HW2 2445   2.935   0.909   6.585
  516SOL     OW 2446   2.376   4.125   1.435
  516SOL    HW1 2447   2.306   4.069   1.391
  516SOL    HW2 2448   2.367   4.119   1.534
  517SOL     OW 2449   3.483   4.934   2.526
  517SOL    HW1 2450   3.582   4.932   2.509
  517SOL    HW2 2451   3.434   4.910   2.443
  518SOL     OW 2452   2.146   3.203   3.393
  518SOL    HW1 2453   2.193   3.254   3.321
  518SOL    HW2 2454   2.092   3.129   3.352
  519SOL     OW 2455   6.863   6.467   4.089
  519SOL    HW1 2456   6.895   6.559   4.066
  519SOL    HW2 2457   6.926   6.426   4.155
  520SOL     OW 2458   1.438   3.253   6.971
  520SOL    HW1 2459   1.451   3.267   6.873
  520SOL    HW2 2460   1.484   3.168   6.999
  521SOL     OW 2461   4.467   5.180   4.450
  521SOL    HW1 2462   4.493   5.196   4.355
  521SOL    HW2 2463   4.508   5.094   4.481
  522SOL     OW 2464   4.162   3.921   1.177
  522SOL    HW1 2465   4.252   3.954   1.206
  522SOL    HW2 2466   4.093   3.988   1.204
  523SOL     OW 2467   0.039   6.673   1.825
  523SOL    HW1 2468   6.999   6.641   1.893
  523SOL    HW2 2469   0.130   6.680   1.866
  524SOL     OW 2470   0.579   2.930   2.289
  524SOL    HW1 2471   0.665   2.947   2.336
  524SOL    HW2 2472   0.597   2.903   2.194
  525SOL     OW 2473   1.013   3.256   6.739
  525SOL    HW1 2474   1.078   3.206   6.797
  525SOL    HW2 2475   1.062   3.319   6.680
  526SOL     OW 2476   3.437   0.071   4.246
  526SOL    HW1 2477   3.492   0.076   4.163
  526SOL    HW2 2478   3.476   0.001   4.307
  527SOL     OW 2479   1.114   2.527   0.077
  527SOL    HW1 2480   1.152   2.615   0.050
  527SOL    HW2 2481   1.131   2.512   0.174
  528SOL     OW 2482   0.669   3.676   3.354
  528SOL    HW1 2483   0.750   3.642   3.306
  528SOL    HW2 2484   0.660   3.628   3.441
  529SOL     OW 2485   2.445   0.523   5.699
  529SOL    HW1 2486   2.466   0.609   5.747
  529SOL    HW2 2487   2.530   0.472   5.684
  530SOL     OW 2488   3.830   2.929   2.201
  530SOL    HW1 2489   3.838   2.952   2.298
  530SOL    HW2 2490   3.882   2.994   2.147
  531SOL     OW 2491   2.561   0.434   2.549
  531SOL    HW1 2492   2.625   0.395   2.483
  531SOL    HW2 2493   2.610   0.496   2.610
  532SOL     OW 2494   1.712   3.835   0.429
  532SOL    HW1 2495   1.729   3.879   0.517
  532SOL    HW2 2496   1.785   3.858   0.365
  533SOL     OW 2497   5.573   0.239   3.421
  533SOL    HW1 2498   5.543   0.153   3.379
  533SOL    HW2 2499   5.651   0.276   3.370
  534SOL     OW 2500   0.913   5.884   1.665
  534SOL    HW1 2501   0.836   5.859   1.724
  534SOL    HW2 2502   0.888   5.962   1.609
  535SOL     OW 2503   6.644   4.262   3.169
  535SOL    HW1 2504   6.662   4.333   3.101
  535SOL    HW2 2505   6.604   4.304   3.251
  536SOL     OW 2506   6.621   5.580   3.097
  536SOL    HW1 2507   6.605   5.621   3.007
  536SOL    HW2 2508   6.705   5.617   3.136
  537SOL     OW 2509   3.752   6.806   4.395
  537SOL    HW1 2510   3.836   6.791   4.343
  537SOL    HW2 2511   3.775   6.842   4.485
  538SOL     OW 2512   1.451   5.376   5.305
  538SOL    HW1 2513   1.527   5.408   5.248
  538SOL    HW2 2514   1.432   5.444   5.376
  539SOL     OW 2515   1.254   5.430   1.801
  539SOL    HW1 2516   1.193   5.482   1.741
  539SOL    HW2 2517   1.329   5.489   1.831
  540SOL     OW 2518   1.888   1.036   3.859
  540SOL    HW1 2519   1.956   1.026   3.787
  540SOL    HW2 2520   1.876   1.133   3.880
  541SOL     OW 2521   4.086   5.964   3.708
  541SOL    HW1 2522   4.034   6.014   3.778
  541SOL    HW2 2523   4.055   5.869   3.705
  542SOL     OW 2524   3.679   5.978   6.573
  542SOL    HW1 2525   3.640   5.987   6.481
  542SOL    HW2 2526   3.609   5.941   6.634
  543SOL     OW 2527   5.675   3.751   3.917
  543SOL    HW1 2528   5.649   3.822   3.851
  543SOL    HW2 2529   5.644   3.778   4.008
  544SOL     OW 2530   0.543   4.743   0.182
  544SOL    HW1 2531   0.608   4.697   0.122
  544SOL    HW2 2532   0.564   4.840   0.187
  545SOL     OW 2533   4.468   0.986   1.218
  545SOL    HW1 2534   4.554   0.953   1.256
  545SOL    HW2 2535   4.458   0.952   1.125
  546SOL     OW 2536   0.271   4.515   1.699
  546SOL    HW1 2537   0.250   4.596   1.753
  546SOL    HW2 2538   0.338   4.538   1.629
  547SOL     OW 2539   3.120   2.545   0.483
  547SOL    HW1 2540   3.099   2.453   0.450
  547SOL    HW2 2541   3.161   2.540   0.574
  548SOL     OW 2542   3.177   3.572   0.638
  548SOL    HW1 2543   3.200   3.613   0.726
  548SOL    HW2 2544   3.172   3.643   0.568
  549SOL     OW 2545   5.087   2.463   1.220
  549SOL    HW1 2546   5.046   2.501   1.303
  549SOL    HW2 2547   5.077   2.529   1.145
  550SOL     OW 2548   6.733   5.138   3.357
  550SOL    HW1 2549   6.689   5.170   3.273
  550SOL    HW2 2550   6.702   5.192   3.435
  551SOL     OW 2551   0.059   0.819   0.889
  551SOL    HW1 2552   0.134   0.755   0.880
  551SOL    HW2 2553   0.066   0.889   0.818
  552SOL     OW 2554   5.135   5.385   5.125
  552SOL    HW1 2555   5.225   5.357   5.089
  552SOL    HW2 2556   5.088   5.305   5.161
  553SOL     OW 2557   3.791   0.581   4.239
  553SOL    HW1 2558   3.831   0.579   4.331
  553SOL    HW2 2559   3.769   0.488   4.210
  554SOL     OW 2560   5.688   5.574   6.790
  554SOL    HW1 2561   5.595   5.578   6.828
  554SOL    HW2 2562   5.747   5.636   6.840
  555SOL     OW 2563   3.581   5.486   5.289
  555SOL    HW1 2564   3.579   5.425   5.368
  555SOL    HW2 2565   3.662   5.544   5.293
  556SOL     OW 2566   5.418   1.663   4.409
  556SOL    HW1 2567   5.325   1.648   4.443
  556SOL    HW2 2568   5.474   1.584   4.431
  557SOL     OW 2569   6.676   4.801   6.313
  557SOL    HW1 2570   6.602   4.819   6.378
  557SOL    HW2 2571   6.750   4.753   6.360
  558SOL     OW 2572   4.091   3.192   3.804
  558SOL    HW1 2573   4.033   3.113   3.786
  558SOL    HW2 2574   4.088   3.214   3.901
  559SOL     OW 2575   6.474   6.219   5.676
  559SOL    HW1 2576   6.556   6.270   5.650
  559SOL    HW2 2577   6.426   6.268   5.749
  560SOL     OW 2578   6.684   3.563   3.180
  560SOL    HW1 2579   6.599   3.539   3.132
  560SOL    HW2 2580   6.754   3.494   3.161
  561SOL     OW 2581   6.560   2.545   6.618
  561SOL    HW1 2582   6.639   2.601   6.596
  561SOL    HW2 2583   6.587   2.449   6.622
  562SOL     OW 2584   4.698   0.057   5.834
  562SOL    HW1 2585   4.788   0.032   5.800
  562SOL    HW2 2586   4.693   0.039   5.932
  563SOL     OW 2587   2.312   1.337   3.747
  563SOL    HW1 2588   2.361   1.372   3.827
  563SOL    HW2 2589   2.376   1.327   3.671
  564SOL     OW 2590   6.962   1.604   6.463
  564SOL    HW1 2591   6.895   1.668   6.424
  564SOL    HW2 2592   0.020   1.607   6.408
  565SOL     OW 2593   2.939   3.268   3.803
  565SOL    HW1 2594   2.900   3.330   3.871
  565SOL    HW2 2595   2.926   3.306   3.711
  566SOL     OW 2596   2.194   4.565   2.982
  566SOL    HW1 2597   2.113   4.522   3.023
  566SOL    HW2 2598   2.277   4.524   3.021
  567SOL     OW 2599   2.806   2.472   0.716
  567SOL    HW1 2600   2.731   2.476   0.781
  567SOL    HW2 2601   2.769   2.462   0.623
  568SOL     OW 2602   5.810   6.796   1.019
  568SOL    HW1 2603   5.902   6.771   1.050
  568SOL    HW2 2604   5.811   6.891   0.987
  569SOL     OW 2605   0.913   2.787   1.078
  569SOL    HW1 2606   0.978   2.720   1.043
  569SOL    HW2 2607   0.820   2.751   1.071
  570SOL     OW 2608   3.315   0.022   6.537
  570SOL    HW1 2609   3.238   0.044   6.478
  570SOL    HW2 2610   3.298   6.961   6.585
  571SOL     OW 2611   2.646   4.741   3.564
  571SOL    HW1 2612   2.639   4.840   3.577
  571SOL    HW2 2613   2.661   4.722   3.467
  572SOL     OW 2614   1.985   5.679   5.210
  572SOL    HW1 2615   2.041   5.698   5.290
  572SOL    HW2 2616   2.010   5.742   5.136
  573SOL     OW 2617   6.297   1.302   5.412
  573SOL    HW1 2618   6.312   1.297   5.313
  573SOL    HW2 2619   6.297   1.398   5.440
  574SOL     OW 2620   3.704   0.411   5.532
  574SOL    HW1 2621   3.610   0.403   5.499
  574SOL    HW2 2622   3.747   0.321   5.530
  575SOL     OW 2623   4.437   2.745   1.233
  575SOL    HW1 2624   4.380   2.672   1.195
  575SOL    HW2 2625   4.441   2.736   1.333
  576SOL     OW 2626   1.429   3.037   2.926
  576SOL    HW1 2627   1.498   3.029   2.997
  576SOL    HW2 2628   1.467   3.086   2.847
  577SOL     OW 2629   1.251   0.542   2.495
  577SOL    HW1 2630   1.160   0.509   2.473
  577SOL    HW2 2631   1.310   0.538   2.414
  578SOL     OW 2632   1.641   5.876   6.027
  578SOL    HW1 2633   1.619   5.884   5.929
  578SOL    HW2 2634   1.586   5.941   6.079
  579SOL     OW 2635   1.548   4.644   2.666
  579SOL    HW1 2636   1.565   4.697   2.583
  579SOL    HW2 2637   1.635   4.616   2.706
  580SOL     OW 2638   4.248   4.843   5.460
  580SOL    HW1 2639   4.293   4.922   5.418
  580SOL    HW2 2640   4.267   4.841   5.557
  581SOL     OW 2641   1.224   3.419   3.514
  581SOL    HW1 2642   1.138   3.374   3.541
  581SOL    HW2 2643   1.267   3.457   3.595
  582SOL     OW 2644   4.700   5.870   3.404
  582SOL    HW1 2645   4.725   5.788   3.457
  582SOL    HW2 2646   4.604   5.892   3.420
  583SOL     OW 2647   2.439   5.699   5.356
  583SOL    HW1 2648   2.407   5.607   5.378
  583SOL    HW2 2649   2.535   5.708   5.382
  584SOL     OW 2650   3.579   0.069   6.502
  584SOL    HW1 2651   3.609   0.165   6.506
  584SOL    HW2 2652   3.480   0.065   6.513
  585SOL     OW 2653   4.214   0.643   1.094
  585SOL    HW1 2654   4.148   0.587   1.044
  585SOL    HW2 2655   4.165   0.713   1.146
  586SOL     OW 2656   3.532   0.362   1.209
  586SOL    HW1 2657   3.559   0.327   1.298
  586SOL    HW2 2658   3.562   0.458   1.201
  587SOL     OW 2659   5.159   2.089   2.519
  587SOL    HW1 2660   5.169   2.186   2.538
  587SOL    HW2 2661   5.062   2.068   2.503
  588SOL     OW 2662   1.743   5.198   0.747
  588SOL    HW1 2663   1.739   5.239   0.838
  588SOL    HW2 2664   1.650   5.182   0.713
  589SOL     OW 2665   3.165   5.499   1.509
  589SOL    HW1 2666   3.218   5.423   1.472
  589SOL    HW2 2667   3.134   5.477   1.601
  590SOL     OW 2668   5.324   1.130   1.034
  590SOL    HW1 2669   5.230   1.145   1.063
  590SOL    HW2 2670   5.326   1.076   0.950
  591SOL     OW 2671   3.744   6.152   3.579
  591SOL    HW1 2672   3.704   6.094   3.508
  591SOL    HW2 2673   3.740   6.247   3.551
  592SOL     OW 2674   4.385   0.274   3.393
  592SOL    HW1 2675   4.449   0.329   3.339
  592SOL    HW2 2676   4.329   0.219   3.331
  593SOL     OW 2677   4.790   2.157   4.994
  593SOL    HW1 2678   4.737   2.073   5.000
  593SOL    HW2 2679   4.762   2.209   4.914
  594SOL     OW 2680   6.264   1.312   0.668
  594SOL    HW1 2681   6.214   1.235   0.628
  594SOL    HW2 2682   6.335   1.278   0.729
  595SOL     OW 2683   6.012   6.766   3.238
  595SOL    HW1 2684   6.063   6.684   3.266
  595SOL    HW2 2685   5.928   6.774   3.293
  596SOL     OW 2686   6.960   5.194   3.210
  596SOL    HW1 2687   6.868   5.186   3.248
  596SOL    HW2 2688   6.999   5.103   3.197
  597SOL     OW 2689   2.525   6.682   6.122
  597SOL    HW1 2690   2.538   6.591   6.082
  597SOL    HW2 2691   2.548   6.751   6.054
  598SOL     OW 2692   3.357   4.077   5.136
  598SOL    HW1 2693   3.452   4.094   5.107
  598SOL    HW2 2694   3.301   4.056   5.056
  599SOL     OW 2695   1.998   5.720   2.770
  599SOL    HW1 2696   1.914   5.757   2.810
  599SOL    HW2 2697   2.077   5.757   2.819
  600SOL     OW 2698   6.689   3.335   6.204
  600SOL    HW1 2699   6.727   3.303   6.291
  600SOL    HW2 2700   6.721   3.428   6.186
  601SOL     OW 2701   1.320   1.531   4.591
  601SOL    HW1 2702   1.389   1.490   4.532
  601SOL    HW2 2703   1.244   1.564   4.536
  602SOL     OW 2704   3.067   0.624   5.955
  602SOL    HW1 2705   2.989   0.661   6.007
  602SOL    HW2 2706   3.131   0.581   6.018
  603SOL     OW 2707   1.763   2.075   5.296
  603SOL    HW1 2708   1.852   2.119   5.310
  603SOL    HW2 2709   1.728   2.041   5.384
  604SOL     OW 2710   0.777   2.198   1.577
  604SOL    HW1 2711   0.861   2.198   1.522
  604SOL    HW2 2712   0.793   2.150   1.663
  605SOL     OW 2713   6.834   4.647   1.645
  605SOL    HW1 2714   6.887   4.580   1.593
  605SOL    HW2 2715   6.865   4.646   1.740
  606SOL     OW 2716   4.703   6.395   5.691
  606SOL    HW1 2717   4.742   6.434   5.607
  606SOL    HW2 2718   4.770   6.333   5.732
  607SOL     OW 2719   0.221   5.041   5.370
  607SOL    HW1 2720   0.196   4.948   5.395
  607SOL    HW2 2721   0.297   5.040   5.305
  608SOL     OW 2722   3.953   6.670   6.774
  608SOL    HW1 2723   3.858   6.645   6.759
  608SOL    HW2 2724   4.002   6.671   6.687
  609SOL     OW 2725   3.675   2.606   1.761
  609SOL    HW1 2726   3.699   2.678   1.826
  609SOL    HW2 2727   3.699   2.517   1.800
  610SOL     OW 2728   4.699   2.144   0.347
  610SOL    HW1 2729   4.762   2.215   0.316
  610SOL    HW2 2730   4.668   2.165   0.440
  611SOL     OW 2731   3.365   6.666   2.410
  611SOL    HW1 2732   3.375   6.687   2.313
  611SOL    HW2 2733   3.403   6.741   2.464
  612SOL     OW 2734   2.910   5.732   4.875
  612SOL    HW1 2735   2.950   5.663   4.935
  612SOL    HW2 2736   2.814   5.746   4.900
  613SOL     OW 2737   5.403   4.639   4.967
  613SOL    HW1 2738   5.349   4.593   4.896
  613SOL    HW2 2739   5.436   4.571   5.032
  614SOL     OW 2740   5.619   5.414   4.576
  614SOL    HW1 2741   5.563   5.372   4.647
  614SOL    HW2 2742   5.613   5.514   4.584
  615SOL     OW 2743   6.755   2.020   1.462
  615SOL    HW1 2744   6.779   1.927   1.434
  615SOL    HW2 2745   6.825   2.055   1.525
  616SOL     OW 2746   6.366   2.265   2.595
  616SOL    HW1 2747   6.370   2.260   2.495
  616SOL    HW2 2748   6.306   2.340   2.623
  617SOL     OW 2749   1.474   5.013   6.257
  617SOL    HW1 2750   1.483   4.951   6.334
  617SOL    HW2 2751   1.384   5.001   6.214
  618SOL     OW 2752   1.331   2.503   1.193
  618SOL    HW1 2753   1.335   2.412   1.234
  618SOL    HW2 2754   1.396   2.563   1.238
  619SOL     OW 2755   1.877   2.185   0.607
  619SOL    HW1 2756   1.823   2.184   0.691
  619SOL    HW2 2757   1.824   2.228   0.534
  620SOL     OW 2758   4.370   1.907   0.292
  620SOL    HW1 2759   4.428   1.893   0.212
  620SOL    HW2 2760   4.413   1.972   0.354
  621SOL     OW 2761   5.027   5.372   6.477
  621SOL    HW1 2762   4.940   5.362   6.426
  621SOL    HW2 2763   5.061   5.465   6.466
  622SOL     OW 2764   1.372   1.186   6.692
  622SOL    HW1 2765   1.390   1.261   6.755
  622SOL    HW2 2766   1.308   1.216   6.621
  623SOL     OW 2767   0.736   6.094   6.002
  623SOL    HW1 2768   0.764   6.015   5.946
  623SOL    HW2 2769   0.652   6.133   5.964
  624SOL     OW 2770   0.485   2.755   1.873
  624SOL    HW1 2771   0.557   2.783   1.936
  624SOL    HW2 2772   0.416   2.702   1.922
  625SOL     OW 2773   2.447   2.224   1.293
  625SOL    HW1 2774   2.363   2.227   1.348
  625SOL    HW2 2775   2.512   2.161   1.334
  626SOL     OW 2776   2.629   5.586   3.665
  626SOL    HW1 2777   2.695   5.556   3.734
  626SOL    HW2 2778   2.580   5.666   3.699
  627SOL     OW 2779   5.246   0.154   1.086
  627SOL    HW1 2780   5.170   0.187   1.142
  627SOL    HW2 2781   5.238   0.055   1.074
  628SOL     OW 2782   4.789   4.690   4.940
  628SOL    HW1 2783   4.760   4.749   5.016
  628SOL    HW2 2784   4.709   4.668   4.884
  629SOL     OW 2785   0.227   0.176   0.943
  629SOL    HW1 2786   0.292   0.117   0.894
  629SOL    HW2 2787   0.202   0.132   1.030
  630SOL     OW 2788   5.499   2.078   2.564
  630SOL    HW1 2789   5.460   2.106   2.652
  630SOL    HW2 2790   5.510   1.978   2.562
  631SOL     OW 2791   3.127   0.260   5.618
  631SOL    HW1 2792   3.120   0.265   5.519
  631SOL    HW2 2793   3.176   0.339   5.653
  632SOL     OW 2794   2.685   1.485   0.383
  632SOL    HW1 2795   2.740   1.403   0.391
  632SOL    HW2 2796   2.739   1.558   0.339
  633SOL     OW 2797   3.899   5.140   0.189
  633SOL    HW1 2798   3.869   5.225   0.232
  633SOL    HW2 2799   3.859   5.133   0.098
  634SOL     OW 2800   4.167   4.624   1.610
  634SOL    HW1 2801   4.220   4.541   1.589
  634SOL    HW2 2802   4.079   4.620   1.564
  635SOL     OW 2803   4.668   6.675   2.912
  635SOL    HW1 2804   4.749   6.629   2.947
  635SOL    HW2 2805   4.590   6.654   2.971
  636SOL     OW 2806   5.343   5.642   6.005
  636SOL    HW1 2807   5.286   5.574   6.051
  636SOL    HW2 2808   5.435   5.605   5.992
  637SOL     OW 2809   5.342   4.456   1.612
  637SOL    HW1 2810   5.297   4.416   1.692
  637SOL    HW2 2811   5.429   4.497   1.640
  638SOL     OW 2812   5.097   1.211   2.589
  638SOL    HW1 2813   5.095   1.311   2.590
  638SOL    HW2 2814   5.119   1.180   2.496
  639SOL     OW 2815   5.237   4.376   1.852
  639SOL    HW1 2816   5.147   4.344   1.882
  639SOL    HW2 2817   5.305   4.305   1.869
  640SOL     OW 2818   2.275   4.930   5.261
  640SOL    HW1 2819   2.226   5.017   5.264
  640SOL    HW2 2820   2.274   4.889   5.352
  641SOL     OW 2821   0.496   5.687   4.648
  641SOL    HW1 2822   0.418   5.659   4.704
  641SOL    HW2 2823   0.522   5.780   4.672
  642SOL     OW 2824   0.138   4.115   4.274
  642SOL    HW1 2825   0.193   4.034   4.293
  642SOL    HW2 2826   0.176   4.164   4.196
  643SOL     OW 2827   5.850   5.029   5.113
  643SOL    HW1 2828   5.827   5.012   5.017
  643SOL    HW2 2829   5.881   4.944   5.155
  644SOL     OW 2830   0.825   5.306   2.412
  644SOL    HW1 2831   0.765   5.287   2.490
  644SOL    HW2 2832   0.826   5.228   2.350
  645SOL     OW 2833   5.139   2.472   4.268
  645SOL    HW1 2834   5.177   2.539   4.333
  645SOL    HW2 2835   5.151   2.506   4.175
  646SOL     OW 2836   2.364   2.244   3.152
  646SOL    HW1 2837   2.350   2.229   3.250
  646SOL    HW2 2838   2.285   2.209   3.102
  647SOL     OW 2839   5.879   2.710   5.900
  647SOL    HW1 2840   5.902   2.644   5.972
  647SOL    HW2 2841   5.936   2.791   5.911
  648SOL     OW 2842   6.040   3.535   2.536
  648SOL    HW1 2843   6.071   3.500   2.447
  648SOL    HW2 2844   6.072   3.629   2.547
  649SOL     OW 2845   4.349   4.079   0.524
  649SOL    HW1 2846   4.306   4.169   0.518
  649SOL    HW2 2847   4.305   4.017   0.459
  650SOL     OW 2848   4.681   4.600   0.095
  650SOL    HW1 2849   4.691   4.619   7.023
  650SOL    HW2 2850   4.701   4.504   0.112
  651SOL     OW 2851   0.997   6.602   0.409
  651SOL    HW1 2852   1.006   6.599   0.508
  651SOL    HW2 2853   0.955   6.518   0.376
  652SOL     OW 2854   4.877   6.412   3.438
  652SOL    HW1 2855   4.858   6.509   3.455
  652SOL    HW2 2856   4.790   6.362   3.436
  653SOL     OW 2857   3.684   5.256   5.880
  653SOL    HW1 2858   3.617   5.330   5.883
  653SOL    HW2 2859   3.681   5.212   5.790
  654SOL     OW 2860   6.663   4.316   6.021
  654SOL    HW1 2861   6.725   4.394   6.027
  654SOL    HW2 2862   6.575   4.341   6.063
  655SOL     OW 2863   0.536   0.023   2.088
  655SOL    HW1 2864   0.496   0.055   2.174
  655SOL    HW2 2865   0.636   0.028   2.095
  656SOL     OW 2866   2.120   5.400   1.491
  656SOL    HW1 2867   2.130   5.448   1.578
  656SOL    HW2 2868   2.023   5.397   1.466
  657SOL     OW 2869   2.173   1.879   1.718
  657SOL    HW1 2870   2.226   1.807   1.762
  657SOL    HW2 2871   2.162   1.957   1.780
  658SOL     OW 2872   3.441   3.281   6.208
  658SOL    HW1 2873   3.520   3.341   6.223
  658SOL    HW2 2874   3.383   3.282   6.289
  659SOL     OW 2875   3.244   6.416   6.504
  659SOL    HW1 2876   3.319   6.352   6.521
  659SOL    HW2 2877   3.249   6.492   6.569
  660SOL     OW 2878   4.367   5.283   1.661
  660SOL    HW1 2879   4.359   5.274   1.562
  660SOL    HW2 2880   4.348   5.378   1.687
  661SOL     OW 2881   4.363   6.611   3.817
  661SOL    HW1 2882   4.431   6.557   3.867
  661SOL    HW2 2883   4.292   6.550   3.782
  662SOL     OW 2884   3.831   0.797   5.342
  662SOL    HW1 2885   3.766   0.839   5.405
  662SOL    HW2 2886   3.921   0.794   5.385
  663SOL     OW 2887   2.433   4.083   5.872
  663SOL    HW1 2888   2.400   3.996   5.835
  663SOL    HW2 2889   2.372   4.112   5.946
  664SOL     OW 2890   0.361   6.322   6.066
  664SOL    HW1 2891   0.424   6.370   6.127
  664SOL    HW2 2892   0.412   6.272   5.997
  665SOL     OW 2893   4.119   5.470   2.449
  665SOL    HW1 2894   4.117   5.570   2.442
  665SOL    HW2 2895   4.036   5.432   2.407
  666SOL     OW 2896   4.750   0.759   1.546
  666SOL    HW1 2897   4.841   0.777   1.508
  666SOL    HW2 2898   4.712   0.677   1.504
  667SOL     OW 2899   0.820   5.120   2.223
  667SOL    HW1 2900   0.919   5.119   2.210
  667SOL    HW2 2901   0.779   5.044   2.172
  668SOL     OW 2902   5.125   6.149   5.675
  668SOL    HW1 2903   5.146   6.068   5.621
  668SOL    HW2 2904   5.203   6.174   5.731
  669SOL     OW 2905   6.241   0.654   3.653
  669SOL    HW1 2906   6.190   0.588   3.597
  669SOL    HW2 2907   6.339   0.637   3.643
  670SOL     OW 2908   2.700   2.097   2.288
  670SOL    HW1 2909   2.666   2.011   2.324
  670SOL    HW2 2910   2.749   2.080   2.202
  671SOL     OW 2911   3.268   5.962   0.841
  671SOL    HW1 2912   3.298   5.980   0.747
  671SOL    HW2 2913   3.188   5.902   0.840
  672SOL     OW 2914   6.603   5.332   2.222
  672SOL    HW1 2915   6.703   5.337   2.212
  672SOL    HW2 2916   6.563   5.422   2.200
  673SOL     OW 2917   6.007   6.749   1.176
  673SOL    HW1 2918   5.948   6.731   1.254
  673SOL    HW2 2919   6.101   6.761   1.207
  674SOL     OW 2920   0.556   1.387   4.382
  674SOL    HW1 2921   0.535   1.386   4.480
  674SOL    HW2 2922   0.615   1.309   4.361
  675SOL     OW 2923   5.450   2.405   2.633
  675SOL    HW1 2924   5.546   2.403   2.662
  675SOL    HW2 2925   5.443   2.373   2.539
  676SOL     OW 2926   2.397   5.083   4.435
  676SOL    HW1 2927   2.309   5.076   4.388
  676SOL    HW2 2928   2.443   4.995   4.432
  677SOL     OW 2929   4.997   0.978   1.263
  677SOL    HW1 2930   4.940   0.941   1.190
  677SOL    HW2 2931   5.005   1.077   1.252
  678SOL     OW 2932   2.595   5.642   4.920
  678SOL    HW1 2933   2.505   5.636   4.964
  678SOL    HW2 2934   2.584   5.665   4.823
  679SOL     OW 2935   5.004   1.432   4.661
  679SOL    HW1 2936   5.039   1.503   4.723
  679SOL    HW2 2937   5.076   1.365   4.645
  680SOL     OW 2938   4.640   6.049   4.350
  680SOL    HW1 2939   4.718   5.991   4.327
  680SOL    HW2 2940   4.621   6.042   4.448
  681SOL     OW 2941   4.386   5.968   1.946
  681SOL    HW1 2942   4.485   5.983   1.934
  681SOL    HW2 2943   4.344   5.953   1.856
  682SOL     OW 2944   6.032   1.495   2.083
  682SOL    HW1 2945   6.068   1.456   1.998
  682SOL    HW2 2946   5.990   1.584   2.064
  683SOL     OW 2947   4.569   2.818   0.673
  683SOL    HW1 2948   4.664   2.803   0.644
  683SOL    HW2 2949   4.508   2.759   0.620
  684SOL     OW 2950   6.352   0.804   0.339
  684SOL    HW1 2951   6.416   0.833   0.267
  684SOL    HW2 2952   6.386   0.834   0.428
  685SOL     OW 2953   3.361   2.066   3.984
  685SOL    HW1 2954   3.374   1.994   4.052
  685SOL    HW2 2955   3.451   2.097   3.951
  686SOL     OW 2956   4.516   1.799   4.333
  686SOL    HW1 2957   4.553   1.883   4.295
  686SOL    HW2 2958   4.524   1.801   4.433
  687SOL     OW 2959   0.876   2.069   4.267
  687SOL    HW1 2960   0.931   2.041   4.188
  687SOL    HW2 2961   0.896   2.165   4.289
  688SOL     OW 2962   6.780   1.445   6.209
  688SOL    HW1 2963   6.801   1.541   6.230
  688SOL    HW2 2964   6.719   1.409   6.279
  689SOL     OW 2965   1.622   4.451   6.211
  689SOL    HW1 2966   1.604   4.352   6.212
  689SOL    HW2 2967   1.608   4.487   6.119
  690SOL     OW 2968   6.989   3.777   3.109
  690SOL    HW1 2969   6.914   3.795   3.046
  690SOL    HW2 2970   7.012   3.680   3.107
  691SOL     OW 2971   3.425   1.728   0.724
  691SOL    HW1 2972   3.414   1.692   0.817
  691SOL    HW2 2973   3.512   1.776   0.717
  692SOL     OW 2974   4.501   2.171   4.897
  692SOL    HW1 2975   4.546   2.258   4.878
  692SOL    HW2 2976   4.408   2.188   4.930
  693SOL     OW 2977   4.793   6.931   4.324
  693SOL    HW1 2978   4.713   6.938   4.384
  693SOL    HW2 2979   4.765   6.951   4.230
  694SOL     OW 2980   4.068   6.083   4.818
  694SOL    HW1 2981   3.981   6.125   4.791
  694SOL    HW2 2982   4.050   5.993   4.858
  695SOL     OW 2983   3.908   6.281   4.452
  695SOL    HW1 2984   3.932   6.196   4.403
  695SOL    HW2 2985   3.901   6.262   4.550
  696SOL     OW 2986   5.051   4.675   3.472
  696SOL    HW1 2987   5.149   4.682   3.489
  696SOL    HW2 2988   5.006   4.638   3.553
  697SOL     OW 2989   1.678   3.320   2.476
  697SOL    HW1 2990   1.626   3.268   2.408
  697SOL    HW2 2991   1.642   3.413   2.483
  698SOL     OW 2992   5.481   6.406   0.875
  698SOL    HW1 2993   5.508   6.316   0.910
  698SOL    HW2 2994   5.402   6.440   0.925
  699SOL     OW 2995   1.523   3.230   6.704
  699SOL    HW1 2996   1.496   3.188   6.617
  699SOL    HW2 2997   1.610   3.191   6.734
  700SOL     OW 2998   3.197   0.077   1.692
  700SOL    HW1 2999   3.244   0.151   1.740
  700SOL    HW2 3000   3.235   7.014   1.721
  701SOL     OW 3001   0.032   4.312   6.985
  701SOL    HW1 3002   7.006   4.376   6.928
  701SOL    HW2 3003   0.095   4.259   6.927
  702SOL     OW 3004   2.175   6.997   4.490
  702SOL    HW1 3005   2.202   0.049   4.432
  702SOL    HW2 3006   2.112   6.938   4.441
  703SOL     OW 3007   3.382   2.892   5.455
  703SOL    HW1 3008   3.419   2.907   5.363
  703SOL    HW2 3009   3.298   2.838   5.448
  704SOL     OW 3010   1.969   2.420   6.337
  704SOL    HW1 3011   2.020   2.457   6.260
  704SOL    HW2 3012   2.031   2.367   6.396
  705SOL     OW 3013   6.108   5.496   3.288
  705SOL    HW1 3014   6.148   5.585   3.267
  705SOL    HW2 3015   6.012   5.508   3.313
  706SOL     OW 3016   4.369   2.074   5.434
  706SOL    HW1 3017   4.404   1.980   5.430
  706SOL    HW2 3018   4.356   2.100   5.530
  707SOL     OW 3019   3.957   4.807   2.934
  707SOL    HW1 3020   3.985   4.793   2.839
  707SOL    HW2 3021   3.980   4.900   2.962
  708SOL     OW 3022   2.667   1.379   2.933
  708SOL    HW1 3023   2.735   1.311   2.960
  708SOL    HW2 3024   2.657   1.447   3.005
  709SOL     OW 3025   1.322   6.193   0.797
  709SOL    HW1 3026   1.267   6.151   0.725
  709SOL    HW2 3027   1.292   6.287   0.811
  710SOL     OW 3028   4.805   2.141   1.781
  710SOL    HW1 3029   4.855   2.123   1.697
  710SOL    HW2 3030   4.708   2.120   1.768
  711SOL     OW 3031   0.244   2.500   6.611
  711SOL    HW1 3032   0.322   2.551   6.574
  711SOL    HW2 3033   0.216   2.540   6.698
  712SOL     OW 3034   4.541   2.103   0.772
  712SOL    HW1 3035   4.583   2.012   0.764
  712SOL    HW2 3036   4.611   2.172   0.756
  713SOL     OW 3037   4.253   3.051   5.545
  713SOL    HW1 3038   4.292   3.094   5.463
  713SOL    HW2 3039   4.159   3.021   5.525
  714SOL     OW 3040   6.735   5.330   3.879
  714SOL    HW1 3041   6.819   5.278   3.866
  714SOL    HW2 3042   6.720   5.346   3.976
  715SOL     OW 3043   5.761   5.510   6.311
  715SOL    HW1 3044   5.718   5.452   6.242
  715SOL    HW2 3045   5.728   5.484   6.402
  716SOL     OW 3046   1.243   1.273   2.967
  716SOL    HW1 3047   1.333   1.302   2.999
  716SOL    HW2 3048   1.208   1.200   3.026
  717SOL     OW 3049   6.631   4.823   4.502
  717SOL    HW1 3050   6.531   4.820   4.502
  717SOL    HW2 3051   6.667   4.733   4.476
  718SOL     OW 3052   4.880   2.780   4.832
  718SOL    HW1 3053   4.823   2.794   4.751
  718SOL    HW2 3054   4.882   2.683   4.856
  719SOL     OW 3055   5.968   0.122   3.055
  719SOL    HW1 3056   5.883   0.174   3.054
  719SOL    HW2 3057   5.953   0.031   3.017
  720SOL     OW 3058   2.155   0.354   6.043
  720SOL    HW1 3059   2.076   0.317   5.993
  720SOL    HW2 3060   2.155   0.316   6.135
  721SOL     OW 3061   2.013   0.982   2.149
  721SOL    HW1 3062   2.017   0.918   2.072
  721SOL    HW2 3063   2.099   1.033   2.156
  722SOL     OW 3064   3.154   1.227   5.034
  722SOL    HW1 3065   3.198   1.255   5.120
  722SOL    HW2 3066   3.165   1.300   4.966
  723SOL     OW 3067   1.846   5.547   3.602
  723SOL    HW1 3068   1.843   5.538   3.502
  723SOL    HW2 3069   1.937   5.523   3.634
  724SOL     OW 3070   0.277   1.439   3.668
  724SOL    HW1 3071   0.262   1.512   3.602
  724SOL    HW2 3072   0.368   1.449   3.709
  725SOL     OW 3073   1.985   4.884   2.414
  725SOL    HW1 3074   2.016   4.979   2.420
  725SOL    HW2 3075   1.910   4.869   2.478
  726SOL     OW 3076   2.487   5.031   1.046
  726SOL    HW1 3077   2.436   5.103   1.093
  726SOL    HW2 3078   2.543   5.071   0.974
  727SOL     OW 3079   4.944   4.686   6.302
  727SOL    HW1 3080   4.864   4.738   6.333
  727SOL    HW2 3081   4.919   4.633   6.221
  728SOL     OW 3082   6.714   3.544   4.408
  728SOL    HW1 3083   6.738   3.629   4.454
  728SOL    HW2 3084   6.797   3.493   4.386
  729SOL     OW 3085   0.433   2.791   0.860
  729SOL    HW1 3086   0.439   2.763   0.764
  729SOL    HW2 3087   0.374   2.871   0.867
  730SOL     OW 3088   5.980   0.488   3.916
  730SOL    HW1 3089   5.938   0.529   3.835
  730SOL    HW2 3090   5.914   0.431   3.963
  731SOL     OW 3091   5.100   5.102   0.002
  731SOL    HW1 3092   5.075   5.163   0.078
  731SOL    HW2 3093   5.020   5.050   6.998
  732SOL     OW 3094   5.932   2.796   2.581
  732SOL    HW1 3095   5.927   2.753   2.671
  732SOL    HW2 3096   5.885   2.739   2.514
  733SOL     OW 3097   5.960   0.473   4.778
  733SOL    HW1 3098   5.905   0.410   4.833
  733SOL    HW2 3099   5.914   0.490   4.691
  734SOL     OW 3100   6.214   5.169   3.003
  734SOL    HW1 3101   6.297   5.166   2.948
  734SOL    HW2 3102   6.239   5.165   3.100
  735SOL     OW 3103   3.922   1.360   0.439
  735SOL    HW1 3104   3.881   1.286   0.385
  735SOL    HW2 3105   3.850   1.425   0.465
  736SOL     OW 3106   1.607   1.378   3.851
  736SOL    HW1 3107   1.528   1.317   3.843
  736SOL    HW2 3108   1.689   1.325   3.873
  737SOL     OW 3109   5.701   1.906   6.381
  737SOL    HW1 3110   5.618   1.850   6.385
  737SOL    HW2 3111   5.707   1.949   6.291
  738SOL     OW 3112   2.499   3.820   1.601
  738SOL    HW1 3113   2.594   3.802   1.630
  738SOL    HW2 3114   2.438   3.759   1.651
  739SOL     OW 3115   3.548   0.628   5.013
  739SOL    HW1 3116   3.628   0.687   5.004
  739SOL    HW2 3117   3.577   0.539   5.051
  740SOL     OW 3118   5.750   1.712   2.877
  740SOL    HW1 3119   5.719   1.793   2.826
  740SOL    HW2 3120   5.749   1.633   2.816
  741SOL     OW 3121   2.147   0.556   3.918
  741SOL    HW1 3122   2.144   0.462   3.951
  741SOL    HW2 3123   2.153   0.556   3.818
  742SOL     OW 3124   2.461   5.989   1.573
  742SOL    HW1 3125   2.375   6.022   1.612
  742SOL    HW2 3126   2.508   5.931   1.639
  743SOL     OW 3127   0.146   5.854   3.058
  743SOL    HW1 3128   0.097   5.818   2.979
  743SOL    HW2 3129   0.115   5.806   3.140
  744SOL     OW 3130   6.103   1.072   0.609
  744SOL    HW1 3131   6.047   0.998   0.572
  744SOL    HW2 3132   6.128   1.051   0.704
  745SOL     OW 3133   1.952   5.933   5.413
  745SOL    HW1 3134   1.917   5.942   5.320
  745SOL    HW2 3135   2.011   5.852   5.419
  746SOL     OW 3136   5.674   4.075   5.778
  746SOL    HW1 3137   5.608   4.003   5.798
  746SOL    HW2 3138   5.672   4.097   5.681
  747SOL     OW 3139   4.396   5.686   4.526
  747SOL    HW1 3140   4.441   5.615   4.472
  747SOL    HW2 3141   4.297   5.681   4.513
  748SOL     OW 3142   4.567   5.601   2.227
  748SOL    HW1 3143   4.538   5.658   2.305
  748SOL    HW2 3144   4.666   5.609   2.216
  749SOL     OW 3145   6.016   3.893   4.109
  749SOL    HW1 3146   5.996   3.971   4.050
  749SOL    HW2 3147   5.942   3.881   4.175
  750SOL     OW 3148   2.311   0.831   0.755
  750SOL    HW1 3149   2.259   0.915   0.765
  750SOL    HW2 3150   2.267   0.758   0.808
  751SOL     OW 3151   4.146   1.386   0.890
  751SOL    HW1 3152   4.180   1.364   0.799
  751SOL    HW2 3153   4.200   1.462   0.927
  752SOL     OW 3154   3.118   2.321   6.993
  752SOL    HW1 3155   3.106   2.289   6.899
  752SOL    HW2 3156   3.044   2.285   0.025
  753SOL     OW 3157   2.248   3.532   5.995
  753SOL    HW1 3158   2.165   3.546   5.942
  753SOL    HW2 3159   2.327   3.561   5.942
  754SOL     OW 3160   4.048   0.999   0.298
  754SOL    HW1 3161   3.971   1.054   0.332
  754SOL    HW2 3162   4.118   1.059   0.260
  755SOL     OW 3163   3.089   4.906   5.537
  755SOL    HW1 3164   3.180   4.881   5.507
  755SOL    HW2 3165   3.079   4.885   5.635
  756SOL     OW 3166   3.324   4.704   0.088
  756SOL    HW1 3167   3.266   4.767   0.036
  756SOL    HW2 3168   3.392   4.664   0.026
  757SOL     OW 3169   2.088   6.177   2.792
  757SOL    HW1 3170   2.165   6.129   2.749
  757SOL    HW2 3171   2.116   6.269   2.817
  758SOL     OW 3172   4.128   1.124   4.209
  758SOL    HW1 3173   4.172   1.034   4.209
  758SOL    HW2 3174   4.198   1.195   4.206
  759SOL     OW 3175   6.796   3.240   2.401
  759SOL    HW1 3176   6.825   3.245   2.306
  759SOL    HW2 3177   6.707   3.283   2.411
  760SOL     OW 3178   6.171   6.659   4.143
  760SOL    HW1 3179   6.257   6.622   4.107
  760SOL    HW2 3180   6.189   6.747   4.187
  761SOL     OW 3181   5.817   4.545   6.024
  761SOL    HW1 3182   5.915   4.566   6.025
  761SOL    HW2 3183   5.802   4.458   5.976
  762SOL     OW 3184   2.545   0.019   5.561
  762SOL    HW1 3185   2.620   6.990   5.599
  762SOL    HW2 3186   2.578   0.067   5.479
  763SOL     OW 3187   4.890   6.507   6.775
  763SOL    HW1 3188   4.855   6.530   6.684
  763SOL    HW2 3189   4.815   6.510   6.841
  764SOL     OW 3190   5.674   1.105   5.635
  764SOL    HW1 3191   5.634   1.194   5.655
  764SOL    HW2 3192   5.611   1.052   5.578
  765SOL     OW 3193   1.876   6.306   0.656
  765SOL    HW1 3194   1.920   6.323   0.568
  765SOL    HW2 3195   1.790   6.257   0.642
  766SOL     OW 3196   2.923   2.467   5.339
  766SOL    HW1 3197   2.891   2.381   5.381
  766SOL    HW2 3198   3.005   2.449   5.285
  767SOL     OW 3199   6.250   6.336   3.664
  767SOL    HW1 3200   6.247   6.435   3.648
  767SOL    HW2 3201   6.170   6.294   3.620
  768SOL     OW 3202   2.114   5.771   3.595
  768SOL    HW1 3203   2.080   5.714   3.669
  768SOL    HW2 3204   2.184   5.722   3.544
  769SOL     OW 3205   3.216   1.492   5.213
  769SOL    HW1 3206   3.298   1.534   5.174
  769SOL    HW2 3207   3.139   1.555   5.204
  770SOL     OW 3208   1.564   4.767   4.206
  770SOL    HW1 3209   1.640   4.831   4.201
  770SOL    HW2 3210   1.531   4.762   4.300
  771SOL     OW 3211   1.049   4.695   3.119
  771SOL    HW1 3212   1.113   4.772   3.117
  771SOL    HW2 3213   1.045   4.658   3.211
  772SOL     OW 3214   5.688   4.297   6.196
  772SOL    HW1 3215   5.665   4.307   6.099
  772SOL    HW2 3216   5.702   4.200   6.217
  773SOL     OW 3217   0.518   3.811   2.579
  773SOL    HW1 3218   0.555   3.805   2.486
  773SOL    HW2 3219   0.423   3.843   2.576
  774SOL     OW 3220   1.946   1.086   2.648
  774SOL    HW1 3221   1.865   1.126   2.604
  774SOL    HW2 3222   2.027   1.106   2.594
  775SOL     OW 3223   2.343   1.971   4.521
  775SOL    HW1 3224   2.275   2.042   4.540
  775SOL    HW2 3225   2.297   1.889   4.487
  776SOL     OW 3226   0.092   0.462   6.333
  776SOL    HW1 3227   0.153   0.384   6.321
  776SOL    HW2 3228   0.097   0.522   6.252
  777SOL     OW 3229   1.499   4.005   1.186
  777SOL    HW1 3230   1.491   3.947   1.267
  777SOL    HW2 3231   1.413   4.002   1.134
  778SOL     OW 3232   2.409   0.133   1.456
  778SOL    HW1 3233   2.392   0.035   1.456
  778SOL    HW2 3234   2.494   0.152   1.407
  779SOL     OW 3235   6.569   1.989   1.820
  779SOL    HW1 3236   6.661   1.950   1.829
  779SOL    HW2 3237   6.573   2.087   1.841
  780SOL     OW 3238   0.863   2.402   4.483
  780SOL    HW1 3239   0.931   2.441   4.421
  780SOL    HW2 3240   0.783   2.461   4.487
  781SOL     OW 3241   6.740   5.152   0.694
  781SOL    HW1 3242   6.717   5.153   0.597
  781SOL    HW2 3243   6.837   5.173   0.705
  782SOL     OW 3244   2.262   3.780   5.611
  782SOL    HW1 3245   2.253   3.768   5.512
  782SOL    HW2 3246   2.176   3.815   5.649
  783SOL     OW 3247   5.895   4.601   1.644
  783SOL    HW1 3248   5.909   4.514   1.596
  783SOL    HW2 3249   5.822   4.653   1.599
  784SOL     OW 3250   3.071   5.449   1.754
  784SOL    HW1 3251   3.134   5.463   1.830
  784SOL    HW2 3252   2.992   5.396   1.784
  785SOL     OW 3253   0.499   1.565   3.806
  785SOL    HW1 3254   0.419   1.622   3.791
  785SOL    HW2 3255   0.577   1.622   3.831
  786SOL     OW 3256   0.076   0.957   2.479
  786SOL    HW1 3257   0.061   1.010   2.562
  786SOL    HW2 3258   0.174   0.940   2.469
  787SOL     OW 3259   2.367   6.881   6.650
  787SOL    HW1 3260   2.415   6.907   6.567
  787SOL    HW2 3261   2.357   6.782   6.653
  788SOL     OW 3262   3.834   2.770   1.544
  788SOL    HW1 3263   3.858   2.681   1.583
  788SOL    HW2 3264   3.840   2.765   1.444
  789SOL     OW 3265   4.433   5.712   2.445
  789SOL    HW1 3266   4.353   5.656   2.467
  789SOL    HW2 3267   4.428   5.799   2.493
  790SOL     OW 3268   2.208   1.156   1.636
  790SOL    HW1 3269   2.110   1.164   1.623
  790SOL    HW2 3270   2.252   1.240   1.604
  791SOL     OW 3271   2.560   6.224   5.349
  791SOL    HW1 3272   2.496   6.214   5.425
  791SOL    HW2 3273   2.526   6.296   5.288
  792SOL     OW 3274   0.632   1.157   1.652
  792SOL    HW1 3275   0.694   1.093   1.698
  792SOL    HW2 3276   0.685   1.213   1.588
  793SOL     OW 3277   4.884   5.925   4.909
  793SOL    HW1 3278   4.900   5.827   4.919
  793SOL    HW2 3279   4.786   5.942   4.897
  794SOL     OW 3280   3.492   3.608   5.767
  794SOL    HW1 3281   3.445   3.663   5.836
  794SOL    HW2 3282   3.426   3.579   5.697
  795SOL     OW 3283   3.822   0.496   5.879
  795SOL    HW1 3284   3.756   0.516   5.806
  795SOL    HW2 3285   3.914   0.495   5.841
  796SOL     OW 3286   1.850   3.106   0.420
  796SOL    HW1 3287   1.882   3.012   0.425
  796SOL    HW2 3288   1.774   3.112   0.355
  797SOL     OW 3289   4.395   0.239   0.622
  797SOL    HW1 3290   4.317   0.292   0.588
  797SOL    HW2 3291   4.479   0.277   0.585
  798SOL     OW 3292   2.960   6.159   1.355
  798SOL    HW1 3293   2.883   6.117   1.403
  798SOL    HW2 3294   2.939   6.167   1.258
  799SOL     OW 3295   0.203   1.649   6.355
  799SOL    HW1 3296   0.220   1.680   6.448
  799SOL    HW2 3297   0.247   1.560   6.341
  800SOL     OW 3298   6.492   2.002   2.563
  800SOL    HW1 3299   6.443   2.087   2.579
  800SOL    HW2 3300   6.552   1.983   2.641
  801SOL     OW 3301   2.185   4.284   5.101
  801SOL    HW1 3302   2.096   4.298   5.058
  801SOL    HW2 3303   2.207   4.186   5.100
  802SOL     OW 3304   3.936   2.397   6.980
  802SOL    HW1 3305   3.897   2.369   0.042
  802SOL    HW2 3306   3.886   2.477   6.945
  803SOL     OW 3307   1.919   6.816   5.965
  803SOL    HW1 3308   1.947   6.880   5.893
  803SOL    HW2 3309   1.821   6.825   5.980
  804SOL     OW 3310   6.721   6.573   1.896
  804SOL    HW1 3311   6.774   6.595   1.814
  804SOL    HW2 3312   6.624   6.593   1.879
  805SOL     OW 3313   1.458   0.262   4.196
  805SOL    HW1 3314   1.483   0.325   4.269
  805SOL    HW2 3315   1.408   0.311   4.125
  806SOL     OW 3316   6.704   0.459   5.836
  806SOL    HW1 3317   6.641   0.419   5.904
  806SOL    HW2 3318   6.735   0.388   5.774
  807SOL     OW 3319   0.520   0.175   3.866
  807SOL    HW1 3320   0.425   0.155   3.841
  807SOL    HW2 3321   0.557   0.244   3.804
  808SOL     OW 3322   5.412   2.682   6.993
  808SOL    HW1 3323   5.457   2.601   6.956
  808SOL    HW2 3324   5.320   2.657   7.024
  809SOL     OW 3325   0.922   4.940   0.557
  809SOL    HW1 3326   0.836   4.915   0.602
  809SOL    HW2 3327   0.922   4.905   0.464
  810SOL     OW 3328   2.714   3.345   0.404
  810SOL    HW1 3329   2.673   3.260   0.370
  810SOL    HW2 3330   2.814   3.335   0.408
  811SOL     OW 3331   5.770   5.270   4.410
  811SOL    HW1 3332   5.724   5.281   4.322
  811SOL    HW2 3333   5.707   5.296   4.484
  812SOL     OW 3334   0.531   1.914   2.213
  812SOL    HW1 3335   0.492   1.998   2.175
  812SOL    HW2 3336   0.617   1.935   2.259
  813SOL     OW 3337   2.896   6.978   4.513
  813SOL    HW1 3338   2.848   6.961   4.427
  813SOL    HW2 3339   2.980   0.003   4.495
  814SOL     OW 3340   6.267   5.774   2.399
  814SOL    HW1 3341   6.319   5.829   2.334
  814SOL    HW2 3342   6.266   5.819   2.488
  815SOL     OW 3343   5.298   2.603   3.404
  815SOL    HW1 3344   5.229   2.672   3.381
  815SOL    HW2 3345   5.286   2.523   3.345
  816SOL     OW 3346   4.469   4.738   0.182
  816SOL    HW1 3347   4.463   4.806   0.109
  816SOL    HW2 3348   4.549   4.680   0.167
  817SOL     OW 3349   1.000   5.055   1.576
  817SOL    HW1 3350   1.039   5.044   1.667
  817SOL    HW2 3351   0.917   5.110   1.581
  818SOL     OW 3352   5.637   2.624   3.978
  818SOL    HW1 3353   5.715   2.646   4.035
  818SOL    HW2 3354   5.555   2.615   4.034
  819SOL     OW 3355   5.655   2.962   1.769
  819SOL    HW1 3356   5.610   3.003   1.848
  819SOL    HW2 3357   5.615   2.872   1.751
  820SOL     OW 3358   3.278   1.850   4.673
  820SOL    HW1 3359   3.351   1.906   4.636
  820SOL    HW2 3360   3.201   1.908   4.700
  821SOL     OW 3361   5.745   4.934   5.365
  821SOL    HW1 3362   5.729   4.897   5.457
  821SOL    HW2 3363   5.790   4.864   5.309
  822SOL     OW 3364   0.479   4.294   3.041
  822SOL    HW1 3365   0.563   4.314   3.092
  822SOL    HW2 3366   0.501   4.242   2.959
  823SOL     OW 3367   6.139   4.458   6.047
  823SOL    HW1 3368   6.161   4.388   5.979
  823SOL    HW2 3369   6.114   4.415   6.133
  824SOL     OW 3370   5.334   1.095   5.565
  824SOL    HW1 3371   5.392   1.159   5.516
  824SOL    HW2 3372   5.389   1.043   5.631
  825SOL     OW 3373   6.408   5.792   0.357
  825SOL    HW1 3374   6.331   5.838   0.312
  825SOL    HW2 3375   6.373   5.735   0.431
  826SOL     OW 3376   3.509   2.314   5.606
  826SOL    HW1 3377   3.486   2.400   5.561
  826SOL    HW2 3378   3.427   2.274   5.648
  827SOL     OW 3379   2.946   4.275   5.286
  827SOL    HW1 3380   2.867   4.273   5.347
  827SOL    HW2 3381   2.940   4.354   5.226
  828SOL     OW 3382   6.383   5.921   5.883
  828SOL    HW1 3383   6.366   5.960   5.974
  828SOL    HW2 3384   6.480   5.897   5.875
  829SOL     OW 3385   3.084   3.186   2.018
  829SOL    HW1 3386   3.074   3.134   2.103
  829SOL    HW2 3387   3.174   3.229   2.015
  830SOL     OW 3388   5.825   4.840   6.812
  830SOL    HW1 3389   5.844   4.776   6.738
  830SOL    HW2 3390   5.894   4.912   6.813
  831SOL     OW 3391   6.441   6.822   1.394
  831SOL    HW1 3392   6.493   6.851   1.313
  831SOL    HW2 3393   6.482   6.739   1.432
  832SOL     OW 3394   4.505   1.223   4.640
  832SOL    HW1 3395   4.590   1.276   4.646
  832SOL    HW2 3396   4.524   1.135   4.596
  833SOL     OW 3397   1.776   3.552   6.639
  833SOL    HW1 3398   1.737   3.562   6.548
  833SOL    HW2 3399   1.814   3.640   6.669
  834SOL     OW 3400   5.177   2.844   0.398
  834SOL    HW1 3401   5.089   2.886   0.375
  834SOL    HW2 3402   5.184   2.832   0.497
  835SOL     OW 3403   2.110   0.480   5.129
  835SOL    HW1 3404   2.163   0.521   5.203
  835SOL    HW2 3405   2.170   0.424   5.072
  836SOL     OW 3406   2.978   1.012   5.294
  836SOL    HW1 3407   3.041   1.082   5.260
  836SOL    HW2 3408   3.027   0.926   5.309
  837SOL     OW 3409   1.129   7.005   0.710
  837SOL    HW1 3410   1.041   0.001   0.668
  837SOL    HW2 3411   1.158   6.913   0.683
  838SOL     OW 3412   2.092   6.211   4.183
  838SOL    HW1 3413   2.009   6.238   4.232
  838SOL    HW2 3414   2.158   6.285   4.186
  839SOL     OW 3415   2.283   1.433   1.583
  839SOL    HW1 3416   2.378   1.448   1.558
  839SOL    HW2 3417   2.224   1.462   1.508
  840SOL     OW 3418   6.329   5.257   6.677
  840SOL    HW1 3419   6.248   5.223   6.630
  840SOL    HW2 3420   6.309   5.267   6.775
  841SOL     OW 3421   3.691   5.899   6.110
  841SOL    HW1 3422   3.731   5.812   6.139
  841SOL    HW2 3423   3.715   5.916   6.015
  842SOL     OW 3424   3.429   6.338   6.981
  842SOL    HW1 3425   3.397   6.339   0.051
  842SOL    HW2 3426   3.358   6.298   6.923
  843SOL     OW 3427   2.182   1.603   2.044
  843SOL    HW1 3428   2.090   1.570   2.025
  843SOL    HW2 3429   2.238   1.595   1.961
  844SOL     OW 3430   0.168   6.415   1.414
  844SOL    HW1 3431   0.208   6.323   1.405
  844SOL    HW2 3432   0.152   6.454   1.324
  845SOL     OW 3433   5.082   2.765   3.361
  845SOL    HW1 3434   5.076   2.841   3.425
  845SOL    HW2 3435   4.997   2.758   3.309
  846SOL     OW 3436   3.122   0.645   6.550
  846SOL    HW1 3437   3.110   0.647   6.649
  846SOL    HW2 3438   3.217   0.626   6.528
  847SOL     OW 3439   2.037   3.291   2.048
  847SOL    HW1 3440   2.106   3.363   2.048
  847SOL    HW2 3441   2.034   3.247   2.138
  848SOL     OW 3442   6.733   6.922   5.754
  848SOL    HW1 3443   6.775   6.924   5.663
  848SOL    HW2 3444   6.685   7.009   5.770
  849SOL     OW 3445   6.248   3.911   6.702
  849SOL    HW1 3446   6.188   3.988   6.723
  849SOL    HW2 3447   6.275   3.915   6.606
  850SOL     OW 3448   0.246   0.011   4.977
  850SOL    HW1 3449   0.254   0.110   4.968
  850SOL    HW2 3450   0.274   6.993   4.891
  851SOL     OW 3451   6.410   2.791   6.956
  851SOL    HW1 3452   6.480   2.859   6.979
  851SOL    HW2 3453   6.406   2.721   0.002
  852SOL     OW 3454   0.394   4.575   0.781
  852SOL    HW1 3455   0.324   4.609   0.843
  852SOL    HW2 3456   0.362   4.582   0.687
  853SOL     OW 3457   1.819   4.154   6.321
  853SOL    HW1 3458   1.880   4.101   6.379
  853SOL    HW2 3459   1.752   4.202   6.378
  854SOL     OW 3460   5.461   6.446   0.191
  854SOL    HW1 3461   5.368   6.469   0.165
  854SOL    HW2 3462   5.471   6.347   0.197
  855SOL     OW 3463   6.116   0.269   0.763
  855SOL    HW1 3464   6.143   0.357   0.723
  855SOL    HW2 3465   6.191   0.203   0.753
  856SOL     OW 3466   1.569   0.638   5.846
  856SOL    HW1 3467   1.480   0.596   5.864
  856SOL    HW2 3468   1.637   0.600   5.909
  857SOL     OW 3469   6.701   5.660   1.770
  857SOL    HW1 3470   6.714   5.561   1.759
  857SOL    HW2 3471   6.604   5.681   1.764
  858SOL     OW 3472   3.189   4.163   1.033
  858SOL    HW1 3473   3.174   4.252   1.075
  858SOL    HW2 3474   3.178   4.170   0.934
  859SOL     OW 3475   5.512   6.113   5.401
  859SOL    HW1 3476   5.473   6.021   5.402
  859SOL    HW2 3477   5.524   6.143   5.306
  860SOL     OW 3478   5.915   2.881   6.636
  860SOL    HW1 3479   5.830   2.833   6.658
  860SOL    HW2 3480   5.950   2.849   6.547
  861SOL     OW 3481   2.445   5.460   3.109
  861SOL    HW1 3482   2.451   5.500   3.200
  861SOL    HW2 3483   2.353   5.424   3.095
  862SOL     OW 3484   2.259   4.940   3.366
  862SOL    HW1 3485   2.247   4.849   3.406
  862SOL    HW2 3486   2.197   5.005   3.412
  863SOL     OW 3487   5.874   1.331   5.968
  863SOL    HW1 3488   5.852   1.381   5.884
  863SOL    HW2 3489   5.967   1.293   5.960
  864SOL     OW 3490   3.865   6.697   5.306
  864SOL    HW1 3491   3.958   6.735   5.300
  864SOL    HW2 3492   3.800   6.763   5.268
  865SOL     OW 3493   2.172   0.389   5.568
  865SOL    HW1 3494   2.210   0.470   5.524
  865SOL    HW2 3495   2.221   0.308   5.536
  866SOL     OW 3496   3.714   6.786   0.898
  866SOL    HW1 3497   3.712   6.712   0.964
  866SOL    HW2 3498   3.621   6.805   0.865
  867SOL     OW 3499   5.067   3.063   0.715
  867SOL    HW1 3500   5.112   2.976   0.696
  867SOL    HW2 3501   5.110   3.135   0.660
  868SOL     OW 3502   0.148   1.575   2.313
  868SOL    HW1 3503   0.179   1.640   2.244
  868SOL    HW2 3504   0.139   1.621   2.401
  869SOL     OW 3505   6.646   3.983   3.082
  869SOL    HW1 3506   6.644   4.082   3.071
  869SOL    HW2 3507   6.625   3.959   3.177
  870SOL     OW 3508   4.459   4.395   1.206
  870SOL    HW1 3509   4.403   4.329   1.256
  870SOL    HW2 3510   4.546   4.407   1.253
  871SOL     OW 3511   5.225   2.479   3.789
  871SOL    HW1 3512   5.313   2.431   3.782
  871SOL    HW2 3513   5.181   2.479   3.699
  872SOL     OW 3514   7.016   2.137   4.482
  872SOL    HW1 3515   0.046   2.195   4.423
  872SOL    HW2 3516   6.951   2.085   4.426
  873SOL     OW 3517   4.186   5.816   5.365
  873SOL    HW1 3518   4.109   5.802   5.426
  873SOL    HW2 3519   4.163   5.784   5.273
  874SOL     OW 3520   6.184   4.188   0.675
  874SOL    HW1 3521   6.154   4.261   0.614
  874SOL    HW2 3522   6.233   4.119   0.623
  875SOL     OW 3523   4.996   5.280   0.917
  875SOL    HW1 3524   4.905   5.271   0.878
  875SOL    HW2 3525   4.989   5.307   1.013
  876SOL     OW 3526   0.673   5.637   1.413
  876SOL    HW1 3527   0.620   5.662   1.494
  876SOL    HW2 3528   0.661   5.707   1.343
  877SOL     OW 3529   3.402   4.435   5.670
  877SOL    HW1 3530   3.418   4.341   5.700
  877SOL    HW2 3531   3.307   4.459   5.689
  878SOL     OW 3532   4.479   6.821   3.702
  878SOL    HW1 3533   4.569   6.778   3.709
  878SOL    HW2 3534   4.409   6.757   3.734
  879SOL     OW 3535   3.660   0.544   1.705
  879SOL    HW1 3536   3.626   0.612   1.641
  879SOL    HW2 3537   3.599   0.464   1.705
  880SOL     OW 3538   3.543   3.578   3.746
  880SOL    HW1 3539   3.602   3.639   3.693
  880SOL    HW2 3540   3.455   3.623   3.762
  881SOL     OW 3541   5.305   2.902   4.759
  881SOL    HW1 3542   5.291   2.991   4.716
  881SOL    HW2 3543   5.218   2.867   4.793
  882SOL     OW 3544   1.054   3.420   3.955
  882SOL    HW1 3545   0.955   3.417   3.941
  882SOL    HW2 3546   1.097   3.343   3.908
  883SOL     OW 3547   3.041   0.891   1.497
  883SOL    HW1 3548   2.989   0.834   1.560
  883SOL    HW2 3549   3.133   0.907   1.534
  884SOL     OW 3550   5.709   3.569   5.564
  884SOL    HW1 3551   5.704   3.624   5.481
  884SOL    HW2 3552   5.628   3.586   5.621
  885SOL     OW 3553   3.309   1.017   4.977
  885SOL    HW1 3554   3.245   1.092   4.994
  885SOL    HW2 3555   3.281   0.968   4.894
  886SOL     OW 3556   3.332   6.863   6.794
  886SOL    HW1 3557   3.406   6.921   6.829
  886SOL    HW2 3558   3.360   6.767   6.796
  887SOL     OW 3559   3.803   6.739   3.635
  887SOL    HW1 3560   3.755   6.742   3.722
  887SOL    HW2 3561   3.899   6.762   3.649
  888SOL     OW 3562   6.795   5.958   3.681
  888SOL    HW1 3563   6.865   5.918   3.622
  888SOL    HW2 3564   6.826   5.957   3.775
  889SOL     OW 3565   7.004   2.756   0.454
  889SOL    HW1 3566   0.022   2.780   0.367
  889SOL    HW2 3567   6.909   2.730   0.438
  890SOL     OW 3568   1.492   5.174   2.682
  890SOL    HW1 3569   1.423   5.200   2.750
  890SOL    HW2 3570   1.467   5.087   2.640
  891SOL     OW 3571   5.696   4.344   1.532
  891SOL    HW1 3572   5.666   4.290   1.453
  891SOL    HW2 3573   5.655   4.435   1.528
  892SOL     OW 3574   2.600   3.889   5.318
  892SOL    HW1 3575   2.686   3.907   5.271
  892SOL    HW2 3576   2.523   3.915   5.258
  893SOL     OW 3577   2.169   6.217   3.282
  893SOL    HW1 3578   2.223   6.268   3.215
  893SOL    HW2 3579   2.072   6.242   3.273
  894SOL     OW 3580   0.680   3.036   1.632
  894SOL    HW1 3581   0.761   3.086   1.601
  894SOL    HW2 3582   0.703   2.940   1.645
  895SOL     OW 3583   1.039   5.141   3.946
  895SOL    HW1 3584   0.986   5.066   3.986
  895SOL    HW2 3585   1.103   5.176   4.014
  896SOL     OW 3586   5.236   4.589   1.242
  896SOL    HW1 3587   5.206   4.670   1.292
  896SOL    HW2 3588   5.260   4.615   1.148
  897SOL     OW 3589   4.120   1.411   6.631
  897SOL    HW1 3590   4.104   1.467   6.712
  897SOL    HW2 3591   4.035   1.405   6.578
  898SOL     OW 3592   3.552   6.414   3.115
  898SOL    HW1 3593   3.457   6.430   3.141
  898SOL    HW2 3594   3.555   6.341   3.046
  899SOL     OW 3595   0.303   6.943   0.152
  899SOL    HW1 3596   0.285   6.871   0.085
  899SOL    HW2 3597   0.398   6.972   0.144
  900SOL     OW 3598   6.027   6.957   0.520
  900SOL    HW1 3599   6.104   6.936   0.580
  900SOL    HW2 3600   6.060   6.967   0.426
  901SOL     OW 3601   2.208   6.776   3.605
  901SOL    HW1 3602   2.259   6.838   3.665
  901SOL    HW2 3603   2.179   6.826   3.523
  902SOL     OW 3604   1.064   1.881   0.873
  902SOL    HW1 3605   1.037   1.975   0.852
  902SOL    HW2 3606   1.016   1.849   0.955
  903SOL     OW 3607   0.472   2.448   6.340
  903SOL    HW1 3608   0.396   2.513   6.343
  903SOL    HW2 3609   0.550   2.486   6.389
  904SOL     OW 3610   2.102   2.116   2.498
  904SOL    HW1 3611   2.143   2.054   2.430
  904SOL    HW2 3612   2.149   2.105   2.586
  905SOL     OW 3613   5.004   2.081   6.451
  905SOL    HW1 3614   5.038   2.173   6.428
  905SOL    HW2 3615   5.059   2.044   6.527
  906SOL     OW 3616   6.935   2.043   6.851
  906SOL    HW1 3617   6.964   1.955   6.887
  906SOL    HW2 3618   6.975   2.058   6.761
  907SOL     OW 3619   5.519   3.063   0.948
  907SOL    HW1 3620   5.547   3.111   0.864
  907SOL    HW2 3621   5.559   2.971   0.949
  908SOL     OW 3622   2.671   4.643   2.869
  908SOL    HW1 3623   2.661   4.732   2.914
  908SOL    HW2 3624   2.676   4.657   2.770
  909SOL     OW 3625   4.362   6.205   1.302
  909SOL    HW1 3626   4.278   6.216   1.249
  909SOL    HW2 3627   4.402   6.295   1.319
  910SOL     OW 3628   3.551   2.044   0.894
  910SOL    HW1 3629   3.479   2.030   0.962
  910SOL    HW2 3630   3.633   1.995   0.921
  911SOL     OW 3631   0.938   6.203   6.215
  911SOL    HW1 3632   0.948   6.268   6.139
  911SOL    HW2 3633   0.846   6.166   6.215
  912SOL     OW 3634   6.335   2.753   3.117
  912SOL    HW1 3635   6.412   2.814   3.100
  912SOL    HW2 3636   6.369   2.662   3.140
  913SOL     OW 3637   3.722   7.021   3.159
  913SOL    HW1 3638   3.724   6.932   3.114
  913SOL    HW2 3639   3.814   0.035   3.161
  914SOL     OW 3640   2.275   0.499   6.354
  914SOL    HW1 3641   2.340   0.489   6.430
  914SOL    HW2 3642   2.302   0.437   6.280
  915SOL     OW 3643   6.119   4.208   6.941
  915SOL    HW1 3644   6.056   4.131   6.938
  915SOL    HW2 3645   6.124   4.244   0.009
  916SOL     OW 3646   1.549   2.729   1.799
  916SOL    HW1 3647   1.522   2.648   1.851
  916SOL    HW2 3648   1.647   2.724   1.778
  917SOL     OW 3649   0.460   6.861   1.506
  917SOL    HW1 3650   0.441   6.770   1.470
  917SOL    HW2 3651   0.375   6.903   1.537
  918SOL     OW 3652   3.498   0.458   0.647
  918SOL    HW1 3653   3.506   0.404   0.563
  918SOL    HW2 3654   3.526   0.403   0.725
  919SOL     OW 3655   6.001   1.657   2.646
  919SOL    HW1 3656   5.980   1.731   2.582
  919SOL    HW2 3657   6.013   1.694   2.738
  920SOL     OW 3658   2.369   4.147   1.788
  920SOL    HW1 3659   2.281   4.142   1.741
  920SOL    HW2 3660   2.385   4.063   1.839
  921SOL     OW 3661   4.481   5.884   4.193
  921SOL    HW1 3662   4.404   5.880   4.257
  921SOL    HW2 3663   4.557   5.932   4.236
  922SOL     OW 3664   3.751   3.301   4.164
  922SOL    HW1 3665   3.675   3.236   4.158
  922SOL    HW2 3666   3.762   3.348   4.076
  923SOL     OW 3667   2.094   3.374   6.986
  923SOL    HW1 3668   2.047   3.333   6.908
  923SOL    HW2 3669   2.124   3.301   0.023
  924SOL     OW 3670   6.598   3.839   1.579
  924SOL    HW1 3671   6.569   3.790   1.661
  924SOL    HW2 3672   6.552   3.801   1.499
  925SOL     OW 3673   0.290   2.679   0.327
  925SOL    HW1 3674   0.335   2.767   0.312
  925SOL    HW2 3675   0.267   2.669   0.423
  926SOL     OW 3676   6.248   1.169   1.190
  926SOL    HW1 3677   6.247   1.173   1.090
  926SOL    HW2 3678   6.164   1.125   1.222
  927SOL     OW 3679   5.400   3.479   3.150
  927SOL    HW1 3680   5.420   3.415   3.225
  927SOL    HW2 3681   5.310   3.459   3.113
  928SOL     OW 3682   2.283   6.199   0.344
  928SOL    HW1 3683   2.299   6.161   0.434
  928SOL    HW2 3684   2.270   6.126   0.278
  929SOL     OW 3685   0.506   0.787   0.113
  929SOL    HW1 3686   0.481   0.870   0.065
  929SOL    HW2 3687   0.518   0.712   0.048
  930SOL     OW 3688   5.563   6.875   6.214
  930SOL    HW1 3689   5.552   6.815   6.293
  930SOL    HW2 3690   5.574   6.970   6.244
  931SOL     OW 3691   6.825   1.216   4.643
  931SOL    HW1 3692   6.902   1.162   4.606
  931SOL    HW2 3693   6.747   1.208   4.582
  932SOL     OW 3694   2.800   1.096   2.939
  932SOL    HW1 3695   2.767   1.042   2.861
  932SOL    HW2 3696   2.761   1.060   3.023
  933SOL     OW 3697   1.275   4.856   3.073
  933SOL    HW1 3698   1.361   4.861   3.123
  933SOL    HW2 3699   1.293   4.844   2.975
  934SOL     OW 3700   2.594   5.769   6.363
  934SOL    HW1 3701   2.599   5.683   6.413
  934SOL    HW2 3702   2.669   5.775   6.298
  935SOL     OW 3703   5.391   4.413   4.526
  935SOL    HW1 3704   5.487   4.392   4.510
  935SOL    HW2 3705   5.348   4.442   4.441
  936SOL     OW 3706   0.812   6.799   6.155
  936SOL    HW1 3707   0.787   6.799   6.058
  936SOL    HW2 3708   0.911   6.801   6.164
  937SOL     OW 3709   5.684   1.567   6.479
  937SOL    HW1 3710   5.629   1.603   6.403
  937SOL    HW2 3711   5.775   1.544   6.445
  938SOL     OW 3712   6.208   5.324   5.055
  938SOL    HW1 3713   6.196   5.390   5.129
  938SOL    HW2 3714   6.178   5.234   5.086
  939SOL     OW 3715   0.158   6.722   3.395
  939SOL    HW1 3716   0.072   6.716   3.446
  939SOL    HW2 3717   0.221   6.783   3.444
  940SOL     OW 3718   0.465   3.563   0.413
  940SOL    HW1 3719   0.531   3.530   0.344
  940SOL    HW2 3720   0.378   3.582   0.368
  941SOL     OW 3721   5.414   0.540   0.428
  941SOL    HW1 3722   5.377   0.565   0.518
  941SOL    HW2 3723   5.427   0.440   0.424
  942SOL     OW 3724   5.767   0.383   2.366
  942SOL    HW1 3725   5.769   0.326   2.448
  942SOL    HW2 3726   5.856   0.378   2.320
  943SOL     OW 3727   1.200   4.900   2.350
  943SOL    HW1 3728   1.141   4.854   2.417
  943SOL    HW2 3729   1.258   4.833   2.304
  944SOL     OW 3730   0.231   5.875   5.215
  944SOL    HW1 3731   0.273   5.962   5.187
  944SOL    HW2 3732   0.275   5.800   5.165
  945SOL     OW 3733   0.400   4.916   5.912
  945SOL    HW1 3734   0.430   4.965   5.830
  945SOL    HW2 3735   0.388   4.981   5.987
  946SOL     OW 3736   4.831   4.122   4.737
  946SOL    HW1 3737   4.847   4.177   4.819
  946SOL    HW2 3738   4.856   4.027   4.755
  947SOL     OW 3739   3.656   3.234   3.708
  947SOL    HW1 3740   3.703   3.302   3.652
  947SOL    HW2 3741   3.699   3.145   3.696
  948SOL     OW 3742   4.301   1.191   3.043
  948SOL    HW1 3743   4.238   1.171   3.118
  948SOL    HW2 3744   4.288   1.123   2.971
  949SOL     OW 3745   2.978   5.836   0.265
  949SOL    HW1 3746   2.893   5.836   0.211
  949SOL    HW2 3747   2.979   5.757   0.325
  950SOL     OW 3748   6.238   5.472   2.571
  950SOL    HW1 3749   6.217   5.553   2.517
  950SOL    HW2 3750   6.291   5.498   2.652
  951SOL     OW 3751   1.143   0.012   3.691
  951SOL    HW1 3752   1.091   0.020   3.606
  951SOL    HW2 3753   1.232   0.056   3.679
  952SOL     OW 3754   4.639   2.571   2.618
  952SOL    HW1 3755   4.669   2.573   2.713
  952SOL    HW2 3756   4.683   2.645   2.568
  953SOL     OW 3757   5.997   5.141   4.557
  953SOL    HW1 3758   6.037   5.215   4.611
  953SOL    HW2 3759   5.906   5.168   4.526
  954SOL     OW 3760   3.504   6.177   2.233
  954SOL    HW1 3761   3.539   6.099   2.181
  954SOL    HW2 3762   3.525   6.262   2.185
  955SOL     OW 3763   1.782   4.322   0.369
  955SOL    HW1 3764   1.777   4.286   0.462
  955SOL    HW2 3765   1.848   4.397   0.366
  956SOL     OW 3766   6.552   0.634   1.889
  956SOL    HW1 3767   6.574   0.728   1.914
  956SOL    HW2 3768   6.632   0.590   1.848
  957SOL     OW 3769   5.795   2.121   1.857
  957SOL    HW1 3770   5.816   2.189   1.927
  957SOL    HW2 3771   5.880   2.083   1.821
  958SOL     OW 3772   4.164   6.829   1.549
  958SOL    HW1 3773   4.071   6.799   1.526
  958SOL    HW2 3774   4.160   6.898   1.621
  959SOL     OW 3775   3.202   6.958   5.194
  959SOL    HW1 3776   3.227   6.950   5.290
  959SOL    HW2 3777   3.138   0.009   5.182
  960SOL     OW 3778   1.438   0.070   1.061
  960SOL    HW1 3779   1.351   0.119   1.056
  960SOL    HW2 3780   1.455   0.023   0.975
  961SOL     OW 3781   4.448   6.436   3.184
  961SOL    HW1 3782   4.411   6.488   3.107
  961SOL    HW2 3783   4.375   6.382   3.226
  962SOL     OW 3784   6.469   1.023   4.307
  962SOL    HW1 3785   6.471   1.087   4.230
  962SOL    HW2 3786   6.394   0.957   4.294
  963SOL     OW 3787   4.502   0.973   0.397
  963SOL    HW1 3788   4.445   0.967   0.479
  963SOL    HW2 3789   4.451   0.939   0.318
  964SOL     OW 3790   4.832   4.902   5.651
  964SOL    HW1 3791   4.786   4.987   5.625
  964SOL    HW2 3792   4.931   4.915   5.646
  965SOL     OW 3793   6.359   1.662   2.730
  965SOL    HW1 3794   6.358   1.740   2.794
  965SOL    HW2 3795   6.337   1.694   2.638
  966SOL     OW 3796   5.604   3.220   3.549
  966SOL    HW1 3797   5.609   3.133   3.500
  966SOL    HW2 3798   5.692   3.267   3.543
  967SOL     OW 3799   2.955   4.615   0.176
  967SOL    HW1 3800   2.883   4.549   0.199
  967SOL    HW2 3801   2.958   4.627   0.076
  968SOL     OW 3802   3.882   6.682   1.543
  968SOL    HW1 3803   3.879   6.595   1.494
  968SOL    HW2 3804   3.842   6.671   1.634
  969SOL     OW 3805   2.354   4.942   5.672
  969SOL    HW1 3806   2.433   4.985   5.630
  969SOL    HW2 3807   2.343   4.849   5.635
  970SOL     OW 3808   5.236   0.424   6.333
  970SOL    HW1 3809   5.240   0.432   6.233
  970SOL    HW2 3810   5.289   0.344   6.362
  971SOL     OW 3811   6.937   3.606   2.433
  971SOL    HW1 3812   7.010   3.617   2.501
  971SOL    HW2 3813   6.975   3.568   2.349
  972SOL     OW 3814   6.214   2.239   1.811
  972SOL    HW1 3815   6.243   2.335   1.809
  972SOL    HW2 3816   6.205   2.210   1.906
  973SOL     OW 3817   0.973   5.736   6.795
  973SOL    HW1 3818   0.983   5.637   6.811
  973SOL    HW2 3819   0.994   5.785   6.879
  974SOL     OW 3820   0.334   5.631   2.096
  974SOL    HW1 3821   0.261   5.677   2.045
  974SOL    HW2 3822   0.343   5.674   2.186
  975SOL     OW 3823   2.451   6.960   6.893
  975SOL    HW1 3824   2.550   6.951   6.904
  975SOL    HW2 3825   2.424   6.934   6.800
  976SOL     OW 3826   6.989   3.415   1.502
  976SOL    HW1 3827   0.004   3.478   1.568
  976SOL    HW2 3828   0.030   3.398   1.428
  977SOL     OW 3829   0.399   0.448   2.179
  977SOL    HW1 3830   0.309   0.463   2.221
  977SOL    HW2 3831   0.394   0.468   2.081
  978SOL     OW 3832   5.034   1.670   1.233
  978SOL    HW1 3833   5.042   1.768   1.215
  978SOL    HW2 3834   4.937   1.644   1.231
  979SOL     OW 3835   0.821   3.053   0.112
  979SOL    HW1 3836   0.765   3.105   0.048
  979SOL    HW2 3837   0.826   2.958   0.082
  980SOL     OW 3838   4.745   1.311   4.754
  980SOL    HW1 3839   4.821   1.355   4.706
  980SOL    HW2 3840   4.722   1.364   4.836
  981SOL     OW 3841   0.327   1.067   4.461
  981SOL    HW1 3842   0.376   1.008   4.526
  981SOL    HW2 3843   0.393   1.107   4.397
  982SOL     OW 3844   1.171   1.597   5.508
  982SOL    HW1 3845   1.234   1.655   5.559
  982SOL    HW2 3846   1.214   1.567   5.423
  983SOL     OW 3847   0.059   3.562   2.664
  983SOL    HW1 3848   0.133   3.540   2.727
  983SOL    HW2 3849   0.006   3.479   2.645
  984SOL     OW 3850   1.493   2.423   3.105
  984SOL    HW1 3851   1.567   2.485   3.131
  984SOL    HW2 3852   1.524   2.364   3.031
  985SOL     OW 3853   6.867   4.099   4.527
  985SOL    HW1 3854   6.835   4.190   4.499
  985SOL    HW2 3855   6.919   4.059   4.452
  986SOL     OW 3856   4.607   5.170   1.363
  986SOL    HW1 3857   4.525   5.118   1.384
  986SOL    HW2 3858   4.615   5.181   1.263
  987SOL     OW 3859   5.029   6.334   2.367
  987SOL    HW1 3860   5.114   6.292   2.399
  987SOL    HW2 3861   5.033   6.345   2.268
  988SOL     OW 3862   3.292   4.055   1.742
  988SOL    HW1 3863   3.313   4.152   1.753
  988SOL    HW2 3864   3.197   4.039   1.767
  989SOL     OW 3865   6.347   1.887   0.450
  989SOL    HW1 3866   6.392   1.960   0.397
  989SOL    HW2 3867   6.322   1.812   0.389
  990SOL     OW 3868   3.415   1.147   2.139
  990SOL    HW1 3869   3.466   1.097   2.069
  990SOL    HW2 3870   3.414   1.245   2.117
  991SOL     OW 3871   0.224   4.249   4.061
  991SOL    HW1 3872   0.282   4.232   3.982
  991SOL    HW2 3873   0.134   4.281   4.030
  992SOL     OW 3874   0.147   3.303   0.965
  992SOL    HW1 3875   0.134   3.394   0.926
  992SOL    HW2 3876   0.068   3.280   1.023
  993SOL     OW 3877   0.167   4.113   0.283
  993SOL    HW1 3878   0.078   4.136   0.322
  993SOL    HW2 3879   0.154   4.047   0.209
  994SOL     OW 3880   3.736   5.273   2.091
  994SOL    HW1 3881   3.772   5.184   2.063
  994SOL    HW2 3882   3.680   5.311   2.017
  995SOL     OW 3883   4.274   2.889   6.233
  995SOL    HW1 3884   4.200   2.832   6.271
  995SOL    HW2 3885   4.246   2.985   6.236
  996SOL     OW 3886   3.409   5.246   4.965
  996SOL    HW1 3887   3.426   5.151   4.938
  996SOL    HW2 3888   3.337   5.248   5.034
  997SOL     OW 3889   0.969   0.018   3.471
  997SOL    HW1 3890   1.043   6.981   3.445
  997SOL    HW2 3891   0.883   6.993   3.473
  998SOL     OW 3892   6.449   0.107   6.127
  998SOL    HW1 3893   6.365   0.062   6.154
  998SOL    HW2 3894   6.527   0.065   6.174
  999SOL     OW 3895   4.914   3.633   1.644
  999SOL    HW1 3896   4.819   3.642   1.673
  999SOL    HW2 3897   4.919   3.588   1.556
 1000SOL     OW 3898   4.107   1.447   1.293
 1000SOL    HW1 3899   4.100   1.546   1.293
 1000SOL    HW2 3900   4.202   1.420   1.274
 1001SOL     OW 3901   3.983   5.972   1.811
 1001SOL    HW1 3902   3.889   5.943   1.830
 1001SOL    HW2 3903   3.993   5.991   1.713
 1002SOL     OW 3904   5.361   2.625   1.385
 1002SOL    HW1 3905   5.456   2.593   1.384
 1002SOL    HW2 3906   5.351   2.701   1.320
 1003SOL     OW 3907   2.029   5.945   3.119
 1003SOL    HW1 3908   2.120   5.982   3.100
 1003SOL    HW2 3909   1.960   6.007   3.083
 1004SOL     OW 3910   0.127   0.971   2.075
 1004SOL    HW1 3911   0.112   1.032   2.153
 1004SOL    HW2 3912   0.078   1.006   1.995
 1005SOL     OW 3913   1.683   4.033   3.889
 1005SOL    HW1 3914   1.748   4.016   3.815
 1005SOL    HW2 3915   1.734   4.063   3.971
 1006SOL     OW 3916   1.504   4.092   0.256
 1006SOL    HW1 3917   1.452   4.139   0.184
 1006SOL    HW2 3918   1.449   4.017   0.293
 1007SOL     OW 3919   4.830   0.674   5.830
 1007SOL    HW1 3920   4.883   0.756   5.849
 1007SOL    HW2 3921   4.883   0.593   5.856
 1008SOL     OW 3922   6.946   3.372   5.369
 1008SOL    HW1 3923   7.007   3.355   5.291
 1008SOL    HW2 3924   6.893   3.289   5.388
 1009SOL     OW 3925   5.910   3.935   5.841
 1009SOL    HW1 3926   5.940   3.933   5.746
 1009SOL    HW2 3927   5.817   3.971   5.846
 1010SOL     OW 3928   2.569   2.631   1.486
 1010SOL    HW1 3929   2.549   2.537   1.514
 1010SOL    HW2 3930   2.504   2.693   1.529
 1011SOL     OW 3931   0.767   5.554   3.615
 1011SOL    HW1 3932   0.835   5.501   3.564
 1011SOL    HW2 3933   0.679   5.507   3.612
 1012SOL     OW 3934   6.903   6.358   2.242
 1012SOL    HW1 3935   6.927   6.265   2.217
 1012SOL    HW2 3936   6.987   6.412   2.253
 1013SOL     OW 3937   6.898   1.296   6.746
 1013SOL    HW1 3938   6.873   1.392   6.737
 1013SOL    HW2 3939   6.873   1.263   6.837
 1014SOL     OW 3940   0.691   3.933   5.229
 1014SOL    HW1 3941   0.667   4.009   5.290
 1014SOL    HW2 3942   0.612   3.872   5.221
 1015SOL     OW 3943   2.550   0.626   6.105
 1015SOL    HW1 3944   2.536   0.528   6.093
 1015SOL    HW2 3945   2.578   0.644   6.199
 1016SOL     OW 3946   4.631   5.191   1.066
 1016SOL    HW1 3947   4.643   5.269   1.004
 1016SOL    HW2 3948   4.555   5.135   1.034
 1017SOL     OW 3949   3.050   1.886   0.952
 1017SOL    HW1 3950   3.132   1.890   1.009
 1017SOL    HW2 3951   3.074   1.906   0.857
 1018SOL     OW 3952   0.716   5.099   4.038
 1018SOL    HW1 3953   0.747   5.193   4.047
 1018SOL    HW2 3954   0.794   5.037   4.046
 1019SOL     OW 3955   6.878   5.500   0.679
 1019SOL    HW1 3956   6.889   5.469   0.773
 1019SOL    HW2 3957   6.864   5.599   0.678
 1020SOL     OW 3958   5.987   1.433   1.421
 1020SOL    HW1 3959   5.944   1.345   1.440
 1020SOL    HW2 3960   5.955   1.500   1.488
 1021SOL     OW 3961   6.237   6.381   1.868
 1021SOL    HW1 3962   6.277   6.400   1.957
 1021SOL    HW2 3963   6.171   6.307   1.877
 1022SOL     OW 3964   3.248   5.351   5.701
 1022SOL    HW1 3965   3.256   5.273   5.763
 1022SOL    HW2 3966   3.151   5.369   5.683
 1023SOL     OW 3967   0.273   0.753   3.143
 1023SOL    HW1 3968   0.272   0.807   3.227
 1023SOL    HW2 3969   0.205   0.679   3.151
 1024SOL     OW 3970   0.693   1.647   4.231
 1024SOL    HW1 3971   0.697   1.677   4.327
 1024SOL    HW2 3972   0.598   1.627   4.208
 1025SOL     OW 3973   4.443   3.038   0.367
 1025SOL    HW1 3974   4.345   3.027   0.347
 1025SOL    HW2 3975   4.489   2.950   0.355
 1026SOL     OW 3976   2.797   2.734   1.609
 1026SOL    HW1 3977   2.817   2.770   1.518
 1026SOL    HW2 3978   2.706   2.693   1.610
 1027SOL     OW 3979   2.141   6.880   1.958
 1027SOL    HW1 3980   2.188   6.962   1.927
 1027SOL    HW2 3981   2.188   6.799   1.922
 1028SOL     OW 3982   1.362   6.780   2.896
 1028SOL    HW1 3983   1.455   6.783   2.861
 1028SOL    HW2 3984   1.303   6.837   2.839
 1029SOL     OW 3985   1.128   1.926   6.277
 1029SOL    HW1 3986   1.202   1.948   6.340
 1029SOL    HW2 3987   1.157   1.948   6.183
 1030SOL     OW 3988   3.387   3.087   1.705
 1030SOL    HW1 3989   3.396   3.073   1.606
 1030SOL    HW2 3990   3.470   3.130   1.740
 1031SOL     OW 3991   4.620   3.438   1.051
 1031SOL    HW1 3992   4.582   3.361   1.104
 1031SOL    HW2 3993   4.547   3.482   0.999
 1032SOL     OW 3994   2.284   1.445   5.526
 1032SOL    HW1 3995   2.227   1.463   5.607
 1032SOL    HW2 3996   2.369   1.400   5.554
 1033SOL     OW 3997   1.335   5.826   1.813
 1033SOL    HW1 3998   1.358   5.729   1.824
 1033SOL    HW2 3999   1.393   5.881   1.873
 1034SOL     OW 4000   1.259   5.930   4.016
 1034SOL    HW1 4001   1.222   6.015   3.980
 1034SOL    HW2 4002   1.196   5.855   3.995
 1035SOL     OW 4003   0.024   2.071   6.606
 1035SOL    HW1 4004   0.115   2.030   6.602
 1035SOL    HW2 4005   0.032   2.169   6.625
 1036SOL     OW 4006   4.255   1.131   1.695
 1036SOL    HW1 4007   4.190   1.163   1.626
 1036SOL    HW2 4008   4.326   1.076   1.652
 1037SOL     OW 4009   1.363   1.873   3.255
 1037SOL    HW1 4010   1.369   1.971   3.275
 1037SOL    HW2 4011   1.357   1.859   3.156
 1038SOL     OW 4012   1.667   1.049   5.848
 1038SOL    HW1 4013   1.674   1.015   5.941
 1038SOL    HW2 4014   1.672   0.972   5.784
 1039SOL     OW 4015   3.049   3.609   3.773
 1039SOL    HW1 4016   3.115   3.651   3.711
 1039SOL    HW2 4017   2.963   3.595   3.725
 1040SOL     OW 4018   4.866   1.235   2.138
 1040SOL    HW1 4019   4.784   1.208   2.189
 1040SOL    HW2 4020   4.862   1.197   2.045
 1041SOL     OW 4021   0.225   6.339   3.084
 1041SOL    HW1 4022   0.211   6.347   3.183
 1041SOL    HW2 4023   0.322   6.354   3.063
 1042SOL     OW 4024   4.418   5.523   2.827
 1042SOL    HW1 4025   4.412   5.435   2.874
 1042SOL    HW2 4026   4.359   5.522   2.746
 1043SOL     OW 4027   3.933   2.197   3.629
 1043SOL    HW1 4028   3.885   2.122   3.584
 1043SOL    HW2 4029   4.031   2.187   3.615
 1044SOL     OW 4030   5.804   5.486   2.087
 1044SOL    HW1 4031   5.890   5.444   2.058
 1044SOL    HW2 4032   5.799   5.489   2.187
 1045SOL     OW 4033   3.757   0.758   2.886
 1045SOL    HW1 4034   3.840   0.805   2.916
 1045SOL    HW2 4035   3.743   0.773   2.788
 1046SOL     OW 4036   1.884   1.974   6.841
 1046SOL    HW1 4037   1.980   1.975   6.814
 1046SOL    HW2 4038   1.878   1.978   6.941
 1047SOL     OW 4039   3.434   0.422   3.731
 1047SOL    HW1 4040   3.374   0.352   3.771
 1047SOL    HW2 4041   3.378   0.498   3.698
 1048SOL     OW 4042   2.681   5.473   2.161
 1048SOL    HW1 4043   2.726   5.512   2.241
 1048SOL    HW2 4044   2.734   5.396   2.126
 1049SOL     OW 4045   5.520   0.107   3.815
 1049SOL    HW1 4046   5.466   0.029   3.786
 1049SOL    HW2 4047   5.492   0.189   3.765
 1050SOL     OW 4048   3.559   5.768   2.288
 1050SOL    HW1 4049   3.562   5.668   2.275
 1050SOL    HW2 4050   3.601   5.791   2.376
 1051SOL     OW 4051   0.445   5.967   0.158
 1051SOL    HW1 4052   0.354   5.992   0.126
 1051SOL    HW2 4053   0.499   6.049   0.177
 1052SOL     OW 4054   4.703   0.973   5.525
 1052SOL    HW1 4055   4.795   0.947   5.494
 1052SOL    HW2 4056   4.641   0.896   5.512
 1053SOL     OW 4057   5.898   4.251   2.584
 1053SOL    HW1 4058   5.822   4.212   2.636
 1053SOL    HW2 4059   5.978   4.261   2.644
 1054SOL     OW 4060   2.569   3.504   0.669
 1054SOL    HW1 4061   2.664   3.503   0.640
 1054SOL    HW2 4062   2.558   3.446   0.750
 1055SOL     OW 4063   4.664   6.019   5.612
 1055SOL    HW1 4064   4.598   6.070   5.557
 1055SOL    HW2 4065   4.651   6.041   5.709
 1056SOL     OW 4066   0.965   3.418   6.976
 1056SOL    HW1 4067   0.889   3.481   6.957
 1056SOL    HW2 4068   0.964   3.344   6.909
 1057SOL     OW 4069   3.531   2.857   1.343
 1057SOL    HW1 4070   3.530   2.789   1.416
 1057SOL    HW2 4071   3.611   2.916   1.353
 1058SOL     OW 4072   5.044   2.908   3.593
 1058SOL    HW1 4073   4.969   2.962   3.630
 1058SOL    HW2 4074   5.039   2.815   3.630
 1059SOL     OW 4075   2.408   6.636   2.098
 1059SOL    HW1 4076   2.444   6.724   2.128
 1059SOL    HW2 4077   2.399   6.636   1.998
 1060SOL     OW 4078   0.544   4.820   4.499
 1060SOL    HW1 4079   0.522   4.779   4.411
 1060SOL    HW2 4080   0.472   4.885   4.525
 1061SOL     OW 4081   6.294   3.916   6.150
 1061SOL    HW1 4082   6.324   3.839   6.094
 1061SOL    HW2 4083   6.374   3.963   6.188
 1062SOL     OW 4084   4.350   5.654   5.511
 1062SOL    HW1 4085   4.371   5.718   5.585
 1062SOL    HW2 4086   4.306   5.703   5.436
 1063SOL     OW 4087   6.969   6.467   0.370
 1063SOL    HW1 4088   6.974   6.376   0.410
 1063SOL    HW2 4089   7.017   6.532   0.429
 1064SOL     OW 4090   1.182   4.513   1.866
 1064SOL    HW1 4091   1.230   4.510   1.778
 1064SOL    HW2 4092   1.122   4.594   1.868
 1065SOL     OW 4093   3.980   0.158   3.262
 1065SOL    HW1 4094   4.074   0.147   3.229
 1065SOL    HW2 4095   3.969   0.108   3.348
 1066SOL     OW 4096   4.381   6.828   2.332
 1066SOL    HW1 4097   4.478   6.812   2.314
 1066SOL    HW2 4098   4.360   6.925   2.318
 1067SOL     OW 4099   1.906   1.243   6.831
 1067SOL    HW1 4100   1.825   1.226   6.888
 1067SOL    HW2 4101   1.950   1.156   6.809
 1068SOL     OW 4102   6.299   4.010   1.431
 1068SOL    HW1 4103   6.284   4.052   1.520
 1068SOL    HW2 4104   6.260   4.069   1.359
 1069SOL     OW 4105   5.643   5.764   0.779
 1069SOL    HW1 4106   5.703   5.823   0.834
 1069SOL    HW2 4107   5.697   5.689   0.740
 1070SOL     OW 4108   2.057   6.757   2.506
 1070SOL    HW1 4109   2.155   6.777   2.504
 1070SOL    HW2 4110   2.015   6.788   2.420
 1071SOL     OW 4111   2.021   1.981   4.180
 1071SOL    HW1 4112   2.111   2.025   4.181
 1071SOL    HW2 4113   2.007   1.939   4.090
 1072SOL     OW 4114   2.301   1.112   1.240
 1072SOL    HW1 4115   2.350   1.185   1.287
 1072SOL    HW2 4116   2.297   1.132   1.142
 1073SOL     OW 4117   5.092   1.693   3.449
 1073SOL    HW1 4118   5.045   1.614   3.409
 1073SOL    HW2 4119   5.139   1.743   3.377
 1074SOL     OW 4120   2.419   4.782   1.895
 1074SOL    HW1 4121   2.445   4.689   1.923
 1074SOL    HW2 4122   2.416   4.842   1.974
 1075SOL     OW 4123   6.199   1.151   3.411
 1075SOL    HW1 4124   6.190   1.055   3.382
 1075SOL    HW2 4125   6.108   1.192   3.415
 1076SOL     OW 4126   0.445   2.601   5.336
 1076SOL    HW1 4127   0.352   2.606   5.373
 1076SOL    HW2 4128   0.464   2.683   5.282
 1077SOL     OW 4129   6.853   6.093   0.662
 1077SOL    HW1 4130   6.755   6.107   0.650
 1077SOL    HW2 4131   6.878   6.115   0.756
 1078SOL     OW 4132   6.486   0.689   2.815
 1078SOL    HW1 4133   6.412   0.640   2.768
 1078SOL    HW2 4134   6.466   0.693   2.913
 1079SOL     OW 4135   1.082   5.012   1.842
 1079SOL    HW1 4136   1.078   4.915   1.819
 1079SOL    HW2 4137   0.989   5.049   1.846
 1080SOL     OW 4138   2.506   5.828   3.706
 1080SOL    HW1 4139   2.559   5.913   3.713
 1080SOL    HW2 4140   2.428   5.832   3.767
 1081SOL     OW 4141   6.403   5.256   5.319
 1081SOL    HW1 4142   6.408   5.251   5.418
 1081SOL    HW2 4143   6.415   5.351   5.290
 1082SOL     OW 4144   5.794   2.042   6.144
 1082SOL    HW1 4145   5.794   2.012   6.048
 1082SOL    HW2 4146   5.887   2.041   6.179
 1083SOL     OW 4147   4.500   3.007   6.950
 1083SOL    HW1 4148   4.420   3.005   7.010
 1083SOL    HW2 4149   4.553   2.924   6.963
 1084SOL     OW 4150   6.661   6.871   6.521
 1084SOL    HW1 4151   6.706   6.783   6.507
 1084SOL    HW2 4152   6.590   6.884   6.452
 1085SOL     OW 4153   2.122   3.159   3.790
 1085SOL    HW1 4154   2.166   3.076   3.823
 1085SOL    HW2 4155   2.083   3.209   3.867
 1086SOL     OW 4156   6.542   5.192   6.488
 1086SOL    HW1 4157   6.471   5.228   6.549
 1086SOL    HW2 4158   6.610   5.263   6.471
 1087SOL     OW 4159   1.104   2.058   5.370
 1087SOL    HW1 4160   1.045   1.985   5.405
 1087SOL    HW2 4161   1.128   2.039   5.275
 1088SOL     OW 4162   0.309   4.746   3.420
 1088SOL    HW1 4163   0.302   4.655   3.378
 1088SOL    HW2 4164   0.265   4.745   3.509
 1089SOL     OW 4165   0.925   5.796   4.714
 1089SOL    HW1 4166   1.006   5.830   4.762
 1089SOL    HW2 4167   0.933   5.697   4.701
 1090SOL     OW 4168   4.237   1.819   2.655
 1090SOL    HW1 4169   4.320   1.841   2.707
 1090SOL    HW2 4170   4.263   1.776   2.569
 1091SOL     OW 4171   1.848   3.437   3.458
 1091SOL    HW1 4172   1.777   3.495   3.499
 1091SOL    HW2 4173   1.934   3.450   3.507
 1092SOL     OW 4174   1.008   5.480   0.414
 1092SOL    HW1 4175   0.936   5.545   0.390
 1092SOL    HW2 4176   0.970   5.410   0.476
 1093SOL     OW 4177   2.414   6.650   1.795
 1093SOL    HW1 4178   2.469   6.697   1.726
 1093SOL    HW2 4179   2.335   6.606   1.750
 1094SOL     OW 4180   0.982   6.645   2.808
 1094SOL    HW1 4181   0.894   6.621   2.768
 1094SOL    HW2 4182   0.968   6.688   2.897
 1095SOL     OW 4183   0.603   2.351   6.824
 1095SOL    HW1 4184   0.634   2.346   6.919
 1095SOL    HW2 4185   0.552   2.436   6.810
 1096SOL     OW 4186   3.569   4.203   1.371
 1096SOL    HW1 4187   3.666   4.228   1.371
 1096SOL    HW2 4188   3.526   4.239   1.454
 1097SOL     OW 4189   1.874   4.763   2.657
 1097SOL    HW1 4190   1.974   4.767   2.664
 1097SOL    HW2 4191   1.840   4.690   2.716
 1098SOL     OW 4192   5.885   3.560   6.222
 1098SOL    HW1 4193   5.966   3.570   6.280
 1098SOL    HW2 4194   5.903   3.597   6.131
 1099SOL     OW 4195   4.379   0.754   6.400
 1099SOL    HW1 4196   4.411   0.745   6.495
 1099SOL    HW2 4197   4.303   0.691   6.384
 1100SOL     OW 4198   4.156   1.468   4.887
 1100SOL    HW1 4199   4.218   1.393   4.866
 1100SOL    HW2 4200   4.080   1.468   4.821
 1101SOL     OW 4201   5.377   3.898   5.179
 1101SOL    HW1 4202   5.293   3.849   5.202
 1101SOL    HW2 4203   5.380   3.914   5.080
 1102SOL     OW 4204   2.108   1.104   4.638
 1102SOL    HW1 4205   2.198   1.063   4.654
 1102SOL    HW2 4206   2.119   1.195   4.598
 1103SOL     OW 4207   2.315   1.973   0.105
 1103SOL    HW1 4208   2.355   2.065   0.105
 1103SOL    HW2 4209   2.246   1.967   0.177
 1104SOL     OW 4210   1.812   4.146   3.641
 1104SOL    HW1 4211   1.802   4.149   3.542
 1104SOL    HW2 4212   1.738   4.199   3.684
 1105SOL     OW 4213   5.136   2.881   4.360
 1105SOL    HW1 4214   5.114   2.978   4.371
 1105SOL    HW2 4215   5.108   2.850   4.269
 1106SOL     OW 4216   0.461   1.751   1.508
 1106SOL    HW1 4217   0.499   1.661   1.530
 1106SOL    HW2 4218   0.415   1.747   1.420
 1107SOL     OW 4219   1.162   0.466   0.056
 1107SOL    HW1 4220   1.252   0.422   0.059
 1107SOL    HW2 4221   1.118   0.449   6.993
 1108SOL     OW 4222   3.251   6.531   5.338
 1108SOL    HW1 4223   3.276   6.476   5.258
 1108SOL    HW2 4224   3.187   6.603   5.310
 1109SOL     OW 4225   5.790   1.128   3.966
 1109SOL    HW1 4226   5.826   1.042   3.932
 1109SOL    HW2 4227   5.853   1.167   4.033
 1110SOL     OW 4228   3.842   1.371   3.262
 1110SOL    HW1 4229   3.811   1.319   3.182
 1110SOL    HW2 4230   3.807   1.465   3.255
 1111SOL     OW 4231   5.553   4.779   6.344
 1111SOL    HW1 4232   5.498   4.797   6.426
 1111SOL    HW2 4233   5.518   4.699   6.297
 1112SOL     OW 4234   6.512   0.508   3.154
 1112SOL    HW1 4235   6.597   0.557   3.136
 1112SOL    HW2 4236   6.532   0.412   3.174
 1113SOL     OW 4237   6.108   4.454   1.366
 1113SOL    HW1 4238   6.050   4.441   1.445
 1113SOL    HW2 4239   6.186   4.391   1.370
 1114SOL     OW 4240   2.920   2.103   6.277
 1114SOL    HW1 4241   2.906   2.059   6.189
 1114SOL    HW2 4242   2.873   2.052   6.349
 1115SOL     OW 4243   4.129   3.722   5.425
 1115SOL    HW1 4244   4.030   3.728   5.436
 1115SOL    HW2 4245   4.153   3.747   5.331
 1116SOL     OW 4246   5.989   0.075   0.182
 1116SOL    HW1 4247   6.035   0.164   0.183
 1116SOL    HW2 4248   5.891   0.089   0.164
 1117SOL     OW 4249   0.720   1.818   1.926
 1117SOL    HW1 4250   0.750   1.753   1.855
 1117SOL    HW2 4251   0.642   1.778   1.975
 1118SOL     OW 4252   2.557   5.067   0.507
 1118SOL    HW1 4253   2.533   5.163   0.523
 1118SOL    HW2 4254   2.655   5.060   0.487
 1119SOL     OW 4255   4.366   4.435   1.575
 1119SOL    HW1 4256   4.416   4.354   1.546
 1119SOL    HW2 4257   4.408   4.472   1.658
 1120SOL     OW 4258   6.860   5.809   1.133
 1120SOL    HW1 4259   6.797   5.760   1.073
 1120SOL    HW2 4260   6.943   5.755   1.145
 1121SOL     OW 4261   0.079   4.895   4.917
 1121SOL    HW1 4262   0.011   4.845   4.971
 1121SOL    HW2 4263   0.144   4.830   4.878
 1122SOL     OW 4264   6.041   2.987   2.067
 1122SOL    HW1 4265   5.963   2.926   2.051
 1122SOL    HW2 4266   6.124   2.945   2.031
 1123SOL     OW 4267   5.030   2.286   3.904
 1123SOL    HW1 4268   5.104   2.344   3.871
 1123SOL    HW2 4269   5.014   2.211   3.840
 1124SOL     OW 4270   0.096   4.516   5.880
 1124SOL    HW1 4271   0.111   4.424   5.844
 1124SOL    HW2 4272   0.184   4.556   5.906
 1125SOL     OW 4273   1.796   2.318   3.739
 1125SOL    HW1 4274   1.771   2.412   3.762
 1125SOL    HW2 4275   1.728   2.280   3.676
 1126SOL     OW 4276   5.924   6.303   5.526
 1126SOL    HW1 4277   5.928   6.243   5.446
 1126SOL    HW2 4278   5.861   6.263   5.594
 1127SOL     OW 4279   5.538   6.327   4.703
 1127SOL    HW1 4280   5.494   6.240   4.723
 1127SOL    HW2 4281   5.481   6.379   4.640
 1128SOL     OW 4282   6.489   1.595   4.913
 1128SOL    HW1 4283   6.566   1.567   4.970
 1128SOL    HW2 4284   6.406   1.598   4.968
 1129SOL     OW 4285   2.188   6.459   0.531
 1129SOL    HW1 4286   2.101   6.476   0.485
 1129SOL    HW2 4287   2.212   6.362   0.523
 1130SOL     OW 4288   1.912   4.882   1.079
 1130SOL    HW1 4289   1.822   4.925   1.085
 1130SOL    HW2 4290   1.911   4.795   1.128
 1131SOL     OW 4291   1.862   0.572   5.090
 1131SOL    HW1 4292   1.847   0.629   5.010
 1131SOL    HW2 4293   1.958   0.542   5.093
 1132SOL     OW 4294   4.067   0.415   3.460
 1132SOL    HW1 4295   4.152   0.363   3.455
 1132SOL    HW2 4296   4.036   0.437   3.368
 1133SOL     OW 4297   0.895   0.603   6.806
 1133SOL    HW1 4298   0.981   0.644   6.837
 1133SOL    HW2 4299   0.887   0.610   6.707
 1134SOL     OW 4300   5.210   0.098   2.959
 1134SOL    HW1 4301   5.285   0.134   3.015
 1134SOL    HW2 4302   5.161   0.028   3.011
 1135SOL     OW 4303   2.347   6.132   3.750
 1135SOL    HW1 4304   2.435   6.110   3.709
 1135SOL    HW2 4305   2.279   6.147   3.678
 1136SOL     OW 4306   3.696   4.868   2.755
 1136SOL    HW1 4307   3.690   4.898   2.850
 1136SOL    HW2 4308   3.686   4.768   2.751
 1137SOL     OW 4309   1.049   6.288   0.640
 1137SOL    HW1 4310   0.980   6.305   0.710
 1137SOL    HW2 4311   1.120   6.358   0.644
 1138SOL     OW 4312   0.449   1.631   5.193
 1138SOL    HW1 4313   0.479   1.605   5.284
 1138SOL    HW2 4314   0.376   1.569   5.163
 1139SOL     OW 4315   2.486   4.947   3.843
 1139SOL    HW1 4316   2.535   4.957   3.757
 1139SOL    HW2 4317   2.441   4.858   3.846
 1140SOL     OW 4318   2.905   0.286   2.616
 1140SOL    HW1 4319   2.882   0.323   2.526
 1140SOL    HW2 4320   2.916   0.187   2.610
 1141SOL     OW 4321   6.987   6.314   7.013
 1141SOL    HW1 4322   6.891   6.340   7.025
 1141SOL    HW2 4323   6.992   6.227   6.963
 1142SOL     OW 4324   3.326   0.304   4.145
 1142SOL    HW1 4325   3.422   0.332   4.148
 1142SOL    HW2 4326   3.313   0.223   4.202
 1143SOL     OW 4327   1.853   3.147   2.606
 1143SOL    HW1 4328   1.818   3.227   2.556
 1143SOL    HW2 4329   1.953   3.151   2.610
 1144SOL     OW 4330   5.916   4.326   3.376
 1144SOL    HW1 4331   5.843   4.324   3.445
 1144SOL    HW2 4332   5.988   4.390   3.406
 1145SOL     OW 4333   1.052   3.012   0.726
 1145SOL    HW1 4334   1.088   3.099   0.693
 1145SOL    HW2 4335   1.108   2.978   0.801
 1146SOL     OW 4336   0.839   2.043   1.784
 1146SOL    HW1 4337   0.921   2.082   1.825
 1146SOL    HW2 4338   0.791   1.988   1.852
 1147SOL     OW 4339   2.766   6.044   0.775
 1147SOL    HW1 4340   2.681   5.996   0.797
 1147SOL    HW2 4341   2.830   5.980   0.732
 1148SOL     OW 4342   4.490   6.114   0.785
 1148SOL    HW1 4343   4.531   6.075   0.867
 1148SOL    HW2 4344   4.561   6.132   0.717
 1149SOL     OW 4345   5.307   2.872   2.114
 1149SOL    HW1 4346   5.325   2.969   2.128
 1149SOL    HW2 4347   5.211   2.852   2.138
 1150SOL     OW 4348   0.722   3.621   0.039
 1150SOL    HW1 4349   0.698   3.579   0.126
 1150SOL    HW2 4350   0.709   3.720   0.044
 1151SOL     OW 4351   5.718   4.968   4.491
 1151SOL    HW1 4352   5.764   5.004   4.572
 1151SOL    HW2 4353   5.667   5.041   4.446
 1152SOL     OW 4354   5.388   6.444   6.194
 1152SOL    HW1 4355   5.445   6.522   6.220
 1152SOL    HW2 4356   5.294   6.460   6.226
 1153SOL     OW 4357   6.406   0.089   1.408
 1153SOL    HW1 4358   6.386   0.108   1.312
 1153SOL    HW2 4359   6.416   7.015   1.421
 1154SOL     OW 4360   0.400   3.967   0.406
 1154SOL    HW1 4361   0.310   4.000   0.378
 1154SOL    HW2 4362   0.449   4.039   0.454
 1155SOL     OW 4363   3.301   5.136   5.856
 1155SOL    HW1 4364   3.215   5.088   5.836
 1155SOL    HW2 4365   3.372   5.069   5.876
 1156SOL     OW 4366   4.690   2.404   4.790
 1156SOL    HW1 4367   4.785   2.411   4.818
 1156SOL    HW2 4368   4.631   2.439   4.863
 1157SOL     OW 4369   4.928   0.968   5.948
 1157SOL    HW1 4370   4.946   1.045   6.010
 1157SOL    HW2 4371   4.834   0.973   5.915
 1158SOL     OW 4372   6.573   5.559   4.786
 1158SOL    HW1 4373   6.566   5.654   4.758
 1158SOL    HW2 4374   6.639   5.511   4.727
 1159SOL     OW 4375   6.211   6.953   3.150
 1159SOL    HW1 4376   6.219   0.022   3.182
 1159SOL    HW2 4377   6.152   6.902   3.213
 1160SOL     OW 4378   4.248   5.521   1.776
 1160SOL    HW1 4379   4.238   5.603   1.719
 1160SOL    HW2 4380   4.160   5.497   1.815
 1161SOL     OW 4381   0.511   5.900   6.667
 1161SOL    HW1 4382   0.496   5.853   6.754
 1161SOL    HW2 4383   0.595   5.868   6.625
 1162SOL     OW 4384   2.396   2.664   5.651
 1162SOL    HW1 4385   2.492   2.679   5.628
 1162SOL    HW2 4386   2.342   2.658   5.567
 1163SOL     OW 4387   5.718   4.772   2.163
 1163SOL    HW1 4388   5.753   4.714   2.089
 1163SOL    HW2 4389   5.621   4.751   2.179
 1164SOL     OW 4390   4.900   2.444   5.192
 1164SOL    HW1 4391   4.852   2.360   5.218
 1164SOL    HW2 4392   4.969   2.465   5.261
 1165SOL     OW 4393   3.857   5.914   3.325
 1165SOL    HW1 4394   3.797   5.875   3.395
 1165SOL    HW2 4395   3.923   5.844   3.295
 1166SOL     OW 4396   2.655   5.618   6.996
 1166SOL    HW1 4397   2.631   5.525   6.968
 1166SOL    HW2 4398   2.616   5.684   6.932
 1167SOL     OW 4399   4.966   5.255   0.550
 1167SOL    HW1 4400   5.027   5.189   0.595
 1167SOL    HW2 4401   4.872   5.240   0.580
 1168SOL     OW 4402   6.130   2.646   1.251
 1168SOL    HW1 4403   6.061   2.690   1.308
 1168SOL    HW2 4404   6.220   2.656   1.295
 1169SOL     OW 4405   4.732   1.598   5.516
 1169SOL    HW1 4406   4.828   1.621   5.530
 1169SOL    HW2 4407   4.684   1.599   5.604
 1170SOL     OW 4408   5.789   0.354   3.287
 1170SOL    HW1 4409   5.881   0.326   3.315
 1170SOL    HW2 4410   5.794   0.440   3.237
 1171SOL     OW 4411   3.029   6.712   0.274
 1171SOL    HW1 4412   3.050   6.710   0.371
 1171SOL    HW2 4413   3.004   6.805   0.247
 1172SOL     OW 4414   5.345   4.255   0.581
 1172SOL    HW1 4415   5.382   4.223   0.669
 1172SOL    HW2 4416   5.245   4.248   0.582
 1173SOL     OW 4417   3.387   1.635   1.004
 1173SOL    HW1 4418   3.342   1.715   1.045
 1173SOL    HW2 4419   3.468   1.611   1.056
 1174SOL     OW 4420   3.497   3.993   2.118
 1174SOL    HW1 4421   3.586   3.948   2.126
 1174SOL    HW2 4422   3.497   4.052   2.037
 1175SOL     OW 4423   4.975   3.415   6.689
 1175SOL    HW1 4424   4.981   3.365   6.603
 1175SOL    HW2 4425   4.961   3.512   6.670
 1176SOL     OW 4426   5.086   3.478   0.302
 1176SOL    HW1 4427   4.998   3.431   0.297
 1176SOL    HW2 4428   5.072   3.570   0.340
 1177SOL     OW 4429   6.904   3.847   4.998
 1177SOL    HW1 4430   7.003   3.861   4.997
 1177SOL    HW2 4431   6.869   3.849   4.905
 1178SOL     OW 4432   2.563   4.049   0.675
 1178SOL    HW1 4433   2.661   4.065   0.681
 1178SOL    HW2 4434   2.534   4.059   0.579
 1179SOL     OW 4435   2.293   5.816   0.548
 1179SOL    HW1 4436   2.359   5.833   0.475
 1179SOL    HW2 4437   2.311   5.726   0.588
 1180SOL     OW 4438   2.645   6.564   4.187
 1180SOL    HW1 4439   2.558   6.592   4.226
 1180SOL    HW2 4440   2.630   6.514   4.102
 1181SOL     OW 4441   0.407   5.364   5.743
 1181SOL    HW1 4442   0.368   5.451   5.712
 1181SOL    HW2 4443   0.335   5.294   5.744
 1182SOL     OW 4444   4.043   5.026   3.228
 1182SOL    HW1 4445   4.093   5.109   3.251
 1182SOL    HW2 4446   4.106   4.948   3.227
 1183SOL     OW 4447   2.145   3.847   0.259
 1183SOL    HW1 4448   2.128   3.758   0.303
 1183SOL    HW2 4449   2.134   3.838   0.160
 1184SOL     OW 4450   0.057   0.839   4.650
 1184SOL    HW1 4451   7.002   0.800   4.604
 1184SOL    HW2 4452   0.121   0.766   4.673
 1185SOL     OW 4453   0.738   0.567   0.776
 1185SOL    HW1 4454   0.640   0.545   0.777
 1185SOL    HW2 4455   0.783   0.517   0.702
 1186SOL     OW 4456   5.608   6.641   5.709
 1186SOL    HW1 4457   5.548   6.562   5.723
 1186SOL    HW2 4458   5.654   6.663   5.794
 1187SOL     OW 4459   6.062   0.176   6.763
 1187SOL    HW1 4460   5.989   0.113   6.739
 1187SOL    HW2 4461   6.024   0.255   6.812
 1188SOL     OW 4462   3.688   5.998   5.595
 1188SOL    HW1 4463   3.714   6.033   5.505
 1188SOL    HW2 4464   3.647   5.907   5.585
 1189SOL     OW 4465   6.054   2.535   1.559
 1189SOL    HW1 4466   6.075   2.448   1.515
 1189SOL    HW2 4467   5.979   2.581   1.511
 1190SOL     OW 4468   3.167   5.271   3.599
 1190SOL    HW1 4469   3.206   5.300   3.686
 1190SOL    HW2 4470   3.134   5.351   3.549
 1191SOL     OW 4471   4.292   5.374   3.979
 1191SOL    HW1 4472   4.373   5.357   3.921
 1191SOL    HW2 4473   4.288   5.472   4.001
 1192SOL     OW 4474   4.527   5.304   2.265
 1192SOL    HW1 4475   4.456   5.294   2.334
 1192SOL    HW2 4476   4.548   5.401   2.253
 1193SOL     OW 4477   6.344   2.645   5.210
 1193SOL    HW1 4478   6.282   2.715   5.174
 1193SOL    HW2 4479   6.291   2.564   5.237
 1194SOL     OW 4480   5.874   0.283   1.682
 1194SOL    HW1 4481   5.909   0.287   1.775
 1194SOL    HW2 4482   5.929   0.342   1.623
 1195SOL     OW 4483   6.565   4.099   0.751
 1195SOL    HW1 4484   6.558   4.190   0.710
 1195SOL    HW2 4485   6.505   4.094   0.831
 1196SOL     OW 4486   0.371   5.510   2.878
 1196SOL    HW1 4487   0.314   5.460   2.813
 1196SOL    HW2 4488   0.352   5.608   2.871
 1197SOL     OW 4489   4.518   0.675   4.872
 1197SOL    HW1 4490   4.487   0.609   4.803
 1197SOL    HW2 4491   4.439   0.725   4.907
 1198SOL     OW 4492   1.103   2.747   2.549
 1198SOL    HW1 4493   1.118   2.669   2.609
 1198SOL    HW2 4494   1.189   2.770   2.503
 1199SOL     OW 4495   4.049   3.675   1.216
 1199SOL    HW1 4496   4.101   3.760   1.227
 1199SOL    HW2 4497   4.024   3.639   1.306
 1200SOL     OW 4498   3.381   3.802   4.309
 1200SOL    HW1 4499   3.315   3.795   4.384
 1200SOL    HW2 4500   3.337   3.843   4.230
 1201SOL     OW 4501   1.132   0.796   4.326
 1201SOL    HW1 4502   1.150   0.739   4.406
 1201SOL    HW2 4503   1.202   0.867   4.319
 1202SOL     OW 4504   0.330   5.608   5.618
 1202SOL    HW1 4505   0.294   5.697   5.591
 1202SOL    HW2 4506   0.342   5.551   5.536
 1203SOL     OW 4507   6.787   6.314   6.710
 1203SOL    HW1 4508   6.863   6.264   6.669
 1203SOL    HW2 4509   6.807   6.333   6.806
 1204SOL     OW 4510   3.505   6.700   1.325
 1204SOL    HW1 4511   3.460   6.616   1.357
 1204SOL    HW2 4512   3.436   6.764   1.292
 1205SOL     OW 4513   5.118   3.563   0.619
 1205SOL    HW1 4514   5.021   3.540   0.629
 1205SOL    HW2 4515   5.170   3.523   0.694
 1206SOL     OW 4516   2.514   2.981   5.634
 1206SOL    HW1 4517   2.566   3.044   5.577
 1206SOL    HW2 4518   2.417   2.984   5.608
 1207SOL     OW 4519   2.304   6.330   1.122
 1207SOL    HW1 4520   2.308   6.416   1.173
 1207SOL    HW2 4521   2.390   6.317   1.072
 1208SOL     OW 4522   3.430   3.742   1.353
 1208SOL    HW1 4523   3.376   3.695   1.283
 1208SOL    HW2 4524   3.472   3.674   1.414
 1209SOL     OW 4525   4.847   1.049   4.787
 1209SOL    HW1 4526   4.829   0.974   4.850
 1209SOL    HW2 4527   4.780   1.122   4.801
 1210SOL     OW 4528   3.034   0.882   3.614
 1210SOL    HW1 4529   3.091   0.872   3.533
 1210SOL    HW2 4530   3.065   0.960   3.669
 1211SOL     OW 4531   0.599   3.797   1.841
 1211SOL    HW1 4532   0.688   3.772   1.880
 1211SOL    HW2 4533   0.601   3.893   1.813
 1212SOL     OW 4534   6.018   0.498   0.269
 1212SOL    HW1 4535   6.035   0.585   0.315
 1212SOL    HW2 4536   5.924   0.469   0.284
 1213SOL     OW 4537   6.527   2.483   0.374
 1213SOL    HW1 4538   6.601   2.438   0.424
 1213SOL    HW2 4539   6.451   2.418   0.363
 1214SOL     OW 4540   0.893   2.771   6.553
 1214SOL    HW1 4541   0.927   2.854   6.509
 1214SOL    HW2 4542   0.959   2.697   6.539
 1215SOL     OW 4543   0.817   4.496   3.361
 1215SOL    HW1 4544   0.800   4.420   3.299
 1215SOL    HW2 4545   0.756   4.489   3.439
 1216SOL     OW 4546   4.828   0.410   0.906
 1216SOL    HW1 4547   4.852   0.360   0.989
 1216SOL    HW2 4548   4.755   0.476   0.926
 1217SOL     OW 4549   2.278   4.491   0.165
 1217SOL    HW1 4550   2.215   4.499   0.088
 1217SOL    HW2 4551   2.284   4.580   0.212
 1218SOL     OW 4552   2.286   4.280   4.597
 1218SOL    HW1 4553   2.276   4.218   4.518
 1218SOL    HW2 4554   2.374   4.327   4.590
 1219SOL     OW 4555   5.513   6.401   1.666
 1219SOL    HW1 4556   5.596   6.389   1.612
 1219SOL    HW2 4557   5.443   6.447   1.610
 1220SOL     OW 4558   1.138   4.819   3.454
 1220SOL    HW1 4559   1.084   4.886   3.404
 1220SOL    HW2 4560   1.118   4.727   3.420
 1221SOL     OW 4561   5.624   3.541   6.191
 1221SOL    HW1 4562   5.611   3.631   6.150
 1221SOL    HW2 4563   5.720   3.530   6.217
 1222SOL     OW 4564   6.347   0.063   6.532
 1222SOL    HW1 4565   6.299   0.150   6.532
 1222SOL    HW2 4566   6.445   0.078   6.545
 1223SOL     OW 4567   3.959   1.126   0.750
 1223SOL    HW1 4568   4.042   1.181   0.739
 1223SOL    HW2 4569   3.973   1.059   0.823
 1224SOL     OW 4570   3.761   5.402   0.305
 1224SOL    HW1 4571   3.693   5.440   0.368
 1224SOL    HW2 4572   3.745   5.438   0.213
 1225SOL     OW 4573   3.527   3.420   6.626
 1225SOL    HW1 4574   3.570   3.410   6.716
 1225SOL    HW2 4575   3.428   3.424   6.636
 1226SOL     OW 4576   2.407   4.982   1.382
 1226SOL    HW1 4577   2.333   5.044   1.407
 1226SOL    HW2 4578   2.431   4.924   1.460
 1227SOL     OW 4579   6.524   3.615   0.025
 1227SOL    HW1 4580   6.589   3.677   7.005
 1227SOL    HW2 4581   6.479   3.559   6.980
 1228SOL     OW 4582   3.887   1.744   6.512
 1228SOL    HW1 4583   3.807   1.684   6.505
 1228SOL    HW2 4584   3.859   1.831   6.553
 1229SOL     OW 4585   4.033   5.069   6.102
 1229SOL    HW1 4586   4.085   5.140   6.053
 1229SOL    HW2 4587   4.069   4.979   6.077
 1230SOL     OW 4588   4.648   0.262   3.012
 1230SOL    HW1 4589   4.687   0.325   2.945
 1230SOL    HW2 4590   4.710   0.184   3.025
 1231SOL     OW 4591   1.881   3.353   4.378
 1231SOL    HW1 4592   1.849   3.330   4.286
 1231SOL    HW2 4593   1.869   3.451   4.394
 1232SOL     OW 4594   0.641   2.244   5.278
 1232SOL    HW1 4595   0.628   2.305   5.200
 1232SOL    HW2 4596   0.602   2.287   5.360
 1233SOL     OW 4597   1.239   3.859   4.332
 1233SOL    HW1 4598   1.139   3.855   4.333
 1233SOL    HW2 4599   1.273   3.821   4.246
 1234SOL     OW 4600   6.765   4.102   5.015
 1234SOL    HW1 4601   6.731   4.118   5.107
 1234SOL    HW2 4602   6.787   4.005   5.004
 1235SOL     OW 4603   6.656   6.021   2.497
 1235SOL    HW1 4604   6.756   6.018   2.504
 1235SOL    HW2 4605   6.620   5.928   2.502
 1236SOL     OW 4606   4.941   1.223   0.457
 1236SOL    HW1 4607   4.854   1.179   0.479
 1236SOL    HW2 4608   4.975   1.272   0.537
 1237SOL     OW 4609   1.696   4.840   5.697
 1237SOL    HW1 4610   1.655   4.775   5.761
 1237SOL    HW2 4611   1.786   4.806   5.668
 1238SOL     OW 4612   2.825   0.370   0.308
 1238SOL    HW1 4613   2.840   0.421   0.224
 1238SOL    HW2 4614   2.764   0.292   0.291
 1239SOL     OW 4615   6.840   6.693   6.109
 1239SOL    HW1 4616   6.820   6.680   6.206
 1239SOL    HW2 4617   6.906   6.768   6.099
 1240SOL     OW 4618   5.402   5.976   2.051
 1240SOL    HW1 4619   5.469   5.928   1.994
 1240SOL    HW2 4620   5.370   6.058   2.003
 1241SOL     OW 4621   6.458   4.184   4.126
 1241SOL    HW1 4622   6.491   4.278   4.136
 1241SOL    HW2 4623   6.470   4.135   4.212
 1242SOL     OW 4624   6.517   3.281   1.408
 1242SOL    HW1 4625   6.437   3.334   1.435
 1242SOL    HW2 4626   6.501   3.239   1.319
 1243SOL     OW 4627   0.123   6.922   5.451
 1243SOL    HW1 4628   0.124   6.963   5.360
 1243SOL    HW2 4629   0.211   6.936   5.495
 1244SOL     OW 4630   6.820   6.828   4.113
 1244SOL    HW1 4631   6.735   6.872   4.083
 1244SOL    HW2 4632   6.896   6.861   4.057
 1245SOL     OW 4633   4.827   4.208   6.203
 1245SOL    HW1 4634   4.758   4.279   6.192
 1245SOL    HW2 4635   4.904   4.228   6.142
 1246SOL     OW 4636   2.208   6.189   1.335
 1246SOL    HW1 4637   2.258   6.221   1.255
 1246SOL    HW2 4638   2.268   6.192   1.415
 1247SOL     OW 4639   2.127   1.017   6.466
 1247SOL    HW1 4640   2.055   0.981   6.406
 1247SOL    HW2 4641   2.214   1.020   6.415
 1248SOL     OW 4642   2.649   0.269   4.472
 1248SOL    HW1 4643   2.632   0.356   4.519
 1248SOL    HW2 4644   2.652   0.195   4.539
 1249SOL     OW 4645   5.483   2.654   2.127
 1249SOL    HW1 4646   5.439   2.564   2.125
 1249SOL    HW2 4647   5.415   2.724   2.150
 1250SOL     OW 4648   6.517   5.253   4.693
 1250SOL    HW1 4649   6.453   5.318   4.652
 1250SOL    HW2 4650   6.490   5.235   4.788
 1251SOL     OW 4651   3.089   7.017   4.095
 1251SOL    HW1 4652   3.080   0.092   4.088
 1251SOL    HW2 4653   3.114   6.981   4.005
 1252SOL     OW 4654   3.751   3.563   5.357
 1252SOL    HW1 4655   3.800   3.594   5.276
 1252SOL    HW2 4656   3.787   3.475   5.386
 1253SOL     OW 4657   3.243   4.883   1.557
 1253SOL    HW1 4658   3.311   4.831   1.505
 1253SOL    HW2 4659   3.240   4.977   1.522
 1254SOL     OW 4660   6.968   3.017   2.586
 1254SOL    HW1 4661   6.958   3.116   2.597
 1254SOL    HW2 4662   0.031   2.997   2.543
 1255SOL     OW 4663   6.693   2.023   4.639
 1255SOL    HW1 4664   6.746   1.945   4.606
 1255SOL    HW2 4665   6.737   2.108   4.609
 1256SOL     OW 4666   6.854   6.311   3.186
 1256SOL    HW1 4667   6.774   6.315   3.126
 1256SOL    HW2 4668   6.922   6.250   3.145
 1257SOL     OW 4669   0.115   6.803   4.139
 1257SOL    HW1 4670   0.119   6.746   4.057
 1257SOL    HW2 4671   0.175   6.764   4.209
 1258SOL     OW 4672   1.333   5.054   3.507
 1258SOL    HW1 4673   1.409   4.996   3.480
 1258SOL    HW2 4674   1.293   5.021   3.593
 1259SOL     OW 4675   3.869   1.141   4.071
 1259SOL    HW1 4676   3.944   1.156   4.135
 1259SOL    HW2 4677   3.819   1.227   4.057
 1260SOL     OW 4678   1.424   1.475   6.651
 1260SOL    HW1 4679   1.501   1.539   6.652
 1260SOL    HW2 4680   1.450   1.393   6.601
 1261SOL     OW 4681   0.086   5.672   6.436
 1261SOL    HW1 4682   0.118   5.592   6.385
 1261SOL    HW2 4683   7.015   5.660   6.461
 1262SOL     OW 4684   4.964   5.409   1.151
 1262SOL    HW1 4685   4.948   5.323   1.200
 1262SOL    HW2 4686   4.879   5.442   1.112
 1263SOL     OW 4687   0.440   1.446   2.449
 1263SOL    HW1 4688   0.446   1.407   2.357
 1263SOL    HW2 4689   0.444   1.546   2.444
 1264SOL     OW 4690   0.334   4.637   5.925
 1264SOL    HW1 4691   0.365   4.730   5.904
 1264SOL    HW2 4692   0.340   4.621   6.023
 1265SOL     OW 4693   5.991   5.488   4.381
 1265SOL    HW1 4694   6.011   5.518   4.475
 1265SOL    HW2 4695   5.916   5.423   4.382
 1266SOL     OW 4696   0.601   0.853   4.451
 1266SOL    HW1 4697   0.547   0.864   4.535
 1266SOL    HW2 4698   0.686   0.804   4.472
 1267SOL     OW 4699   5.198   1.454   1.355
 1267SOL    HW1 4700   5.179   1.545   1.318
 1267SOL    HW2 4701   5.169   1.451   1.451
 1268SOL     OW 4702   2.786   3.229   6.865
 1268SOL    HW1 4703   2.785   3.131   6.885
 1268SOL    HW2 4704   2.814   3.242   6.770
 1269SOL     OW 4705   5.898   3.174   3.822
 1269SOL    HW1 4706   5.928   3.171   3.917
 1269SOL    HW2 4707   5.940   3.254   3.777
 1270SOL     OW 4708   2.201   4.927   2.656
 1270SOL    HW1 4709   2.295   4.919   2.622
 1270SOL    HW2 4710   2.168   4.837   2.685
 1271SOL     OW 4711   3.433   1.532   1.820
 1271SOL    HW1 4712   3.370   1.490   1.755
 1271SOL    HW2 4713   3.436   1.631   1.806
 1272SOL     OW 4714   5.824   4.343   6.549
 1272SOL    HW1 4715   5.739   4.291   6.557
 1272SOL    HW2 4716   5.812   4.418   6.483
 1273SOL     OW 4717   1.633   3.895   5.389
 1273SOL    HW1 4718   1.726   3.884   5.355
 1273SOL    HW2 4719   1.602   3.809   5.431
 1274SOL     OW 4720   0.194   4.397   0.362
 1274SOL    HW1 4721   0.107   4.365   0.402
 1274SOL    HW2 4722   0.251   4.318   0.341
 1275SOL     OW 4723   3.356   1.157   3.087
 1275SOL    HW1 4724   3.314   1.127   3.002
 1275SOL    HW2 4725   3.418   1.086   3.122
 1276SOL     OW 4726   5.368   5.455   4.816
 1276SOL    HW1 4727   5.419   5.534   4.785
 1276SOL    HW2 4728   5.270   5.478   4.821
 1277SOL     OW 4729   1.762   5.089   6.425
 1277SOL    HW1 4730   1.786   5.122   6.517
 1277SOL    HW2 4731   1.678   5.135   6.395
 1278SOL     OW 4732   1.752   0.275   4.372
 1278SOL    HW1 4733   1.690   0.199   4.390
 1278SOL    HW2 4734   1.706   0.362   4.391
 1279SOL     OW 4735   2.244   4.603   6.144
 1279SOL    HW1 4736   2.322   4.566   6.195
 1279SOL    HW2 4737   2.263   4.597   6.046
 1280SOL     OW 4738   4.490   0.049   3.832
 1280SOL    HW1 4739   4.473   0.024   3.927
 1280SOL    HW2 4740   4.491   6.991   3.776
 1281SOL     OW 4741   2.613   6.092   3.640
 1281SOL    HW1 4742   2.710   6.102   3.663
 1281SOL    HW2 4743   2.602   6.093   3.541
 1282SOL     OW 4744   6.933   2.556   6.961
 1282SOL    HW1 4745   6.833   2.558   6.968
 1282SOL    HW2 4746   6.964   2.461   6.951
 1283SOL     OW 4747   6.561   3.363   5.412
 1283SOL    HW1 4748   6.554   3.275   5.457
 1283SOL    HW2 4749   6.658   3.385   5.397
 1284SOL     OW 4750   4.068   0.843   1.233
 1284SOL    HW1 4751   4.108   0.777   1.297
 1284SOL    HW2 4752   3.972   0.858   1.256
 1285SOL     OW 4753   4.730   1.238   5.462
 1285SOL    HW1 4754   4.711   1.147   5.499
 1285SOL    HW2 4755   4.740   1.232   5.363
 1286SOL     OW 4756   4.370   2.252   0.886
 1286SOL    HW1 4757   4.420   2.268   0.971
 1286SOL    HW2 4758   4.426   2.196   0.824
 1287SOL     OW 4759   5.162   4.631   5.606
 1287SOL    HW1 4760   5.107   4.551   5.581
 1287SOL    HW2 4761   5.113   4.715   5.580
 1288SOL     OW 4762   4.063   4.679   5.732
 1288SOL    HW1 4763   4.124   4.758   5.730
 1288SOL    HW2 4764   4.114   4.597   5.755
 1289SOL     OW 4765   0.451   0.556   1.929
 1289SOL    HW1 4766   0.533   0.542   1.872
 1289SOL    HW2 4767   0.431   0.654   1.935
 1290SOL     OW 4768   1.484   6.861   0.564
 1290SOL    HW1 4769   1.543   6.910   0.499
 1290SOL    HW2 4770   1.491   6.763   0.549
 1291SOL     OW 4771   0.262   4.709   4.465
 1291SOL    HW1 4772   0.281   4.626   4.518
 1291SOL    HW2 4773   0.331   4.721   4.394
 1292SOL     OW 4774   0.848   5.549   2.262
 1292SOL    HW1 4775   0.946   5.565   2.252
 1292SOL    HW2 4776   0.833   5.467   2.318
 1293SOL     OW 4777   2.687   2.051   0.060
 1293SOL    HW1 4778   2.723   2.006   7.003
 1293SOL    HW2 4779   2.712   1.997   0.140
 1294SOL     OW 4780   1.103   3.797   6.202
 1294SOL    HW1 4781   1.192   3.776   6.162
 1294SOL    HW2 4782   1.116   3.829   6.296
 1295SOL     OW 4783   0.245   2.997   0.917
 1295SOL    HW1 4784   0.152   3.008   0.953
 1295SOL    HW2 4785   0.306   3.061   0.963
 1296SOL     OW 4786   4.881   6.738   5.075
 1296SOL    HW1 4787   4.808   6.672   5.059
 1296SOL    HW2 4788   4.844   6.820   5.117
 1297SOL     OW 4789   1.289   6.373   1.856
 1297SOL    HW1 4790   1.317   6.455   1.904
 1297SOL    HW2 4791   1.282   6.392   1.758
 1298SOL     OW 4792   5.121   6.312   3.444
 1298SOL    HW1 4793   5.032   6.354   3.430
 1298SOL    HW2 4794   5.159   6.283   3.357
 1299SOL     OW 4795   2.112   2.470   3.608
 1299SOL    HW1 4796   2.066   2.395   3.561
 1299SOL    HW2 4797   2.097   2.462   3.707
 1300SOL     OW 4798   1.421   3.259   1.723
 1300SOL    HW1 4799   1.503   3.316   1.720
 1300SOL    HW2 4800   1.438   3.174   1.673
 1301SOL     OW 4801   0.928   6.590   1.878
 1301SOL    HW1 4802   0.967   6.520   1.937
 1301SOL    HW2 4803   0.852   6.551   1.826
 1302SOL     OW 4804   5.628   0.360   5.187
 1302SOL    HW1 4805   5.674   0.403   5.264
 1302SOL    HW2 4806   5.643   0.261   5.190
 1303SOL     OW 4807   4.136   0.881   1.809
 1303SOL    HW1 4808   4.051   0.925   1.835
 1303SOL    HW2 4809   4.204   0.950   1.785
 1304SOL     OW 4810   1.937   0.385   1.147
 1304SOL    HW1 4811   2.032   0.388   1.176
 1304SOL    HW2 4812   1.891   0.470   1.172
 1305SOL     OW 4813   5.372   4.281   6.756
 1305SOL    HW1 4814   5.465   4.250   6.737
 1305SOL    HW2 4815   5.323   4.210   6.807
 1306SOL     OW 4816   1.828   5.954   4.347
 1306SOL    HW1 4817   1.790   5.947   4.255
 1306SOL    HW2 4818   1.831   5.863   4.388
 1307SOL     OW 4819   2.112   3.356   4.007
 1307SOL    HW1 4820   2.208   3.357   4.036
 1307SOL    HW2 4821   2.086   3.447   3.977
 1308SOL     OW 4822   0.033   6.905   6.080
 1308SOL    HW1 4823   0.012   6.996   6.117
 1308SOL    HW2 4824   0.054   6.913   5.983
 1309SOL     OW 4825   5.518   4.307   5.434
 1309SOL    HW1 4826   5.462   4.226   5.448
 1309SOL    HW2 4827   5.468   4.389   5.462
 1310SOL     OW 4828   0.303   4.460   3.189
 1310SOL    HW1 4829   0.204   4.455   3.175
 1310SOL    HW2 4830   0.350   4.412   3.115
 1311SOL     OW 4831   6.790   5.918   6.515
 1311SOL    HW1 4832   6.742   5.998   6.479
 1311SOL    HW2 4833   6.879   5.909   6.471
 1312SOL     OW 4834   2.021   6.943   6.898
 1312SOL    HW1 4835   2.018   6.983   6.989
 1312SOL    HW2 4836   1.945   6.979   6.843
 1313SOL     OW 4837   6.670   5.038   2.415
 1313SOL    HW1 4838   6.622   5.118   2.452
 1313SOL    HW2 4839   6.766   5.042   2.442
 1314SOL     OW 4840   3.371   2.044   4.502
 1314SOL    HW1 4841   3.294   2.103   4.528
 1314SOL    HW2 4842   3.362   2.019   4.406
 1315SOL     OW 4843   6.974   0.921   3.084
 1315SOL    HW1 4844   6.884   0.897   3.120
 1315SOL    HW2 4845   7.004   1.007   3.125
 1316SOL     OW 4846   3.050   0.562   5.386
 1316SOL    HW1 4847   3.052   0.466   5.413
 1316SOL    HW2 4848   2.976   0.608   5.435
 1317SOL     OW 4849   1.466   4.157   4.974
 1317SOL    HW1 4850   1.493   4.108   5.056
 1317SOL    HW2 4851   1.367   4.173   4.975
 1318SOL     OW 4852   1.686   2.772   0.033
 1318SOL    HW1 4853   1.723   2.779   0.126
 1318SOL    HW2 4854   1.731   2.697   7.010
 1319SOL     OW 4855   0.365   5.397   0.261
 1319SOL    HW1 4856   0.294   5.467   0.251
 1319SOL    HW2 4857   0.322   5.308   0.276
 1320SOL     OW 4858   3.243   3.108   6.914
 1320SOL    HW1 4859   3.254   3.118   6.815
 1320SOL    HW2 4860   3.307   3.039   6.948
 1321SOL     OW 4861   4.720   2.300   6.841
 1321SOL    HW1 4862   4.798   2.241   6.818
 1321SOL    HW2 4863   4.741   2.354   6.922
 1322SOL     OW 4864   4.188   1.903   4.588
 1322SOL    HW1 4865   4.261   1.839   4.613
 1322SOL    HW2 4866   4.129   1.918   4.667
 1323SOL     OW 4867   3.449   6.459   0.219
 1323SOL    HW1 4868   3.375   6.508   0.173
 1323SOL    HW2 4869   3.414   6.419   0.304
 1324SOL     OW 4870   0.633   3.460   0.224
 1324SOL    HW1 4871   0.565   3.403   0.177
 1324SOL    HW2 4872   0.707   3.401   0.257
 1325SOL     OW 4873   3.981   6.213   5.128
 1325SOL    HW1 4874   3.955   6.270   5.206
 1325SOL    HW2 4875   3.904   6.205   5.065
 1326SOL     OW 4876   4.833   3.921   5.165
 1326SOL    HW1 4877   4.765   3.904   5.237
 1326SOL    HW2 4878   4.824   3.850   5.094
 1327SOL     OW 4879   1.133   6.109   1.124
 1327SOL    HW1 4880   1.138   6.197   1.076
 1327SOL    HW2 4881   1.059   6.054   1.084
 1328SOL     OW 4882   2.207   3.190   0.146
 1328SOL    HW1 4883   2.293   3.237   0.126
 1328SOL    HW2 4884   2.202   3.171   0.244
 1329SOL     OW 4885   0.040   2.462   2.398
 1329SOL    HW1 4886   0.056   2.535   2.464
 1329SOL    HW2 4887   0.102   2.472   2.320
 1330SOL     OW 4888   1.178   1.852   1.280
 1330SOL    HW1 4889   1.132   1.940   1.291
 1330SOL    HW2 4890   1.261   1.850   1.336
 1331SOL     OW 4891   4.625   2.641   3.086
 1331SOL    HW1 4892   4.621   2.677   3.179
 1331SOL    HW2 4893   4.537   2.600   3.062
 1332SOL     OW 4894   3.171   6.839   0.834
 1332SOL    HW1 4895   3.211   6.861   0.745
 1332SOL    HW2 4896   3.239   6.856   0.906
 1333SOL     OW 4897   2.913   3.367   3.079
 1333SOL    HW1 4898   2.927   3.269   3.091
 1333SOL    HW2 4899   2.907   3.388   2.981
 1334SOL     OW 4900   6.759   1.500   4.349
 1334SOL    HW1 4901   6.845   1.477   4.394
 1334SOL    HW2 4902   6.777   1.530   4.255
 1335SOL     OW 4903   2.223   2.194   2.121
 1335SOL    HW1 4904   2.301   2.177   2.182
 1335SOL    HW2 4905   2.140   2.154   2.162
 1336SOL     OW 4906   3.908   1.487   5.271
 1336SOL    HW1 4907   3.994   1.503   5.320
 1336SOL    HW2 4908   3.840   1.554   5.301
 1337SOL     OW 4909   0.041   1.403   3.024
 1337SOL    HW1 4910   0.032   1.415   2.926
 1337SOL    HW2 4911   0.134   1.428   3.053
 1338SOL     OW 4912   0.189   3.488   3.949
 1338SOL    HW1 4913   0.187   3.581   3.986
 1338SOL    HW2 4914   0.175   3.490   3.850
 1339SOL     OW 4915   6.204   1.263   7.017
 1339SOL    HW1 4916   6.282   1.219   6.974
 1339SOL    HW2 4917   6.163   1.201   0.059
 1340SOL     OW 4918   5.423   1.150   2.624
 1340SOL    HW1 4919   5.461   1.114   2.539
 1340SOL    HW2 4920   5.477   1.119   2.702
 1341SOL     OW 4921   4.505   6.343   0.163
 1341SOL    HW1 4922   4.450   6.271   0.120
 1341SOL    HW2 4923   4.497   6.427   0.110
 1342SOL     OW 4924   2.924   5.575   6.472
 1342SOL    HW1 4925   2.890   5.565   6.565
 1342SOL    HW2 4926   2.875   5.514   6.411
 1343SOL     OW 4927   5.315   5.346   2.824
 1343SOL    HW1 4928   5.273   5.432   2.855
 1343SOL    HW2 4929   5.359   5.361   2.736
 1344SOL     OW 4930   0.641   6.711   4.025
 1344SOL    HW1 4931   0.616   6.789   4.082
 1344SOL    HW2 4932   0.727   6.729   3.978
 1345SOL     OW 4933   0.796   5.092   1.870
 1345SOL    HW1 4934   0.771   5.148   1.792
 1345SOL    HW2 4935   0.720   5.032   1.894
 1346SOL     OW 4936   2.539   5.675   5.796
 1346SOL    HW1 4937   2.459   5.724   5.761
 1346SOL    HW2 4938   2.565   5.603   5.732
 1347SOL     OW 4939   0.655   6.656   6.816
 1347SOL    HW1 4940   0.633   6.569   6.772
 1347SOL    HW2 4941   0.743   6.648   6.863
 1348SOL     OW 4942   6.996   6.615   5.263
 1348SOL    HW1 4943   7.009   6.693   5.203
 1348SOL    HW2 4944   6.954   6.645   5.348
 1349SOL     OW 4945   5.032   2.522   4.580
 1349SOL    HW1 4946   5.073   2.467   4.653
 1349SOL    HW2 4947   5.104   2.574   4.533
 1350SOL     OW 4948   5.049   5.321   5.468
 1350SOL    HW1 4949   5.054   5.407   5.519
 1350SOL    HW2 4950   5.142   5.289   5.448
 1351SOL     OW 4951   5.202   2.612   4.026
 1351SOL    HW1 4952   5.209   2.577   3.933
 1351SOL    HW2 4953   5.182   2.710   4.024
 1352SOL     OW 4954   6.489   6.254   4.274
 1352SOL    HW1 4955   6.582   6.263   4.309
 1352SOL    HW2 4956   6.458   6.342   4.239
 1353SOL     OW 4957   0.822   2.179   0.448
 1353SOL    HW1 4958   0.868   2.218   0.368
 1353SOL    HW2 4959   0.782   2.253   0.503
 1354SOL     OW 4960   6.944   4.672   2.173
 1354SOL    HW1 4961   6.952   4.618   2.090
 1354SOL    HW2 4962   6.862   4.730   2.168
 1355SOL     OW 4963   6.202   4.461   4.196
 1355SOL    HW1 4964   6.227   4.445   4.101
 1355SOL    HW2 4965   6.281   4.443   4.255
 1356SOL     OW 4966   3.556   2.978   2.213
 1356SOL    HW1 4967   3.642   2.933   2.239
 1356SOL    HW2 4968   3.485   2.958   2.280
 1357SOL     OW 4969   6.891   4.647   6.397
 1357SOL    HW1 4970   6.959   4.575   6.384
 1357SOL    HW2 4971   6.936   4.735   6.407
 1358SOL     OW 4972   6.285   6.546   0.171
 1358SOL    HW1 4973   6.275   6.642   0.144
 1358SOL    HW2 4974   6.291   6.489   0.089
 1359SOL     OW 4975   6.031   4.430   2.285
 1359SOL    HW1 4976   5.975   4.462   2.361
 1359SOL    HW2 4977   6.110   4.379   2.321
 1360SOL     OW 4978   2.138   3.236   0.407
 1360SOL    HW1 4979   2.184   3.268   0.489
 1360SOL    HW2 4980   2.085   3.154   0.427
 1361SOL     OW 4981   6.685   4.347   4.855
 1361SOL    HW1 4982   6.758   4.365   4.920
 1361SOL    HW2 4983   6.597   4.362   4.899
 1362SOL     OW 4984   3.950   3.887   2.935
 1362SOL    HW1 4985   3.950   3.816   3.005
 1362SOL    HW2 4986   3.982   3.850   2.849
 1363SOL     OW 4987   0.418   5.751   4.408
 1363SOL    HW1 4988   0.457   5.713   4.492
 1363SOL    HW2 4989   0.339   5.697   4.380
 1364SOL     OW 4990   5.255   4.207   0.308
 1364SOL    HW1 4991   5.277   4.231   0.402
 1364SOL    HW2 4992   5.269   4.287   0.249
 1365SOL     OW 4993   1.066   4.500   6.192
 1365SOL    HW1 4994   1.142   4.502   6.128
 1365SOL    HW2 4995   1.088   4.554   6.273
 1366SOL     OW 4996   1.699   6.376   6.197
 1366SOL    HW1 4997   1.697   6.411   6.290
 1366SOL    HW2 4998   1.700   6.276   6.199
 1367SOL     OW 4999   2.250   0.225   2.238
 1367SOL    HW1 5000   2.341   0.266   2.230
 1367SOL    HW2 5001   2.182   0.297   2.253
 1368SOL     OW 5002   5.265   6.880   4.780
 1368SOL    HW1 5003   5.311   6.843   4.700
 1368SOL    HW2 5004   5.185   6.824   4.802
 1369SOL     OW 5005   1.531   6.458   3.090
 1369SOL    HW1 5006   1.500   6.369   3.057
 1369SOL    HW2 5007   1.532   6.458   3.190
 1370SOL     OW 5008   3.560   0.958   1.969
 1370SOL    HW1 5009   3.490   0.948   1.898
 1370SOL    HW2 5010   3.649   0.931   1.931
 1371SOL     OW 5011   4.781   1.354   4.391
 1371SOL    HW1 5012   4.750   1.409   4.469
 1371SOL    HW2 5013   4.871   1.386   4.361
 1372SOL     OW 5014   1.831   3.287   1.420
 1372SOL    HW1 5015   1.770   3.234   1.361
 1372SOL    HW2 5016   1.827   3.383   1.393
 1373SOL     OW 5017   6.452   4.338   0.639
 1373SOL    HW1 5018   6.464   4.410   0.707
 1373SOL    HW2 5019   6.364   4.293   0.655
 1374SOL     OW 5020   4.177   2.114   0.743
 1374SOL    HW1 5021   4.079   2.105   0.760
 1374SOL    HW2 5022   4.218   2.170   0.814
 1375SOL     OW 5023   0.023   5.046   6.234
 1375SOL    HW1 5024   7.004   5.124   6.190
 1375SOL    HW2 5025   0.039   4.974   6.166
 1376SOL     OW 5026   4.777   2.899   3.498
 1376SOL    HW1 5027   4.804   2.935   3.587
 1376SOL    HW2 5028   4.822   2.952   3.426
 1377SOL     OW 5029   6.816   4.079   6.099
 1377SOL    HW1 5030   6.770   4.165   6.076
 1377SOL    HW2 5031   6.839   4.030   6.015
 1378SOL     OW 5032   0.203   2.466   4.919
 1378SOL    HW1 5033   0.286   2.496   4.966
 1378SOL    HW2 5034   0.207   2.367   4.904
 1379SOL     OW 5035   3.218   6.715   2.649
 1379SOL    HW1 5036   3.291   6.699   2.715
 1379SOL    HW2 5037   3.254   6.706   2.556
 1380SOL     OW 5038   6.921   6.974   2.699
 1380SOL    HW1 5039   6.917   7.009   2.605
 1380SOL    HW2 5040   6.856   6.900   2.710
 1381SOL     OW 5041   5.178   2.591   0.136
 1381SOL    HW1 5042   5.168   2.667   0.201
 1381SOL    HW2 5043   5.265   2.544   0.153
 1382SOL     OW 5044   5.815   4.829   6.386
 1382SOL    HW1 5045   5.843   4.883   6.307
 1382SOL    HW2 5046   5.718   4.804   6.376
 1383SOL     OW 5047   0.859   1.169   0.141
 1383SOL    HW1 5048   0.907   1.088   0.110
 1383SOL    HW2 5049   0.769   1.173   0.099
 1384SOL     OW 5050   3.357   1.369   3.484
 1384SOL    HW1 5051   3.367   1.392   3.581
 1384SOL    HW2 5052   3.263   1.341   3.466
 1385SOL     OW 5053   6.940   2.895   3.158
 1385SOL    HW1 5054   6.856   2.940   3.187
 1385SOL    HW2 5055   7.014   2.963   3.154
 1386SOL     OW 5056   2.247   2.810   4.107
 1386SOL    HW1 5057   2.312   2.808   4.031
 1386SOL    HW2 5058   2.196   2.724   4.110
 1387SOL     OW 5059   3.345   0.778   4.012
 1387SOL    HW1 5060   3.441   0.807   4.018
 1387SOL    HW2 5061   3.287   0.850   4.049
 1388SOL     OW 5062   6.277   6.938   4.001
 1388SOL    HW1 5063   6.303   6.868   3.934
 1388SOL    HW2 5064   6.305   0.003   3.968
 1389SOL     OW 5065   0.017   0.554   4.437
 1389SOL    HW1 5066   6.976   0.610   4.486
 1389SOL    HW2 5067   6.993   0.483   4.385
 1390SOL     OW 5068   3.833   1.493   0.040
 1390SOL    HW1 5069   3.772   1.506   0.119
 1390SOL    HW2 5070   3.882   1.578   0.021
 1391SOL     OW 5071   6.283   1.315   5.112
 1391SOL    HW1 5072   6.191   1.317   5.072
 1391SOL    HW2 5073   6.346   1.276   5.045
 1392SOL     OW 5074   4.850   5.822   5.649
 1392SOL    HW1 5075   4.776   5.884   5.623
 1392SOL    HW2 5076   4.851   5.812   5.748
 1393SOL     OW 5077   6.195   1.993   6.656
 1393SOL    HW1 5078   6.157   1.967   6.745
 1393SOL    HW2 5079   6.292   2.014   6.666
 1394SOL     OW 5080   4.273   6.310   3.373
 1394SOL    HW1 5081   4.240   6.230   3.422
 1394SOL    HW2 5082   4.247   6.393   3.423
 1395SOL     OW 5083   0.258   3.898   2.429
 1395SOL    HW1 5084   0.238   3.803   2.406
 1395SOL    HW2 5085   0.223   3.958   2.356
 1396SOL     OW 5086   1.514   0.920   4.374
 1396SOL    HW1 5087   1.428   0.951   4.414
 1396SOL    HW2 5088   1.514   0.937   4.275
 1397SOL     OW 5089   0.316   5.564   4.826
 1397SOL    HW1 5090   0.237   5.619   4.798
 1397SOL    HW2 5091   0.320   5.561   4.926
 1398SOL     OW 5092   1.822   1.371   0.256
 1398SOL    HW1 5093   1.863   1.453   0.295
 1398SOL    HW2 5094   1.740   1.396   0.205
 1399SOL     OW 5095   4.476   6.957   0.653
 1399SOL    HW1 5096   4.503   6.963   0.749
 1399SOL    HW2 5097   4.399   7.019   0.636
 1400SOL     OW 5098   6.571   0.612   4.149
 1400SOL    HW1 5099   6.593   0.681   4.218
 1400SOL    HW2 5100   6.518   0.654   4.075
 1401SOL     OW 5101   5.374   6.778   4.562
 1401SOL    HW1 5102   5.340   6.791   4.469
 1401SOL    HW2 5103   5.463   6.822   4.571
 1402SOL     OW 5104   5.653   3.740   0.632
 1402SOL    HW1 5105   5.648   3.707   0.726
 1402SOL    HW2 5106   5.588   3.816   0.620
 1403SOL     OW 5107   3.339   3.338   0.422
 1403SOL    HW1 5108   3.369   3.340   0.517
 1403SOL    HW2 5109   3.372   3.420   0.375
 1404SOL     OW 5110   4.881   0.284   1.133
 1404SOL    HW1 5111   4.815   0.219   1.171
 1404SOL    HW2 5112   4.966   0.281   1.186
 1405SOL     OW 5113   1.777   3.588   1.085
 1405SOL    HW1 5114   1.827   3.571   0.999
 1405SOL    HW2 5115   1.679   3.573   1.070
 1406SOL     OW 5116   2.334   3.523   1.442
 1406SOL    HW1 5117   2.240   3.508   1.472
 1406SOL    HW2 5118   2.335   3.585   1.365
 1407SOL     OW 5119   0.679   3.549   1.691
 1407SOL    HW1 5120   0.779   3.559   1.701
 1407SOL    HW2 5121   0.634   3.619   1.746
 1408SOL     OW 5122   6.101   5.681   6.474
 1408SOL    HW1 5123   6.115   5.737   6.392
 1408SOL    HW2 5124   6.153   5.719   6.550
 1409SOL     OW 5125   0.039   1.419   5.607
 1409SOL    HW1 5126   0.068   1.449   5.516
 1409SOL    HW2 5127   0.003   1.326   5.602
 1410SOL     OW 5128   2.810   2.903   6.044
 1410SOL    HW1 5129   2.857   2.826   6.000
 1410SOL    HW2 5130   2.718   2.912   6.005
 1411SOL     OW 5131   3.775   5.785   6.931
 1411SOL    HW1 5132   3.737   5.749   7.017
 1411SOL    HW2 5133   3.873   5.797   6.941
 1412SOL     OW 5134   0.792   2.944   0.707
 1412SOL    HW1 5135   0.882   2.987   0.710
 1412SOL    HW2 5136   0.736   2.976   0.784
 1413SOL     OW 5137   2.023   2.114   5.392
 1413SOL    HW1 5138   2.107   2.146   5.347
 1413SOL    HW2 5139   2.047   2.063   5.474
 1414SOL     OW 5140   0.948   3.405   2.311
 1414SOL    HW1 5141   0.923   3.341   2.384
 1414SOL    HW2 5142   1.040   3.440   2.328
 1415SOL     OW 5143   2.761   2.347   4.502
 1415SOL    HW1 5144   2.743   2.340   4.600
 1415SOL    HW2 5145   2.854   2.315   4.483
 1416SOL     OW 5146   4.442   0.160   5.438
 1416SOL    HW1 5147   4.468   0.235   5.378
 1416SOL    HW2 5148   4.403   0.086   5.383
 1417SOL     OW 5149   2.896   3.191   6.099
 1417SOL    HW1 5150   2.871   3.094   6.093
 1417SOL    HW2 5151   2.983   3.200   6.148
 1418SOL     OW 5152   3.412   3.847   0.326
 1418SOL    HW1 5153   3.367   3.852   0.415
 1418SOL    HW2 5154   3.460   3.933   0.309
 1419SOL     OW 5155   1.903   4.859   4.009
 1419SOL    HW1 5156   1.821   4.916   4.004
 1419SOL    HW2 5157   1.946   4.854   3.919
 1420SOL     OW 5158   3.767   5.034   2.561
 1420SOL    HW1 5159   3.746   4.961   2.625
 1420SOL    HW2 5160   3.722   5.118   2.591
 1421SOL     OW 5161   1.064   4.685   5.090
 1421SOL    HW1 5162   1.073   4.782   5.112
 1421SOL    HW2 5163   1.078   4.630   5.173
 1422SOL     OW 5164   2.133   4.324   6.119
 1422SOL    HW1 5165   2.104   4.304   6.026
 1422SOL    HW2 5166   2.161   4.419   6.126
 1423SOL     OW 5167   4.040   1.951   4.850
 1423SOL    HW1 5168   3.943   1.947   4.823
 1423SOL    HW2 5169   4.061   1.873   4.909
 1424SOL     OW 5170   6.288   2.810   6.734
 1424SOL    HW1 5171   6.365   2.814   6.671
 1424SOL    HW2 5172   6.320   2.817   6.828
 1425SOL     OW 5173   3.823   6.199   4.727
 1425SOL    HW1 5174   3.789   6.292   4.739
 1425SOL    HW2 5175   3.756   6.134   4.764
 1426SOL     OW 5176   2.602   1.762   6.539
 1426SOL    HW1 5177   2.633   1.672   6.570
 1426SOL    HW2 5178   2.563   1.754   6.447
 1427SOL     OW 5179   1.168   1.048   3.101
 1427SOL    HW1 5180   1.212   1.013   3.185
 1427SOL    HW2 5181   1.076   1.011   3.094
 1428SOL     OW 5182   0.169   2.892   2.466
 1428SOL    HW1 5183   0.192   2.798   2.492
 1428SOL    HW2 5184   0.127   2.892   2.376
 1429SOL     OW 5185   6.173   1.676   0.311
 1429SOL    HW1 5186   6.209   1.623   0.388
 1429SOL    HW2 5187   6.074   1.685   0.321
 1430SOL     OW 5188   2.299   4.261   4.046
 1430SOL    HW1 5189   2.302   4.322   3.967
 1430SOL    HW2 5190   2.231   4.189   4.030
 1431SOL     OW 5191   2.677   1.697   5.760
 1431SOL    HW1 5192   2.764   1.648   5.763
 1431SOL    HW2 5193   2.661   1.742   5.847
 1432SOL     OW 5194   2.277   1.200   0.988
 1432SOL    HW1 5195   2.353   1.181   0.926
 1432SOL    HW2 5196   2.192   1.166   0.948
 1433SOL     OW 5197   3.401   0.877   3.747
 1433SOL    HW1 5198   3.328   0.945   3.755
 1433SOL    HW2 5199   3.380   0.799   3.807
 1434SOL     OW 5200   0.096   2.396   6.332
 1434SOL    HW1 5201   0.159   2.336   6.282
 1434SOL    HW2 5202   0.147   2.443   6.405
 1435SOL     OW 5203   0.511   0.665   3.664
 1435SOL    HW1 5204   0.599   0.689   3.704
 1435SOL    HW2 5205   0.465   0.747   3.630
 1436SOL     OW 5206   5.958   2.510   0.724
 1436SOL    HW1 5207   5.937   2.536   0.630
 1436SOL    HW2 5208   6.044   2.554   0.752
 1437SOL     OW 5209   4.605   1.049   6.078
 1437SOL    HW1 5210   4.611   0.963   6.127
 1437SOL    HW2 5211   4.617   1.033   5.980
 1438SOL     OW 5212   2.593   1.170   1.581
 1438SOL    HW1 5213   2.538   1.210   1.508
 1438SOL    HW2 5214   2.690   1.176   1.558
 1439SOL     OW 5215   0.267   5.563   6.941
 1439SOL    HW1 5216   0.304   5.568   6.848
 1439SOL    HW2 5217   0.312   5.489   6.991
 1440SOL     OW 5218   3.178   3.076   3.788
 1440SOL    HW1 5219   3.141   2.995   3.743
 1440SOL    HW2 5220   3.105   3.143   3.801
 1441SOL     OW 5221   6.185   3.183   4.231
 1441SOL    HW1 5222   6.226   3.173   4.322
 1441SOL    HW2 5223   6.221   3.265   4.188
 1442SOL     OW 5224   5.882   4.451   0.173
 1442SOL    HW1 5225   5.808   4.385   0.187
 1442SOL    HW2 5226   5.970   4.406   0.185
 1443SOL     OW 5227   0.906   0.680   3.457
 1443SOL    HW1 5228   0.876   0.741   3.384
 1443SOL    HW2 5229   0.864   0.590   3.444
 1444SOL     OW 5230   4.613   0.128   3.479
 1444SOL    HW1 5231   4.689   0.132   3.414
 1444SOL    HW2 5232   4.539   0.187   3.447
 1445SOL     OW 5233   0.132   2.215   1.384
 1445SOL    HW1 5234   0.194   2.140   1.364
 1445SOL    HW2 5235   0.126   2.227   1.483
 1446SOL     OW 5236   3.695   2.255   1.325
 1446SOL    HW1 5237   3.792   2.247   1.349
 1446SOL    HW2 5238   3.640   2.254   1.409
 1447SOL     OW 5239   6.737   0.651   5.068
 1447SOL    HW1 5240   6.677   0.730   5.056
 1447SOL    HW2 5241   6.803   0.647   4.993
 1448SOL     OW 5242   5.518   1.676   0.555
 1448SOL    HW1 5243   5.527   1.595   0.613
 1448SOL    HW2 5244   5.555   1.657   0.465
 1449SOL     OW 5245   5.661   6.576   0.665
 1449SOL    HW1 5246   5.688   6.500   0.726
 1449SOL    HW2 5247   5.565   6.567   0.641
 1450SOL     OW 5248   5.706   3.298   2.850
 1450SOL    HW1 5249   5.788   3.346   2.819
 1450SOL    HW2 5250   5.692   3.217   2.793
 1451SOL     OW 5251   2.406   6.836   2.850
 1451SOL    HW1 5252   2.387   6.934   2.846
 1451SOL    HW2 5253   2.409   6.799   2.757
 1452SOL     OW 5254   5.394   0.750   5.005
 1452SOL    HW1 5255   5.359   0.670   5.054
 1452SOL    HW2 5256   5.336   0.768   4.925
 1453SOL     OW 5257   5.493   4.163   4.774
 1453SOL    HW1 5258   5.469   4.210   4.689
 1453SOL    HW2 5259   5.410   4.131   4.819
 1454SOL     OW 5260   5.820   2.832   2.035
 1454SOL    HW1 5261   5.805   2.733   2.032
 1454SOL    HW2 5262   5.749   2.874   2.092
 1455SOL     OW 5263   1.366   0.943   2.086
 1455SOL    HW1 5264   1.342   0.852   2.051
 1455SOL    HW2 5265   1.357   1.010   2.012
 1456SOL     OW 5266   6.749   6.949   4.619
 1456SOL    HW1 5267   6.675   7.016   4.610
 1456SOL    HW2 5268   6.769   6.908   4.530
 1457SOL     OW 5269   1.365   0.144   3.581
 1457SOL    HW1 5270   1.442   0.124   3.643
 1457SOL    HW2 5271   1.394   0.132   3.487
 1458SOL     OW 5272   5.101   6.949   5.684
 1458SOL    HW1 5273   5.050   6.919   5.603
 1458SOL    HW2 5274   5.163   6.877   5.713
 1459SOL     OW 5275   3.233   6.283   6.807
 1459SOL    HW1 5276   3.134   6.301   6.807
 1459SOL    HW2 5277   3.273   6.317   6.722
 1460SOL     OW 5278   0.834   6.561   0.130
 1460SOL    HW1 5279   0.740   6.536   0.153
 1460SOL    HW2 5280   0.836   6.595   0.036
 1461SOL     OW 5281   6.326   4.536   3.374
 1461SOL    HW1 5282   6.243   4.500   3.416
 1461SOL    HW2 5283   6.302   4.611   3.312
 1462SOL     OW 5284   6.090   1.442   0.934
 1462SOL    HW1 5285   6.185   1.438   0.965
 1462SOL    HW2 5286   6.046   1.354   0.948
 1463SOL     OW 5287   0.711   0.328   5.222
 1463SOL    HW1 5288   0.712   0.266   5.301
 1463SOL    HW2 5289   0.673   0.281   5.143
 1464SOL     OW 5290   0.146   6.773   0.355
 1464SOL    HW1 5291   0.051   6.788   0.328
 1464SOL    HW2 5292   0.207   6.826   0.296
 1465SOL     OW 5293   0.234   0.607   3.831
 1465SOL    HW1 5294   0.191   0.581   3.917
 1465SOL    HW2 5295   0.332   0.624   3.847
 1466SOL     OW 5296   6.650   5.499   2.602
 1466SOL    HW1 5297   6.728   5.442   2.576
 1466SOL    HW2 5298   6.638   5.494   2.702
 1467SOL     OW 5299   1.798   0.828   3.275
 1467SOL    HW1 5300   1.761   0.741   3.306
 1467SOL    HW2 5301   1.725   0.883   3.235
 1468SOL     OW 5302   5.733   5.367   3.645
 1468SOL    HW1 5303   5.710   5.279   3.687
 1468SOL    HW2 5304   5.716   5.362   3.546
 1469SOL     OW 5305   0.461   0.299   2.952
 1469SOL    HW1 5306   0.395   0.374   2.948
 1469SOL    HW2 5307   0.553   0.336   2.945
 1470SOL     OW 5308   1.411   1.017   2.963
 1470SOL    HW1 5309   1.320   1.044   2.993
 1470SOL    HW2 5310   1.451   1.091   2.908
 1471SOL     OW 5311   6.772   0.406   0.002
 1471SOL    HW1 5312   6.708   0.369   6.961
 1471SOL    HW2 5313   6.849   0.450   6.980
 1472SOL     OW 5314   4.756   0.402   4.993
 1472SOL    HW1 5315   4.687   0.410   4.921
 1472SOL    HW2 5316   4.840   0.365   4.955
 1473SOL     OW 5317   6.187   5.799   2.940
 1473SOL    HW1 5318   6.162   5.723   3.001
 1473SOL    HW2 5319   6.281   5.827   2.960
 1474SOL     OW 5320   6.365   5.406   3.942
 1474SOL    HW1 5321   6.331   5.437   4.031
 1474SOL    HW2 5322   6.449   5.454   3.919
 1475SOL     OW 5323   0.183   0.298   2.460
 1475SOL    HW1 5324   0.084   0.304   2.475
 1475SOL    HW2 5325   0.217   0.211   2.496
 1476SOL     OW 5326   1.647   0.690   1.947
 1476SOL    HW1 5327   1.669   0.600   1.910
 1476SOL    HW2 5328   1.548   0.697   1.959
 1477SOL     OW 5329   3.461   0.301   5.745
 1477SOL    HW1 5330   3.504   0.212   5.728
 1477SOL    HW2 5331   3.406   0.295   5.828
 1478SOL     OW 5332   6.367   5.250   0.869
 1478SOL    HW1 5333   6.360   5.157   0.834
 1478SOL    HW2 5334   6.454   5.291   0.838
 1479SOL     OW 5335   1.838   4.652   0.038
 1479SOL    HW1 5336   1.906   4.602   7.009
 1479SOL    HW2 5337   1.756   4.665   7.009
 1480SOL     OW 5338   2.203   1.351   6.515
 1480SOL    HW1 5339   2.286   1.316   6.558
 1480SOL    HW2 5340   2.181   1.295   6.435
 1481SOL     OW 5341   5.711   2.046   5.562
 1481SOL    HW1 5342   5.794   2.006   5.523
 1481SOL    HW2 5343   5.732   2.135   5.602
 1482SOL     OW 5344   5.522   1.079   1.341
 1482SOL    HW1 5345   5.602   1.136   1.363
 1482SOL    HW2 5346   5.504   1.084   1.243
 1483SOL     OW 5347   6.429   2.627   0.149
 1483SOL    HW1 5348   6.356   2.563   0.124
 1483SOL    HW2 5349   6.484   2.588   0.222
 1484SOL     OW 5350   6.480   4.681   2.548
 1484SOL    HW1 5351   6.480   4.760   2.487
 1484SOL    HW2 5352   6.444   4.601   2.499
 1485SOL     OW 5353   5.638   2.796   2.876
 1485SOL    HW1 5354   5.596   2.884   2.899
 1485SOL    HW2 5355   5.613   2.728   2.946
 1486SOL     OW 5356   4.408   2.482   3.028
 1486SOL    HW1 5357   4.410   2.475   2.928
 1486SOL    HW2 5358   4.331   2.430   3.064
 1487SOL     OW 5359   6.216   1.413   6.129
 1487SOL    HW1 5360   6.256   1.505   6.137
 1487SOL    HW2 5361   6.146   1.400   6.199
 1488SOL     OW 5362   4.580   1.110   3.096
 1488SOL    HW1 5363   4.586   1.113   3.196
 1488SOL    HW2 5364   4.486   1.129   3.068
 1489SOL     OW 5365   3.596   4.979   4.646
 1489SOL    HW1 5366   3.689   4.942   4.652
 1489SOL    HW2 5367   3.552   4.944   4.563
 1490SOL     OW 5368   1.153   1.494   0.237
 1490SOL    HW1 5369   1.232   1.436   0.218
 1490SOL    HW2 5370   1.171   1.586   0.204
 1491SOL     OW 5371   6.770   3.773   2.951
 1491SOL    HW1 5372   6.737   3.733   3.036
 1491SOL    HW2 5373   6.712   3.849   2.925
 1492SOL     OW 5374   5.278   1.984   1.826
 1492SOL    HW1 5375   5.267   2.084   1.820
 1492SOL    HW2 5376   5.277   1.945   1.734
 1493SOL     OW 5377   4.567   0.355   4.800
 1493SOL    HW1 5378   4.607   0.339   4.710
 1493SOL    HW2 5379   4.473   0.387   4.790
 1494SOL     OW 5380   3.700   2.395   5.773
 1494SOL    HW1 5381   3.624   2.344   5.733
 1494SOL    HW2 5382   3.707   2.375   5.870
 1495SOL     OW 5383   0.488   3.876   3.298
 1495SOL    HW1 5384   0.432   3.863   3.380
 1495SOL    HW2 5385   0.547   3.796   3.286
 1496SOL     OW 5386   6.701   0.222   1.978
 1496SOL    HW1 5387   6.714   0.196   1.882
 1496SOL    HW2 5388   6.752   0.305   1.997
 1497SOL     OW 5389   0.448   5.242   4.079
 1497SOL    HW1 5390   0.429   5.306   4.152
 1497SOL    HW2 5391   0.542   5.210   4.085
 1498SOL     OW 5392   2.916   4.410   5.984
 1498SOL    HW1 5393   2.908   4.510   5.991
 1498SOL    HW2 5394   2.839   4.374   5.931
 1499SOL     OW 5395   1.154   3.722   4.934
 1499SOL    HW1 5396   1.244   3.759   4.911
 1499SOL    HW2 5397   1.098   3.793   4.975
 1500SOL     OW 5398   5.557   0.030   0.762
 1500SOL    HW1 5399   5.594   6.963   0.773
 1500SOL    HW2 5400   5.522   0.062   0.850
 1501SOL     OW 5401   4.361   0.370   6.551
 1501SOL    HW1 5402   4.284   0.430   6.571
 1501SOL    HW2 5403   4.352   0.286   6.605
 1502SOL     OW 5404   6.535   6.565   6.875
 1502SOL    HW1 5405   6.450   6.617   6.874
 1502SOL    HW2 5406   6.601   6.609   6.813
 1503SOL     OW 5407   2.009   2.878   0.465
 1503SOL    HW1 5408   2.058   2.821   0.399
 1503SOL    HW2 5409   2.035   2.852   0.558
 1504SOL     OW 5410   3.169   0.104   4.731
 1504SOL    HW1 5411   3.161   0.124   4.633
 1504SOL    HW2 5412   3.096   0.152   4.780
 1505SOL     OW 5413   5.821   0.336   5.379
 1505SOL    HW1 5414   5.864   0.308   5.292
 1505SOL    HW2 5415   5.865   0.419   5.412
 1506SOL     OW 5416   1.128   5.192   3.387
 1506SOL    HW1 5417   1.070   5.242   3.451
 1506SOL    HW2 5418   1.204   5.150   3.437
 1507SOL     OW 5419   1.909   1.865   4.668
 1507SOL    HW1 5420   1.845   1.921   4.721
 1507SOL    HW2 5421   1.907   1.894   4.572
 1508SOL     OW 5422   4.655   0.067   0.875
 1508SOL    HW1 5423   4.711   0.128   0.819
 1508SOL    HW2 5424   4.710   0.029   0.949
 1509SOL     OW 5425   4.555   3.017   6.248
 1509SOL    HW1 5426   4.595   3.062   6.168
 1509SOL    HW2 5427   4.460   2.993   6.229
 1510SOL     OW 5428   6.815   2.278   4.665
 1510SOL    HW1 5429   6.821   2.364   4.716
 1510SOL    HW2 5430   6.894   2.271   4.603
 1511SOL     OW 5431   2.647   1.522   6.666
 1511SOL    HW1 5432   2.729   1.519   6.722
 1511SOL    HW2 5433   2.567   1.500   6.722
 1512SOL     OW 5434   0.576   0.244   1.636
 1512SOL    HW1 5435   0.585   0.145   1.630
 1512SOL    HW2 5436   0.537   0.268   1.725
 1513SOL     OW 5437   3.842   0.240   4.226
 1513SOL    HW1 5438   3.818   0.214   4.319
 1513SOL    HW2 5439   3.935   0.209   4.206
 1514SOL     OW 5440   5.509   1.618   5.150
 1514SOL    HW1 5441   5.565   1.535   5.145
 1514SOL    HW2 5442   5.431   1.609   5.088
 1515SOL     OW 5443   6.990   3.993   5.453
 1515SOL    HW1 5444   7.004   4.071   5.392
 1515SOL    HW2 5445   6.903   3.949   5.430
 1516SOL     OW 5446   0.683   0.931   0.887
 1516SOL    HW1 5447   0.584   0.918   0.883
 1516SOL    HW2 5448   0.720   0.936   0.794
 1517SOL     OW 5449   4.546   5.389   3.622
 1517SOL    HW1 5450   4.519   5.483   3.601
 1517SOL    HW2 5451   4.481   5.325   3.580
 1518SOL     OW 5452   6.286   4.064   0.226
 1518SOL    HW1 5453   6.319   4.050   0.132
 1518SOL    HW2 5454   6.338   4.138   0.269
 1519SOL     OW 5455   6.952   4.657   1.222
 1519SOL    HW1 5456   6.947   4.627   1.127
 1519SOL    HW2 5457   6.885   4.607   1.277
 1520SOL     OW 5458   2.098   3.512   2.298
 1520SOL    HW1 5459   2.145   3.501   2.210
 1520SOL    HW2 5460   2.081   3.422   2.338
 1521SOL     OW 5461   1.601   3.284   0.292
 1521SOL    HW1 5462   1.601   3.381   0.266
 1521SOL    HW2 5463   1.597   3.277   0.392
 1522SOL     OW 5464   6.804   1.882   6.460
 1522SOL    HW1 5465   6.721   1.905   6.512
 1522SOL    HW2 5466   6.884   1.890   6.519
 1523SOL     OW 5467   5.732   3.012   6.921
 1523SOL    HW1 5468   5.752   2.925   6.876
 1523SOL    HW2 5469   5.684   3.073   6.857
 1524SOL     OW 5470   0.605   1.534   1.617
 1524SOL    HW1 5471   0.640   1.455   1.568
 1524SOL    HW2 5472   0.675   1.568   1.680
 1525SOL     OW 5473   4.162   1.432   5.921
 1525SOL    HW1 5474   4.222   1.511   5.938
 1525SOL    HW2 5475   4.072   1.464   5.894
 1526SOL     OW 5476   0.054   1.726   1.210
 1526SOL    HW1 5477   0.047   1.765   1.301
 1526SOL    HW2 5478   0.002   1.640   1.206
 1527SOL     OW 5479   3.491   1.812   4.926
 1527SOL    HW1 5480   3.419   1.805   4.857
 1527SOL    HW2 5481   3.521   1.907   4.935
 1528SOL     OW 5482   4.771   6.260   2.855
 1528SOL    HW1 5483   4.860   6.230   2.891
 1528SOL    HW2 5484   4.704   6.262   2.928
 1529SOL     OW 5485   4.594   0.787   6.217
 1529SOL    HW1 5486   4.682   0.774   6.262
 1529SOL    HW2 5487   4.520   0.765   6.280
 1530SOL     OW 5488   3.024   6.333   1.922
 1530SOL    HW1 5489   3.068   6.285   1.846
 1530SOL    HW2 5490   2.978   6.415   1.888
 1531SOL     OW 5491   6.061   0.678   4.980
 1531SOL    HW1 5492   6.119   0.627   4.917
 1531SOL    HW2 5493   6.017   0.753   4.932
 1532SOL     OW 5494   3.368   2.329   5.320
 1532SOL    HW1 5495   3.281   2.348   5.275
 1532SOL    HW2 5496   3.372   2.233   5.346
 1533SOL     OW 5497   6.790   3.096   6.609
 1533SOL    HW1 5498   6.741   3.136   6.687
 1533SOL    HW2 5499   6.811   3.000   6.628
 1534SOL     OW 5500   1.966   5.662   0.379
 1534SOL    HW1 5501   1.917   5.609   0.310
 1534SOL    HW2 5502   1.911   5.667   0.462
 1535SOL     OW 5503   5.416   5.276   4.281
 1535SOL    HW1 5504   5.387   5.303   4.189
 1535SOL    HW2 5505   5.469   5.192   4.275
 1536SOL     OW 5506   2.382   5.301   4.600
 1536SOL    HW1 5507   2.368   5.227   4.534
 1536SOL    HW2 5508   2.373   5.389   4.554
 1537SOL     OW 5509   3.287   5.375   3.830
 1537SOL    HW1 5510   3.279   5.470   3.859
 1537SOL    HW2 5511   3.384   5.353   3.816
 1538SOL     OW 5512   3.115   4.082   6.447
 1538SOL    HW1 5513   3.104   4.094   6.349
 1538SOL    HW2 5514   3.201   4.123   6.476
 1539SOL     OW 5515   3.662   4.377   1.757
 1539SOL    HW1 5516   3.756   4.351   1.733
 1539SOL    HW2 5517   3.658   4.476   1.773
 1540SOL     OW 5518   0.846   0.645   4.471
 1540SOL    HW1 5519   0.789   0.637   4.390
 1540SOL    HW2 5520   0.940   0.618   4.448
 1541SOL     OW 5521   3.682   3.105   1.335
 1541SOL    HW1 5522   3.743   3.067   1.266
 1541SOL    HW2 5523   3.606   3.152   1.291
 1542SOL     OW 5524   0.598   6.016   1.469
 1542SOL    HW1 5525   0.676   6.070   1.502
 1542SOL    HW2 5526   0.571   5.950   1.540
 1543SOL     OW 5527   3.423   3.367   3.627
 1543SOL    HW1 5528   3.473   3.444   3.666
 1543SOL    HW2 5529   3.477   3.283   3.639
 1544SOL     OW 5530   3.010   3.825   2.328
 1544SOL    HW1 5531   3.068   3.903   2.306
 1544SOL    HW2 5532   3.052   3.741   2.294
 1545SOL     OW 5533   6.053   0.811   5.474
 1545SOL    HW1 5534   6.082   0.848   5.563
 1545SOL    HW2 5535   6.105   0.854   5.401
 1546SOL     OW 5536   6.401   0.404   6.318
 1546SOL    HW1 5537   6.414   0.469   6.244
 1546SOL    HW2 5538   6.489   0.371   6.351
 1547SOL     OW 5539   2.578   4.716   2.587
 1547SOL    HW1 5540   2.561   4.731   2.490
 1547SOL    HW2 5541   2.540   4.792   2.640
 1548SOL     OW 5542   3.807   4.462   5.610
 1548SOL    HW1 5543   3.721   4.512   5.616
 1548SOL    HW2 5544   3.836   4.436   5.702
 1549SOL     OW 5545   6.463   1.486   1.641
 1549SOL    HW1 5546   6.475   1.493   1.740
 1549SOL    HW2 5547   6.504   1.566   1.597
 1550SOL     OW 5548   2.561   6.688   5.370
 1550SOL    HW1 5549   2.536   6.767   5.314
 1550SOL    HW2 5550   2.655   6.661   5.349
 1551SOL     OW 5551   1.564   2.883   0.970
 1551SOL    HW1 5552   1.640   2.858   1.030
 1551SOL    HW2 5553   1.486   2.911   1.025
 1552SOL     OW 5554   1.354   6.658   0.919
 1552SOL    HW1 5555   1.266   6.618   0.896
 1552SOL    HW2 5556   1.404   6.596   0.980
 1553SOL     OW 5557   6.147   1.495   6.871
 1553SOL    HW1 5558   6.231   1.533   6.832
 1553SOL    HW2 5559   6.171   1.427   6.941
 1554SOL     OW 5560   4.261   2.257   2.694
 1554SOL    HW1 5561   4.346   2.208   2.679
 1554SOL    HW2 5562   4.281   2.351   2.720
 1555SOL     OW 5563   4.826   1.631   5.181
 1555SOL    HW1 5564   4.896   1.569   5.217
 1555SOL    HW2 5565   4.737   1.604   5.218
 1556SOL     OW 5566   4.092   0.170   0.611
 1556SOL    HW1 5567   4.105   0.260   0.568
 1556SOL    HW2 5568   3.995   0.158   0.633
 1557SOL     OW 5569   2.045   2.568   1.022
 1557SOL    HW1 5570   2.001   2.572   0.933
 1557SOL    HW2 5571   1.981   2.598   1.093
 1558SOL     OW 5572   6.598   2.602   5.054
 1558SOL    HW1 5573   6.506   2.602   5.092
 1558SOL    HW2 5574   6.663   2.571   5.123
 1559SOL     OW 5575   0.592   4.028   2.269
 1559SOL    HW1 5576   0.560   3.947   2.220
 1559SOL    HW2 5577   0.683   4.011   2.307
 1560SOL     OW 5578   3.675   1.569   0.257
 1560SOL    HW1 5579   3.721   1.569   0.346
 1560SOL    HW2 5580   3.638   1.660   0.239
 1561SOL     OW 5581   5.791   6.539   1.981
 1561SOL    HW1 5582   5.883   6.529   2.020
 1561SOL    HW2 5583   5.770   6.637   1.972
 1562SOL     OW 5584   2.832   6.554   2.342
 1562SOL    HW1 5585   2.909   6.568   2.280
 1562SOL    HW2 5586   2.804   6.458   2.339
 1563SOL     OW 5587   3.167   2.159   4.631
 1563SOL    HW1 5588   3.207   2.214   4.704
 1563SOL    HW2 5589   3.104   2.091   4.670
 1564SOL     OW 5590   1.530   1.797   2.594
 1564SOL    HW1 5591   1.494   1.891   2.603
 1564SOL    HW2 5592   1.523   1.768   2.499
 1565SOL     OW 5593   4.096   6.063   4.147
 1565SOL    HW1 5594   4.010   6.068   4.199
 1565SOL    HW2 5595   4.162   6.008   4.197
 1566SOL     OW 5596   5.119   4.798   3.802
 1566SOL    HW1 5597   5.066   4.873   3.762
 1566SOL    HW2 5598   5.214   4.804   3.770
 1567SOL     OW 5599   6.099   5.062   6.462
 1567SOL    HW1 5600   6.075   5.063   6.365
 1567SOL    HW2 5601   6.114   4.968   6.492
 1568SOL     OW 5602   1.909   6.434   3.777
 1568SOL    HW1 5603   1.944   6.424   3.684
 1568SOL    HW2 5604   1.985   6.441   3.841
 1569SOL     OW 5605   3.442   0.584   3.015
 1569SOL    HW1 5606   3.384   0.659   3.049
 1569SOL    HW2 5607   3.389   0.526   2.954
 1570SOL     OW 5608   2.980   6.617   6.813
 1570SOL    HW1 5609   2.885   6.638   6.793
 1570SOL    HW2 5610   2.994   6.613   6.912
 1571SOL     OW 5611   1.329   2.153   3.723
 1571SOL    HW1 5612   1.339   2.228   3.789
 1571SOL    HW2 5613   1.294   2.189   3.637
 1572SOL     OW 5614   1.598   5.401   1.688
 1572SOL    HW1 5615   1.548   5.413   1.603
 1572SOL    HW2 5616   1.591   5.306   1.718
 1573SOL     OW 5617   5.162   5.493   1.760
 1573SOL    HW1 5618   5.126   5.471   1.669
 1573SOL    HW2 5619   5.194   5.588   1.761
 1574SOL     OW 5620   6.406   3.263   2.259
 1574SOL    HW1 5621   6.329   3.320   2.291
 1574SOL    HW2 5622   6.429   3.196   2.330
 1575SOL     OW 5623   1.419   0.487   1.771
 1575SOL    HW1 5624   1.335   0.434   1.766
 1575SOL    HW2 5625   1.481   0.458   1.699
 1576SOL     OW 5626   0.542   6.114   2.405
 1576SOL    HW1 5627   0.478   6.062   2.461
 1576SOL    HW2 5628   0.512   6.111   2.309
 1577SOL     OW 5629   3.164   0.461   6.186
 1577SOL    HW1 5630   3.202   0.407   6.261
 1577SOL    HW2 5631   3.089   0.518   6.221
 1578SOL     OW 5632   4.091   0.721   0.347
 1578SOL    HW1 5633   4.072   0.819   0.335
 1578SOL    HW2 5634   4.094   0.677   0.258
 1579SOL     OW 5635   0.990   2.724   1.338
 1579SOL    HW1 5636   0.950   2.770   1.258
 1579SOL    HW2 5637   0.977   2.625   1.328
 1580SOL     OW 5638   3.153   3.518   3.326
 1580SOL    HW1 5639   3.243   3.491   3.291
 1580SOL    HW2 5640   3.136   3.472   3.413
 1581SOL     OW 5641   0.101   4.790   5.398
 1581SOL    HW1 5642   0.175   4.724   5.393
 1581SOL    HW2 5643   0.056   4.784   5.487
 1582SOL     OW 5644   4.490   5.985   5.138
 1582SOL    HW1 5645   4.403   5.939   5.156
 1582SOL    HW2 5646   4.473   6.083   5.123
 1583SOL     OW 5647   1.010   6.453   5.144
 1583SOL    HW1 5648   1.003   6.414   5.052
 1583SOL    HW2 5649   1.016   6.379   5.211
 1584SOL     OW 5650   1.205   5.380   6.647
 1584SOL    HW1 5651   1.219   5.424   6.558
 1584SOL    HW2 5652   1.107   5.372   6.665
 1585SOL     OW 5653   3.631   1.449   3.647
 1585SOL    HW1 5654   3.604   1.386   3.575
 1585SOL    HW2 5655   3.568   1.439   3.725
 1586SOL     OW 5656   3.395   5.258   3.193
 1586SOL    HW1 5657   3.464   5.209   3.140
 1586SOL    HW2 5658   3.436   5.340   3.232
 1587SOL     OW 5659   2.084   5.668   5.789
 1587SOL    HW1 5660   1.997   5.659   5.838
 1587SOL    HW2 5661   2.141   5.589   5.810
 1588SOL     OW 5662   4.646   0.195   2.697
 1588SOL    HW1 5663   4.658   0.293   2.713
 1588SOL    HW2 5664   4.577   0.181   2.626
 1589SOL     OW 5665   6.294   3.896   2.838
 1589SOL    HW1 5666   6.211   3.915   2.889
 1589SOL    HW2 5667   6.361   3.969   2.854
 1590SOL     OW 5668   5.188   1.874   3.269
 1590SOL    HW1 5669   5.204   1.940   3.196
 1590SOL    HW2 5670   5.275   1.839   3.303
 1591SOL     OW 5671   6.639   5.517   1.455
 1591SOL    HW1 5672   6.733   5.497   1.425
 1591SOL    HW2 5673   6.575   5.466   1.398
 1592SOL     OW 5674   1.419   4.626   6.569
 1592SOL    HW1 5675   1.397   4.544   6.517
 1592SOL    HW2 5676   1.471   4.689   6.512
 1593SOL     OW 5677   1.039   0.133   6.356
 1593SOL    HW1 5678   1.067   0.058   6.296
 1593SOL    HW2 5679   1.038   0.101   6.451
 1594SOL     OW 5680   0.031   7.002   1.829
 1594SOL    HW1 5681   7.012   6.967   1.911
 1594SOL    HW2 5682   0.066   0.069   1.847
 1595SOL     OW 5683   1.608   4.158   6.918
 1595SOL    HW1 5684   1.631   4.224   6.990
 1595SOL    HW2 5685   1.555   4.083   6.957
 1596SOL     OW 5686   5.976   3.514   3.390
 1596SOL    HW1 5687   6.075   3.527   3.379
 1596SOL    HW2 5688   5.939   3.475   3.305
 1597SOL     OW 5689   2.703   5.360   0.627
 1597SOL    HW1 5690   2.725   5.268   0.594
 1597SOL    HW2 5691   2.788   5.408   0.649
 1598SOL     OW 5692   1.448   5.549   6.586
 1598SOL    HW1 5693   1.357   5.536   6.546
 1598SOL    HW2 5694   1.439   5.596   6.674
 1599SOL     OW 5695   3.551   5.000   4.367
 1599SOL    HW1 5696   3.466   4.968   4.325
 1599SOL    HW2 5697   3.542   5.097   4.392
 1600SOL     OW 5698   3.193   0.668   2.673
 1600SOL    HW1 5699   3.137   0.668   2.757
 1600SOL    HW2 5700   3.193   0.576   2.634
 1601SOL     OW 5701   6.622   6.417   3.990
 1601SOL    HW1 5702   6.712   6.411   4.034
 1601SOL    HW2 5703   6.604   6.333   3.940
 1602SOL     OW 5704   4.535   5.314   3.869
 1602SOL    HW1 5705   4.585   5.228   3.870
 1602SOL    HW2 5706   4.543   5.357   3.779
 1603SOL     OW 5707   2.904   5.299   4.359
 1603SOL    HW1 5708   2.807   5.296   4.336
 1603SOL    HW2 5709   2.931   5.394   4.373
 1604SOL     OW 5710   4.167   5.096   1.775
 1604SOL    HW1 5711   4.175   5.179   1.720
 1604SOL    HW2 5712   4.088   5.105   1.836
 1605SOL     OW 5713   5.460   5.508   1.511
 1605SOL    HW1 5714   5.428   5.527   1.604
 1605SOL    HW2 5715   5.545   5.455   1.515
 1606SOL     OW 5716   3.799   5.424   5.050
 1606SOL    HW1 5717   3.808   5.390   5.143
 1606SOL    HW2 5718   3.718   5.383   5.007
 1607SOL     OW 5719   4.106   0.239   1.863
 1607SOL    HW1 5720   4.028   0.196   1.909
 1607SOL    HW2 5721   4.103   0.338   1.879
 1608SOL     OW 5722   0.092   0.565   3.138
 1608SOL    HW1 5723   0.005   0.610   3.118
 1608SOL    HW2 5724   0.121   0.511   3.058
 1609SOL     OW 5725   3.236   6.429   0.592
 1609SOL    HW1 5726   3.159   6.463   0.646
 1609SOL    HW2 5727   3.321   6.438   0.645
 1610SOL     OW 5728   5.210   6.368   0.555
 1610SOL    HW1 5729   5.292   6.333   0.510
 1610SOL    HW2 5730   5.215   6.349   0.653
 1611SOL     OW 5731   1.245   3.968   1.098
 1611SOL    HW1 5732   1.169   4.008   1.149
 1611SOL    HW2 5733   1.255   4.015   1.010
 1612SOL     OW 5734   3.195   6.035   1.474
 1612SOL    HW1 5735   3.102   6.052   1.442
 1612SOL    HW2 5736   3.255   6.018   1.396
 1613SOL     OW 5737   0.735   5.763   2.070
 1613SOL    HW1 5738   0.799   5.832   2.105
 1613SOL    HW2 5739   0.720   5.693   2.140
 1614SOL     OW 5740   5.368   2.039   6.252
 1614SOL    HW1 5741   5.453   2.084   6.224
 1614SOL    HW2 5742   5.328   2.087   6.330
 1615SOL     OW 5743   6.948   5.028   6.647
 1615SOL    HW1 5744   6.858   5.044   6.689
 1615SOL    HW2 5745   6.976   5.110   6.597
 1616SOL     OW 5746   3.714   0.831   4.981
 1616SOL    HW1 5747   3.811   0.825   5.003
 1616SOL    HW2 5748   3.681   0.924   5.000
 1617SOL     OW 5749   4.815   0.172   3.276
 1617SOL    HW1 5750   4.768   0.260   3.271
 1617SOL    HW2 5751   4.913   0.185   3.263
 1618SOL     OW 5752   1.620   5.997   2.655
 1618SOL    HW1 5753   1.678   6.007   2.574
 1618SOL    HW2 5754   1.642   6.069   2.721
 1619SOL     OW 5755   1.091   5.002   6.692
 1619SOL    HW1 5756   1.074   5.082   6.749
 1619SOL    HW2 5757   1.167   5.022   6.630
 1620SOL     OW 5758   2.849   5.009   1.189
 1620SOL    HW1 5759   2.893   5.099   1.202
 1620SOL    HW2 5760   2.919   4.938   1.192
 1621SOL     OW 5761   6.196   6.758   1.489
 1621SOL    HW1 5762   6.203   6.678   1.549
 1621SOL    HW2 5763   6.287   6.783   1.457
 1622SOL     OW 5764   0.533   4.365   5.971
 1622SOL    HW1 5765   0.551   4.391   5.876
 1622SOL    HW2 5766   0.522   4.448   6.026
 1623SOL     OW 5767   0.423   2.548   4.708
 1623SOL    HW1 5768   0.445   2.491   4.629
 1623SOL    HW2 5769   0.337   2.518   4.748
 1624SOL     OW 5770   3.809   1.152   0.290
 1624SOL    HW1 5771   3.736   1.179   0.227
 1624SOL    HW2 5772   3.773   1.085   0.355
 1625SOL     OW 5773   1.425   5.020   7.004
 1625SOL    HW1 5774   1.515   5.023   6.960
 1625SOL    HW2 5775   1.387   4.928   6.995
 1626SOL     OW 5776   2.527   1.816   2.542
 1626SOL    HW1 5777   2.540   1.822   2.443
 1626SOL    HW2 5778   2.541   1.907   2.582
 1627SOL     OW 5779   5.465   3.067   4.047
 1627SOL    HW1 5780   5.518   3.123   3.983
 1627SOL    HW2 5781   5.526   3.003   4.094
 1628SOL     OW 5782   5.065   6.147   6.455
 1628SOL    HW1 5783   5.111   6.173   6.540
 1628SOL    HW2 5784   5.133   6.109   6.391
 1629SOL     OW 5785   2.633   1.923   2.913
 1629SOL    HW1 5786   2.544   1.900   2.953
 1629SOL    HW2 5787   2.674   1.998   2.965
 1630SOL     OW 5788   0.228   4.101   6.512
 1630SOL    HW1 5789   0.312   4.050   6.498
 1630SOL    HW2 5790   0.249   4.189   6.555
 1631SOL     OW 5791   6.327   3.425   1.038
 1631SOL    HW1 5792   6.366   3.367   1.110
 1631SOL    HW2 5793   6.229   3.406   1.030
 1632SOL     OW 5794   4.908   4.298   3.041
 1632SOL    HW1 5795   4.990   4.344   3.073
 1632SOL    HW2 5796   4.868   4.348   2.964
 1633SOL     OW 5797   4.714   4.232   4.354
 1633SOL    HW1 5798   4.709   4.262   4.449
 1633SOL    HW2 5799   4.715   4.132   4.351
 1634SOL     OW 5800   3.860   0.563   4.487
 1634SOL    HW1 5801   3.905   0.478   4.515
 1634SOL    HW2 5802   3.834   0.616   4.568
 1635SOL     OW 5803   2.454   5.029   6.220
 1635SOL    HW1 5804   2.364   4.997   6.190
 1635SOL    HW2 5805   2.450   5.055   6.317
 1636SOL     OW 5806   3.564   5.789   0.745
 1636SOL    HW1 5807   3.583   5.865   0.807
 1636SOL    HW2 5808   3.650   5.753   0.709
 1637SOL     OW 5809   6.856   6.454   3.455
 1637SOL    HW1 5810   6.853   6.429   3.358
 1637SOL    HW2 5811   6.788   6.401   3.505
 1638SOL     OW 5812   0.385   3.181   1.233
 1638SOL    HW1 5813   0.447   3.208   1.160
 1638SOL    HW2 5814   0.377   3.081   1.233
 1639SOL     OW 5815   6.672   4.018   1.842
 1639SOL    HW1 5816   6.609   3.956   1.794
 1639SOL    HW2 5817   6.648   4.113   1.823
 1640SOL     OW 5818   6.558   6.969   0.784
 1640SOL    HW1 5819   6.513   7.024   0.855
 1640SOL    HW2 5820   6.505   6.886   0.768
 1641SOL     OW 5821   0.137   2.305   3.614
 1641SOL    HW1 5822   0.126   2.262   3.524
 1641SOL    HW2 5823   0.202   2.381   3.607
 1642SOL     OW 5824   6.721   2.324   6.688
 1642SOL    HW1 5825   6.820   2.319   6.686
 1642SOL    HW2 5826   6.684   2.274   6.609
 1643SOL     OW 5827   3.340   4.870   3.009
 1643SOL    HW1 5828   3.242   4.886   2.996
 1643SOL    HW2 5829   3.353   4.801   3.080
 1644SOL     OW 5830   5.853   2.776   0.110
 1644SOL    HW1 5831   5.920   2.765   0.036
 1644SOL    HW2 5832   5.853   2.872   0.140
 1645SOL     OW 5833   2.848   0.146   5.958
 1645SOL    HW1 5834   2.766   0.176   5.910
 1645SOL    HW2 5835   2.823   0.081   6.030
 1646SOL     OW 5836   1.952   6.385   6.757
 1646SOL    HW1 5837   1.993   6.473   6.732
 1646SOL    HW2 5838   1.986   6.314   6.696
 1647SOL     OW 5839   5.461   2.631   4.182
 1647SOL    HW1 5840   5.369   2.641   4.144
 1647SOL    HW2 5841   5.459   2.567   4.259
 1648SOL     OW 5842   5.698   6.561   0.181
 1648SOL    HW1 5843   5.764   6.524   0.247
 1648SOL    HW2 5844   5.608   6.521   0.199
 1649SOL     OW 5845   3.199   0.819   3.410
 1649SOL    HW1 5846   3.189   0.799   3.312
 1649SOL    HW2 5847   3.265   0.893   3.422
 1650SOL     OW 5848   1.137   5.476   5.944
 1650SOL    HW1 5849   1.049   5.495   5.987
 1650SOL    HW2 5850   1.170   5.387   5.974
 1651SOL     OW 5851   0.133   2.510   3.011
 1651SOL    HW1 5852   0.233   2.507   3.002
 1651SOL    HW2 5853   0.108   2.493   3.107
 1652SOL     OW 5854   0.916   3.237   1.649
 1652SOL    HW1 5855   0.965   3.175   1.588
 1652SOL    HW2 5856   0.916   3.329   1.609
 1653SOL     OW 5857   0.070   5.542   2.433
 1653SOL    HW1 5858   0.069   5.638   2.406
 1653SOL    HW2 5859   0.129   5.490   2.372
 1654SOL     OW 5860   0.622   3.495   1.424
 1654SOL    HW1 5861   0.645   3.514   1.519
 1654SOL    HW2 5862   0.594   3.399   1.415
 1655SOL     OW 5863   6.947   0.878   4.271
 1655SOL    HW1 5864   6.882   0.807   4.300
 1655SOL    HW2 5865   6.926   0.963   4.319
 1656SOL     OW 5866   2.791   5.367   4.070
 1656SOL    HW1 5867   2.742   5.280   4.068
 1656SOL    HW2 5868   2.877   5.358   4.020
 1657SOL     OW 5869   6.384   1.231   4.854
 1657SOL    HW1 5870   6.478   1.256   4.832
 1657SOL    HW2 5871   6.321   1.297   4.812
 1658SOL     OW 5872   6.798   0.013   0.393
 1658SOL    HW1 5873   6.752   0.059   0.317
 1658SOL    HW2 5874   6.759   0.044   0.480
 1659SOL     OW 5875   4.079   6.753   0.040
 1659SOL    HW1 5876   4.162   6.801   0.013
 1659SOL    HW2 5877   4.057   6.682   6.998
 1660SOL     OW 5878   1.398   0.128   2.181
 1660SOL    HW1 5879   1.385   0.188   2.260
 1660SOL    HW2 5880   1.433   0.039   2.212
 1661SOL     OW 5881   2.647   5.106   2.020
 1661SOL    HW1 5882   2.603   5.147   2.100
 1661SOL    HW2 5883   2.688   5.019   2.046
 1662SOL     OW 5884   6.698   1.031   5.239
 1662SOL    HW1 5885   6.645   0.970   5.179
 1662SOL    HW2 5886   6.698   1.123   5.202
 1663SOL     OW 5887   4.888   5.425   2.803
 1663SOL    HW1 5888   4.928   5.377   2.724
 1663SOL    HW2 5889   4.809   5.373   2.836
 1664SOL     OW 5890   1.633   0.595   5.286
 1664SOL    HW1 5891   1.656   0.655   5.364
 1664SOL    HW2 5892   1.710   0.593   5.223
 1665SOL     OW 5893   0.936   3.669   1.674
 1665SOL    HW1 5894   0.952   3.749   1.616
 1665SOL    HW2 5895   0.924   3.699   1.769
 1666SOL     OW 5896   5.800   6.730   6.989
 1666SOL    HW1 5897   5.829   6.808   0.020
 1666SOL    HW2 5898   5.758   6.661   0.023
 1667SOL     OW 5899   6.871   6.500   1.226
 1667SOL    HW1 5900   6.899   6.544   1.141
 1667SOL    HW2 5901   6.950   6.452   1.266
 1668SOL     OW 5902   5.031   5.018   3.423
 1668SOL    HW1 5903   5.114   4.970   3.396
 1668SOL    HW2 5904   5.052   5.114   3.439
 1669SOL     OW 5905   6.930   4.568   5.547
 1669SOL    HW1 5906   6.904   4.601   5.638
 1669SOL    HW2 5907   7.024   4.535   5.549
 1670SOL     OW 5908   1.008   4.934   5.563
 1670SOL    HW1 5909   1.031   4.907   5.657
 1670SOL    HW2 5910   0.957   5.019   5.565
 1671SOL     OW 5911   5.381   1.708   2.901
 1671SOL    HW1 5912   5.465   1.676   2.857
 1671SOL    HW2 5913   5.305   1.699   2.838
 1672SOL     OW 5914   1.136   3.930   6.467
 1672SOL    HW1 5915   1.104   4.023   6.449
 1672SOL    HW2 5916   1.067   3.881   6.520
 1673SOL     OW 5917   2.270   1.579   4.655
 1673SOL    HW1 5918   2.187   1.622   4.692
 1673SOL    HW2 5919   2.321   1.536   4.729
 1674SOL     OW 5920   6.214   2.758   2.513
 1674SOL    HW1 5921   6.114   2.766   2.508
 1674SOL    HW2 5922   6.252   2.757   2.421
 1675SOL     OW 5923   4.710   0.090   1.227
 1675SOL    HW1 5924   4.712   0.013   1.163
 1675SOL    HW2 5925   4.622   0.091   1.274
 1676SOL     OW 5926   1.943   2.260   2.225
 1676SOL    HW1 5927   1.907   2.240   2.316
 1676SOL    HW2 5928   1.986   2.350   2.224
 1677SOL     OW 5929   3.870   4.028   3.251
 1677SOL    HW1 5930   3.965   4.041   3.224
 1677SOL    HW2 5931   3.812   4.025   3.170
 1678SOL     OW 5932   0.849   6.123   1.497
 1678SOL    HW1 5933   0.861   6.218   1.527
 1678SOL    HW2 5934   0.870   6.116   1.400
 1679SOL     OW 5935   1.552   1.353   5.263
 1679SOL    HW1 5936   1.483   1.282   5.275
 1679SOL    HW2 5937   1.509   1.443   5.262
 1680SOL     OW 5938   5.536   3.219   5.013
 1680SOL    HW1 5939   5.527   3.265   4.924
 1680SOL    HW2 5940   5.628   3.179   5.020
 1681SOL     OW 5941   1.836   5.393   4.917
 1681SOL    HW1 5942   1.878   5.397   4.826
 1681SOL    HW2 5943   1.762   5.461   4.921
 1682SOL     OW 5944   2.209   0.648   6.025
 1682SOL    HW1 5945   2.221   0.690   6.115
 1682SOL    HW2 5946   2.178   0.553   6.036
 1683SOL     OW 5947   5.735   6.321   2.903
 1683SOL    HW1 5948   5.740   6.265   2.821
 1683SOL    HW2 5949   5.738   6.262   2.984
 1684SOL     OW 5950   0.793   4.672   1.445
 1684SOL    HW1 5951   0.735   4.674   1.526
 1684SOL    HW2 5952   0.748   4.619   1.373
 1685SOL     OW 5953   1.756   2.369   5.498
 1685SOL    HW1 5954   1.758   2.352   5.597
 1685SOL    HW2 5955   1.844   2.404   5.468
 1686SOL     OW 5956   3.702   5.749   3.549
 1686SOL    HW1 5957   3.644   5.825   3.521
 1686SOL    HW2 5958   3.648   5.665   3.550
 1687SOL     OW 5959   0.389   4.227   1.715
 1687SOL    HW1 5960   0.341   4.176   1.786
 1687SOL    HW2 5961   0.341   4.313   1.697
 1688SOL     OW 5962   1.450   2.464   3.779
 1688SOL    HW1 5963   1.437   2.459   3.680
 1688SOL    HW2 5964   1.536   2.511   3.800
 1689SOL     OW 5965   6.639   1.012   2.573
 1689SOL    HW1 5966   6.564   1.062   2.617
 1689SOL    HW2 5967   6.685   0.955   2.641
 1690SOL     OW 5968   1.235   3.212   4.205
 1690SOL    HW1 5969   1.293   3.166   4.272
 1690SOL    HW2 5970   1.255   3.310   4.205
 1691SOL     OW 5971   4.936   3.595   4.268
 1691SOL    HW1 5972   4.889   3.554   4.190
 1691SOL    HW2 5973   4.952   3.692   4.250
 1692SOL     OW 5974   5.409   5.259   0.986
 1692SOL    HW1 5975   5.346   5.230   1.058
 1692SOL    HW2 5976   5.489   5.304   1.027
 1693SOL     OW 5977   0.014   1.604   4.584
 1693SOL    HW1 5978   6.972   1.678   4.586
 1693SOL    HW2 5979   0.103   1.640   4.554
 1694SOL     OW 5980   6.069   1.078   4.676
 1694SOL    HW1 5981   6.035   0.998   4.627
 1694SOL    HW2 5982   6.000   1.108   4.742
 1695SOL     OW 5983   3.590   0.379   7.003
 1695SOL    HW1 5984   3.683   0.413   7.017
 1695SOL    HW2 5985   3.552   0.419   6.920
 1696SOL     OW 5986   3.915   5.905   0.837
 1696SOL    HW1 5987   3.913   5.856   0.925
 1696SOL    HW2 5988   3.999   5.959   0.831
 1697SOL     OW 5989   5.775   2.330   0.782
 1697SOL    HW1 5990   5.825   2.417   0.781
 1697SOL    HW2 5991   5.702   2.331   0.713
 1698SOL     OW 5992   3.576   0.755   1.582
 1698SOL    HW1 5993   3.514   0.770   1.659
 1698SOL    HW2 5994   3.525   0.716   1.505
 1699SOL     OW 5995   2.661   1.833   6.008
 1699SOL    HW1 5996   2.750   1.873   6.028
 1699SOL    HW2 5997   2.646   1.753   6.066
 1700SOL     OW 5998   5.478   3.427   3.668
 1700SOL    HW1 5999   5.385   3.393   3.653
 1700SOL    HW2 6000   5.543   3.371   3.617
 1701SOL     OW 6001   6.245   5.051   4.583
 1701SOL    HW1 6002   6.310   5.117   4.545
 1701SOL    HW2 6003   6.153   5.073   4.552
 1702SOL     OW 6004   1.418   1.398   6.083
 1702SOL    HW1 6005   1.368   1.465   6.139
 1702SOL    HW2 6006   1.509   1.434   6.063
 1703SOL     OW 6007   4.134   1.252   6.128
 1703SOL    HW1 6008   4.129   1.302   6.041
 1703SOL    HW2 6009   4.229   1.228   6.148
 1704SOL     OW 6010   1.103   1.797   6.907
 1704SOL    HW1 6011   1.165   1.859   6.859
 1704SOL    HW2 6012   1.101   1.709   6.859
 1705SOL     OW 6013   3.886   1.728   2.016
 1705SOL    HW1 6014   3.830   1.804   2.049
 1705SOL    HW2 6015   3.837   1.642   2.030
 1706SOL     OW 6016   4.052   1.868   0.890
 1706SOL    HW1 6017   4.067   1.912   0.978
 1706SOL    HW2 6018   4.140   1.853   0.845
 1707SOL     OW 6019   5.035   1.774   2.959
 1707SOL    HW1 6020   5.107   1.824   3.008
 1707SOL    HW2 6021   4.965   1.839   2.928
 1708SOL     OW 6022   3.971   5.545   1.898
 1708SOL    HW1 6023   4.022   5.571   1.980
 1708SOL    HW2 6024   3.876   5.574   1.907
 1709SOL     OW 6025   4.656   6.307   0.622
 1709SOL    HW1 6026   4.753   6.284   0.630
 1709SOL    HW2 6027   4.632   6.376   0.690
 1710SOL     OW 6028   4.157   4.758   3.181
 1710SOL    HW1 6029   4.250   4.722   3.178
 1710SOL    HW2 6030   4.111   4.740   3.094
 1711SOL     OW 6031   2.802   4.833   5.655
 1711SOL    HW1 6032   2.866   4.884   5.597
 1711SOL    HW2 6033   2.720   4.811   5.602
 1712SOL     OW 6034   0.234   2.228   4.801
 1712SOL    HW1 6035   0.196   2.135   4.801
 1712SOL    HW2 6036   0.331   2.225   4.779
 1713SOL     OW 6037   3.623   1.405   2.469
 1713SOL    HW1 6038   3.648   1.456   2.552
 1713SOL    HW2 6039   3.531   1.431   2.441
 1714SOL     OW 6040   2.972   1.948   0.106
 1714SOL    HW1 6041   2.940   1.946   0.012
 1714SOL    HW2 6042   3.019   1.863   0.128
 1715SOL     OW 6043   2.003   5.789   2.501
 1715SOL    HW1 6044   2.062   5.726   2.450
 1715SOL    HW2 6045   2.011   5.771   2.599
 1716SOL     OW 6046   4.879   0.205   4.039
 1716SOL    HW1 6047   4.840   0.250   4.119
 1716SOL    HW2 6048   4.979   0.217   4.040
 1717SOL     OW 6049   3.886   5.284   5.308
 1717SOL    HW1 6050   3.946   5.210   5.278
 1717SOL    HW2 6051   3.940   5.365   5.328
 1718SOL     OW 6052   2.356   2.189   2.675
 1718SOL    HW1 6053   2.429   2.132   2.714
 1718SOL    HW2 6054   2.394   2.246   2.602
 1719SOL     OW 6055   1.602   5.015   0.998
 1719SOL    HW1 6056   1.541   5.058   1.064
 1719SOL    HW2 6057   1.549   4.982   0.920
 1720SOL     OW 6058   0.093   2.858   6.149
 1720SOL    HW1 6059   0.065   2.902   6.235
 1720SOL    HW2 6060   0.192   2.844   6.150
 1721SOL     OW 6061   1.153   0.597   2.088
 1721SOL    HW1 6062   1.101   0.534   2.030
 1721SOL    HW2 6063   1.106   0.611   2.174
 1722SOL     OW 6064   2.794   1.863   3.231
 1722SOL    HW1 6065   2.714   1.923   3.222
 1722SOL    HW2 6066   2.765   1.774   3.266
 1723SOL     OW 6067   4.864   1.987   7.015
 1723SOL    HW1 6068   4.908   1.897   7.014
 1723SOL    HW2 6069   4.913   2.049   6.954
 1724SOL     OW 6070   6.317   2.002   1.734
 1724SOL    HW1 6071   6.268   2.079   1.776
 1724SOL    HW2 6072   6.397   1.980   1.789
 1725SOL     OW 6073   1.844   4.439   6.829
 1725SOL    HW1 6074   1.825   4.435   6.927
 1725SOL    HW2 6075   1.902   4.362   6.803
 1726SOL     OW 6076   5.628   4.052   4.098
 1726SOL    HW1 6077   5.538   4.048   4.054
 1726SOL    HW2 6078   5.698   4.069   4.028
 1727SOL     OW 6079   3.622   3.704   2.972
 1727SOL    HW1 6080   3.534   3.678   3.010
 1727SOL    HW2 6081   3.695   3.676   3.034
 1728SOL     OW 6082   4.779   4.117   5.461
 1728SOL    HW1 6083   4.871   4.077   5.461
 1728SOL    HW2 6084   4.726   4.078   5.536
 1729SOL     OW 6085   1.083   3.947   2.873
 1729SOL    HW1 6086   1.134   4.028   2.848
 1729SOL    HW2 6087   0.985   3.967   2.872
 1730SOL     OW 6088   3.017   6.096   5.434
 1730SOL    HW1 6089   3.011   6.153   5.516
 1730SOL    HW2 6090   3.112   6.089   5.405
 1731SOL     OW 6091   5.402   4.844   3.762
 1731SOL    HW1 6092   5.405   4.938   3.730
 1731SOL    HW2 6093   5.483   4.824   3.817
 1732SOL     OW 6094   2.204   4.312   6.528
 1732SOL    HW1 6095   2.183   4.408   6.550
 1732SOL    HW2 6096   2.215   4.302   6.430
 1733SOL     OW 6097   2.434   4.371   0.403
 1733SOL    HW1 6098   2.410   4.414   0.490
 1733SOL    HW2 6099   2.364   4.392   0.335
 1734SOL     OW 6100   6.195   3.036   1.173
 1734SOL    HW1 6101   6.182   2.995   1.263
 1734SOL    HW2 6102   6.108   3.038   1.124
 1735SOL     OW 6103   4.759   5.522   6.597
 1735SOL    HW1 6104   4.834   5.549   6.658
 1735SOL    HW2 6105   4.703   5.602   6.576
 1736SOL     OW 6106   4.419   3.974   1.250
 1736SOL    HW1 6107   4.451   4.019   1.333
 1736SOL    HW2 6108   4.468   4.011   1.171
 1737SOL     OW 6109   5.831   0.511   4.248
 1737SOL    HW1 6110   5.781   0.598   4.248
 1737SOL    HW2 6111   5.800   0.454   4.172
 1738SOL     OW 6112   2.125   3.542   4.478
 1738SOL    HW1 6113   2.138   3.457   4.426
 1738SOL    HW2 6114   2.137   3.523   4.575
 1739SOL     OW 6115   6.100   0.190   4.318
 1739SOL    HW1 6116   6.081   0.279   4.275
 1739SOL    HW2 6117   6.126   0.205   4.413
 1740SOL     OW 6118   0.190   1.830   4.881
 1740SOL    HW1 6119   0.141   1.852   4.797
 1740SOL    HW2 6120   0.287   1.819   4.862
 1741SOL     OW 6121   1.908   1.667   3.565
 1741SOL    HW1 6122   1.823   1.639   3.520
 1741SOL    HW2 6123   1.984   1.663   3.499
 1742SOL     OW 6124   5.867   0.861   6.334
 1742SOL    HW1 6125   5.839   0.944   6.383
 1742SOL    HW2 6126   5.963   0.869   6.307
 1743SOL     OW 6127   1.334   1.860   2.965
 1743SOL    HW1 6128   1.415   1.896   2.920
 1743SOL    HW2 6129   1.287   1.797   2.904
 1744SOL     OW 6130   5.055   2.488   3.537
 1744SOL    HW1 6131   5.120   2.438   3.482
 1744SOL    HW2 6132   5.055   2.584   3.510
 1745SOL     OW 6133   6.308   5.991   1.379
 1745SOL    HW1 6134   6.230   5.999   1.316
 1745SOL    HW2 6135   6.351   6.080   1.391
 1746SOL     OW 6136   2.167   3.647   3.639
 1746SOL    HW1 6137   2.120   3.562   3.614
 1746SOL    HW2 6138   2.158   3.714   3.565
 1747SOL     OW 6139   3.580   1.726   2.042
 1747SOL    HW1 6140   3.615   1.652   1.985
 1747SOL    HW2 6141   3.550   1.689   2.130
 1748SOL     OW 6142   6.495   1.592   4.429
 1748SOL    HW1 6143   6.472   1.496   4.414
 1748SOL    HW2 6144   6.590   1.608   4.400
 1749SOL     OW 6145   2.986   6.103   0.574
 1749SOL    HW1 6146   2.992   6.144   0.483
 1749SOL    HW2 6147   2.955   6.008   0.565
 1750SOL     OW 6148   3.963   0.502   4.973
 1750SOL    HW1 6149   4.046   0.540   4.933
 1750SOL    HW2 6150   3.944   0.547   5.060
 1751SOL     OW 6151   5.968   2.577   4.840
 1751SOL    HW1 6152   5.912   2.656   4.813
 1751SOL    HW2 6153   5.960   2.505   4.770
 1752SOL     OW 6154   6.487   1.080   1.293
 1752SOL    HW1 6155   6.393   1.108   1.276
 1752SOL    HW2 6156   6.513   1.105   1.386
 1753SOL     OW 6157   6.736   1.682   2.004
 1753SOL    HW1 6158   6.809   1.614   2.005
 1753SOL    HW2 6159   6.765   1.762   1.952
 1754SOL     OW 6160   2.685   5.900   5.816
 1754SOL    HW1 6161   2.696   5.909   5.915
 1754SOL    HW2 6162   2.654   5.807   5.794
 1755SOL     OW 6163   6.464   6.602   4.951
 1755SOL    HW1 6164   6.389   6.660   4.981
 1755SOL    HW2 6165   6.427   6.515   4.918
 1756SOL     OW 6166   5.004   0.273   6.081
 1756SOL    HW1 6167   5.000   0.350   6.018
 1756SOL    HW2 6168   4.926   0.276   6.143
 1757SOL     OW 6169   2.124   5.227   4.089
 1757SOL    HW1 6170   2.211   5.195   4.054
 1757SOL    HW2 6171   2.095   5.168   4.165
 1758SOL     OW 6172   1.764   6.826   5.262
 1758SOL    HW1 6173   1.851   6.777   5.271
 1758SOL    HW2 6174   1.688   6.764   5.284
 1759SOL     OW 6175   1.537   6.047   6.231
 1759SOL    HW1 6176   1.456   6.065   6.175
 1759SOL    HW2 6177   1.511   5.988   6.308
 1760SOL     OW 6178   6.101   0.977   5.240
 1760SOL    HW1 6179   6.150   0.906   5.188
 1760SOL    HW2 6180   6.014   0.996   5.196
 1761SOL     OW 6181   6.819   1.149   1.110
 1761SOL    HW1 6182   6.892   1.085   1.131
 1761SOL    HW2 6183   6.762   1.163   1.192
 1762SOL     OW 6184   0.651   1.441   4.970
 1762SOL    HW1 6185   0.720   1.399   4.912
 1762SOL    HW2 6186   0.671   1.538   4.981
 1763SOL     OW 6187   1.179   4.145   5.017
 1763SOL    HW1 6188   1.122   4.066   5.037
 1763SOL    HW2 6189   1.135   4.228   5.050
 1764SOL     OW 6190   0.861   4.020   2.417
 1764SOL    HW1 6191   0.875   3.922   2.431
 1764SOL    HW2 6192   0.943   4.070   2.443
 1765SOL     OW 6193   4.766   2.560   1.695
 1765SOL    HW1 6194   4.849   2.602   1.658
 1765SOL    HW2 6195   4.770   2.562   1.795
 1766SOL     OW 6196   4.844   4.425   3.883
 1766SOL    HW1 6197   4.822   4.499   3.820
 1766SOL    HW2 6198   4.760   4.383   3.917
 1767SOL     OW 6199   0.434   5.224   2.491
 1767SOL    HW1 6200   0.519   5.248   2.538
 1767SOL    HW2 6201   0.383   5.158   2.547
 1768SOL     OW 6202   4.370   6.828   1.106
 1768SOL    HW1 6203   4.396   6.767   1.032
 1768SOL    HW2 6204   4.418   6.800   1.190
 1769SOL     OW 6205   5.982   0.787   6.625
 1769SOL    HW1 6206   6.041   0.707   6.625
 1769SOL    HW2 6207   5.918   0.782   6.548
 1770SOL     OW 6208   1.097   4.523   5.727
 1770SOL    HW1 6209   1.084   4.561   5.635
 1770SOL    HW2 6210   1.161   4.447   5.723
 1771SOL     OW 6211   1.030   4.428   6.801
 1771SOL    HW1 6212   1.028   4.503   6.867
 1771SOL    HW2 6213   1.123   4.390   6.797
 1772SOL     OW 6214   3.762   5.552   3.847
 1772SOL    HW1 6215   3.755   5.650   3.828
 1772SOL    HW2 6216   3.777   5.538   3.945
 1773SOL     OW 6217   0.970   0.791   5.101
 1773SOL    HW1 6218   0.971   0.824   5.007
 1773SOL    HW2 6219   0.956   0.692   5.102
 1774SOL     OW 6220   6.113   6.798   1.892
 1774SOL    HW1 6221   6.065   6.775   1.977
 1774SOL    HW2 6222   6.109   6.896   1.877
 1775SOL     OW 6223   2.243   5.267   6.298
 1775SOL    HW1 6224   2.291   5.331   6.239
 1775SOL    HW2 6225   2.188   5.204   6.241
 1776SOL     OW 6226   5.071   1.128   5.496
 1776SOL    HW1 6227   5.065   1.124   5.397
 1776SOL    HW2 6228   5.163   1.101   5.525
 1777SOL     OW 6229   4.635   6.846   6.265
 1777SOL    HW1 6230   4.663   6.767   6.320
 1777SOL    HW2 6231   4.535   6.856   6.270
 1778SOL     OW 6232   5.557   1.229   4.335
 1778SOL    HW1 6233   5.465   1.195   4.357
 1778SOL    HW2 6234   5.558   1.266   4.242
 1779SOL     OW 6235   4.937   0.277   5.242
 1779SOL    HW1 6236   4.924   0.234   5.153
 1779SOL    HW2 6237   4.893   0.367   5.243
 1780SOL     OW 6238   1.369   5.460   4.494
 1780SOL    HW1 6239   1.340   5.507   4.411
 1780SOL    HW2 6240   1.456   5.498   4.525
 1781SOL     OW 6241   4.639   0.259   4.560
 1781SOL    HW1 6242   4.725   0.243   4.513
 1781SOL    HW2 6243   4.623   0.186   4.627
 1782SOL     OW 6244   1.768   1.407   2.792
 1782SOL    HW1 6245   1.710   1.488   2.806
 1782SOL    HW2 6246   1.763   1.378   2.696
 1783SOL     OW 6247   2.286   3.722   6.182
 1783SOL    HW1 6248   2.268   3.637   6.131
 1783SOL    HW2 6249   2.199   3.767   6.202
 1784SOL     OW 6250   2.570   0.581   1.352
 1784SOL    HW1 6251   2.628   0.507   1.385
 1784SOL    HW2 6252   2.476   0.569   1.386
 1785SOL     OW 6253   0.306   6.445   4.140
 1785SOL    HW1 6254   0.322   6.538   4.173
 1785SOL    HW2 6255   0.394   6.400   4.124
 1786SOL     OW 6256   1.857   5.593   1.041
 1786SOL    HW1 6257   1.868   5.586   1.140
 1786SOL    HW2 6258   1.796   5.520   1.010
 1787SOL     OW 6259   1.367   2.399   5.325
 1787SOL    HW1 6260   1.393   2.306   5.298
 1787SOL    HW2 6261   1.275   2.398   5.363
 1788SOL     OW 6262   4.603   4.113   0.611
 1788SOL    HW1 6263   4.659   4.045   0.564
 1788SOL    HW2 6264   4.517   4.125   0.563
 1789SOL     OW 6265   6.337   3.480   1.782
 1789SOL    HW1 6266   6.390   3.419   1.841
 1789SOL    HW2 6267   6.338   3.445   1.688
 1790SOL     OW 6268   2.992   1.657   4.633
 1790SOL    HW1 6269   3.018   1.593   4.561
 1790SOL    HW2 6270   2.969   1.606   4.716
 1791SOL     OW 6271   6.168   0.853   3.869
 1791SOL    HW1 6272   6.187   0.790   3.793
 1791SOL    HW2 6273   6.151   0.944   3.833
 1792SOL     OW 6274   6.934   2.073   5.567
 1792SOL    HW1 6275   6.944   2.069   5.467
 1792SOL    HW2 6276   6.837   2.069   5.591
 1793SOL     OW 6277   0.019   1.145   5.161
 1793SOL    HW1 6278   0.007   1.189   5.072
 1793SOL    HW2 6279   6.966   1.086   5.179
 1794SOL     OW 6280   6.582   0.324   6.816
 1794SOL    HW1 6281   6.500   0.267   6.816
 1794SOL    HW2 6282   6.556   0.419   6.833
 1795SOL     OW 6283   5.746   4.942   0.254
 1795SOL    HW1 6284   5.812   4.873   0.283
 1795SOL    HW2 6285   5.657   4.923   0.297
 1796SOL     OW 6286   1.825   0.466   5.615
 1796SOL    HW1 6287   1.835   0.384   5.558
 1796SOL    HW2 6288   1.907   0.478   5.671
 1797SOL     OW 6289   1.645   6.780   4.931
 1797SOL    HW1 6290   1.577   6.847   4.902
 1797SOL    HW2 6291   1.719   6.826   4.980
 1798SOL     OW 6292   3.594   2.876   4.429
 1798SOL    HW1 6293   3.558   2.793   4.472
 1798SOL    HW2 6294   3.547   2.956   4.466
 1799SOL     OW 6295   3.564   0.513   6.752
 1799SOL    HW1 6296   3.558   0.459   6.668
 1799SOL    HW2 6297   3.638   0.579   6.745
 1800SOL     OW 6298   5.247   4.277   4.087
 1800SOL    HW1 6299   5.153   4.269   4.118
 1800SOL    HW2 6300   5.295   4.346   4.141
 1801SOL     OW 6301   1.357   1.245   1.821
 1801SOL    HW1 6302   1.454   1.228   1.836
 1801SOL    HW2 6303   1.345   1.305   1.742
 1802SOL     OW 6304   6.561   4.894   3.477
 1802SOL    HW1 6305   6.594   4.838   3.554
 1802SOL    HW2 6306   6.578   4.990   3.497
 1803SOL     OW 6307   6.532   6.195   2.306
 1803SOL    HW1 6308   6.592   6.124   2.344
 1803SOL    HW2 6309   6.459   6.215   2.371
 1804SOL     OW 6310   3.458   3.567   6.119
 1804SOL    HW1 6311   3.437   3.651   6.068
 1804SOL    HW2 6312   3.385   3.501   6.105
 1805SOL     OW 6313   1.069   6.788   6.099
 1805SOL    HW1 6314   1.099   6.723   6.029
 1805SOL    HW2 6315   1.147   6.838   6.135
 1806SOL     OW 6316   6.584   2.604   2.281
 1806SOL    HW1 6317   6.535   2.680   2.324
 1806SOL    HW2 6318   6.523   2.554   2.220
 1807SOL     OW 6319   6.559   3.871   1.008
 1807SOL    HW1 6320   6.502   3.790   0.988
 1807SOL    HW2 6321   6.585   3.869   1.104
 1808SOL     OW 6322   4.968   2.470   5.473
 1808SOL    HW1 6323   5.046   2.528   5.494
 1808SOL    HW2 6324   4.944   2.416   5.554
 1809SOL     OW 6325   3.803   2.336   5.506
 1809SOL    HW1 6326   3.758   2.364   5.422
 1809SOL    HW2 6327   3.755   2.375   5.585
 1810SOL     OW 6328   0.217   0.413   3.637
 1810SOL    HW1 6329   0.240   0.493   3.692
 1810SOL    HW2 6330   0.238   0.431   3.541
 1811SOL     OW 6331   3.880   5.435   2.260
 1811SOL    HW1 6332   3.911   5.517   2.213
 1811SOL    HW2 6333   3.859   5.364   2.193
 1812SOL     OW 6334   4.388   6.979   6.159
 1812SOL    HW1 6335   4.367   0.040   6.206
 1812SOL    HW2 6336   4.405   6.997   6.062
 1813SOL     OW 6337   4.840   4.820   2.483
 1813SOL    HW1 6338   4.878   4.729   2.467
 1813SOL    HW2 6339   4.742   4.819   2.460
 1814SOL     OW 6340   0.047   0.111   0.370
 1814SOL    HW1 6341   6.979   0.076   0.379
 1814SOL    HW2 6342   0.046   0.197   0.320
 1815SOL     OW 6343   5.772   5.838   2.328
 1815SOL    HW1 6344   5.696   5.885   2.284
 1815SOL    HW2 6345   5.853   5.840   2.269
 1816SOL     OW 6346   4.220   6.068   5.426
 1816SOL    HW1 6347   4.214   5.969   5.415
 1816SOL    HW2 6348   4.129   6.106   5.440
 1817SOL     OW 6349   2.767   1.692   2.901
 1817SOL    HW1 6350   2.718   1.779   2.900
 1817SOL    HW2 6351   2.772   1.656   2.994
 1818SOL     OW 6352   1.665   6.685   0.119
 1818SOL    HW1 6353   1.722   6.631   0.056
 1818SOL    HW2 6354   1.708   6.774   0.135
 1819SOL     OW 6355   0.768   4.414   2.720
 1819SOL    HW1 6356   0.700   4.469   2.672
 1819SOL    HW2 6357   0.785   4.453   2.810
 1820SOL     OW 6358   3.572   0.211   3.536
 1820SOL    HW1 6359   3.647   0.160   3.495
 1820SOL    HW2 6360   3.576   0.306   3.505
 1821SOL     OW 6361   3.750   1.052   2.243
 1821SOL    HW1 6362   3.672   1.085   2.191
 1821SOL    HW2 6363   3.783   0.967   2.203
 1822SOL     OW 6364   0.915   3.059   2.291
 1822SOL    HW1 6365   0.845   3.108   2.239
 1822SOL    HW2 6366   1.001   3.061   2.240
 1823SOL     OW 6367   3.751   6.501   2.811
 1823SOL    HW1 6368   3.811   6.452   2.875
 1823SOL    HW2 6369   3.803   6.571   2.764
 1824SOL     OW 6370   4.239   4.217   1.265
 1824SOL    HW1 6371   4.141   4.207   1.249
 1824SOL    HW2 6372   4.268   4.156   1.338
 1825SOL     OW 6373   1.576   2.236   4.866
 1825SOL    HW1 6374   1.657   2.225   4.923
 1825SOL    HW2 6375   1.568   2.331   4.837
 1826SOL     OW 6376   3.539   2.232   1.538
 1826SOL    HW1 6377   3.574   2.148   1.577
 1826SOL    HW2 6378   3.510   2.294   1.611
 1827SOL     OW 6379   5.248   5.289   0.787
 1827SOL    HW1 6380   5.176   5.326   0.845
 1827SOL    HW2 6381   5.325   5.259   0.844
 1828SOL     OW 6382   1.420   3.281   6.219
 1828SOL    HW1 6383   1.362   3.354   6.256
 1828SOL    HW2 6384   1.516   3.307   6.229
 1829SOL     OW 6385   4.191   0.282   4.012
 1829SOL    HW1 6386   4.249   0.334   3.949
 1829SOL    HW2 6387   4.103   0.328   4.021
 1830SOL     OW 6388   5.882   7.009   4.870
 1830SOL    HW1 6389   5.822   6.939   4.909
 1830SOL    HW2 6390   5.924   0.037   4.944
 1831SOL     OW 6391   5.117   5.490   2.974
 1831SOL    HW1 6392   5.038   5.446   2.931
 1831SOL    HW2 6393   5.107   5.589   2.970
 1832SOL     OW 6394   2.118   4.053   0.576
 1832SOL    HW1 6395   2.122   4.119   0.501
 1832SOL    HW2 6396   2.045   3.987   0.558
 1833SOL     OW 6397   4.841   0.263   2.317
 1833SOL    HW1 6398   4.748   0.300   2.328
 1833SOL    HW2 6399   4.880   0.244   2.407
 1834SOL     OW 6400   2.963   2.252   0.172
 1834SOL    HW1 6401   2.967   2.153   0.159
 1834SOL    HW2 6402   2.975   2.272   0.269
 1835SOL     OW 6403   0.431   5.000   1.339
 1835SOL    HW1 6404   0.394   5.037   1.254
 1835SOL    HW2 6405   0.529   4.982   1.328
 1836SOL     OW 6406   5.289   1.461   2.349
 1836SOL    HW1 6407   5.214   1.415   2.300
 1836SOL    HW2 6408   5.376   1.421   2.322
 1837SOL     OW 6409   2.526   0.807   5.916
 1837SOL    HW1 6410   2.524   0.752   5.999
 1837SOL    HW2 6411   2.433   0.835   5.891
 1838SOL     OW 6412   6.411   0.915   0.570
 1838SOL    HW1 6413   6.336   0.966   0.614
 1838SOL    HW2 6414   6.494   0.925   0.625
 1839SOL     OW 6415   5.931   1.768   0.435
 1839SOL    HW1 6416   5.948   1.840   0.367
 1839SOL    HW2 6417   5.922   1.809   0.525
 1840SOL     OW 6418   3.516   0.405   3.192
 1840SOL    HW1 6419   3.590   0.449   3.243
 1840SOL    HW2 6420   3.490   0.463   3.115
 1841SOL     OW 6421   2.284   0.102   1.993
 1841SOL    HW1 6422   2.286   0.141   2.085
 1841SOL    HW2 6423   2.375   0.105   1.952
 1842SOL     OW 6424   1.936   4.770   0.247
 1842SOL    HW1 6425   1.895   4.715   0.174
 1842SOL    HW2 6426   1.886   4.855   0.257
 1843SOL     OW 6427   3.622   1.411   4.633
 1843SOL    HW1 6428   3.579   1.377   4.717
 1843SOL    HW2 6429   3.645   1.334   4.574
 1844SOL     OW 6430   5.076   1.359   5.947
 1844SOL    HW1 6431   5.072   1.455   5.974
 1844SOL    HW2 6432   5.015   1.305   6.004
 1845SOL     OW 6433   2.445   0.699   3.422
 1845SOL    HW1 6434   2.352   0.722   3.393
 1845SOL    HW2 6435   2.506   0.700   3.343
 1846SOL     OW 6436   4.649   0.845   3.269
 1846SOL    HW1 6437   4.722   0.778   3.278
 1846SOL    HW2 6438   4.676   0.930   3.315
 1847SOL     OW 6439   2.252   0.470   4.323
 1847SOL    HW1 6440   2.268   0.538   4.252
 1847SOL    HW2 6441   2.279   0.508   4.412
 1848SOL     OW 6442   1.924   5.585   4.179
 1848SOL    HW1 6443   1.880   5.526   4.247
 1848SOL    HW2 6444   1.860   5.657   4.151
 1849SOL     OW 6445   4.718   2.797   2.473
 1849SOL    HW1 6446   4.769   2.839   2.398
 1849SOL    HW2 6447   4.728   2.852   2.556
 1850SOL     OW 6448   5.260   2.170   2.077
 1850SOL    HW1 6449   5.252   2.118   2.162
 1850SOL    HW2 6450   5.169   2.184   2.037
 1851SOL     OW 6451   0.349   2.702   6.464
 1851SOL    HW1 6452   0.339   2.721   6.367
 1851SOL    HW2 6453   0.343   2.787   6.516
 1852SOL     OW 6454   1.236   4.245   2.217
 1852SOL    HW1 6455   1.259   4.341   2.232
 1852SOL    HW2 6456   1.178   4.237   2.135
 1853SOL     OW 6457   0.228   3.194   4.724
 1853SOL    HW1 6458   0.321   3.167   4.697
 1853SOL    HW2 6459   0.225   3.209   4.823
 1854SOL     OW 6460   0.650   5.567   3.218
 1854SOL    HW1 6461   0.725   5.601   3.274
 1854SOL    HW2 6462   0.667   5.473   3.191
 1855SOL     OW 6463   5.152   3.536   4.409
 1855SOL    HW1 6464   5.215   3.613   4.416
 1855SOL    HW2 6465   5.075   3.561   4.350
 1856SOL     OW 6466   3.568   3.426   0.141
 1856SOL    HW1 6467   3.526   3.480   0.214
 1856SOL    HW2 6468   3.578   3.331   0.171
 1857SOL     OW 6469   5.154   1.044   0.121
 1857SOL    HW1 6470   5.088   1.009   0.055
 1857SOL    HW2 6471   5.139   1.142   0.135
 1858SOL     OW 6472   4.222   1.901   4.310
 1858SOL    HW1 6473   4.194   1.891   4.405
 1858SOL    HW2 6474   4.317   1.870   4.299
 1859SOL     OW 6475   5.557   1.877   5.008
 1859SOL    HW1 6476   5.508   1.796   5.040
 1859SOL    HW2 6477   5.649   1.878   5.048
 1860SOL     OW 6478   0.854   1.977   4.961
 1860SOL    HW1 6479   0.804   2.000   5.045
 1860SOL    HW2 6480   0.937   1.926   4.985
 1861SOL     OW 6481   6.217   0.649   2.648
 1861SOL    HW1 6482   6.201   0.694   2.736
 1861SOL    HW2 6483   6.191   0.553   2.653
 1862SOL     OW 6484   2.278   6.478   6.905
 1862SOL    HW1 6485   2.285   6.446   7.000
 1862SOL    HW2 6486   2.224   6.562   6.902
 1863SOL     OW 6487   0.426   3.233   0.975
 1863SOL    HW1 6488   0.475   3.316   0.949
 1863SOL    HW2 6489   0.328   3.245   0.958
 1864SOL     OW 6490   2.667   5.694   4.294
 1864SOL    HW1 6491   2.668   5.643   4.208
 1864SOL    HW2 6492   2.759   5.727   4.315
 1865SOL     OW 6493   5.064   1.304   0.175
 1865SOL    HW1 6494   4.990   1.342   0.120
 1865SOL    HW2 6495   5.026   1.261   0.257
 1866SOL     OW 6496   0.508   3.894   4.400
 1866SOL    HW1 6497   0.534   3.814   4.454
 1866SOL    HW2 6498   0.591   3.944   4.374
 1867SOL     OW 6499   2.150   2.218   1.386
 1867SOL    HW1 6500   2.070   2.193   1.331
 1867SOL    HW2 6501   2.119   2.254   1.474
 1868SOL     OW 6502   5.393   4.420   5.193
 1868SOL    HW1 6503   5.425   4.396   5.284
 1868SOL    HW2 6504   5.428   4.353   5.127
 1869SOL     OW 6505   4.583   2.168   3.965
 1869SOL    HW1 6506   4.632   2.239   4.015
 1869SOL    HW2 6507   4.533   2.110   4.029
 1870SOL     OW 6508   1.201   4.359   4.269
 1870SOL    HW1 6509   1.272   4.412   4.315
 1870SOL    HW2 6510   1.237   4.270   4.243
 1871SOL     OW 6511   1.039   6.906   0.435
 1871SOL    HW1 6512   0.986   6.899   0.520
 1871SOL    HW2 6513   0.985   6.868   0.360
 1872SOL     OW 6514   3.312   1.928   0.309
 1872SOL    HW1 6515   3.306   2.023   0.337
 1872SOL    HW2 6516   3.262   1.871   0.374
 1873SOL     OW 6517   6.494   0.578   6.548
 1873SOL    HW1 6518   6.532   0.487   6.533
 1873SOL    HW2 6519   6.406   0.587   6.502
 1874SOL     OW 6520   1.044   6.423   6.416
 1874SOL    HW1 6521   1.062   6.363   6.494
 1874SOL    HW2 6522   1.120   6.415   6.350
 1875SOL     OW 6523   6.497   5.547   6.709
 1875SOL    HW1 6524   6.479   5.449   6.712
 1875SOL    HW2 6525   6.568   5.570   6.774
 1876SOL     OW 6526   5.707   6.696   5.954
 1876SOL    HW1 6527   5.632   6.686   6.019
 1876SOL    HW2 6528   5.744   6.788   5.959
 1877SOL     OW 6529   0.294   0.895   2.329
 1877SOL    HW1 6530   0.256   0.863   2.242
 1877SOL    HW2 6531   0.353   0.974   2.311
 1878SOL     OW 6532   0.564   4.175   3.311
 1878SOL    HW1 6533   0.638   4.220   3.261
 1878SOL    HW2 6534   0.578   4.076   3.310
 1879SOL     OW 6535   2.784   5.446   4.973
 1879SOL    HW1 6536   2.713   5.510   4.945
 1879SOL    HW2 6537   2.801   5.380   4.900
 1880SOL     OW 6538   0.178   2.577   3.308
 1880SOL    HW1 6539   0.203   2.661   3.260
 1880SOL    HW2 6540   0.119   2.599   3.386
 1881SOL     OW 6541   0.700   2.262   3.920
 1881SOL    HW1 6542   0.766   2.295   3.853
 1881SOL    HW2 6543   0.718   2.306   4.008
 1882SOL     OW 6544   1.111   6.013   0.271
 1882SOL    HW1 6545   1.119   6.110   0.247
 1882SOL    HW2 6546   1.136   6.001   0.368
 1883SOL     OW 6547   1.213   4.130   2.729
 1883SOL    HW1 6548   1.146   4.179   2.673
 1883SOL    HW2 6549   1.302   4.174   2.720
 1884SOL     OW 6550   3.695   0.954   0.396
 1884SOL    HW1 6551   3.714   0.864   0.358
 1884SOL    HW2 6552   3.599   0.958   0.425
 1885SOL     OW 6553   6.899   2.544   0.572
 1885SOL    HW1 6554   6.874   2.589   0.657
 1885SOL    HW2 6555   6.973   2.594   0.527
 1886SOL     OW 6556   1.903   1.749   6.462
 1886SOL    HW1 6557   1.959   1.683   6.512
 1886SOL    HW2 6558   1.806   1.729   6.477
 1887SOL     OW 6559   0.655   5.634   5.733
 1887SOL    HW1 6560   0.701   5.589   5.656
 1887SOL    HW2 6561   0.567   5.669   5.703
 1888SOL     OW 6562   1.963   1.712   5.610
 1888SOL    HW1 6563   1.994   1.794   5.658
 1888SOL    HW2 6564   1.986   1.719   5.513
 1889SOL     OW 6565   4.477   3.215   0.650
 1889SOL    HW1 6566   4.484   3.173   0.559
 1889SOL    HW2 6567   4.503   3.147   0.719
 1890SOL     OW 6568   1.033   5.738   5.999
 1890SOL    HW1 6569   1.048   5.836   6.006
 1890SOL    HW2 6570   1.071   5.704   5.913
 1891SOL     OW 6571   5.965   3.050   5.468
 1891SOL    HW1 6572   6.054   3.024   5.505
 1891SOL    HW2 6573   5.913   3.100   5.538
 1892SOL     OW 6574   3.843   5.817   1.119
 1892SOL    HW1 6575   3.941   5.799   1.121
 1892SOL    HW2 6576   3.808   5.824   1.213
 1893SOL     OW 6577   3.740   1.998   4.187
 1893SOL    HW1 6578   3.766   1.901   4.184
 1893SOL    HW2 6579   3.823   2.054   4.190
 1894SOL     OW 6580   4.505   3.968   1.702
 1894SOL    HW1 6581   4.418   3.919   1.698
 1894SOL    HW2 6582   4.501   4.039   1.771
 1895SOL     OW 6583   6.497   1.223   2.266
 1895SOL    HW1 6584   6.457   1.273   2.342
 1895SOL    HW2 6585   6.541   1.140   2.299
 1896SOL     OW 6586   6.116   1.726   4.151
 1896SOL    HW1 6587   6.195   1.761   4.201
 1896SOL    HW2 6588   6.146   1.696   4.060
 1897SOL     OW 6589   5.973   5.170   3.245
 1897SOL    HW1 6590   6.066   5.162   3.280
 1897SOL    HW2 6591   5.958   5.262   3.211
 1898SOL     OW 6592   5.427   5.775   0.936
 1898SOL    HW1 6593   5.334   5.766   0.899
 1898SOL    HW2 6594   5.493   5.756   0.864
 1899SOL     OW 6595   0.111   3.127   3.078
 1899SOL    HW1 6596   0.081   3.154   3.169
 1899SOL    HW2 6597   0.044   3.157   3.010
 1900SOL     OW 6598   1.521   6.316   6.508
 1900SOL    HW1 6599   1.568   6.297   6.594
 1900SOL    HW2 6600   1.452   6.245   6.491
 1901SOL     OW 6601   1.820   0.626   6.952
 1901SOL    HW1 6602   1.733   0.609   6.905
 1901SOL    HW2 6603   1.852   0.541   6.994
 1902SOL     OW 6604   0.807   3.004   4.033
 1902SOL    HW1 6605   0.904   3.026   4.023
 1902SOL    HW2 6606   0.755   3.044   3.958
 1903SOL     OW 6607   6.375   4.664   3.647
 1903SOL    HW1 6608   6.383   4.639   3.550
 1903SOL    HW2 6609   6.447   4.728   3.671
 1904SOL     OW 6610   0.451   0.139   4.360
 1904SOL    HW1 6611   0.537   0.172   4.398
 1904SOL    HW2 6612   0.384   0.213   4.357
 1905SOL     OW 6613   6.820   2.340   4.277
 1905SOL    HW1 6614   6.878   2.389   4.342
 1905SOL    HW2 6615   6.796   2.401   4.201
 1906SOL     OW 6616   2.165   6.895   6.114
 1906SOL    HW1 6617   2.227   6.875   6.038
 1906SOL    HW2 6618   2.070   6.882   6.086
 1907SOL     OW 6619   3.012   0.033   3.320
 1907SOL    HW1 6620   3.013   0.081   3.407
 1907SOL    HW2 6621   3.011   0.100   3.245
 1908SOL     OW 6622   4.566   0.747   5.937
 1908SOL    HW1 6623   4.651   0.706   5.903
 1908SOL    HW2 6624   4.562   0.738   6.036
 1909SOL     OW 6625   2.523   4.503   4.643
 1909SOL    HW1 6626   2.475   4.583   4.679
 1909SOL    HW2 6627   2.595   4.476   4.708
 1910SOL     OW 6628   5.160   2.312   6.949
 1910SOL    HW1 6629   5.111   2.397   6.928
 1910SOL    HW2 6630   5.185   2.311   0.020
 1911SOL     OW 6631   6.904   2.596   5.450
 1911SOL    HW1 6632   6.846   2.528   5.494
 1911SOL    HW2 6633   6.894   2.588   5.350
 1912SOL     OW 6634   3.398   6.435   2.300
 1912SOL    HW1 6635   3.416   6.530   2.326
 1912SOL    HW2 6636   3.382   6.380   2.382
 1913SOL     OW 6637   2.258   6.291   4.915
 1913SOL    HW1 6638   2.218   6.312   5.004
 1913SOL    HW2 6639   2.330   6.222   4.925
 1914SOL     OW 6640   2.506   2.610   6.252
 1914SOL    HW1 6641   2.456   2.697   6.243
 1914SOL    HW2 6642   2.446   2.542   6.294
 1915SOL     OW 6643   4.156   0.617   6.348
 1915SOL    HW1 6644   4.136   0.547   6.417
 1915SOL    HW2 6645   4.141   0.580   6.257
 1916SOL     OW 6646   4.103   5.716   1.086
 1916SOL    HW1 6647   4.186   5.769   1.104
 1916SOL    HW2 6648   4.109   5.628   1.134
 1917SOL     OW 6649   3.580   4.164   4.317
 1917SOL    HW1 6650   3.612   4.170   4.222
 1917SOL    HW2 6651   3.644   4.210   4.377
 1918SOL     OW 6652   6.228   6.528   5.784
 1918SOL    HW1 6653   6.192   6.479   5.704
 1918SOL    HW2 6654   6.247   6.462   5.857
 1919SOL     OW 6655   0.775   5.930   2.467
 1919SOL    HW1 6656   0.737   5.905   2.556
 1919SOL    HW2 6657   0.704   5.974   2.412
 1920SOL     OW 6658   0.755   4.755   3.807
 1920SOL    HW1 6659   0.695   4.764   3.727
 1920SOL    HW2 6660   0.836   4.701   3.782
 1921SOL     OW 6661   1.090   5.877   6.997
 1921SOL    HW1 6662   1.171   5.841   0.018
 1921SOL    HW2 6663   1.105   5.973   6.973
 1922SOL     OW 6664   4.342   3.378   1.382
 1922SOL    HW1 6665   4.310   3.381   1.287
 1922SOL    HW2 6666   4.377   3.287   1.402
 1923SOL     OW 6667   2.449   1.144   0.768
 1923SOL    HW1 6668   2.453   1.222   0.706
 1923SOL    HW2 6669   2.519   1.154   0.839
 1924SOL     OW 6670   6.413   4.283   1.976
 1924SOL    HW1 6671   6.330   4.247   1.933
 1924SOL    HW2 6672   6.404   4.382   1.988
 1925SOL     OW 6673   3.380   3.804   1.799
 1925SOL    HW1 6674   3.305   3.756   1.843
 1925SOL    HW2 6675   3.363   3.903   1.802
 1926SOL     OW 6676   1.831   0.714   4.665
 1926SOL    HW1 6677   1.816   0.807   4.633
 1926SOL    HW2 6678   1.773   0.695   4.744
 1927SOL     OW 6679   4.306   3.470   6.981
 1927SOL    HW1 6680   4.235   3.414   6.938
 1927SOL    HW2 6681   4.327   3.433   0.047
 1928SOL     OW 6682   6.706   3.593   6.128
 1928SOL    HW1 6683   6.625   3.645   6.101
 1928SOL    HW2 6684   6.781   3.657   6.149
 1929SOL     OW 6685   1.705   6.102   2.197
 1929SOL    HW1 6686   1.800   6.123   2.177
 1929SOL    HW2 6687   1.645   6.161   2.142
 1930SOL     OW 6688   6.177   4.479   6.600
 1930SOL    HW1 6689   6.143   4.385   6.603
 1930SOL    HW2 6690   6.246   4.487   6.528
 1931SOL     OW 6691   0.450   3.866   3.026
 1931SOL    HW1 6692   0.531   3.856   2.969
 1931SOL    HW2 6693   0.477   3.892   3.119
 1932SOL     OW 6694   4.889   3.697   2.440
 1932SOL    HW1 6695   4.858   3.754   2.364
 1932SOL    HW2 6696   4.822   3.625   2.458
 1933SOL     OW 6697   2.947   4.636   0.697
 1933SOL    HW1 6698   2.911   4.543   0.690
 1933SOL    HW2 6699   3.011   4.641   0.774
 1934SOL     OW 6700   1.303   0.079   5.909
 1934SOL    HW1 6701   1.224   0.071   5.848
 1934SOL    HW2 6702   1.331   0.174   5.915
 1935SOL     OW 6703   2.660   0.033   4.645
 1935SOL    HW1 6704   2.750   7.024   4.615
 1935SOL    HW2 6705   2.589   6.999   4.607
 1936SOL     OW 6706   5.228   5.765   4.344
 1936SOL    HW1 6707   5.272   5.695   4.401
 1936SOL    HW2 6708   5.130   5.767   4.365
 1937SOL     OW 6709   3.732   6.556   1.778
 1937SOL    HW1 6710   3.671   6.601   1.713
 1937SOL    HW2 6711   3.724   6.601   1.867
 1938SOL     OW 6712   3.521   1.875   3.349
 1938SOL    HW1 6713   3.477   1.822   3.276
 1938SOL    HW2 6714   3.616   1.846   3.358
 1939SOL     OW 6715   1.201   1.052   3.579
 1939SOL    HW1 6716   1.275   1.050   3.646
 1939SOL    HW2 6717   1.113   1.056   3.626
 1940SOL     OW 6718   5.385   5.421   6.776
 1940SOL    HW1 6719   5.316   5.359   6.740
 1940SOL    HW2 6720   5.418   5.481   6.702
 1941SOL     OW 6721   6.522   4.358   3.380
 1941SOL    HW1 6722   6.464   4.438   3.367
 1941SOL    HW2 6723   6.565   4.362   3.471
 1942SOL     OW 6724   5.746   5.775   1.979
 1942SOL    HW1 6725   5.716   5.796   1.886
 1942SOL    HW2 6726   5.767   5.677   1.986
 1943SOL     OW 6727   3.121   5.227   2.877
 1943SOL    HW1 6728   3.139   5.178   2.791
 1943SOL    HW2 6729   3.126   5.325   2.860
 1944SOL     OW 6730   5.460   1.791   6.340
 1944SOL    HW1 6731   5.375   1.745   6.366
 1944SOL    HW2 6732   5.439   1.882   6.304
 1945SOL     OW 6733   4.744   5.586   3.033
 1945SOL    HW1 6734   4.735   5.488   3.051
 1945SOL    HW2 6735   4.762   5.601   2.936
 1946SOL     OW 6736   1.264   0.804   1.038
 1946SOL    HW1 6737   1.213   0.791   0.953
 1946SOL    HW2 6738   1.277   0.716   1.083
 1947SOL     OW 6739   5.354   6.577   4.976
 1947SOL    HW1 6740   5.304   6.516   4.914
 1947SOL    HW2 6741   5.397   6.650   4.923
 1948SOL     OW 6742   0.109   5.736   4.735
 1948SOL    HW1 6743   0.099   5.822   4.684
 1948SOL    HW2 6744   0.043   5.670   4.702
 1949SOL     OW 6745   4.191   4.024   5.830
 1949SOL    HW1 6746   4.172   4.120   5.851
 1949SOL    HW2 6747   4.109   3.970   5.847
 1950SOL     OW 6748   3.885   3.504   6.784
 1950SOL    HW1 6749   3.833   3.545   6.710
 1950SOL    HW2 6750   3.842   3.527   6.872
 1951SOL     OW 6751   5.915   2.518   0.447
 1951SOL    HW1 6752   5.914   2.453   0.371
 1951SOL    HW2 6753   5.978   2.593   0.426
 1952SOL     OW 6754   3.465   2.316   0.521
 1952SOL    HW1 6755   3.510   2.301   0.610
 1952SOL    HW2 6756   3.475   2.412   0.495
 1953SOL     OW 6757   6.566   2.347   6.941
 1953SOL    HW1 6758   6.599   2.440   6.960
 1953SOL    HW2 6759   6.587   2.323   6.847
 1954SOL     OW 6760   5.234   1.926   4.082
 1954SOL    HW1 6761   5.315   1.985   4.082
 1954SOL    HW2 6762   5.263   1.831   4.077
 1955SOL     OW 6763   1.472   6.917   1.871
 1955SOL    HW1 6764   1.499   6.980   1.798
 1955SOL    HW2 6765   1.379   6.937   1.901
 1956SOL     OW 6766   5.215   6.267   2.746
 1956SOL    HW1 6767   5.279   6.197   2.778
 1956SOL    HW2 6768   5.136   6.224   2.704
 1957SOL     OW 6769   6.766   5.869   5.089
 1957SOL    HW1 6770   6.791   5.956   5.133
 1957SOL    HW2 6771   6.847   5.812   5.080
 1958SOL     OW 6772   5.707   3.451   4.402
 1958SOL    HW1 6773   5.723   3.422   4.308
 1958SOL    HW2 6774   5.633   3.396   4.442
 1959SOL     OW 6775   0.615   2.857   5.649
 1959SOL    HW1 6776   0.520   2.832   5.631
 1959SOL    HW2 6777   0.664   2.865   5.562
 1960SOL     OW 6778   6.343   5.017   0.735
 1960SOL    HW1 6779   6.416   4.962   0.695
 1960SOL    HW2 6780   6.257   4.997   0.687
 1961SOL     OW 6781   5.785   4.629   4.864
 1961SOL    HW1 6782   5.693   4.616   4.828
 1961SOL    HW2 6783   5.796   4.578   4.949
 1962SOL     OW 6784   1.449   6.075   4.144
 1962SOL    HW1 6785   1.389   6.118   4.212
 1962SOL    HW2 6786   1.393   6.032   4.074
 1963SOL     OW 6787   0.864   0.680   1.846
 1963SOL    HW1 6788   0.955   0.645   1.868
 1963SOL    HW2 6789   0.812   0.692   1.931
 1964SOL     OW 6790   4.413   2.615   1.496
 1964SOL    HW1 6791   4.315   2.607   1.514
 1964SOL    HW2 6792   4.459   2.653   1.577
 1965SOL     OW 6793   0.332   2.763   2.871
 1965SOL    HW1 6794   0.423   2.798   2.851
 1965SOL    HW2 6795   0.313   2.773   2.969
 1966SOL     OW 6796   0.715   5.392   5.016
 1966SOL    HW1 6797   0.714   5.467   4.949
 1966SOL    HW2 6798   0.678   5.310   4.974
 1967SOL     OW 6799   4.633   2.071   6.044
 1967SOL    HW1 6800   4.538   2.098   6.026
 1967SOL    HW2 6801   4.644   2.046   6.140
 1968SOL     OW 6802   3.061   6.050   6.920
 1968SOL    HW1 6803   3.083   6.093   7.008
 1968SOL    HW2 6804   3.118   6.089   6.849
 1969SOL     OW 6805   6.547   1.769   1.585
 1969SOL    HW1 6806   6.546   1.805   1.491
 1969SOL    HW2 6807   6.533   1.844   1.649
 1970SOL     OW 6808   2.252   0.838   5.840
 1970SOL    HW1 6809   2.233   0.765   5.906
 1970SOL    HW2 6810   2.199   0.919   5.865
 1971SOL     OW 6811   6.888   0.143   6.358
 1971SOL    HW1 6812   6.952   0.170   6.287
 1971SOL    HW2 6813   6.858   0.049   6.342
 1972SOL     OW 6814   0.554   3.182   3.084
 1972SOL    HW1 6815   0.472   3.175   3.027
 1972SOL    HW2 6816   0.535   3.145   3.175
 1973SOL     OW 6817   3.715   2.824   1.959
 1973SOL    HW1 6818   3.627   2.871   1.958
 1973SOL    HW2 6819   3.776   2.868   2.025
 1974SOL     OW 6820   6.488   6.058   4.058
 1974SOL    HW1 6821   6.455   6.133   4.116
 1974SOL    HW2 6822   6.422   5.983   4.059
 1975SOL     OW 6823   2.472   0.932   3.656
 1975SOL    HW1 6824   2.486   0.851   3.713
 1975SOL    HW2 6825   2.507   0.914   3.564
 1976SOL     OW 6826   0.644   6.190   0.200
 1976SOL    HW1 6827   0.692   6.227   0.279
 1976SOL    HW2 6828   0.647   6.255   0.125
 1977SOL     OW 6829   1.085   3.247   3.736
 1977SOL    HW1 6830   1.016   3.294   3.681
 1977SOL    HW2 6831   1.039   3.189   3.803
 1978SOL     OW 6832   1.693   1.503   4.186
 1978SOL    HW1 6833   1.688   1.420   4.131
 1978SOL    HW2 6834   1.677   1.583   4.127
 1979SOL     OW 6835   0.096   4.421   4.941
 1979SOL    HW1 6836   0.038   4.472   5.004
 1979SOL    HW2 6837   0.044   4.345   4.903
 1980SOL     OW 6838   3.337   6.834   0.266
 1980SOL    HW1 6839   3.424   6.786   0.253
 1980SOL    HW2 6840   3.284   6.830   0.181
 1981SOL     OW 6841   5.441   2.273   2.380
 1981SOL    HW1 6842   5.417   2.230   2.293
 1981SOL    HW2 6843   5.457   2.202   2.449
 1982SOL     OW 6844   6.115   4.774   4.946
 1982SOL    HW1 6845   6.202   4.757   4.992
 1982SOL    HW2 6846   6.119   4.860   4.897
 1983SOL     OW 6847   0.826   2.372   3.100
 1983SOL    HW1 6848   0.734   2.340   3.081
 1983SOL    HW2 6849   0.824   2.469   3.125
 1984SOL     OW 6850   4.699   1.291   6.042
 1984SOL    HW1 6851   4.640   1.368   6.020
 1984SOL    HW2 6852   4.644   1.211   6.063
 1985SOL     OW 6853   1.316   1.316   2.442
 1985SOL    HW1 6854   1.221   1.331   2.414
 1985SOL    HW2 6855   1.337   1.218   2.438
 1986SOL     OW 6856   1.328   1.567   6.953
 1986SOL    HW1 6857   1.372   1.651   6.986
 1986SOL    HW2 6858   1.396   1.510   6.907
 1987SOL     OW 6859   2.737   3.029   1.665
 1987SOL    HW1 6860   2.774   2.936   1.660
 1987SOL    HW2 6861   2.778   3.076   1.744
 1988SOL     OW 6862   4.910   4.547   0.389
 1988SOL    HW1 6863   4.954   4.599   0.316
 1988SOL    HW2 6864   4.924   4.593   0.477
 1989SOL     OW 6865   2.172   0.453   4.794
 1989SOL    HW1 6866   2.182   0.361   4.832
 1989SOL    HW2 6867   2.158   0.447   4.696
 1990SOL     OW 6868   3.118   0.340   2.066
 1990SOL    HW1 6869   3.172   0.268   2.111
 1990SOL    HW2 6870   3.101   0.314   1.971
 1991SOL     OW 6871   3.499   5.468   5.866
 1991SOL    HW1 6872   3.528   5.548   5.919
 1991SOL    HW2 6873   3.401   5.475   5.846
 1992SOL     OW 6874   2.879   6.849   5.884
 1992SOL    HW1 6875   2.941   6.772   5.895
 1992SOL    HW2 6876   2.883   6.907   5.966
 1993SOL     OW 6877   3.847   3.763   5.528
 1993SOL    HW1 6878   3.825   3.692   5.460
 1993SOL    HW2 6879   3.765   3.786   5.580
 1994SOL     OW 6880   0.799   2.002   2.280
 1994SOL    HW1 6881   0.854   1.945   2.218
 1994SOL    HW2 6882   0.819   1.977   2.374
 1995SOL     OW 6883   6.348   2.277   2.320
 1995SOL    HW1 6884   6.363   2.230   2.233
 1995SOL    HW2 6885   6.300   2.363   2.304
 1996SOL     OW 6886   2.883   2.821   1.351
 1996SOL    HW1 6887   2.938   2.904   1.357
 1996SOL    HW2 6888   2.942   2.742   1.333
 1997SOL     OW 6889   5.017   0.926   5.682
 1997SOL    HW1 6890   5.018   0.998   5.612
 1997SOL    HW2 6891   5.035   0.966   5.772
 1998SOL     OW 6892   3.170   3.841   6.078
 1998SOL    HW1 6893   3.193   3.767   6.140
 1998SOL    HW2 6894   3.073   3.837   6.054
 1999SOL     OW 6895   2.791   0.546   1.972
 1999SOL    HW1 6896   2.872   0.577   2.022
 1999SOL    HW2 6897   2.812   0.541   1.875
 2000SOL     OW 6898   4.114   1.896   5.165
 2000SOL    HW1 6899   4.157   1.872   5.252
 2000SOL    HW2 6900   4.066   1.816   5.128
 2001SOL     OW 6901   3.404   2.345   1.741
 2001SOL    HW1 6902   3.496   2.351   1.780
 2001SOL    HW2 6903   3.367   2.437   1.728
 2002SOL     OW 6904   1.451   5.851   6.421
 2002SOL    HW1 6905   1.362   5.862   6.464
 2002SOL    HW2 6906   1.475   5.754   6.418
 2003SOL     OW 6907   4.441   6.938   4.106
 2003SOL    HW1 6908   4.454   7.007   4.178
 2003SOL    HW2 6909   4.505   6.863   4.121
 2004SOL     OW 6910   5.354   1.087   4.544
 2004SOL    HW1 6911   5.288   1.031   4.592
 2004SOL    HW2 6912   5.307   1.152   4.484
 2005SOL     OW 6913   1.732   5.795   0.080
 2005SOL    HW1 6914   1.705   5.852   0.003
 2005SOL    HW2 6915   1.704   5.701   0.064
 2006SOL     OW 6916   5.088   4.413   3.765
 2006SOL    HW1 6917   5.061   4.360   3.684
 2006SOL    HW2 6918   5.019   4.402   3.836
 2007SOL     OW 6919   4.583   5.753   0.739
 2007SOL    HW1 6920   4.505   5.737   0.800
 2007SOL    HW2 6921   4.608   5.850   0.741
 2008SOL     OW 6922   0.399   5.709   3.825
 2008SOL    HW1 6923   0.405   5.609   3.835
 2008SOL    HW2 6924   0.304   5.734   3.807
 2009SOL     OW 6925   6.729   0.180   1.707
 2009SOL    HW1 6926   6.797   0.122   1.663
 2009SOL    HW2 6927   6.720   0.266   1.657
 2010SOL     OW 6928   1.764   0.952   0.859
 2010SOL    HW1 6929   1.743   0.855   0.857
 2010SOL    HW2 6930   1.716   0.995   0.936
 2011SOL     OW 6931   6.326   2.315   5.069
 2011SOL    HW1 6932   6.306   2.391   5.008
 2011SOL    HW2 6933   6.405   2.264   5.034
 2012SOL     OW 6934   0.612   3.764   1.378
 2012SOL    HW1 6935   0.599   3.774   1.280
 2012SOL    HW2 6936   0.594   3.670   1.405
 2013SOL     OW 6937   5.874   1.087   3.119
 2013SOL    HW1 6938   5.891   1.131   3.207
 2013SOL    HW2 6939   5.895   1.150   3.045
 2014SOL     OW 6940   1.338   5.592   3.267
 2014SOL    HW1 6941   1.303   5.640   3.349
 2014SOL    HW2 6942   1.377   5.504   3.294
 2015SOL     OW 6943   2.855   1.512   6.823
 2015SOL    HW1 6944   2.818   1.545   6.910
 2015SOL    HW2 6945   2.893   1.421   6.836
 2016SOL     OW 6946   0.376   5.966   4.866
 2016SOL    HW1 6947   0.302   5.901   4.849
 2016SOL    HW2 6948   0.463   5.926   4.837
 2017SOL     OW 6949   3.407   0.012   3.474
 2017SOL    HW1 6950   3.315   0.010   3.513
 2017SOL    HW2 6951   3.462   0.080   3.521
 2018SOL     OW 6952   6.817   5.829   5.710
 2018SOL    HW1 6953   6.731   5.793   5.746
 2018SOL    HW2 6954   6.834   5.919   5.750
 2019SOL     OW 6955   5.079   2.838   1.850
 2019SOL    HW1 6956   5.086   2.875   1.942
 2019SOL    HW2 6957   5.162   2.786   1.828
 2020SOL     OW 6958   1.271   5.577   5.158
 2020SOL    HW1 6959   1.366   5.549   5.145
 2020SOL    HW2 6960   1.216   5.544   5.081
 2021SOL     OW 6961   2.375   6.859   3.139
 2021SOL    HW1 6962   2.388   6.828   3.044
 2021SOL    HW2 6963   2.439   6.932   3.160
 2022SOL     OW 6964   1.818   3.679   1.984
 2022SOL    HW1 6965   1.881   3.696   1.908
 2022SOL    HW2 6966   1.728   3.715   1.961
 2023SOL     OW 6967   0.192   2.064   0.516
 2023SOL    HW1 6968   0.179   2.042   0.419
 2023SOL    HW2 6969   0.107   2.045   0.566
 2024SOL     OW 6970   0.180   0.675   2.729
 2024SOL    HW1 6971   0.111   0.740   2.760
 2024SOL    HW2 6972   0.266   0.722   2.713
 2025SOL     OW 6973   1.446   2.466   1.545
 2025SOL    HW1 6974   1.511   2.419   1.606
 2025SOL    HW2 6975   1.431   2.410   1.463
 2026SOL     OW 6976   1.647   2.354   6.035
 2026SOL    HW1 6977   1.738   2.329   6.070
 2026SOL    HW2 6978   1.577   2.315   6.096
 2027SOL     OW 6979   0.952   1.505   1.189
 2027SOL    HW1 6980   0.960   1.440   1.264
 2027SOL    HW2 6981   1.043   1.522   1.149
 2028SOL     OW 6982   3.134   1.466   0.347
 2028SOL    HW1 6983   3.096   1.483   0.438
 2028SOL    HW2 6984   3.222   1.421   0.356
 2029SOL     OW 6985   0.330   0.252   6.771
 2029SOL    HW1 6986   0.346   0.324   6.704
 2029SOL    HW2 6987   0.231   0.240   6.784
 2030SOL     OW 6988   1.610   2.118   3.236
 2030SOL    HW1 6989   1.649   2.192   3.181
 2030SOL    HW2 6990   1.604   2.035   3.180
 2031SOL     OW 6991   5.257   6.233   2.206
 2031SOL    HW1 6992   5.220   6.258   2.117
 2031SOL    HW2 6993   5.340   6.285   2.224
 2032SOL     OW 6994   5.670   5.894   1.035
 2032SOL    HW1 6995   5.721   5.864   1.115
 2032SOL    HW2 6996   5.575   5.864   1.042
 2033SOL     OW 6997   3.858   4.020   0.022
 2033SOL    HW1 6998   3.874   3.980   6.957
 2033SOL    HW2 6999   3.785   4.088   0.016
 2034SOL     OW 7000   1.881   6.764   3.597
 2034SOL    HW1 7001   1.799   6.728   3.641
 2034SOL    HW2 7002   1.955   6.697   3.606
 2035SOL     OW 7003   6.919   1.600   2.807
 2035SOL    HW1 7004   6.866   1.518   2.826
 2035SOL    HW2 7005   7.014   1.575   2.788
 2036SOL     OW 7006   0.123   5.780   1.995
 2036SOL    HW1 7007   0.058   5.770   1.920
 2036SOL    HW2 7008   0.189   5.852   1.972
 2037SOL     OW 7009   6.276   2.172   5.850
 2037SOL    HW1 7010   6.298   2.193   5.946
 2037SOL    HW2 7011   6.353   2.123   5.809
 2038SOL     OW 7012   0.633   1.853   7.015
 2038SOL    HW1 7013   0.677   1.779   6.965
 2038SOL    HW2 7014   0.611   1.823   0.082
 2039SOL     OW 7015   0.313   5.903   3.356
 2039SOL    HW1 7016   0.275   5.989   3.322
 2039SOL    HW2 7017   0.340   5.914   3.452
 2040SOL     OW 7018   3.289   2.856   4.991
 2040SOL    HW1 7019   3.239   2.770   5.004
 2040SOL    HW2 7020   3.224   2.929   4.968
 2041SOL     OW 7021   6.740   5.947   6.782
 2041SOL    HW1 7022   6.768   5.938   6.686
 2041SOL    HW2 7023   6.662   6.009   6.788
 2042SOL     OW 7024   5.837   5.341   6.736
 2042SOL    HW1 7025   5.862   5.332   6.640
 2042SOL    HW2 7026   5.786   5.426   6.750
 2043SOL     OW 7027   6.363   5.072   2.177
 2043SOL    HW1 7028   6.442   5.133   2.183
 2043SOL    HW2 7029   6.281   5.119   2.211
 2044SOL     OW 7030   4.938   0.593   2.331
 2044SOL    HW1 7031   4.867   0.564   2.267
 2044SOL    HW2 7032   4.929   0.690   2.351
 2045SOL     OW 7033   1.905   4.471   5.107
 2045SOL    HW1 7034   1.917   4.409   5.029
 2045SOL    HW2 7035   1.863   4.556   5.075
 2046SOL     OW 7036   0.066   0.552   4.040
 2046SOL    HW1 7037   0.049   0.466   4.089
 2046SOL    HW2 7038   7.022   0.564   3.969
 2047SOL     OW 7039   4.137   1.976   0.486
 2047SOL    HW1 7040   4.225   1.976   0.439
 2047SOL    HW2 7041   4.148   2.013   0.578
 2048SOL     OW 7042   4.278   6.059   6.890
 2048SOL    HW1 7043   4.357   6.017   6.934
 2048SOL    HW2 7044   4.295   6.066   6.791
 2049SOL     OW 7045   4.588   2.047   6.667
 2049SOL    HW1 7046   4.520   2.010   6.604
 2049SOL    HW2 7047   4.575   2.146   6.677
 2050SOL     OW 7048   5.922   2.927   3.689
 2050SOL    HW1 7049   5.921   3.014   3.738
 2050SOL    HW2 7050   5.991   2.867   3.729
 2051SOL     OW 7051   6.444   4.716   6.844
 2051SOL    HW1 7052   6.369   4.652   6.825
 2051SOL    HW2 7053   6.444   4.789   6.776
 2052SOL     OW 7054   0.150   3.344   0.030
 2052SOL    HW1 7055   0.193   3.338   6.965
 2052SOL    HW2 7056   0.052   3.363   0.020
 2053SOL     OW 7057   6.448   0.596   0.852
 2053SOL    HW1 7058   6.473   0.688   0.820
 2053SOL    HW2 7059   6.422   0.600   0.949
 2054SOL     OW 7060   5.454   2.783   1.633
 2054SOL    HW1 7061   5.434   2.750   1.726
 2054SOL    HW2 7062   5.373   2.824   1.593
 2055SOL     OW 7063   6.054   3.096   2.902
 2055SOL    HW1 7064   6.042   3.105   3.001
 2055SOL    HW2 7065   5.965   3.082   2.859
 2056SOL     OW 7066   1.968   1.295   2.306
 2056SOL    HW1 7067   2.041   1.344   2.258
 2056SOL    HW2 7068   1.880   1.319   2.266
 2057SOL     OW 7069   5.469   2.354   3.790
 2057SOL    HW1 7070   5.540   2.423   3.773
 2057SOL    HW2 7071   5.463   2.293   3.711
 2058SOL     OW 7072   1.175   1.527   3.139
 2058SOL    HW1 7073   1.213   1.437   3.115
 2058SOL    HW2 7074   1.080   1.531   3.110
 2059SOL     OW 7075   2.524   6.389   6.203
 2059SOL    HW1 7076   2.430   6.393   6.170
 2059SOL    HW2 7077   2.580   6.336   6.140
 2060SOL     OW 7078   6.623   4.435   1.019
 2060SOL    HW1 7079   6.686   4.359   1.036
 2060SOL    HW2 7080   6.545   4.428   1.080
 2061SOL     OW 7081   0.861   1.904   3.033
 2061SOL    HW1 7082   0.865   1.818   3.085
 2061SOL    HW2 7083   0.903   1.977   3.086
 2062SOL     OW 7084   5.511   0.743   3.288
 2062SOL    HW1 7085   5.568   0.691   3.224
 2062SOL    HW2 7086   5.492   0.833   3.249
 2063SOL     OW 7087   0.673   1.231   6.778
 2063SOL    HW1 7088   0.663   1.236   6.679
 2063SOL    HW2 7089   0.769   1.217   6.802
 2064SOL     OW 7090   0.671   1.773   5.424
 2064SOL    HW1 7091   0.634   1.851   5.373
 2064SOL    HW2 7092   0.764   1.754   5.393
 2065SOL     OW 7093   6.306   3.873   2.082
 2065SOL    HW1 7094   6.406   3.873   2.073
 2065SOL    HW2 7095   6.281   3.851   2.176
 2066SOL     OW 7096   0.979   6.027   4.536
 2066SOL    HW1 7097   0.942   5.947   4.584
 2066SOL    HW2 7098   1.078   6.016   4.525
 2067SOL     OW 7099   0.420   6.578   0.804
 2067SOL    HW1 7100   0.503   6.564   0.750
 2067SOL    HW2 7101   0.342   6.589   0.743
 2068SOL     OW 7102   1.043   1.525   5.722
 2068SOL    HW1 7103   1.108   1.479   5.783
 2068SOL    HW2 7104   1.092   1.569   5.647
 2069SOL     OW 7105   0.709   2.763   3.729
 2069SOL    HW1 7106   0.615   2.734   3.742
 2069SOL    HW2 7107   0.755   2.771   3.818
 2070SOL     OW 7108   2.093   6.816   2.229
 2070SOL    HW1 7109   2.136   6.878   2.295
 2070SOL    HW2 7110   2.099   6.855   2.137
 2071SOL     OW 7111   0.007   6.337   4.687
 2071SOL    HW1 7112   6.945   6.372   4.720
 2071SOL    HW2 7113   0.081   6.371   4.746
 2072SOL     OW 7114   4.556   6.742   1.775
 2072SOL    HW1 7115   4.488   6.754   1.847
 2072SOL    HW2 7116   4.538   6.656   1.726
 2073SOL     OW 7117   3.571   6.921   4.928
 2073SOL    HW1 7118   3.541   6.863   4.852
 2073SOL    HW2 7119   3.502   6.992   4.945
 2074SOL     OW 7120   0.898   2.736   6.825
 2074SOL    HW1 7121   0.882   2.787   6.740
 2074SOL    HW2 7122   0.903   2.639   6.805
 2075SOL     OW 7123   4.920   2.172   1.433
 2075SOL    HW1 7124   4.864   2.110   1.378
 2075SOL    HW2 7125   4.862   2.242   1.474
 2076SOL     OW 7126   5.214   6.255   6.966
 2076SOL    HW1 7127   5.197   6.206   0.027
 2076SOL    HW2 7128   5.268   6.337   6.985
 2077SOL     OW 7129   4.763   2.777   2.148
 2077SOL    HW1 7130   4.681   2.734   2.187
 2077SOL    HW2 7131   4.737   2.855   2.092
 2078SOL     OW 7132   2.197   5.976   6.459
 2078SOL    HW1 7133   2.258   6.036   6.407
 2078SOL    HW2 7134   2.152   5.912   6.396
 2079SOL     OW 7135   6.167   1.108   3.721
 2079SOL    HW1 7136   6.073   1.130   3.748
 2079SOL    HW2 7137   6.179   1.128   3.624
 2080SOL     OW 7138   1.900   1.419   4.924
 2080SOL    HW1 7139   1.926   1.456   4.835
 2080SOL    HW2 7140   1.944   1.331   4.938
 2081SOL     OW 7141   1.764   5.672   4.929
 2081SOL    HW1 7142   1.839   5.727   4.891
 2081SOL    HW2 7143   1.691   5.733   4.960
 2082SOL     OW 7144   6.587   0.144   2.332
 2082SOL    HW1 7145   6.551   0.156   2.240
 2082SOL    HW2 7146   6.682   0.178   2.335
 2083SOL     OW 7147   4.225   4.218   6.178
 2083SOL    HW1 7148   4.137   4.195   6.220
 2083SOL    HW2 7149   4.220   4.204   6.080
 2084SOL     OW 7150   7.023   4.399   3.950
 2084SOL    HW1 7151   6.955   4.451   3.899
 2084SOL    HW2 7152   0.038   4.457   4.021
 2085SOL     OW 7153   5.445   0.974   0.050
 2085SOL    HW1 7154   5.354   1.015   0.040
 2085SOL    HW2 7155   5.460   0.949   0.146
 2086SOL     OW 7156   2.945   5.971   5.752
 2086SOL    HW1 7157   2.929   6.069   5.737
 2086SOL    HW2 7158   2.866   5.931   5.799
 2087SOL     OW 7159   4.647   0.178   1.778
 2087SOL    HW1 7160   4.673   0.130   1.861
 2087SOL    HW2 7161   4.609   0.113   1.712
 2088SOL     OW 7162   2.460   5.354   0.756
 2088SOL    HW1 7163   2.440   5.305   0.841
 2088SOL    HW2 7164   2.552   5.331   0.724
 2089SOL     OW 7165   3.986   1.216   0.023
 2089SOL    HW1 7166   3.937   1.131   0.043
 2089SOL    HW2 7167   3.921   1.292   0.018
 2090SOL     OW 7168   4.182   3.658   4.770
 2090SOL    HW1 7169   4.234   3.734   4.731
 2090SOL    HW2 7170   4.226   3.627   4.854
 2091SOL     OW 7171   0.171   5.954   0.054
 2091SOL    HW1 7172   0.106   5.951   0.130
 2091SOL    HW2 7173   0.125   5.987   6.997
 2092SOL     OW 7174   5.072   5.685   0.505
 2092SOL    HW1 7175   5.135   5.647   0.573
 2092SOL    HW2 7176   5.124   5.724   0.429
 2093SOL     OW 7177   1.598   2.343   1.730
 2093SOL    HW1 7178   1.579   2.248   1.704
 2093SOL    HW2 7179   1.681   2.347   1.785
 2094SOL     OW 7180   5.497   1.734   1.651
 2094SOL    HW1 7181   5.573   1.790   1.683
 2094SOL    HW2 7182   5.469   1.765   1.560
 2095SOL     OW 7183   5.668   0.205   4.357
 2095SOL    HW1 7184   5.715   0.120   4.381
 2095SOL    HW2 7185   5.708   0.243   4.273
 2096SOL     OW 7186   4.774   4.054   2.992
 2096SOL    HW1 7187   4.823   4.132   3.031
 2096SOL    HW2 7188   4.802   4.041   2.897
 2097SOL     OW 7189   1.234   2.818   0.304
 2097SOL    HW1 7190   1.302   2.890   0.289
 2097SOL    HW2 7191   1.279   2.729   0.305
 2098SOL     OW 7192   4.030   5.710   3.238
 2098SOL    HW1 7193   4.129   5.717   3.234
 2098SOL    HW2 7194   4.005   5.617   3.267
 2099SOL     OW 7195   2.430   2.493   5.105
 2099SOL    HW1 7196   2.397   2.571   5.052
 2099SOL    HW2 7197   2.379   2.487   5.190
 2100SOL     OW 7198   3.923   3.259   5.754
 2100SOL    HW1 7199   3.978   3.305   5.684
 2100SOL    HW2 7200   3.840   3.313   5.772
 2101SOL     OW 7201   1.387   6.365   2.461
 2101SOL    HW1 7202   1.387   6.393   2.365
 2101SOL    HW2 7203   1.384   6.265   2.467
 2102SOL     OW 7204   0.324   5.609   1.770
 2102SOL    HW1 7205   0.350   5.513   1.767
 2102SOL    HW2 7206   0.343   5.646   1.861
 2103SOL     OW 7207   3.134   3.583   6.244
 2103SOL    HW1 7208   3.070   3.520   6.288
 2103SOL    HW2 7209   3.172   3.540   6.162
 2104SOL     OW 7210   1.128   3.506   6.596
 2104SOL    HW1 7211   1.226   3.495   6.614
 2104SOL    HW2 7212   1.111   3.491   6.498
 2105SOL     OW 7213   4.967   5.005   4.187
 2105SOL    HW1 7214   5.045   4.984   4.128
 2105SOL    HW2 7215   4.888   4.950   4.159
 2106SOL     OW 7216   4.265   4.692   0.420
 2106SOL    HW1 7217   4.347   4.695   0.363
 2106SOL    HW2 7218   4.246   4.784   0.454
 2107SOL     OW 7219   4.470   2.752   5.614
 2107SOL    HW1 7220   4.482   2.770   5.712
 2107SOL    HW2 7221   4.559   2.743   5.570
 2108SOL     OW 7222   0.037   6.200   5.637
 2108SOL    HW1 7223   0.064   6.267   5.707
 2108SOL    HW2 7224   0.100   6.206   5.559
 2109SOL     OW 7225   4.864   6.764   3.245
 2109SOL    HW1 7226   4.838   6.751   3.340
 2109SOL    HW2 7227   4.792   6.817   3.199
 2110SOL     OW 7228   3.079   3.089   5.935
 2110SOL    HW1 7229   3.019   3.149   5.988
 2110SOL    HW2 7230   3.048   3.088   5.840
 2111SOL     OW 7231   0.833   2.039   6.633
 2111SOL    HW1 7232   0.857   1.942   6.626
 2111SOL    HW2 7233   0.886   2.081   6.707
 2112SOL     OW 7234   4.435   2.026   1.261
 2112SOL    HW1 7235   4.494   2.054   1.337
 2112SOL    HW2 7236   4.409   2.106   1.208
 2113SOL     OW 7237   1.530   0.468   4.375
 2113SOL    HW1 7238   1.438   0.471   4.415
 2113SOL    HW2 7239   1.589   0.534   4.422
 2114SOL     OW 7240   1.573   2.863   0.677
 2114SOL    HW1 7241   1.634   2.897   0.748
 2114SOL    HW2 7242   1.489   2.828   0.719
 2115SOL     OW 7243   2.149   4.002   2.552
 2115SOL    HW1 7244   2.113   3.947   2.476
 2115SOL    HW2 7245   2.120   4.097   2.541
 2116SOL     OW 7246   6.914   4.915   3.458
 2116SOL    HW1 7247   7.000   4.931   3.409
 2116SOL    HW2 7248   6.840   4.967   3.416
 2117SOL     OW 7249   0.155   4.471   1.158
 2117SOL    HW1 7250   0.113   4.477   1.067
 2117SOL    HW2 7251   0.093   4.512   1.226
 2118SOL     OW 7252   6.925   3.973   1.955
 2118SOL    HW1 7253   6.840   4.014   1.923
 2118SOL    HW2 7254   6.906   3.911   2.031
 2119SOL     OW 7255   2.415   5.300   1.028
 2119SOL    HW1 7256   2.333   5.342   1.067
 2119SOL    HW2 7257   2.492   5.363   1.037
 2120SOL     OW 7258   0.304   5.022   4.068
 2120SOL    HW1 7259   0.376   4.955   4.052
 2120SOL    HW2 7260   0.345   5.113   4.077
 2121SOL     OW 7261   0.725   4.738   5.759
 2121SOL    HW1 7262   0.760   4.646   5.771
 2121SOL    HW2 7263   0.734   4.789   5.845
 2122SOL     OW 7264   6.214   4.161   5.585
 2122SOL    HW1 7265   6.232   4.202   5.495
 2122SOL    HW2 7266   6.135   4.100   5.579
 2123SOL     OW 7267   0.001   4.981   1.997
 2123SOL    HW1 7268   6.991   5.010   1.908
 2123SOL    HW2 7269   0.002   4.881   2.001
 2124SOL     OW 7270   2.335   1.641   1.776
 2124SOL    HW1 7271   2.431   1.663   1.797
 2124SOL    HW2 7272   2.333   1.574   1.702
 2125SOL     OW 7273   1.761   0.226   0.397
 2125SOL    HW1 7274   1.809   0.239   0.310
 2125SOL    HW2 7275   1.737   0.315   0.436
 2126SOL     OW 7276   2.874   1.303   1.202
 2126SOL    HW1 7277   2.949   1.251   1.161
 2126SOL    HW2 7278   2.809   1.241   1.244
 2127SOL     OW 7279   6.342   3.401   4.110
 2127SOL    HW1 7280   6.283   3.472   4.071
 2127SOL    HW2 7281   6.377   3.433   4.198
 2128SOL     OW 7282   6.638   4.047   4.722
 2128SOL    HW1 7283   6.653   3.948   4.721
 2128SOL    HW2 7284   6.702   4.092   4.659
 2129SOL     OW 7285   4.550   2.921   5.231
 2129SOL    HW1 7286   4.470   2.877   5.271
 2129SOL    HW2 7287   4.611   2.852   5.193
 2130SOL     OW 7288   4.197   0.079   2.684
 2130SOL    HW1 7289   4.290   0.042   2.686
 2130SOL    HW2 7290   4.200   0.178   2.695
 2131SOL     OW 7291   6.713   0.899   1.419
 2131SOL    HW1 7292   6.665   0.866   1.338
 2131SOL    HW2 7293   6.797   0.947   1.391
 2132SOL     OW 7294   4.219   2.192   1.488
 2132SOL    HW1 7295   4.231   2.098   1.521
 2132SOL    HW2 7296   4.274   2.207   1.406
 2133SOL     OW 7297   2.589   2.892   5.901
 2133SOL    HW1 7298   2.555   2.938   5.818
 2133SOL    HW2 7299   2.518   2.830   5.936
 2134SOL     OW 7300   0.126   2.714   0.765
 2134SOL    HW1 7301   0.091   2.730   0.673
 2134SOL    HW2 7302   0.226   2.714   0.764
 2135SOL     OW 7303   0.867   3.865   4.822
 2135SOL    HW1 7304   0.822   3.782   4.787
 2135SOL    HW2 7305   0.926   3.903   4.752
 2136SOL     OW 7306   2.127   4.687   2.743
 2136SOL    HW1 7307   2.136   4.635   2.657
 2136SOL    HW2 7308   2.180   4.642   2.814
 2137SOL     OW 7309   2.833   5.342   5.445
 2137SOL    HW1 7310   2.751   5.379   5.400
 2137SOL    HW2 7311   2.819   5.245   5.465
 2138SOL     OW 7312   6.378   6.886   2.909
 2138SOL    HW1 7313   6.429   6.802   2.931
 2138SOL    HW2 7314   6.311   6.904   2.980
 2139SOL     OW 7315   4.305   0.618   4.076
 2139SOL    HW1 7316   4.310   0.555   3.999
 2139SOL    HW2 7317   4.238   0.585   4.142
 2140SOL     OW 7318   2.887   6.627   4.328
 2140SOL    HW1 7319   2.906   6.554   4.394
 2140SOL    HW2 7320   2.825   6.593   4.258
 2141SOL     OW 7321   6.519   2.866   2.398
 2141SOL    HW1 7322   6.471   2.945   2.435
 2141SOL    HW2 7323   6.615   2.868   2.428
 2142SOL     OW 7324   0.732   1.581   3.339
 2142SOL    HW1 7325   0.806   1.520   3.367
 2142SOL    HW2 7326   0.722   1.655   3.406
 2143SOL     OW 7327   2.722   4.997   1.489
 2143SOL    HW1 7328   2.803   4.942   1.509
 2143SOL    HW2 7329   2.647   4.968   1.549
 2144SOL     OW 7330   0.708   5.546   4.786
 2144SOL    HW1 7331   0.796   5.515   4.749
 2144SOL    HW2 7332   0.650   5.579   4.711
 2145SOL     OW 7333   3.914   6.647   4.708
 2145SOL    HW1 7334   3.887   6.645   4.804
 2145SOL    HW2 7335   3.900   6.739   4.671
 2146SOL     OW 7336   2.285   2.414   1.068
 2146SOL    HW1 7337   2.202   2.463   1.042
 2146SOL    HW2 7338   2.315   2.445   1.158
 2147SOL     OW 7339   6.001   1.117   6.816
 2147SOL    HW1 7340   5.927   1.051   6.806
 2147SOL    HW2 7341   6.057   1.093   6.894
 2148SOL     OW 7342   6.249   3.594   6.191
 2148SOL    HW1 7343   6.233   3.552   6.280
 2148SOL    HW2 7344   6.317   3.541   6.140
 2149SOL     OW 7345   1.889   1.635   1.147
 2149SOL    HW1 7346   1.860   1.706   1.082
 2149SOL    HW2 7347   1.904   1.549   1.098
 2150SOL     OW 7348   2.124   2.365   1.893
 2150SOL    HW1 7349   2.156   2.331   1.982
 2150SOL    HW2 7350   2.178   2.445   1.867
 2151SOL     OW 7351   1.302   6.138   6.526
 2151SOL    HW1 7352   1.240   6.190   6.584
 2151SOL    HW2 7353   1.271   6.142   6.431
 2152SOL     OW 7354   4.485   4.496   2.555
 2152SOL    HW1 7355   4.540   4.465   2.478
 2152SOL    HW2 7356   4.391   4.511   2.525
 2153SOL     OW 7357   4.567   1.938   1.946
 2153SOL    HW1 7358   4.649   1.897   1.907
 2153SOL    HW2 7359   4.593   2.013   2.008
 2154SOL     OW 7360   3.529   0.369   4.387
 2154SOL    HW1 7361   3.538   0.389   4.289
 2154SOL    HW2 7362   3.435   0.381   4.416
 2155SOL     OW 7363   3.916   0.238   1.157
 2155SOL    HW1 7364   3.997   0.197   1.199
 2155SOL    HW2 7365   3.881   0.178   1.086
 2156SOL     OW 7366   0.154   0.297   4.896
 2156SOL    HW1 7367   0.112   0.320   4.984
 2156SOL    HW2 7368   0.089   0.315   4.822
 2157SOL     OW 7369   5.225   6.093   3.610
 2157SOL    HW1 7370   5.151   6.062   3.670
 2157SOL    HW2 7371   5.211   6.189   3.585
 2158SOL     OW 7372   3.973   5.927   0.364
 2158SOL    HW1 7373   3.939   5.998   0.302
 2158SOL    HW2 7374   3.965   5.838   0.321
 2159SOL     OW 7375   1.501   0.518   5.038
 2159SOL    HW1 7376   1.560   0.551   5.112
 2159SOL    HW2 7377   1.409   0.556   5.049
 2160SOL     OW 7378   4.839   4.693   6.873
 2160SOL    HW1 7379   4.924   4.649   6.844
 2160SOL    HW2 7380   4.784   4.714   6.792
 2161SOL     OW 7381   6.409   4.662   1.774
 2161SOL    HW1 7382   6.364   4.662   1.863
 2161SOL    HW2 7383   6.498   4.706   1.782
 2162SOL     OW 7384   2.941   0.003   2.597
 2162SOL    HW1 7385   2.911   6.936   2.570
 2162SOL    HW2 7386   3.011   7.020   2.668
 2163SOL     OW 7387   1.284   4.772   0.524
 2163SOL    HW1 7388   1.238   4.771   0.613
 2163SOL    HW2 7389   1.361   4.708   0.525
 2164SOL     OW 7390   2.369   2.210   6.590
 2164SOL    HW1 7391   2.464   2.212   6.558
 2164SOL    HW2 7392   2.368   2.208   6.690
 2165SOL     OW 7393   0.445   2.377   3.945
 2165SOL    HW1 7394   0.532   2.337   3.916
 2165SOL    HW2 7395   0.392   2.309   3.996
 2166SOL     OW 7396   0.610   3.606   4.210
 2166SOL    HW1 7397   0.522   3.580   4.170
 2166SOL    HW2 7398   0.617   3.569   4.303
 2167SOL     OW 7399   0.409   3.367   3.825
 2167SOL    HW1 7400   0.346   3.389   3.899
 2167SOL    HW2 7401   0.446   3.275   3.839
 2168SOL     OW 7402   0.965   1.502   2.942
 2168SOL    HW1 7403   0.889   1.503   2.877
 2168SOL    HW2 7404   1.016   1.416   2.933
 2169SOL     OW 7405   6.138   0.730   1.576
 2169SOL    HW1 7406   6.074   0.740   1.500
 2169SOL    HW2 7407   6.225   0.774   1.551
 2170SOL     OW 7408   0.023   4.189   5.250
 2170SOL    HW1 7409   6.969   4.250   5.244
 2170SOL    HW2 7410   0.041   4.148   5.161
 2171SOL     OW 7411   1.138   5.588   1.276
 2171SOL    HW1 7412   1.185   5.649   1.339
 2171SOL    HW2 7413   1.157   5.493   1.300
 2172SOL     OW 7414   2.298   2.436   5.768
 2172SOL    HW1 7415   2.340   2.516   5.726
 2172SOL    HW2 7416   2.342   2.353   5.732
 2173SOL     OW 7417   4.794   0.499   5.289
 2173SOL    HW1 7418   4.876   0.535   5.331
 2173SOL    HW2 7419   4.756   0.566   5.225
 2174SOL     OW 7420   6.770   6.235   4.773
 2174SOL    HW1 7421   6.786   6.260   4.677
 2174SOL    HW2 7422   6.823   6.153   4.795
 2175SOL     OW 7423   1.662   3.692   4.332
 2175SOL    HW1 7424   1.574   3.728   4.363
 2175SOL    HW2 7425   1.731   3.706   4.403
 2176SOL     OW 7426   5.261   1.930   1.544
 2176SOL    HW1 7427   5.323   1.873   1.489
 2176SOL    HW2 7428   5.276   2.026   1.520
 2177SOL     OW 7429   6.831   0.246   2.294
 2177SOL    HW1 7430   6.865   0.313   2.360
 2177SOL    HW2 7431   6.805   0.292   2.209
 2178SOL     OW 7432   1.783   0.892   1.689
 2178SOL    HW1 7433   1.872   0.850   1.673
 2178SOL    HW2 7434   1.769   0.905   1.787
 2179SOL     OW 7435   2.146   3.999   6.307
 2179SOL    HW1 7436   2.157   3.999   6.406
 2179SOL    HW2 7437   2.087   3.923   6.280
 2180SOL     OW 7438   1.296   2.851   2.402
 2180SOL    HW1 7439   1.289   2.949   2.386
 2180SOL    HW2 7440   1.272   2.802   2.318
 2181SOL     OW 7441   4.087   5.229   3.855
 2181SOL    HW1 7442   4.157   5.284   3.900
 2181SOL    HW2 7443   4.130   5.160   3.798
 2182SOL     OW 7444   1.262   4.945   3.753
 2182SOL    HW1 7445   1.233   5.034   3.790
 2182SOL    HW2 7446   1.184   4.897   3.716
 2183SOL     OW 7447   2.107   4.279   0.388
 2183SOL    HW1 7448   2.051   4.208   0.346
 2183SOL    HW2 7449   2.063   4.368   0.377
 2184SOL     OW 7450   4.229   6.725   6.061
 2184SOL    HW1 7451   4.229   6.659   5.985
 2184SOL    HW2 7452   4.281   6.806   6.035
 2185SOL     OW 7453   0.610   1.260   0.015
 2185SOL    HW1 7454   0.630   1.264   6.943
 2185SOL    HW2 7455   0.593   1.352   0.050
 2186SOL     OW 7456   6.955   6.073   6.919
 2186SOL    HW1 7457   6.881   6.009   6.897
 2186SOL    HW2 7458   0.002   6.065   6.851
 2187SOL     OW 7459   0.373   5.732   2.387
 2187SOL    HW1 7460   0.404   5.640   2.412
 2187SOL    HW2 7461   0.407   5.798   2.453
 2188SOL     OW 7462   1.710   5.606   5.556
 2188SOL    HW1 7463   1.730   5.625   5.460
 2188SOL    HW2 7464   1.708   5.507   5.571
 2189SOL     OW 7465   1.159   6.840   1.469
 2189SOL    HW1 7466   1.166   6.805   1.375
 2189SOL    HW2 7467   1.244   6.820   1.518
 2190SOL     OW 7468   6.766   3.194   1.348
 2190SOL    HW1 7469   6.773   3.103   1.390
 2190SOL    HW2 7470   6.692   3.245   1.393
 2191SOL     OW 7471   2.188   1.738   5.392
 2191SOL    HW1 7472   2.249   1.672   5.436
 2191SOL    HW2 7473   2.189   1.824   5.444
 2192SOL     OW 7474   5.356   0.813   2.923
 2192SOL    HW1 7475   5.266   0.842   2.890
 2192SOL    HW2 7476   5.375   0.859   3.010
 2193SOL     OW 7477   6.839   0.398   6.281
 2193SOL    HW1 7478   6.904   0.432   6.348
 2193SOL    HW2 7479   6.842   0.298   6.279
 2194SOL     OW 7480   1.801   4.050   6.751
 2194SOL    HW1 7481   1.714   4.082   6.788
 2194SOL    HW2 7482   1.874   4.113   6.779
 2195SOL     OW 7483   6.709   6.711   5.373
 2195SOL    HW1 7484   6.711   6.688   5.276
 2195SOL    HW2 7485   6.638   6.779   5.390
 2196SOL     OW 7486   3.233   6.733   4.453
 2196SOL    HW1 7487   3.204   6.811   4.396
 2196SOL    HW2 7488   3.161   6.712   4.519
 2197SOL     OW 7489   3.201   3.486   5.999
 2197SOL    HW1 7490   3.242   3.553   5.937
 2197SOL    HW2 7491   3.152   3.417   5.945
 2198SOL     OW 7492   5.985   0.352   1.949
 2198SOL    HW1 7493   6.050   0.428   1.947
 2198SOL    HW2 7494   5.965   0.328   2.044
 2199SOL     OW 7495   5.216   6.982   3.983
 2199SOL    HW1 7496   5.172   6.998   3.894
 2199SOL    HW2 7497   5.208   0.040   4.039
 2200SOL     OW 7498   2.535   1.553   4.243
 2200SOL    HW1 7499   2.462   1.621   4.240
 2200SOL    HW2 7500   2.514   1.484   4.311
 2201SOL     OW 7501   6.602   2.788   2.790
 2201SOL    HW1 7502   6.643   2.707   2.749
 2201SOL    HW2 7503   6.502   2.783   2.783
 2202SOL     OW 7504   3.729   5.885   1.849
 2202SOL    HW1 7505   3.686   5.875   1.759
 2202SOL    HW2 7506   3.668   5.938   1.909
 2203SOL     OW 7507   2.634   3.401   1.232
 2203SOL    HW1 7508   2.632   3.304   1.256
 2203SOL    HW2 7509   2.540   3.434   1.219
 2204SOL     OW 7510   4.263   2.545   1.108
 2204SOL    HW1 7511   4.223   2.562   1.198
 2204SOL    HW2 7512   4.222   2.606   1.041
 2205SOL     OW 7513   1.508   0.143   6.879
 2205SOL    HW1 7514   1.475   0.055   6.843
 2205SOL    HW2 7515   1.451   0.217   6.843
 2206SOL     OW 7516   3.137   4.268   6.000
 2206SOL    HW1 7517   3.055   4.325   6.008
 2206SOL    HW2 7518   3.144   4.231   5.907
 2207SOL     OW 7519   3.339   4.258   6.897
 2207SOL    HW1 7520   3.406   4.323   6.862
 2207SOL    HW2 7521   3.272   4.239   6.825
 2208SOL     OW 7522   1.025   4.983   3.014
 2208SOL    HW1 7523   1.110   4.931   3.023
 2208SOL    HW2 7524   1.047   5.080   3.002
 2209SOL     OW 7525   2.541   6.933   5.145
 2209SOL    HW1 7526   2.538   6.863   5.074
 2209SOL    HW2 7527   2.635   6.962   5.159
 2210SOL     OW 7528   0.588   4.578   3.633
 2210SOL    HW1 7529   0.652   4.504   3.649
 2210SOL    HW2 7530   0.547   4.568   3.542
 2211SOL     OW 7531   6.824   0.754   0.825
 2211SOL    HW1 7532   6.922   0.750   0.808
 2211SOL    HW2 7533   6.780   0.675   0.784
 2212SOL     OW 7534   2.078   5.898   0.396
 2212SOL    HW1 7535   2.159   5.901   0.454
 2212SOL    HW2 7536   2.044   5.804   0.391
 2213SOL     OW 7537   3.782   1.927   5.320
 2213SOL    HW1 7538   3.744   1.959   5.407
 2213SOL    HW2 7539   3.743   1.980   5.245
 2214SOL     OW 7540   2.902   3.870   4.998
 2214SOL    HW1 7541   2.804   3.884   4.991
 2214SOL    HW2 7542   2.921   3.785   5.047
 2215SOL     OW 7543   5.933   0.387   6.869
 2215SOL    HW1 7544   5.859   0.365   6.933
 2215SOL    HW2 7545   5.900   0.452   6.801
 2216SOL     OW 7546   1.087   1.046   6.017
 2216SOL    HW1 7547   1.185   1.056   6.002
 2216SOL    HW2 7548   1.037   1.082   5.938
 2217SOL     OW 7549   4.214   0.279   2.396
 2217SOL    HW1 7550   4.136   0.312   2.448
 2217SOL    HW2 7551   4.202   0.304   2.299
 2218SOL     OW 7552   0.043   5.227   0.173
 2218SOL    HW1 7553   0.116   5.191   0.231
 2218SOL    HW2 7554   0.068   5.215   0.077
 2219SOL     OW 7555   6.016   1.858   0.673
 2219SOL    HW1 7556   5.990   1.767   0.706
 2219SOL    HW2 7557   6.105   1.883   0.710
 2220SOL     OW 7558   2.404   6.156   5.555
 2220SOL    HW1 7559   2.363   6.090   5.492
 2220SOL    HW2 7560   2.334   6.222   5.582
 2221SOL     OW 7561   5.907   1.657   5.419
 2221SOL    HW1 7562   5.874   1.614   5.502
 2221SOL    HW2 7563   5.915   1.589   5.346
 2222SOL     OW 7564   6.335   0.632   1.105
 2222SOL    HW1 7565   6.279   0.557   1.070
 2222SOL    HW2 7566   6.281   0.690   1.166
 2223SOL     OW 7567   6.116   1.209   5.977
 2223SOL    HW1 7568   6.150   1.287   6.030
 2223SOL    HW2 7569   6.185   1.137   5.975
 2224SOL     OW 7570   6.118   3.666   0.914
 2224SOL    HW1 7571   6.193   3.656   0.980
 2224SOL    HW2 7572   6.154   3.698   0.827
 2225SOL     OW 7573   5.941   6.740   4.046
 2225SOL    HW1 7574   5.908   6.769   4.136
 2225SOL    HW2 7575   6.030   6.695   4.055
 2226SOL     OW 7576   3.880   5.012   1.151
 2226SOL    HW1 7577   3.802   5.059   1.111
 2226SOL    HW2 7578   3.869   4.913   1.141
 2227SOL     OW 7579   5.589   2.817   0.957
 2227SOL    HW1 7580   5.557   2.736   1.007
 2227SOL    HW2 7581   5.558   2.812   0.863
 2228SOL     OW 7582   4.181   5.160   0.719
 2228SOL    HW1 7583   4.156   5.175   0.815
 2228SOL    HW2 7584   4.274   5.195   0.704
 2229SOL     OW 7585   3.701   2.854   5.187
 2229SOL    HW1 7586   3.749   2.930   5.145
 2229SOL    HW2 7587   3.603   2.874   5.191
 2230SOL     OW 7588   6.227   6.334   0.836
 2230SOL    HW1 7589   6.287   6.360   0.912
 2230SOL    HW2 7590   6.159   6.406   0.822
 2231SOL     OW 7591   0.005   0.952   1.128
 2231SOL    HW1 7592   0.033   0.888   1.057
 2231SOL    HW2 7593   0.079   1.017   1.145
 2232SOL     OW 7594   1.035   1.647   4.752
 2232SOL    HW1 7595   1.090   1.651   4.836
 2232SOL    HW2 7596   1.093   1.661   4.673
 2233SOL     OW 7597   2.465   2.761   0.836
 2233SOL    HW1 7598   2.401   2.742   0.910
 2233SOL    HW2 7599   2.480   2.860   0.831
 2234SOL     OW 7600   3.711   1.722   1.119
 2234SOL    HW1 7601   3.773   1.651   1.087
 2234SOL    HW2 7602   3.747   1.812   1.092
 2235SOL     OW 7603   2.779   0.261   2.109
 2235SOL    HW1 7604   2.788   0.250   2.208
 2235SOL    HW2 7605   2.826   0.344   2.080
 2236SOL     OW 7606   1.974   3.769   5.696
 2236SOL    HW1 7607   1.932   3.836   5.757
 2236SOL    HW2 7608   1.906   3.736   5.631
 2237SOL     OW 7609   5.185   4.765   4.208
 2237SOL    HW1 7610   5.195   4.853   4.161
 2237SOL    HW2 7611   5.163   4.781   4.304
 2238SOL     OW 7612   4.511   5.443   1.977
 2238SOL    HW1 7613   4.550   5.507   2.044
 2238SOL    HW2 7614   4.411   5.445   1.984
 2239SOL     OW 7615   3.806   5.620   4.120
 2239SOL    HW1 7616   3.753   5.696   4.156
 2239SOL    HW2 7617   3.789   5.538   4.175
 2240SOL     OW 7618   3.464   5.270   2.503
 2240SOL    HW1 7619   3.430   5.241   2.413
 2240SOL    HW2 7620   3.485   5.189   2.558
 2241SOL     OW 7621   6.961   6.187   2.677
 2241SOL    HW1 7622   6.932   6.150   2.589
 2241SOL    HW2 7623   6.907   6.269   2.698
 2242SOL     OW 7624   5.065   2.877   2.460
 2242SOL    HW1 7625   5.151   2.907   2.418
 2242SOL    HW2 7626   5.084   2.830   2.546
 2243SOL     OW 7627   1.458   0.008   6.506
 2243SOL    HW1 7628   1.366   0.028   6.538
 2243SOL    HW2 7629   1.464   6.937   6.479
 2244SOL     OW 7630   2.912   6.600   1.057
 2244SOL    HW1 7631   2.886   6.682   1.109
 2244SOL    HW2 7632   2.856   6.594   0.974
 2245SOL     OW 7633   0.831   1.577   1.756
 2245SOL    HW1 7634   0.868   1.505   1.815
 2245SOL    HW2 7635   0.865   1.566   1.663
 2246SOL     OW 7636   2.236   0.898   4.250
 2246SOL    HW1 7637   2.198   0.907   4.158
 2246SOL    HW2 7638   2.277   0.985   4.278
 2247SOL     OW 7639   3.473   2.874   3.086
 2247SOL    HW1 7640   3.518   2.962   3.106
 2247SOL    HW2 7641   3.472   2.859   2.987
 2248SOL     OW 7642   6.741   3.795   5.187
 2248SOL    HW1 7643   6.780   3.729   5.251
 2248SOL    HW2 7644   6.802   3.803   5.108
 2249SOL     OW 7645   5.779   6.912   3.292
 2249SOL    HW1 7646   5.744   6.875   3.206
 2249SOL    HW2 7647   5.722   6.880   3.368
 2250SOL     OW 7648   3.653   4.130   5.097
 2250SOL    HW1 7649   3.663   4.214   5.149
 2250SOL    HW2 7650   3.672   4.052   5.156
 2251SOL     OW 7651   5.437   0.063   6.706
 2251SOL    HW1 7652   5.376   0.008   6.649
 2251SOL    HW2 7653   5.531   0.030   6.694
 2252SOL     OW 7654   4.741   1.589   3.264
 2252SOL    HW1 7655   4.687   1.612   3.345
 2252SOL    HW2 7656   4.833   1.562   3.292
 2253SOL     OW 7657   6.626   3.071   0.208
 2253SOL    HW1 7658   6.685   3.087   0.287
 2253SOL    HW2 7659   6.677   3.019   0.139
 2254SOL     OW 7660   3.111   3.429   4.417
 2254SOL    HW1 7661   3.140   3.510   4.468
 2254SOL    HW2 7662   3.175   3.411   4.343
 2255SOL     OW 7663   3.999   3.022   6.338
 2255SOL    HW1 7664   3.947   3.077   6.273
 2255SOL    HW2 7665   3.973   3.047   6.431
 2256SOL     OW 7666   5.016   6.382   2.091
 2256SOL    HW1 7667   5.044   6.478   2.086
 2256SOL    HW2 7668   4.981   6.353   2.002
 2257SOL     OW 7669   0.954   2.021   4.694
 2257SOL    HW1 7670   0.912   2.009   4.783
 2257SOL    HW2 7671   0.952   1.934   4.644
 2258SOL     OW 7672   1.527   5.273   4.360
 2258SOL    HW1 7673   1.566   5.310   4.276
 2258SOL    HW2 7674   1.443   5.322   4.383
 2259SOL     OW 7675   5.454   2.638   5.692
 2259SOL    HW1 7676   5.446   2.539   5.679
 2259SOL    HW2 7677   5.363   2.680   5.685
 2260SOL     OW 7678   0.022   4.432   1.584
 2260SOL    HW1 7679   0.004   4.335   1.602
 2260SOL    HW2 7680   0.105   4.460   1.633
 2261SOL     OW 7681   6.236   5.150   0.349
 2261SOL    HW1 7682   6.164   5.112   0.291
 2261SOL    HW2 7683   6.195   5.195   0.428
 2262SOL     OW 7684   6.101   0.342   3.141
 2262SOL    HW1 7685   6.182   0.299   3.181
 2262SOL    HW2 7686   6.061   0.280   3.074
 2263SOL     OW 7687   3.185   5.655   0.584
 2263SOL    HW1 7688   3.222   5.636   0.493
 2263SOL    HW2 7689   3.101   5.601   0.596
 2264SOL     OW 7690   2.947   5.169   6.763
 2264SOL    HW1 7691   2.877   5.099   6.777
 2264SOL    HW2 7692   2.919   5.254   6.809
 2265SOL     OW 7693   2.423   0.892   4.017
 2265SOL    HW1 7694   2.448   0.972   3.962
 2265SOL    HW2 7695   2.442   0.911   4.114
 2266SOL     OW 7696   5.070   1.399   0.719
 2266SOL    HW1 7697   5.147   1.395   0.656
 2266SOL    HW2 7698   5.029   1.490   0.717
 2267SOL     OW 7699   4.902   3.357   4.884
 2267SOL    HW1 7700   4.803   3.371   4.884
 2267SOL    HW2 7701   4.948   3.437   4.924
 2268SOL     OW 7702   5.753   3.994   6.478
 2268SOL    HW1 7703   5.851   4.016   6.470
 2268SOL    HW2 7704   5.725   4.000   6.573
 2269SOL     OW 7705   0.143   4.267   5.758
 2269SOL    HW1 7706   0.153   4.325   5.677
 2269SOL    HW2 7707   0.094   4.184   5.733
 2270SOL     OW 7708   3.870   2.378   6.087
 2270SOL    HW1 7709   3.886   2.280   6.095
 2270SOL    HW2 7710   3.940   2.419   6.028
 2271SOL     OW 7711   5.647   4.657   0.115
 2271SOL    HW1 7712   5.744   4.641   0.097
 2271SOL    HW2 7713   5.608   4.711   0.040
 2272SOL     OW 7714   5.576   1.755   0.057
 2272SOL    HW1 7715   5.674   1.766   0.039
 2272SOL    HW2 7716   5.529   1.735   6.996
 2273SOL     OW 7717   1.699   1.214   1.891
 2273SOL    HW1 7718   1.658   1.126   1.915
 2273SOL    HW2 7719   1.787   1.224   1.936
 2274SOL     OW 7720   0.755   1.556   6.095
 2274SOL    HW1 7721   0.729   1.584   6.188
 2274SOL    HW2 7722   0.745   1.457   6.086
 2275SOL     OW 7723   6.373   6.464   4.129
 2275SOL    HW1 7724   6.463   6.480   4.087
 2275SOL    HW2 7725   6.308   6.436   4.058
 2276SOL     OW 7726   2.178   5.523   1.927
 2276SOL    HW1 7727   2.222   5.581   1.859
 2276SOL    HW2 7728   2.248   5.485   1.988
 2277SOL     OW 7729   3.706   4.086   3.748
 2277SOL    HW1 7730   3.730   4.101   3.652
 2277SOL    HW2 7731   3.781   4.038   3.794
 2278SOL     OW 7732   6.202   3.794   4.406
 2278SOL    HW1 7733   6.119   3.739   4.405
 2278SOL    HW2 7734   6.201   3.854   4.486
 2279SOL     OW 7735   6.099   0.126   5.667
 2279SOL    HW1 7736   6.009   0.167   5.656
 2279SOL    HW2 7737   6.094   0.053   5.735
 2280SOL     OW 7738   6.998   0.382   4.729
 2280SOL    HW1 7739   0.041   0.425   4.670
 2280SOL    HW2 7740   6.906   0.405   4.697
 2281SOL     OW 7741   3.440   0.765   2.137
 2281SOL    HW1 7742   3.483   0.830   2.074
 2281SOL    HW2 7743   3.380   0.814   2.200
 2282SOL     OW 7744   5.681   0.054   5.174
 2282SOL    HW1 7745   5.766   0.010   5.202
 2282SOL    HW2 7746   5.606   7.012   5.180
 2283SOL     OW 7747   1.376   6.603   1.964
 2283SOL    HW1 7748   1.306   6.599   2.036
 2283SOL    HW2 7749   1.340   6.653   1.885
 2284SOL     OW 7750   1.513   3.013   0.040
 2284SOL    HW1 7751   1.470   3.038   0.126
 2284SOL    HW2 7752   1.571   2.933   0.054
 2285SOL     OW 7753   1.508   2.671   1.280
 2285SOL    HW1 7754   1.599   2.671   1.239
 2285SOL    HW2 7755   1.511   2.719   1.368
 2286SOL     OW 7756   5.689   6.832   3.636
 2286SOL    HW1 7757   5.724   6.925   3.646
 2286SOL    HW2 7758   5.593   6.829   3.666
 2287SOL     OW 7759   2.394   6.974   3.728
 2287SOL    HW1 7760   2.395   6.985   3.827
 2287SOL    HW2 7761   2.485   6.944   3.697
 2288SOL     OW 7762   5.821   4.811   3.888
 2288SOL    HW1 7763   5.813   4.736   3.822
 2288SOL    HW2 7764   5.778   4.893   3.852
 2289SOL     OW 7765   0.409   5.094   0.725
 2289SOL    HW1 7766   0.460   5.072   0.808
 2289SOL    HW2 7767   0.356   5.015   0.696
 2290SOL     OW 7768   0.313   3.604   0.771
 2290SOL    HW1 7769   0.324   3.511   0.735
 2290SOL    HW2 7770   0.220   3.614   0.807
 2291SOL     OW 7771   1.732   2.273   5.100
 2291SOL    HW1 7772   1.678   2.345   5.143
 2291SOL    HW2 7773   1.723   2.188   5.152
 2292SOL     OW 7774   0.904   1.844   4.420
 2292SOL    HW1 7775   0.909   1.933   4.375
 2292SOL    HW2 7776   0.808   1.817   4.430
 2293SOL     OW 7777   5.293   6.467   1.065
 2293SOL    HW1 7778   5.299   6.419   1.153
 2293SOL    HW2 7779   5.239   6.550   1.077
 2294SOL     OW 7780   3.250   0.223   6.729
 2294SOL    HW1 7781   3.165   0.180   6.759
 2294SOL    HW2 7782   3.289   0.173   6.652
 2295SOL     OW 7783   0.868   2.048   2.650
 2295SOL    HW1 7784   0.787   2.106   2.663
 2295SOL    HW2 7785   0.841   1.964   2.602
 2296SOL     OW 7786   4.300   4.965   0.499
 2296SOL    HW1 7787   4.312   5.029   0.575
 2296SOL    HW2 7788   4.270   5.014   0.418
 2297SOL     OW 7789   4.470   3.812   5.297
 2297SOL    HW1 7790   4.563   3.795   5.331
 2297SOL    HW2 7791   4.422   3.873   5.360
 2298SOL     OW 7792   4.146   3.239   1.726
 2298SOL    HW1 7793   4.079   3.201   1.663
 2298SOL    HW2 7794   4.204   3.165   1.762
 2299SOL     OW 7795   4.482   6.146   5.433
 2299SOL    HW1 7796   4.479   6.246   5.431
 2299SOL    HW2 7797   4.390   6.110   5.447
 2300SOL     OW 7798   2.505   5.180   2.273
 2300SOL    HW1 7799   2.556   5.200   2.356
 2300SOL    HW2 7800   2.412   5.151   2.297
 2301SOL     OW 7801   3.250   2.946   2.680
 2301SOL    HW1 7802   3.250   3.023   2.616
 2301SOL    HW2 7803   3.197   2.969   2.761
 2302SOL     OW 7804   3.847   0.009   0.935
 2302SOL    HW1 7805   3.947   0.018   0.938
 2302SOL    HW2 7806   3.823   6.940   0.912
 2303SOL     OW 7807   2.018   3.192   6.261
 2303SOL    HW1 7808   1.991   3.158   6.171
 2303SOL    HW2 7809   2.084   3.266   6.250
 2304SOL     OW 7810   4.132   0.121   4.215
 2304SOL    HW1 7811   4.141   0.022   4.207
 2304SOL    HW2 7812   4.141   0.163   4.125
 2305SOL     OW 7813   2.639   6.669   2.875
 2305SOL    HW1 7814   2.632   6.606   2.952
 2305SOL    HW2 7815   2.558   6.729   2.873
 2306SOL     OW 7816   2.944   5.026   2.084
 2306SOL    HW1 7817   2.914   4.937   2.118
 2306SOL    HW2 7818   3.013   5.012   2.012
 2307SOL     OW 7819   0.510   4.185   2.800
 2307SOL    HW1 7820   0.438   4.117   2.789
 2307SOL    HW2 7821   0.579   4.172   2.728
 2308SOL     OW 7822   1.487   6.527   0.239
 2308SOL    HW1 7823   1.558   6.586   0.202
 2308SOL    HW2 7824   1.518   6.432   0.241
 2309SOL     OW 7825   2.745   6.439   6.634
 2309SOL    HW1 7826   2.710   6.480   6.549
 2309SOL    HW2 7827   2.670   6.429   6.699
 2310SOL     OW 7828   5.865   6.443   1.010
 2310SOL    HW1 7829   5.809   6.499   1.072
 2310SOL    HW2 7830   5.814   6.361   0.985
 2311SOL     OW 7831   2.266   5.953   2.167
 2311SOL    HW1 7832   2.260   6.002   2.080
 2311SOL    HW2 7833   2.205   5.996   2.233
 2312SOL     OW 7834   3.555   6.356   4.129
 2312SOL    HW1 7835   3.550   6.390   4.035
 2312SOL    HW2 7836   3.625   6.407   4.180
 2313SOL     OW 7837   5.265   5.467   1.318
 2313SOL    HW1 7838   5.349   5.462   1.372
 2313SOL    HW2 7839   5.216   5.380   1.324
 2314SOL     OW 7840   6.002   0.456   5.211
 2314SOL    HW1 7841   5.949   0.541   5.209
 2314SOL    HW2 7842   6.064   0.454   5.132
 2315SOL     OW 7843   5.257   3.496   5.129
 2315SOL    HW1 7844   5.277   3.402   5.159
 2315SOL    HW2 7845   5.181   3.532   5.184
 2316SOL     OW 7846   3.118   0.801   4.444
 2316SOL    HW1 7847   3.147   0.735   4.376
 2316SOL    HW2 7848   3.195   0.826   4.502
 2317SOL     OW 7849   6.283   6.060   3.156
 2317SOL    HW1 7850   6.352   6.093   3.221
 2317SOL    HW2 7851   6.318   5.980   3.108
 2318SOL     OW 7852   1.991   2.926   4.086
 2318SOL    HW1 7853   2.082   2.883   4.087
 2318SOL    HW2 7854   1.966   2.952   4.179
 2319SOL     OW 7855   3.021   5.564   4.675
 2319SOL    HW1 7856   2.964   5.631   4.723
 2319SOL    HW2 7857   3.105   5.548   4.727
 2320SOL     OW 7858   1.037   3.132   4.364
 2320SOL    HW1 7859   1.080   3.094   4.446
 2320SOL    HW2 7860   1.108   3.171   4.304
 2321SOL     OW 7861   2.267   5.645   0.026
 2321SOL    HW1 7862   2.224   5.595   0.101
 2321SOL    HW2 7863   2.363   5.617   0.019
 2322SOL     OW 7864   1.719   4.343   3.132
 2322SOL    HW1 7865   1.817   4.364   3.138
 2322SOL    HW2 7866   1.684   4.376   3.044
 2323SOL     OW 7867   3.369   4.610   1.652
 2323SOL    HW1 7868   3.447   4.627   1.713
 2323SOL    HW2 7869   3.291   4.580   1.707
 2324SOL     OW 7870   6.665   5.808   0.469
 2324SOL    HW1 7871   6.580   5.802   0.416
 2324SOL    HW2 7872   6.652   5.868   0.548
 2325SOL     OW 7873   1.103   4.539   1.048
 2325SOL    HW1 7874   1.173   4.591   0.999
 2325SOL    HW2 7875   1.015   4.548   1.002
 2326SOL     OW 7876   3.076   5.761   6.897
 2326SOL    HW1 7877   3.059   5.859   6.899
 2326SOL    HW2 7878   3.085   5.730   6.802
 2327SOL     OW 7879   6.508   1.744   4.041
 2327SOL    HW1 7880   6.466   1.654   4.054
 2327SOL    HW2 7881   6.575   1.739   3.967
 2328SOL     OW 7882   1.543   2.004   2.849
 2328SOL    HW1 7883   1.555   1.997   2.750
 2328SOL    HW2 7884   1.553   2.100   2.877
 2329SOL     OW 7885   1.781   4.644   4.663
 2329SOL    HW1 7886   1.851   4.663   4.595
 2329SOL    HW2 7887   1.791   4.550   4.696
 2330SOL     OW 7888   0.297   3.479   1.535
 2330SOL    HW1 7889   0.270   3.574   1.545
 2330SOL    HW2 7890   0.393   3.474   1.507
 2331SOL     OW 7891   4.087   5.621   6.577
 2331SOL    HW1 7892   4.036   5.580   6.501
 2331SOL    HW2 7893   4.062   5.574   6.662
 2332SOL     OW 7894   5.521   1.308   5.712
 2332SOL    HW1 7895   5.524   1.361   5.796
 2332SOL    HW2 7896   5.458   1.350   5.648
 2333SOL     OW 7897   0.306   4.560   2.881
 2333SOL    HW1 7898   0.261   4.619   2.814
 2333SOL    HW2 7899   0.287   4.464   2.858
 2334SOL     OW 7900   2.376   0.539   6.880
 2334SOL    HW1 7901   2.333   0.627   6.862
 2334SOL    HW2 7902   2.347   0.506   6.970
 2335SOL     OW 7903   6.582   1.248   3.818
 2335SOL    HW1 7904   6.584   1.345   3.841
 2335SOL    HW2 7905   6.644   1.230   3.741
 2336SOL     OW 7906   4.203   2.315   4.692
 2336SOL    HW1 7907   4.214   2.252   4.769
 2336SOL    HW2 7908   4.130   2.380   4.713
 2337SOL     OW 7909   4.330   0.730   1.699
 2337SOL    HW1 7910   4.417   0.781   1.696
 2337SOL    HW2 7911   4.262   0.785   1.747
 2338SOL     OW 7912   0.975   3.147   5.392
 2338SOL    HW1 7913   1.049   3.106   5.444
 2338SOL    HW2 7914   0.958   3.093   5.309
 2339SOL     OW 7915   3.157   3.400   3.593
 2339SOL    HW1 7916   3.254   3.385   3.612
 2339SOL    HW2 7917   3.111   3.432   3.676
 2340SOL     OW 7918   6.209   4.576   6.866
 2340SOL    HW1 7919   6.134   4.636   6.894
 2340SOL    HW2 7920   6.193   4.542   6.774
 2341SOL     OW 7921   3.761   4.950   2.085
 2341SOL    HW1 7922   3.809   4.931   2.171
 2341SOL    HW2 7923   3.701   4.874   2.062
 2342SOL     OW 7924   0.674   6.524   5.437
 2342SOL    HW1 7925   0.582   6.509   5.473
 2342SOL    HW2 7926   0.715   6.604   5.481
 2343SOL     OW 7927   1.635   5.806   3.417
 2343SOL    HW1 7928   1.725   5.825   3.456
 2343SOL    HW2 7929   1.595   5.891   3.384
 2344SOL     OW 7930   1.732   5.855   6.786
 2344SOL    HW1 7931   1.830   5.869   6.794
 2344SOL    HW2 7932   1.712   5.757   6.784
 2345SOL     OW 7933   3.315   5.625   4.899
 2345SOL    HW1 7934   3.233   5.616   4.955
 2345SOL    HW2 7935   3.391   5.577   4.943
 2346SOL     OW 7936   4.010   3.278   5.356
 2346SOL    HW1 7937   3.972   3.186   5.358
 2346SOL    HW2 7938   4.068   3.289   5.275
 2347SOL     OW 7939   2.735   2.403   1.376
 2347SOL    HW1 7940   2.688   2.366   1.456
 2347SOL    HW2 7941   2.717   2.501   1.369
 2348SOL     OW 7942   2.698   0.185   3.450
 2348SOL    HW1 7943   2.614   0.200   3.502
 2348SOL    HW2 7944   2.692   0.235   3.363
 2349SOL     OW 7945   1.187   4.355   6.540
 2349SOL    HW1 7946   1.218   4.361   6.635
 2349SOL    HW2 7947   1.265   4.356   6.478
 2350SOL     OW 7948   5.364   0.158   6.358
 2350SOL    HW1 7949   5.357   0.140   6.456
 2350SOL    HW2 7950   5.451   0.123   6.324
 2351SOL     OW 7951   3.239   4.897   4.017
 2351SOL    HW1 7952   3.155   4.891   3.963
 2351SOL    HW2 7953   3.283   4.807   4.022
 2352SOL     OW 7954   0.624   4.308   2.281
 2352SOL    HW1 7955   0.529   4.338   2.278
 2352SOL    HW2 7956   0.627   4.208   2.285
 2353SOL     OW 7957   3.103   4.917   5.866
 2353SOL    HW1 7958   3.004   4.921   5.879
 2353SOL    HW2 7959   3.141   4.841   5.919
 2354SOL     OW 7960   3.106   1.322   5.640
 2354SOL    HW1 7961   3.132   1.418   5.656
 2354SOL    HW2 7962   3.126   1.268   5.723
 2355SOL     OW 7963   2.405   5.790   0.291
 2355SOL    HW1 7964   2.345   5.711   0.286
 2355SOL    HW2 7965   2.382   5.854   0.217
 2356SOL     OW 7966   1.415   3.058   6.446
 2356SOL    HW1 7967   1.493   3.002   6.474
 2356SOL    HW2 7968   1.443   3.123   6.376
 2357SOL     OW 7969   4.067   6.880   2.885
 2357SOL    HW1 7970   4.136   6.929   2.939
 2357SOL    HW2 7971   4.064   6.918   2.793
 2358SOL     OW 7972   3.985   5.115   4.837
 2358SOL    HW1 7973   3.917   5.110   4.910
 2358SOL    HW2 7974   3.955   5.182   4.769
 2359SOL     OW 7975   6.329   0.771   5.805
 2359SOL    HW1 7976   6.274   0.698   5.764
 2359SOL    HW2 7977   6.426   0.749   5.797
 2360SOL     OW 7978   5.357   4.553   6.815
 2360SOL    HW1 7979   5.401   4.587   6.732
 2360SOL    HW2 7980   5.357   4.453   6.815
 2361SOL     OW 7981   2.368   1.199   5.192
 2361SOL    HW1 7982   2.340   1.277   5.136
 2361SOL    HW2 7983   2.461   1.214   5.226
 2362SOL     OW 7984   2.012   6.817   4.811
 2362SOL    HW1 7985   2.092   6.876   4.827
 2362SOL    HW2 7986   1.964   6.848   4.728
 2363SOL     OW 7987   4.551   2.585   5.116
 2363SOL    HW1 7988   4.638   2.634   5.107
 2363SOL    HW2 7989   4.510   2.575   5.026
 2364SOL     OW 7990   1.198   2.125   3.034
 2364SOL    HW1 7991   1.192   2.199   2.967
 2364SOL    HW2 7992   1.238   2.044   2.991
 2365SOL     OW 7993   6.362   2.876   6.487
 2365SOL    HW1 7994   6.292   2.885   6.416
 2365SOL    HW2 7995   6.420   2.957   6.488
 2366SOL     OW 7996   2.327   5.594   6.590
 2366SOL    HW1 7997   2.301   5.594   6.493
 2366SOL    HW2 7998   2.425   5.580   6.599
 2367SOL     OW 7999   2.660   4.527   0.492
 2367SOL    HW1 8000   2.705   4.483   0.570
 2367SOL    HW2 8001   2.598   4.462   0.448
 2368SOL     OW 8002   4.285   0.173   3.632
 2368SOL    HW1 8003   4.351   0.206   3.564
 2368SOL    HW2 8004   4.331   0.156   3.718
 2369SOL     OW 8005   1.148   2.312   5.441
 2369SOL    HW1 8006   1.105   2.224   5.422
 2369SOL    HW2 8007   1.080   2.385   5.435
 2370SOL     OW 8008   4.991   3.855   0.012
 2370SOL    HW1 8009   4.920   3.909   6.992
 2370SOL    HW2 8010   4.956   3.762   0.028
 2371SOL     OW 8011   0.822   0.197   2.356
 2371SOL    HW1 8012   0.878   0.222   2.436
 2371SOL    HW2 8013   0.843   0.259   2.280
 2372SOL     OW 8014   0.049   2.896   2.220
 2372SOL    HW1 8015   6.984   2.852   2.220
 2372SOL    HW2 8016   0.093   2.883   2.131
 2373SOL     OW 8017   0.600   1.746   0.258
 2373SOL    HW1 8018   0.528   1.708   0.317
 2373SOL    HW2 8019   0.690   1.717   0.292
 2374SOL     OW 8020   6.196   0.840   3.441
 2374SOL    HW1 8021   6.231   0.825   3.534
 2374SOL    HW2 8022   6.240   0.776   3.378
 2375SOL     OW 8023   3.037   6.760   4.630
 2375SOL    HW1 8024   2.978   6.841   4.632
 2375SOL    HW2 8025   2.988   6.682   4.670
 2376SOL     OW 8026   6.698   2.793   4.235
 2376SOL    HW1 8027   6.688   2.873   4.176
 2376SOL    HW2 8028   6.610   2.772   4.278
 2377SOL     OW 8029   3.120   4.075   3.307
 2377SOL    HW1 8030   3.040   4.131   3.330
 2377SOL    HW2 8031   3.090   3.982   3.286
 2378SOL     OW 8032   4.629   1.666   0.528
 2378SOL    HW1 8033   4.582   1.642   0.443
 2378SOL    HW2 8034   4.689   1.591   0.556
 2379SOL     OW 8035   5.857   2.169   6.622
 2379SOL    HW1 8036   5.902   2.084   6.649
 2379SOL    HW2 8037   5.758   2.156   6.624
 2380SOL     OW 8038   0.825   0.766   6.568
 2380SOL    HW1 8039   0.759   0.776   6.642
 2380SOL    HW2 8040   0.793   0.816   6.487
 2381SOL     OW 8041   2.146   3.819   4.392
 2381SOL    HW1 8042   2.060   3.852   4.430
 2381SOL    HW2 8043   2.168   3.729   4.431
 2382SOL     OW 8044   2.265   4.351   3.294
 2382SOL    HW1 8045   2.269   4.276   3.360
 2382SOL    HW2 8046   2.356   4.391   3.283
 2383SOL     OW 8047   5.380   6.589   1.457
 2383SOL    HW1 8048   5.417   6.621   1.371
 2383SOL    HW2 8049   5.306   6.650   1.487
 2384SOL     OW 8050   5.871   0.511   2.859
 2384SOL    HW1 8051   5.815   0.593   2.866
 2384SOL    HW2 8052   5.959   0.534   2.817
 2385SOL     OW 8053   0.758   6.757   1.519
 2385SOL    HW1 8054   0.785   6.789   1.610
 2385SOL    HW2 8055   0.685   6.815   1.483
 2386SOL     OW 8056   5.539   5.192   3.969
 2386SOL    HW1 8057   5.620   5.243   3.995
 2386SOL    HW2 8058   5.526   5.116   4.033
 2387SOL     OW 8059   1.284   1.411   3.760
 2387SOL    HW1 8060   1.268   1.454   3.849
 2387SOL    HW2 8061   1.261   1.474   3.687
 2388SOL     OW 8062   0.748   2.458   4.115
 2388SOL    HW1 8063   0.835   2.422   4.147
 2388SOL    HW2 8064   0.764   2.535   4.053
 2389SOL     OW 8065   4.862   3.739   2.930
 2389SOL    HW1 8066   4.874   3.733   3.029
 2389SOL    HW2 8067   4.766   3.724   2.907
 2390SOL     OW 8068   4.047   3.807   2.690
 2390SOL    HW1 8069   4.117   3.869   2.654
 2390SOL    HW2 8070   4.089   3.719   2.712
 2391SOL     OW 8071   4.520   4.386   5.647
 2391SOL    HW1 8072   4.544   4.343   5.560
 2391SOL    HW2 8073   4.579   4.350   5.719
 2392SOL     OW 8074   3.620   6.664   5.447
 2392SOL    HW1 8075   3.719   6.671   5.434
 2392SOL    HW2 8076   3.593   6.719   5.526
 2393SOL     OW 8077   5.189   3.701   6.245
 2393SOL    HW1 8078   5.095   3.686   6.216
 2393SOL    HW2 8079   5.237   3.614   6.251
 2394SOL     OW 8080   1.606   3.508   4.128
 2394SOL    HW1 8081   1.631   3.549   4.215
 2394SOL    HW2 8082   1.605   3.578   4.056
 2395SOL     OW 8083   5.885   2.476   6.973
 2395SOL    HW1 8084   5.900   2.574   6.962
 2395SOL    HW2 8085   5.937   2.426   6.904
 2396SOL     OW 8086   3.584   5.100   1.862
 2396SOL    HW1 8087   3.664   5.050   1.897
 2396SOL    HW2 8088   3.531   5.039   1.803
 2397SOL     OW 8089   0.064   3.935   6.782
 2397SOL    HW1 8090   0.124   3.875   6.728
 2397SOL    HW2 8091   7.021   3.976   6.722
 2398SOL     OW 8092   2.190   3.475   6.656
 2398SOL    HW1 8093   2.196   3.445   6.751
 2398SOL    HW2 8094   2.113   3.430   6.611
 2399SOL     OW 8095   4.459   1.707   2.076
 2399SOL    HW1 8096   4.481   1.788   2.021
 2399SOL    HW2 8097   4.361   1.687   2.069
 2400SOL     OW 8098   3.231   4.482   0.247
 2400SOL    HW1 8099   3.135   4.487   0.220
 2400SOL    HW2 8100   3.280   4.562   0.211
 2401SOL     OW 8101   3.715   6.174   6.154
 2401SOL    HW1 8102   3.643   6.226   6.109
 2401SOL    HW2 8103   3.700   6.076   6.137
 2402SOL     OW 8104   6.847   1.211   3.749
 2402SOL    HW1 8105   6.935   1.177   3.715
 2402SOL    HW2 8106   6.858   1.245   3.843
 2403SOL     OW 8107   1.967   2.607   0.058
 2403SOL    HW1 8108   1.915   2.651   0.131
 2403SOL    HW2 8109   2.020   2.531   0.095
 2404SOL     OW 8110   3.843   1.248   1.095
 2404SOL    HW1 8111   3.832   1.291   1.185
 2404SOL    HW2 8112   3.939   1.227   1.079
 2405SOL     OW 8113   3.880   3.409   2.771
 2405SOL    HW1 8114   3.809   3.478   2.760
 2405SOL    HW2 8115   3.894   3.390   2.868
 2406SOL     OW 8116   3.014   6.597   2.808
 2406SOL    HW1 8117   2.929   6.592   2.755
 2406SOL    HW2 8118   3.076   6.662   2.764
 2407SOL     OW 8119   4.815   2.074   2.182
 2407SOL    HW1 8120   4.843   2.032   2.096
 2407SOL    HW2 8121   4.878   2.047   2.255
 2408SOL     OW 8122   3.911   5.082   3.009
 2408SOL    HW1 8123   3.829   5.028   3.028
 2408SOL    HW2 8124   3.972   5.078   3.089
 2409SOL     OW 8125   1.330   4.020   2.316
 2409SOL    HW1 8126   1.276   4.091   2.270
 2409SOL    HW2 8127   1.390   3.976   2.249
 2410SOL     OW 8128   4.277   2.591   5.798
 2410SOL    HW1 8129   4.361   2.537   5.797
 2410SOL    HW2 8130   4.274   2.647   5.881
 2411SOL     OW 8131   3.953   5.275   4.581
 2411SOL    HW1 8132   3.941   5.341   4.655
 2411SOL    HW2 8133   4.051   5.260   4.566
 2412SOL     OW 8134   4.654   5.431   1.447
 2412SOL    HW1 8135   4.610   5.343   1.430
 2412SOL    HW2 8136   4.675   5.439   1.544
 2413SOL     OW 8137   6.091   1.946   1.151
 2413SOL    HW1 8138   6.170   1.885   1.162
 2413SOL    HW2 8139   6.121   2.041   1.161
 2414SOL     OW 8140   4.697   4.412   2.385
 2414SOL    HW1 8141   4.768   4.347   2.413
 2414SOL    HW2 8142   4.694   4.415   2.285
 2415SOL     OW 8143   0.043   6.593   2.294
 2415SOL    HW1 8144   0.020   6.650   2.373
 2415SOL    HW2 8145   7.023   6.629   2.212
 2416SOL     OW 8146   4.409   2.277   5.264
 2416SOL    HW1 8147   4.325   2.297   5.215
 2416SOL    HW2 8148   4.394   2.198   5.324
 2417SOL     OW 8149   4.349   3.248   5.720
 2417SOL    HW1 8150   4.308   3.164   5.685
 2417SOL    HW2 8151   4.304   3.327   5.679
 2418SOL     OW 8152   2.930   3.790   4.408
 2418SOL    HW1 8153   2.949   3.882   4.441
 2418SOL    HW2 8154   2.988   3.770   4.329
 2419SOL     OW 8155   0.915   6.394   4.870
 2419SOL    HW1 8156   0.886   6.318   4.812
 2419SOL    HW2 8157   0.942   6.471   4.813
 2420SOL     OW 8158   2.795   1.372   2.251
 2420SOL    HW1 8159   2.845   1.286   2.262
 2420SOL    HW2 8160   2.706   1.365   2.296
 2421SOL     OW 8161   2.674   1.835   4.987
 2421SOL    HW1 8162   2.673   1.926   5.028
 2421SOL    HW2 8163   2.768   1.810   4.963
 2422SOL     OW 8164   5.228   1.126   1.391
 2422SOL    HW1 8165   5.327   1.134   1.389
 2422SOL    HW2 8166   5.187   1.217   1.381
 2423SOL     OW 8167   0.750   6.437   2.964
 2423SOL    HW1 8168   0.814   6.360   2.965
 2423SOL    HW2 8169   0.747   6.477   2.873
 2424SOL     OW 8170   6.014   6.675   5.922
 2424SOL    HW1 8171   5.916   6.696   5.915
 2424SOL    HW2 8172   6.040   6.614   5.847
 2425SOL     OW 8173   5.774   0.312   4.011
 2425SOL    HW1 8174   5.697   0.263   4.053
 2425SOL    HW2 8175   5.804   0.261   3.930
 2426SOL     OW 8176   0.963   5.853   5.155
 2426SOL    HW1 8177   1.017   5.803   5.088
 2426SOL    HW2 8178   0.897   5.911   5.108
 2427SOL     OW 8179   6.017   5.688   5.135
 2427SOL    HW1 8180   6.003   5.747   5.215
 2427SOL    HW2 8181   6.084   5.730   5.074
 2428SOL     OW 8182   6.300   0.177   2.913
 2428SOL    HW1 8183   6.243   0.138   2.985
 2428SOL    HW2 8184   6.296   0.118   2.832
 2429SOL     OW 8185   5.495   5.493   3.460
 2429SOL    HW1 8186   5.476   5.504   3.363
 2429SOL    HW2 8187   5.549   5.410   3.475
 2430SOL     OW 8188   5.899   1.681   1.536
 2430SOL    HW1 8189   5.879   1.728   1.450
 2430SOL    HW2 8190   5.991   1.707   1.567
 2431SOL     OW 8191   4.385   0.844   2.540
 2431SOL    HW1 8192   4.316   0.777   2.567
 2431SOL    HW2 8193   4.464   0.838   2.601
 2432SOL     OW 8194   2.941   6.774   3.041
 2432SOL    HW1 8195   3.019   6.794   3.100
 2432SOL    HW2 8196   2.966   6.704   2.974
 2433SOL     OW 8197   3.447   0.693   1.357
 2433SOL    HW1 8198   3.381   0.739   1.298
 2433SOL    HW2 8199   3.532   0.679   1.308
 2434SOL     OW 8200   4.315   0.838   4.986
 2434SOL    HW1 8201   4.260   0.807   5.063
 2434SOL    HW2 8202   4.346   0.931   5.002
 2435SOL     OW 8203   4.683   4.649   6.613
 2435SOL    HW1 8204   4.710   4.555   6.591
 2435SOL    HW2 8205   4.613   4.647   6.684
 2436SOL     OW 8206   1.559   5.697   1.083
 2436SOL    HW1 8207   1.603   5.638   1.015
 2436SOL    HW2 8208   1.609   5.783   1.090
 2437SOL     OW 8209   5.145   6.489   6.698
 2437SOL    HW1 8210   5.049   6.508   6.722
 2437SOL    HW2 8211   5.156   6.391   6.684
 2438SOL     OW 8212   3.405   1.041   6.626
 2438SOL    HW1 8213   3.321   1.022   6.677
 2438SOL    HW2 8214   3.445   0.955   6.596
 2439SOL     OW 8215   1.149   4.203   6.076
 2439SOL    HW1 8216   1.226   4.139   6.072
 2439SOL    HW2 8217   1.175   4.289   6.031
 2440SOL     OW 8218   4.393   5.857   5.710
 2440SOL    HW1 8219   4.493   5.851   5.704
 2440SOL    HW2 8220   4.366   5.954   5.709
 2441SOL     OW 8221   0.680   0.877   0.612
 2441SOL    HW1 8222   0.751   0.840   0.551
 2441SOL    HW2 8223   0.600   0.817   0.609
 2442SOL     OW 8224   0.676   4.294   5.667
 2442SOL    HW1 8225   0.622   4.261   5.589
 2442SOL    HW2 8226   0.706   4.216   5.722
 2443SOL     OW 8227   4.176   5.282   5.988
 2443SOL    HW1 8228   4.211   5.355   6.048
 2443SOL    HW2 8229   4.251   5.245   5.935
 2444SOL     OW 8230   3.513   4.040   6.018
 2444SOL    HW1 8231   3.605   4.064   6.048
 2444SOL    HW2 8232   3.446   4.095   6.068
 2445SOL     OW 8233   0.185   0.807   1.376
 2445SOL    HW1 8234   0.246   0.780   1.451
 2445SOL    HW2 8235   0.094   0.825   1.412
 2446SOL     OW 8236   6.740   4.957   4.231
 2446SOL    HW1 8237   6.800   5.036   4.230
 2446SOL    HW2 8238   6.718   4.933   4.326
 2447SOL     OW 8239   1.893   2.915   0.876
 2447SOL    HW1 8240   1.885   2.905   0.975
 2447SOL    HW2 8241   1.884   3.011   0.851
 2448SOL     OW 8242   0.420   0.825   4.246
 2448SOL    HW1 8243   0.347   0.761   4.271
 2448SOL    HW2 8244   0.471   0.849   4.328
 2449SOL     OW 8245   6.983   4.706   0.661
 2449SOL    HW1 8246   6.977   4.785   0.722
 2449SOL    HW2 8247   6.895   4.691   0.617
 2450SOL     OW 8248   2.914   4.777   3.201
 2450SOL    HW1 8249   2.972   4.696   3.192
 2450SOL    HW2 8250   2.933   4.822   3.288
 2451SOL     OW 8251   0.892   0.940   3.310
 2451SOL    HW1 8252   0.990   0.956   3.317
 2451SOL    HW2 8253   0.843   1.027   3.313
 2452SOL     OW 8254   1.767   3.802   2.812
 2452SOL    HW1 8255   1.702   3.852   2.869
 2452SOL    HW2 8256   1.765   3.841   2.719
 2453SOL     OW 8257   6.052   4.752   1.274
 2453SOL    HW1 8258   6.119   4.826   1.270
 2453SOL    HW2 8259   6.092   4.673   1.321
 2454SOL     OW 8260   2.897   0.622   1.243
 2454SOL    HW1 8261   2.940   0.578   1.322
 2454SOL    HW2 8262   2.875   0.717   1.265
 2455SOL     OW 8263   5.828   5.848   0.395
 2455SOL    HW1 8264   5.807   5.754   0.368
 2455SOL    HW2 8265   5.871   5.849   0.485
 2456SOL     OW 8266   5.154   6.518   1.751
 2456SOL    HW1 8267   5.173   6.601   1.699
 2456SOL    HW2 8268   5.235   6.490   1.802
 2457SOL     OW 8269   5.961   6.415   0.545
 2457SOL    HW1 8270   5.964   6.514   0.560
 2457SOL    HW2 8271   6.009   6.393   0.460
 2458SOL     OW 8272   1.875   5.530   3.338
 2458SOL    HW1 8273   1.812   5.466   3.293
 2458SOL    HW2 8274   1.886   5.611   3.281
 2459SOL     OW 8275   2.560   6.678   0.726
 2459SOL    HW1 8276   2.521   6.769   0.739
 2459SOL    HW2 8277   2.526   6.638   0.641
 2460SOL     OW 8278   1.929   0.778   1.018
 2460SOL    HW1 8279   1.977   0.861   1.047
 2460SOL    HW2 8280   1.868   0.748   1.091
 2461SOL     OW 8281   5.729   1.136   2.705
 2461SOL    HW1 8282   5.697   1.042   2.712
 2461SOL    HW2 8283   5.829   1.137   2.692
 2462SOL     OW 8284   2.709   5.324   0.215
 2462SOL    HW1 8285   2.634   5.359   0.272
 2462SOL    HW2 8286   2.673   5.257   0.150
 2463SOL     OW 8287   5.592   2.862   4.178
 2463SOL    HW1 8288   5.580   2.763   4.171
 2463SOL    HW2 8289   5.683   2.886   4.145
 2464SOL     OW 8290   0.597   4.687   0.941
 2464SOL    HW1 8291   0.589   4.786   0.934
 2464SOL    HW2 8292   0.534   4.644   0.876
 2465SOL     OW 8293   0.228   5.491   1.310
 2465SOL    HW1 8294   0.176   5.549   1.247
 2465SOL    HW2 8295   0.176   5.408   1.329
 2466SOL     OW 8296   3.366   1.422   2.429
 2466SOL    HW1 8297   3.268   1.439   2.439
 2466SOL    HW2 8298   3.385   1.326   2.449
 2467SOL     OW 8299   5.933   1.128   5.611
 2467SOL    HW1 8300   5.999   1.055   5.630
 2467SOL    HW2 8301   5.841   1.089   5.606
 2468SOL     OW 8302   6.895   6.039   1.869
 2468SOL    HW1 8303   6.918   6.136   1.882
 2468SOL    HW2 8304   6.893   6.018   1.771
 2469SOL     OW 8305   3.388   4.168   5.819
 2469SOL    HW1 8306   3.382   4.126   5.729
 2469SOL    HW2 8307   3.447   4.113   5.878
 2470SOL     OW 8308   2.824   4.142   6.294
 2470SOL    HW1 8309   2.908   4.111   6.250
 2470SOL    HW2 8310   2.746   4.117   6.237
 2471SOL     OW 8311   0.929   6.922   0.884
 2471SOL    HW1 8312   1.019   6.923   0.926
 2471SOL    HW2 8313   0.859   6.936   0.954
 2472SOL     OW 8314   5.483   1.421   4.813
 2472SOL    HW1 8315   5.563   1.451   4.865
 2472SOL    HW2 8316   5.509   1.408   4.717
 2473SOL     OW 8317   1.959   4.939   5.128
 2473SOL    HW1 8318   1.922   5.023   5.089
 2473SOL    HW2 8319   1.916   4.922   5.217
 2474SOL     OW 8320   6.886   4.779   6.857
 2474SOL    HW1 8321   6.826   4.855   6.836
 2474SOL    HW2 8322   6.982   4.809   6.854
 2475SOL     OW 8323   4.171   2.440   0.685
 2475SOL    HW1 8324   4.089   2.402   0.642
 2475SOL    HW2 8325   4.241   2.369   0.691
 2476SOL     OW 8326   1.189   2.544   3.782
 2476SOL    HW1 8327   1.286   2.529   3.799
 2476SOL    HW2 8328   1.141   2.559   3.869
 2477SOL     OW 8329   6.622   6.230   1.842
 2477SOL    HW1 8330   6.703   6.265   1.887
 2477SOL    HW2 8331   6.609   6.276   1.754
 2478SOL     OW 8332   5.808   6.154   2.699
 2478SOL    HW1 8333   5.893   6.107   2.674
 2478SOL    HW2 8334   5.731   6.108   2.656
 2479SOL     OW 8335   0.118   3.704   1.475
 2479SOL    HW1 8336   0.062   3.712   1.557
 2479SOL    HW2 8337   0.186   3.778   1.473
 2480SOL     OW 8338   6.648   2.421   1.304
 2480SOL    HW1 8339   6.692   2.503   1.341
 2480SOL    HW2 8340   6.556   2.412   1.342
 2481SOL     OW 8341   3.656   5.856   0.433
 2481SOL    HW1 8342   3.662   5.954   0.454
 2481SOL    HW2 8343   3.700   5.803   0.506
 2482SOL     OW 8344   4.745   3.607   5.810
 2482SOL    HW1 8345   4.677   3.551   5.761
 2482SOL    HW2 8346   4.762   3.566   5.899
 2483SOL     OW 8347   1.984   0.755   0.567
 2483SOL    HW1 8348   2.067   0.701   0.550
 2483SOL    HW2 8349   1.934   0.715   0.644
 2484SOL     OW 8350   2.111   0.938   0.385
 2484SOL    HW1 8351   2.173   0.990   0.443
 2484SOL    HW2 8352   2.023   0.928   0.430
 2485SOL     OW 8353   5.788   5.023   2.239
 2485SOL    HW1 8354   5.753   5.085   2.169
 2485SOL    HW2 8355   5.808   4.934   2.199
 2486SOL     OW 8356   1.466   5.815   3.838
 2486SOL    HW1 8357   1.376   5.838   3.875
 2486SOL    HW2 8358   1.521   5.899   3.830
 2487SOL     OW 8359   4.475   6.310   6.868
 2487SOL    HW1 8360   4.450   6.220   6.904
 2487SOL    HW2 8361   4.393   6.368   6.864
 2488SOL     OW 8362   2.806   4.060   1.556
 2488SOL    HW1 8363   2.788   3.963   1.571
 2488SOL    HW2 8364   2.723   4.104   1.521
 2489SOL     OW 8365   2.445   5.745   4.670
 2489SOL    HW1 8366   2.479   5.836   4.694
 2489SOL    HW2 8367   2.367   5.723   4.729
 2490SOL     OW 8368   6.971   4.888   0.860
 2490SOL    HW1 8369   6.891   4.870   0.917
 2490SOL    HW2 8370   6.982   4.986   0.847
 2491SOL     OW 8371   2.659   5.791   3.002
 2491SOL    HW1 8372   2.612   5.839   3.077
 2491SOL    HW2 8373   2.753   5.772   3.028
 2492SOL     OW 8374   4.951   3.298   6.454
 2492SOL    HW1 8375   4.885   3.223   6.441
 2492SOL    HW2 8376   4.999   3.315   6.368
 2493SOL     OW 8377   5.549   0.921   2.742
 2493SOL    HW1 8378   5.462   0.898   2.785
 2493SOL    HW2 8379   5.542   0.910   2.643
 2494SOL     OW 8380   4.798   2.896   2.728
 2494SOL    HW1 8381   4.762   2.806   2.750
 2494SOL    HW2 8382   4.872   2.919   2.792
 2495SOL     OW 8383   4.952   1.239   4.962
 2495SOL    HW1 8384   4.936   1.224   4.865
 2495SOL    HW2 8385   4.936   1.335   4.985
 2496SOL     OW 8386   1.103   5.439   0.137
 2496SOL    HW1 8387   1.075   5.346   0.163
 2496SOL    HW2 8388   1.147   5.436   0.047
 2497SOL     OW 8389   6.927   1.614   0.405
 2497SOL    HW1 8390   6.853   1.680   0.411
 2497SOL    HW2 8391   7.014   1.660   0.420
 2498SOL     OW 8392   1.920   3.515   3.190
 2498SOL    HW1 8393   1.877   3.472   3.269
 2498SOL    HW2 8394   1.858   3.512   3.111
 2499SOL     OW 8395   5.505   0.906   5.205
 2499SOL    HW1 8396   5.492   0.866   5.114
 2499SOL    HW2 8397   5.465   0.845   5.274
 2500SOL     OW 8398   5.119   3.289   6.246
 2500SOL    HW1 8399   5.203   3.305   6.195
 2500SOL    HW2 8400   5.109   3.191   6.263
 2501SOL     OW 8401   5.703   4.006   6.742
 2501SOL    HW1 8402   5.773   3.985   6.810
 2501SOL    HW2 8403   5.649   3.924   6.723
 2502SOL     OW 8404   2.434   6.392   3.449
 2502SOL    HW1 8405   2.431   6.485   3.484
 2502SOL    HW2 8406   2.343   6.364   3.419
 2503SOL     OW 8407   3.985   5.663   5.629
 2503SOL    HW1 8408   3.963   5.749   5.583
 2503SOL    HW2 8409   3.903   5.607   5.635
 2504SOL     OW 8410   2.447   4.755   4.724
 2504SOL    HW1 8411   2.523   4.814   4.751
 2504SOL    HW2 8412   2.383   4.746   4.801
 2505SOL     OW 8413   3.895   5.678   4.608
 2505SOL    HW1 8414   3.893   5.593   4.661
 2505SOL    HW2 8415   3.820   5.678   4.542
 2506SOL     OW 8416   6.451   3.311   5.929
 2506SOL    HW1 8417   6.411   3.289   6.018
 2506SOL    HW2 8418   6.425   3.404   5.903
 2507SOL     OW 8419   6.488   5.264   0.143
 2507SOL    HW1 8420   6.411   5.243   0.203
 2507SOL    HW2 8421   6.519   5.357   0.160
 2508SOL     OW 8422   2.898   2.015   2.081
 2508SOL    HW1 8423   2.881   1.993   1.985
 2508SOL    HW2 8424   2.924   2.111   2.090
 2509SOL     OW 8425   5.886   2.179   2.628
 2509SOL    HW1 8426   5.884   2.097   2.571
 2509SOL    HW2 8427   5.971   2.229   2.612
 2510SOL     OW 8428   3.476   4.879   0.889
 2510SOL    HW1 8429   3.462   4.788   0.928
 2510SOL    HW2 8430   3.413   4.944   0.932
 2511SOL     OW 8431   1.517   1.104   4.923
 2511SOL    HW1 8432   1.427   1.146   4.908
 2511SOL    HW2 8433   1.588   1.168   4.893
 2512SOL     OW 8434   4.979   3.888   4.248
 2512SOL    HW1 8435   4.932   3.931   4.325
 2512SOL    HW2 8436   5.077   3.882   4.268
 2513SOL     OW 8437   0.990   2.132   6.845
 2513SOL    HW1 8438   0.977   2.062   6.916
 2513SOL    HW2 8439   1.043   2.208   6.883
 2514SOL     OW 8440   0.655   1.752   4.500
 2514SOL    HW1 8441   0.664   1.698   4.584
 2514SOL    HW2 8442   0.638   1.848   4.524
 2515SOL     OW 8443   1.569   6.604   0.492
 2515SOL    HW1 8444   1.552   6.531   0.558
 2515SOL    HW2 8445   1.546   6.573   0.400
 2516SOL     OW 8446   5.849   5.997   3.835
 2516SOL    HW1 8447   5.917   5.930   3.805
 2516SOL    HW2 8448   5.884   6.090   3.819
 2517SOL     OW 8449   2.600   4.324   6.016
 2517SOL    HW1 8450   2.525   4.354   6.075
 2517SOL    HW2 8451   2.605   4.384   5.936
 2518SOL     OW 8452   2.547   2.973   6.522
 2518SOL    HW1 8453   2.491   3.036   6.576
 2518SOL    HW2 8454   2.558   3.008   6.429
 2519SOL     OW 8455   4.867   5.401   4.780
 2519SOL    HW1 8456   4.813   5.378   4.699
 2519SOL    HW2 8457   4.878   5.319   4.837
 2520SOL     OW 8458   2.414   3.483   1.012
 2520SOL    HW1 8459   2.376   3.533   1.090
 2520SOL    HW2 8460   2.342   3.465   0.945
 2521SOL     OW 8461   0.751   0.468   5.530
 2521SOL    HW1 8462   0.833   0.456   5.585
 2521SOL    HW2 8463   0.740   0.390   5.469
 2522SOL     OW 8464   1.759   3.518   4.764
 2522SOL    HW1 8465   1.797   3.583   4.699
 2522SOL    HW2 8466   1.753   3.427   4.722
 2523SOL     OW 8467   6.270   3.271   0.696
 2523SOL    HW1 8468   6.261   3.365   0.665
 2523SOL    HW2 8469   6.245   3.209   0.622
 2524SOL     OW 8470   0.987   6.600   4.226
 2524SOL    HW1 8471   0.954   6.642   4.310
 2524SOL    HW2 8472   1.042   6.666   4.175
 2525SOL     OW 8473   0.957   4.137   4.639
 2525SOL    HW1 8474   0.990   4.201   4.708
 2525SOL    HW2 8475   1.020   4.060   4.632
 2526SOL     OW 8476   0.476   2.514   4.227
 2526SOL    HW1 8477   0.561   2.483   4.184
 2526SOL    HW2 8478   0.407   2.532   4.156
 2527SOL     OW 8479   5.955   6.606   5.032
 2527SOL    HW1 8480   5.912   6.691   5.062
 2527SOL    HW2 8481   5.886   6.547   4.990
 2528SOL     OW 8482   5.995   5.137   0.196
 2528SOL    HW1 8483   5.935   5.059   0.212
 2528SOL    HW2 8484   5.964   5.188   0.116
 2529SOL     OW 8485   4.660   5.561   5.058
 2529SOL    HW1 8486   4.573   5.532   5.017
 2529SOL    HW2 8487   4.726   5.580   4.985
 2530SOL     OW 8488   1.191   6.189   3.960
 2530SOL    HW1 8489   1.188   6.259   4.031
 2530SOL    HW2 8490   1.112   6.198   3.900
 2531SOL     OW 8491   5.075   0.378   4.675
 2531SOL    HW1 8492   5.006   0.449   4.656
 2531SOL    HW2 8493   5.053   0.333   4.762
 2532SOL     OW 8494   1.227   5.796   0.394
 2532SOL    HW1 8495   1.322   5.800   0.365
 2532SOL    HW2 8496   1.169   5.838   0.325
 2533SOL     OW 8497   5.235   0.054   4.961
 2533SOL    HW1 8498   5.255   7.011   4.891
 2533SOL    HW2 8499   5.233   0.009   5.051
 2534SOL     OW 8500   2.077   0.340   3.380
 2534SOL    HW1 8501   2.173   0.363   3.397
 2534SOL    HW2 8502   2.019   0.393   3.442
 2535SOL     OW 8503   1.615   1.974   4.279
 2535SOL    HW1 8504   1.594   1.893   4.334
 2535SOL    HW2 8505   1.635   1.946   4.185
 2536SOL     OW 8506   6.257   1.076   4.093
 2536SOL    HW1 8507   6.320   1.068   4.016
 2536SOL    HW2 8508   6.229   0.985   4.123
 2537SOL     OW 8509   4.715   6.311   0.972
 2537SOL    HW1 8510   4.770   6.229   0.955
 2537SOL    HW2 8511   4.770   6.378   1.023
 2538SOL     OW 8512   1.840   4.708   4.936
 2538SOL    HW1 8513   1.939   4.724   4.931
 2538SOL    HW2 8514   1.804   4.699   4.843
 2539SOL     OW 8515   4.492   6.798   5.357
 2539SOL    HW1 8516   4.565   6.818   5.292
 2539SOL    HW2 8517   4.417   6.863   5.342
 2540SOL     OW 8518   5.085   0.853   1.974
 2540SOL    HW1 8519   5.000   0.853   1.921
 2540SOL    HW2 8520   5.110   0.759   1.996
 2541SOL     OW 8521   1.422   0.265   5.007
 2541SOL    HW1 8522   1.492   0.336   5.019
 2541SOL    HW2 8523   1.355   0.296   4.938
 2542SOL     OW 8524   4.047   1.797   4.140
 2542SOL    HW1 8525   4.110   1.725   4.110
 2542SOL    HW2 8526   4.091   1.852   4.211
 2543SOL     OW 8527   1.216   0.672   3.305
 2543SOL    HW1 8528   1.176   0.592   3.351
 2543SOL    HW2 8529   1.212   0.658   3.206
 2544SOL     OW 8530   0.104   5.246   1.360
 2544SOL    HW1 8531   0.111   5.284   1.453
 2544SOL    HW2 8532   0.085   5.148   1.365
 2545SOL     OW 8533   2.132   1.962   0.878
 2545SOL    HW1 8534   2.121   2.034   0.946
 2545SOL    HW2 8535   2.190   1.995   0.803
 2546SOL     OW 8536   6.511   3.690   1.793
 2546SOL    HW1 8537   6.437   3.623   1.800
 2546SOL    HW2 8538   6.574   3.678   1.870
 2547SOL     OW 8539   5.806   5.149   0.422
 2547SOL    HW1 8540   5.757   5.093   0.355
 2547SOL    HW2 8541   5.904   5.130   0.416
 2548SOL     OW 8542   1.567   0.066   4.458
 2548SOL    HW1 8543   1.473   0.081   4.424
 2548SOL    HW2 8544   1.573   7.001   4.500
 2549SOL     OW 8545   1.885   2.798   2.047
 2549SOL    HW1 8546   1.938   2.818   2.129
 2549SOL    HW2 8547   1.936   2.827   1.966
 2550SOL     OW 8548   5.705   6.819   0.293
 2550SOL    HW1 8549   5.738   6.809   0.387
 2550SOL    HW2 8550   5.714   6.732   0.245
 2551SOL     OW 8551   3.547   4.735   6.911
 2551SOL    HW1 8552   3.580   4.705   7.001
 2551SOL    HW2 8553   3.609   4.803   6.874
 2552SOL     OW 8554   1.934   5.119   6.705
 2552SOL    HW1 8555   1.970   5.028   6.684
 2552SOL    HW2 8556   2.008   5.178   6.738
 2553SOL     OW 8557   3.541   1.881   5.846
 2553SOL    HW1 8558   3.459   1.936   5.863
 2553SOL    HW2 8559   3.524   1.819   5.769
 2554SOL     OW 8560   1.849   5.494   0.185
 2554SOL    HW1 8561   1.914   5.434   0.139
 2554SOL    HW2 8562   1.789   5.536   0.117
 2555SOL     OW 8563   6.351   5.848   6.260
 2555SOL    HW1 8564   6.404   5.790   6.322
 2555SOL    HW2 8565   6.253   5.838   6.279
 2556SOL     OW 8566   3.692   6.631   1.130
 2556SOL    HW1 8567   3.783   6.604   1.161
 2556SOL    HW2 8568   3.634   6.652   1.210
 2557SOL     OW 8569   3.480   0.049   0.332
 2557SOL    HW1 8570   3.488   0.090   0.241
 2557SOL    HW2 8571   3.402   7.012   0.334
 2558SOL     OW 8572   5.663   4.292   5.930
 2558SOL    HW1 8573   5.666   4.207   5.877
 2558SOL    HW2 8574   5.575   4.338   5.914
 2559SOL     OW 8575   7.013   3.479   3.096
 2559SOL    HW1 8576   0.043   3.405   3.136
 2559SOL    HW2 8577   6.951   3.441   3.028
 2560SOL     OW 8578   5.229   3.332   3.595
 2560SOL    HW1 8579   5.216   3.258   3.529
 2560SOL    HW2 8580   5.206   3.299   3.686
 2561SOL     OW 8581   3.527   1.204   3.970
 2561SOL    HW1 8582   3.621   1.239   3.976
 2561SOL    HW2 8583   3.529   1.111   3.934
 2562SOL     OW 8584   3.299   6.570   3.135
 2562SOL    HW1 8585   3.298   6.664   3.102
 2562SOL    HW2 8586   3.221   6.554   3.194
 2563SOL     OW 8587   3.121   1.280   6.714
 2563SOL    HW1 8588   3.142   1.183   6.726
 2563SOL    HW2 8589   3.151   1.331   6.795
 2564SOL     OW 8590   2.417   0.460   0.361
 2564SOL    HW1 8591   2.461   0.509   0.286
 2564SOL    HW2 8592   2.354   0.521   0.408
 2565SOL     OW 8593   0.140   1.407   6.652
 2565SOL    HW1 8594   0.120   1.505   6.654
 2565SOL    HW2 8595   0.064   1.356   6.690
 2566SOL     OW 8596   2.838   6.881   1.611
 2566SOL    HW1 8597   2.830   6.914   1.706
 2566SOL    HW2 8598   2.907   6.934   1.563
 2567SOL     OW 8599   1.191   1.166   0.201
 2567SOL    HW1 8600   1.140   1.110   0.136
 2567SOL    HW2 8601   1.278   1.121   0.222
 2568SOL     OW 8602   2.906   6.907   0.991
 2568SOL    HW1 8603   2.967   6.889   0.914
 2568SOL    HW2 8604   2.947   6.976   1.051
 2569SOL     OW 8605   2.037   1.124   0.882
 2569SOL    HW1 8606   1.963   1.059   0.899
 2569SOL    HW2 8607   2.030   1.159   0.789
 2570SOL     OW 8608   5.324   5.915   6.631
 2570SOL    HW1 8609   5.269   5.938   6.551
 2570SOL    HW2 8610   5.266   5.873   6.701
 2571SOL     OW 8611   3.207   3.042   4.282
 2571SOL    HW1 8612   3.291   3.027   4.334
 2571SOL    HW2 8613   3.144   3.097   4.336
 2572SOL     OW 8614   2.706   5.489   1.398
 2572SOL    HW1 8615   2.751   5.419   1.454
 2572SOL    HW2 8616   2.607   5.474   1.400
 2573SOL     OW 8617   6.534   2.564   3.594
 2573SOL    HW1 8618   6.499   2.541   3.684
 2573SOL    HW2 8619   6.460   2.601   3.537
 2574SOL     OW 8620   6.412   2.866   1.051
 2574SOL    HW1 8621   6.405   2.897   0.956
 2574SOL    HW2 8622   6.331   2.896   1.101
 2575SOL     OW 8623   4.981   4.114   0.174
 2575SOL    HW1 8624   5.055   4.181   0.172
 2575SOL    HW2 8625   5.008   4.031   0.125
 2576SOL     OW 8626   2.730   0.045   3.764
 2576SOL    HW1 8627   2.812   0.049   3.708
 2576SOL    HW2 8628   2.733   0.118   3.833
 2577SOL     OW 8629   3.736   0.443   3.407
 2577SOL    HW1 8630   3.815   0.436   3.347
 2577SOL    HW2 8631   3.734   0.534   3.448
 2578SOL     OW 8632   4.861   2.790   4.551
 2578SOL    HW1 8633   4.960   2.777   4.555
 2578SOL    HW2 8634   4.830   2.782   4.456
 2579SOL     OW 8635   0.516   1.740   5.854
 2579SOL    HW1 8636   0.482   1.675   5.786
 2579SOL    HW2 8637   0.566   1.691   5.926
 2580SOL     OW 8638   1.662   2.336   5.768
 2580SOL    HW1 8639   1.586   2.386   5.727
 2580SOL    HW2 8640   1.648   2.329   5.867
 2581SOL     OW 8641   5.353   5.697   1.978
 2581SOL    HW1 8642   5.357   5.759   2.057
 2581SOL    HW2 8643   5.314   5.744   1.900
 2582SOL     OW 8644   1.720   5.462   2.684
 2582SOL    HW1 8645   1.818   5.447   2.680
 2582SOL    HW2 8646   1.689   5.456   2.779
 2583SOL     OW 8647   1.071   0.851   1.203
 2583SOL    HW1 8648   1.134   0.834   1.127
 2583SOL    HW2 8649   1.050   0.765   1.248
 2584SOL     OW 8650   3.403   6.229   0.887
 2584SOL    HW1 8651   3.317   6.253   0.931
 2584SOL    HW2 8652   3.402   6.133   0.860
 2585SOL     OW 8653   3.070   0.097   1.164
 2585SOL    HW1 8654   3.149   0.158   1.155
 2585SOL    HW2 8655   3.054   0.077   1.261
 2586SOL     OW 8656   6.279   1.621   5.083
 2586SOL    HW1 8657   6.277   1.532   5.129
 2586SOL    HW2 8658   6.282   1.694   5.151
 2587SOL     OW 8659   6.752   0.397   4.646
 2587SOL    HW1 8660   6.675   0.381   4.707
 2587SOL    HW2 8661   6.737   0.349   4.560
 2588SOL     OW 8662   5.240   0.007   1.349
 2588SOL    HW1 8663   5.295   0.090   1.357
 2588SOL    HW2 8664   5.287   6.956   1.393
 2589SOL     OW 8665   6.772   0.356   5.530
 2589SOL    HW1 8666   6.793   0.431   5.467
 2589SOL    HW2 8667   6.698   0.301   5.492
 2590SOL     OW 8668   3.479   6.878   2.554
 2590SOL    HW1 8669   3.487   6.924   2.643
 2590SOL    HW2 8670   3.562   6.825   2.536
 2591SOL     OW 8671   5.196   6.113   1.034
 2591SOL    HW1 8672   5.235   6.089   0.946
 2591SOL    HW2 8673   5.226   6.048   1.103
 2592SOL     OW 8674   3.091   5.770   1.608
 2592SOL    HW1 8675   3.160   5.706   1.574
 2592SOL    HW2 8676   3.104   5.858   1.563
 2593SOL     OW 8677   3.156   6.986   2.745
 2593SOL    HW1 8678   3.185   6.893   2.721
 2593SOL    HW2 8679   3.194   7.011   2.834
 2594SOL     OW 8680   0.533   0.280   6.315
 2594SOL    HW1 8681   0.567   0.360   6.365
 2594SOL    HW2 8682   0.508   0.307   6.222
 2595SOL     OW 8683   6.824   2.991   5.236
 2595SOL    HW1 8684   6.911   2.941   5.234
 2595SOL    HW2 8685   6.755   2.940   5.184
 2596SOL     OW 8686   3.887   2.301   1.740
 2596SOL    HW1 8687   3.793   2.315   1.770
 2596SOL    HW2 8688   3.898   2.206   1.709
 2597SOL     OW 8689   2.519   3.139   0.788
 2597SOL    HW1 8690   2.471   3.109   0.870
 2597SOL    HW2 8691   2.594   3.074   0.768
 2598SOL     OW 8692   6.747   2.762   4.616
 2598SOL    HW1 8693   6.765   2.843   4.560
 2598SOL    HW2 8694   6.815   2.691   4.595
 2599SOL     OW 8695   3.363   5.779   5.758
 2599SOL    HW1 8696   3.380   5.877   5.749
 2599SOL    HW2 8697   3.448   5.728   5.747
 2600SOL     OW 8698   4.928   3.611   3.683
 2600SOL    HW1 8699   4.912   3.696   3.733
 2600SOL    HW2 8700   4.889   3.534   3.735
 2601SOL     OW 8701   2.954   2.359   6.165
 2601SOL    HW1 8702   3.047   2.387   6.140
 2601SOL    HW2 8703   2.959   2.272   6.215
 2602SOL     OW 8704   6.934   4.668   4.728
 2602SOL    HW1 8705   6.943   4.590   4.666
 2602SOL    HW2 8706   7.016   4.675   4.785
 2603SOL     OW 8707   2.487   2.668   1.853
 2603SOL    HW1 8708   2.472   2.731   1.930
 2603SOL    HW2 8709   2.580   2.631   1.858
 2604SOL     OW 8710   5.404   0.373   1.213
 2604SOL    HW1 8711   5.389   0.280   1.246
 2604SOL    HW2 8712   5.374   0.380   1.118
 2605SOL     OW 8713   4.797   4.588   3.048
 2605SOL    HW1 8714   4.742   4.669   3.066
 2605SOL    HW2 8715   4.871   4.583   3.115
 2606SOL     OW 8716   6.619   4.187   0.222
 2606SOL    HW1 8717   6.646   4.093   0.243
 2606SOL    HW2 8718   6.643   4.208   0.127
 2607SOL     OW 8719   1.589   1.800   4.643
 2607SOL    HW1 8720   1.541   1.780   4.728
 2607SOL    HW2 8721   1.686   1.815   4.662
 2608SOL     OW 8722   4.897   0.420   2.578
 2608SOL    HW1 8723   4.896   0.454   2.484
 2608SOL    HW2 8724   4.988   0.382   2.598
 2609SOL     OW 8725   0.875   2.242   2.111
 2609SOL    HW1 8726   0.851   2.167   2.173
 2609SOL    HW2 8727   0.918   2.205   2.029
 2610SOL     OW 8728   6.696   5.640   4.325
 2610SOL    HW1 8729   6.604   5.643   4.364
 2610SOL    HW2 8730   6.733   5.733   4.320
 2611SOL     OW 8731   6.298   6.352   1.153
 2611SOL    HW1 8732   6.343   6.409   1.221
 2611SOL    HW2 8733   6.357   6.275   1.130
 2612SOL     OW 8734   5.737   6.165   4.565
 2612SOL    HW1 8735   5.703   6.109   4.489
 2612SOL    HW2 8736   5.660   6.206   4.613
 2613SOL     OW 8737   3.251   6.484   2.045
 2613SOL    HW1 8738   3.291   6.462   2.134
 2613SOL    HW2 8739   3.197   6.406   2.013
 2614SOL     OW 8740   6.165   6.480   5.483
 2614SOL    HW1 8741   6.182   6.504   5.387
 2614SOL    HW2 8742   6.081   6.426   5.489
 2615SOL     OW 8743   5.367   5.693   3.605
 2615SOL    HW1 8744   5.308   5.647   3.671
 2615SOL    HW2 8745   5.431   5.626   3.566
 2616SOL     OW 8746   4.092   3.494   4.048
 2616SOL    HW1 8747   4.073   3.572   4.108
 2616SOL    HW2 8748   4.095   3.525   3.953
 2617SOL     OW 8749   3.308   5.052   1.038
 2617SOL    HW1 8750   3.318   5.092   1.128
 2617SOL    HW2 8751   3.233   5.097   0.989
 2618SOL     OW 8752   6.818   6.560   2.897
 2618SOL    HW1 8753   6.912   6.570   2.930
 2618SOL    HW2 8754   6.775   6.482   2.942
 2619SOL     OW 8755   4.644   1.552   2.203
 2619SOL    HW1 8756   4.735   1.555   2.162
 2619SOL    HW2 8757   4.578   1.595   2.141
 2620SOL     OW 8758   1.690   5.317   3.270
 2620SOL    HW1 8759   1.601   5.284   3.239
 2620SOL    HW2 8760   1.761   5.252   3.243
 2621SOL     OW 8761   1.117   5.659   3.483
 2621SOL    HW1 8762   1.180   5.736   3.489
 2621SOL    HW2 8763   1.134   5.596   3.559
 2622SOL     OW 8764   1.937   3.066   6.040
 2622SOL    HW1 8765   1.908   2.971   6.052
 2622SOL    HW2 8766   1.990   3.075   5.956
 2623SOL     OW 8767   4.105   0.982   4.477
 2623SOL    HW1 8768   4.124   1.080   4.490
 2623SOL    HW2 8769   4.163   0.947   4.404
 2624SOL     OW 8770   6.495   2.992   3.367
 2624SOL    HW1 8771   6.493   2.893   3.379
 2624SOL    HW2 8772   6.527   3.036   3.451
 2625SOL     OW 8773   1.931   3.073   4.916
 2625SOL    HW1 8774   1.947   2.993   4.858
 2625SOL    HW2 8775   1.905   3.151   4.859
 2626SOL     OW 8776   0.453   6.150   3.801
 2626SOL    HW1 8777   0.452   6.115   3.895
 2626SOL    HW2 8778   0.363   6.190   3.780
 2627SOL     OW 8779   0.317   0.987   5.047
 2627SOL    HW1 8780   0.387   0.920   5.022
 2627SOL    HW2 8781   0.344   1.078   5.014
 2628SOL     OW 8782   3.865   6.304   6.762
 2628SOL    HW1 8783   3.907   6.214   6.758
 2628SOL    HW2 8784   3.818   6.316   6.849
 2629SOL     OW 8785   3.872   3.669   1.960
 2629SOL    HW1 8786   3.854   3.579   1.920
 2629SOL    HW2 8787   3.967   3.695   1.941
 2630SOL     OW 8788   3.450   2.083   2.140
 2630SOL    HW1 8789   3.493   2.036   2.217
 2630SOL    HW2 8790   3.520   2.127   2.084
 2631SOL     OW 8791   4.177   6.918   4.077
 2631SOL    HW1 8792   4.269   6.954   4.093
 2631SOL    HW2 8793   4.183   6.827   4.038
 2632SOL     OW 8794   3.335   2.274   6.516
 2632SOL    HW1 8795   3.393   2.306   6.441
 2632SOL    HW2 8796   3.303   2.182   6.497
 2633SOL     OW 8797   5.820   2.453   6.561
 2633SOL    HW1 8798   5.855   2.372   6.608
 2633SOL    HW2 8799   5.740   2.488   6.611
 2634SOL     OW 8800   1.759   3.956   2.586
 2634SOL    HW1 8801   1.674   3.977   2.539
 2634SOL    HW2 8802   1.819   3.904   2.526
 2635SOL     OW 8803   5.233   6.152   4.173
 2635SOL    HW1 8804   5.190   6.146   4.083
 2635SOL    HW2 8805   5.184   6.217   4.230
 2636SOL     OW 8806   6.288   0.308   6.699
 2636SOL    HW1 8807   6.212   0.242   6.696
 2636SOL    HW2 8808   6.275   0.377   6.628
 2637SOL     OW 8809   6.567   0.932   3.368
 2637SOL    HW1 8810   6.515   0.847   3.370
 2637SOL    HW2 8811   6.600   0.953   3.460
 2638SOL     OW 8812   5.715   0.238   2.003
 2638SOL    HW1 8813   5.622   0.244   2.040
 2638SOL    HW2 8814   5.735   0.320   1.950
 2639SOL     OW 8815   6.202   6.984   2.246
 2639SOL    HW1 8816   6.156   6.900   2.217
 2639SOL    HW2 8817   6.227   0.013   2.166
 2640SOL     OW 8818   6.644   6.501   5.543
 2640SOL    HW1 8819   6.600   6.426   5.494
 2640SOL    HW2 8820   6.675   6.570   5.477
 2641SOL     OW 8821   5.726   3.329   0.940
 2641SOL    HW1 8822   5.806   3.375   0.903
 2641SOL    HW2 8823   5.679   3.279   0.867
 2642SOL     OW 8824   6.074   0.721   4.636
 2642SOL    HW1 8825   5.987   0.719   4.686
 2642SOL    HW2 8826   6.063   0.775   4.553
 2643SOL     OW 8827   0.196   5.472   3.339
 2643SOL    HW1 8828   0.290   5.505   3.342
 2643SOL    HW2 8829   0.193   5.379   3.378
 2644SOL     OW 8830   0.823   4.491   5.799
 2644SOL    HW1 8831   0.763   4.424   5.756
 2644SOL    HW2 8832   0.905   4.502   5.743
 2645SOL     OW 8833   4.288   6.543   5.244
 2645SOL    HW1 8834   4.382   6.576   5.251
 2645SOL    HW2 8835   4.270   6.513   5.150
 2646SOL     OW 8836   6.229   6.985   6.206
 2646SOL    HW1 8837   6.249   6.898   6.161
 2646SOL    HW2 8838   6.181   6.967   6.292
 2647SOL     OW 8839   5.215   0.592   1.044
 2647SOL    HW1 8840   5.156   0.554   0.973
 2647SOL    HW2 8841   5.297   0.535   1.053
 2648SOL     OW 8842   6.421   0.187   3.532
 2648SOL    HW1 8843   6.501   0.162   3.587
 2648SOL    HW2 8844   6.353   0.232   3.591
 2649SOL     OW 8845   4.160   1.270   5.637
 2649SOL    HW1 8846   4.245   1.236   5.596
 2649SOL    HW2 8847   4.168   1.268   5.736
 2650SOL     OW 8848   0.755   5.236   3.813
 2650SOL    HW1 8849   0.721   5.161   3.869
 2650SOL    HW2 8850   0.787   5.311   3.872
 2651SOL     OW 8851   1.168   1.249   0.780
 2651SOL    HW1 8852   1.155   1.243   0.681
 2651SOL    HW2 8853   1.262   1.278   0.800
 2652SOL     OW 8854   3.369   2.929   3.586
 2652SOL    HW1 8855   3.462   2.950   3.556
 2652SOL    HW2 8856   3.304   2.959   3.516
 2653SOL     OW 8857   4.974   6.882   5.457
 2653SOL    HW1 8858   4.915   6.814   5.500
 2653SOL    HW2 8859   4.919   6.951   5.410
 2654SOL     OW 8860   4.830   3.224   6.828
 2654SOL    HW1 8861   4.875   3.303   6.785
 2654SOL    HW2 8862   4.877   3.140   6.799
 2655SOL     OW 8863   4.262   4.679   4.244
 2655SOL    HW1 8864   4.170   4.704   4.274
 2655SOL    HW2 8865   4.307   4.624   4.315
 2656SOL     OW 8866   4.795   4.838   4.035
 2656SOL    HW1 8867   4.865   4.768   4.034
 2656SOL    HW2 8868   4.705   4.795   4.025
 2657SOL     OW 8869   2.619   4.083   6.133
 2657SOL    HW1 8870   2.631   4.168   6.081
 2657SOL    HW2 8871   2.534   4.039   6.107
 2658SOL     OW 8872   5.843   4.663   6.604
 2658SOL    HW1 8873   5.846   4.734   6.534
 2658SOL    HW2 8874   5.852   4.573   6.561
 2659SOL     OW 8875   6.700   2.100   4.227
 2659SOL    HW1 8876   6.748   2.188   4.230
 2659SOL    HW2 8877   6.608   2.111   4.265
 2660SOL     OW 8878   0.337   1.979   1.312
 2660SOL    HW1 8879   0.415   2.017   1.362
 2660SOL    HW2 8880   0.360   1.888   1.278
 2661SOL     OW 8881   2.589   6.881   1.901
 2661SOL    HW1 8882   2.569   6.841   1.812
 2661SOL    HW2 8883   2.573   6.980   1.898
 2662SOL     OW 8884   4.431   6.635   4.835
 2662SOL    HW1 8885   4.384   6.572   4.897
 2662SOL    HW2 8886   4.373   6.715   4.819
 2663SOL     OW 8887   2.195   4.446   1.446
 2663SOL    HW1 8888   2.143   4.366   1.416
 2663SOL    HW2 8889   2.265   4.417   1.512
 2664SOL     OW 8890   3.583   4.133   3.332
 2664SOL    HW1 8891   3.641   4.075   3.389
 2664SOL    HW2 8892   3.640   4.187   3.271
 2665SOL     OW 8893   3.694   2.097   5.109
 2665SOL    HW1 8894   3.669   2.177   5.164
 2665SOL    HW2 8895   3.629   2.087   5.034
 2666SOL     OW 8896   4.771   4.268   1.191
 2666SOL    HW1 8897   4.710   4.194   1.164
 2666SOL    HW2 8898   4.731   4.318   1.267
 2667SOL     OW 8899   1.873   6.150   4.864
 2667SOL    HW1 8900   1.773   6.148   4.859
 2667SOL    HW2 8901   1.910   6.080   4.802
 2668SOL     OW 8902   6.608   3.817   4.304
 2668SOL    HW1 8903   6.702   3.847   4.293
 2668SOL    HW2 8904   6.603   3.718   4.293
 2669SOL     OW 8905   3.391   4.855   5.574
 2669SOL    HW1 8906   3.408   4.925   5.504
 2669SOL    HW2 8907   3.343   4.896   5.651
 2670SOL     OW 8908   6.038   1.542   6.585
 2670SOL    HW1 8909   6.013   1.632   6.549
 2670SOL    HW2 8910   6.109   1.553   6.655
 2671SOL     OW 8911   2.454   3.912   0.272
 2671SOL    HW1 8912   2.528   3.969   0.309
 2671SOL    HW2 8913   2.414   3.857   0.346
 2672SOL     OW 8914   1.235   5.449   6.898
 2672SOL    HW1 8915   1.282   5.528   6.858
 2672SOL    HW2 8916   1.214   5.383   6.826
 2673SOL     OW 8917   5.677   2.553   3.712
 2673SOL    HW1 8918   5.678   2.589   3.805
 2673SOL    HW2 8919   5.610   2.604   3.658
 2674SOL     OW 8920   1.734   4.477   4.205
 2674SOL    HW1 8921   1.821   4.427   4.206
 2674SOL    HW2 8922   1.695   4.474   4.113
 2675SOL     OW 8923   1.112   4.509   5.305
 2675SOL    HW1 8924   1.035   4.538   5.361
 2675SOL    HW2 8925   1.183   4.471   5.363
 2676SOL     OW 8926   4.623   0.807   2.689
 2676SOL    HW1 8927   4.717   0.832   2.664
 2676SOL    HW2 8928   4.610   0.822   2.787
 2677SOL     OW 8929   3.173   5.145   1.513
 2677SOL    HW1 8930   3.213   5.197   1.589
 2677SOL    HW2 8931   3.092   5.193   1.479
 2678SOL     OW 8932   0.491   4.677   0.464
 2678SOL    HW1 8933   0.401   4.654   0.500
 2678SOL    HW2 8934   0.482   4.711   0.370
 2679SOL     OW 8935   3.868   5.586   1.442
 2679SOL    HW1 8936   3.910   5.497   1.427
 2679SOL    HW2 8937   3.814   5.584   1.526
 2680SOL     OW 8938   1.763   1.958   0.528
 2680SOL    HW1 8939   1.826   2.017   0.578
 2680SOL    HW2 8940   1.813   1.907   0.458
 2681SOL     OW 8941   1.848   3.326   4.118
 2681SOL    HW1 8942   1.767   3.364   4.073
 2681SOL    HW2 8943   1.929   3.342   4.061
 2682SOL     OW 8944   5.688   3.116   2.661
 2682SOL    HW1 8945   5.787   3.104   2.653
 2682SOL    HW2 8946   5.648   3.035   2.702
 2683SOL     OW 8947   1.240   4.337   1.150
 2683SOL    HW1 8948   1.191   4.421   1.126
 2683SOL    HW2 8949   1.177   4.275   1.197
 2684SOL     OW 8950   3.621   5.479   2.333
 2684SOL    HW1 8951   3.595   5.416   2.406
 2684SOL    HW2 8952   3.719   5.473   2.317
 2685SOL     OW 8953   6.108   6.985   4.693
 2685SOL    HW1 8954   6.122   6.918   4.767
 2685SOL    HW2 8955   6.010   7.004   4.683
 2686SOL     OW 8956   1.575   2.485   4.095
 2686SOL    HW1 8957   1.477   2.502   4.106
 2686SOL    HW2 8958   1.626   2.561   4.136
 2687SOL     OW 8959   4.125   4.740   2.718
 2687SOL    HW1 8960   4.137   4.707   2.624
 2687SOL    HW2 8961   4.214   4.755   2.760
 2688SOL     OW 8962   4.161   5.896   6.063
 2688SOL    HW1 8963   4.120   5.986   6.047
 2688SOL    HW2 8964   4.164   5.845   5.977
 2689SOL     OW 8965   2.063   1.857   3.934
 2689SOL    HW1 8966   1.999   1.804   3.878
 2689SOL    HW2 8967   2.149   1.869   3.883
 2690SOL     OW 8968   3.762   2.967   3.763
 2690SOL    HW1 8969   3.671   2.925   3.771
 2690SOL    HW2 8970   3.804   2.975   3.853
 2691SOL     OW 8971   1.622   5.213   2.098
 2691SOL    HW1 8972   1.672   5.262   2.170
 2691SOL    HW2 8973   1.530   5.193   2.129
 2692SOL     OW 8974   5.894   5.835   4.092
 2692SOL    HW1 8975   5.860   5.847   3.999
 2692SOL    HW2 8976   5.975   5.892   4.105
 2693SOL     OW 8977   2.375   4.820   2.997
 2693SOL    HW1 8978   2.470   4.830   3.026
 2693SOL    HW2 8979   2.372   4.796   2.900
 2694SOL     OW 8980   3.315   1.098   2.818
 2694SOL    HW1 8981   3.315   1.187   2.772
 2694SOL    HW2 8982   3.363   1.032   2.760
 2695SOL     OW 8983   5.161   1.674   2.750
 2695SOL    HW1 8984   5.105   1.708   2.827
 2695SOL    HW2 8985   5.114   1.694   2.664
 2696SOL     OW 8986   3.528   2.561   5.500
 2696SOL    HW1 8987   3.612   2.586   5.451
 2696SOL    HW2 8988   3.528   2.604   5.590
 2697SOL     OW 8989   4.128   2.267   3.923
 2697SOL    HW1 8990   4.201   2.276   3.991
 2697SOL    HW2 8991   4.166   2.230   3.839
 2698SOL     OW 8992   1.775   5.164   0.247
 2698SOL    HW1 8993   1.784   5.154   0.148
 2698SOL    HW2 8994   1.860   5.200   0.285
 2699SOL     OW 8995   3.894   5.444   6.473
 2699SOL    HW1 8996   3.827   5.426   6.401
 2699SOL    HW2 8997   3.959   5.368   6.478
 2700SOL     OW 8998   1.860   3.651   2.271
 2700SOL    HW1 8999   1.838   3.671   2.175
 2700SOL    HW2 9000   1.926   3.575   2.274
 2701SOL     OW 9001   4.038   6.984   6.735
 2701SOL    HW1 9002   4.085   6.904   6.771
 2701SOL    HW2 9003   3.958   6.955   6.682
 2702SOL     OW 9004   0.025   1.707   3.028
 2702SOL    HW1 9005   6.991   1.687   2.950
 2702SOL    HW2 9006   7.006   1.675   3.112
 2703SOL     OW 9007   2.587   0.672   3.208
 2703SOL    HW1 9008   2.681   0.689   3.239
 2703SOL    HW2 9009   2.585   0.591   3.149
 2704SOL     OW 9010   1.319   5.442   1.484
 2704SOL    HW1 9011   1.276   5.355   1.463
 2704SOL    HW2 9012   1.252   5.502   1.529
 2705SOL     OW 9013   0.504   5.254   4.545
 2705SOL    HW1 9014   0.584   5.206   4.582
 2705SOL    HW2 9015   0.445   5.283   4.621
 2706SOL     OW 9016   0.284   0.868   1.677
 2706SOL    HW1 9017   0.362   0.930   1.668
 2706SOL    HW2 9018   0.200   0.918   1.653
 2707SOL     OW 9019   2.248   0.645   5.572
 2707SOL    HW1 9020   2.327   0.609   5.623
 2707SOL    HW2 9021   2.228   0.738   5.603
 2708SOL     OW 9022   2.139   2.704   1.516
 2708SOL    HW1 9023   2.217   2.746   1.469
 2708SOL    HW2 9024   2.161   2.691   1.613
 2709SOL     OW 9025   4.942   6.690   1.311
 2709SOL    HW1 9026   5.017   6.741   1.270
 2709SOL    HW2 9027   4.862   6.750   1.320
 2710SOL     OW 9028   6.398   4.014   2.402
 2710SOL    HW1 9029   6.331   3.944   2.382
 2710SOL    HW2 9030   6.480   3.999   2.347
 2711SOL     OW 9031   2.259   0.328   2.826
 2711SOL    HW1 9032   2.163   0.322   2.851
 2711SOL    HW2 9033   2.270   0.395   2.752
 2712SOL     OW 9034   4.051   5.152   6.806
 2712SOL    HW1 9035   4.075   5.240   6.766
 2712SOL    HW2 9036   3.984   5.166   6.879
 2713SOL     OW 9037   1.899   2.441   4.618
 2713SOL    HW1 9038   1.907   2.341   4.623
 2713SOL    HW2 9039   1.895   2.469   4.522
 2714SOL     OW 9040   5.199   1.703   6.712
 2714SOL    HW1 9041   5.228   1.633   6.647
 2714SOL    HW2 9042   5.106   1.683   6.743
 2715SOL     OW 9043   6.587   0.389   0.381
 2715SOL    HW1 9044   6.577   0.463   0.315
 2715SOL    HW2 9045   6.683   0.377   0.405
 2716SOL     OW 9046   6.727   5.399   1.741
 2716SOL    HW1 9047   6.722   5.398   1.641
 2716SOL    HW2 9048   6.698   5.311   1.777
 2717SOL     OW 9049   0.841   5.648   1.855
 2717SOL    HW1 9050   0.766   5.582   1.862
 2717SOL    HW2 9051   0.836   5.712   1.932
 2718SOL     OW 9052   1.913   4.216   4.069
 2718SOL    HW1 9053   1.993   4.176   4.025
 2718SOL    HW2 9054   1.872   4.285   4.009
 2719SOL     OW 9055   4.483   4.984   2.188
 2719SOL    HW1 9056   4.406   4.965   2.248
 2719SOL    HW2 9057   4.498   4.906   2.127
 2720SOL     OW 9058   1.766   6.021   3.648
 2720SOL    HW1 9059   1.780   6.117   3.674
 2720SOL    HW2 9060   1.809   6.004   3.560
 2721SOL     OW 9061   2.754   0.387   5.360
 2721SOL    HW1 9062   2.740   0.385   5.459
 2721SOL    HW2 9063   2.849   0.364   5.340
 2722SOL     OW 9064   6.647   5.396   2.848
 2722SOL    HW1 9065   6.650   5.297   2.864
 2722SOL    HW2 9066   6.718   5.440   2.903
 2723SOL     OW 9067   1.848   1.363   6.010
 2723SOL    HW1 9068   1.868   1.315   5.924
 2723SOL    HW2 9069   1.774   1.428   5.995
 2724SOL     OW 9070   2.670   5.952   5.076
 2724SOL    HW1 9071   2.665   5.855   5.052
 2724SOL    HW2 9072   2.681   5.960   5.176
 2725SOL     OW 9073   6.269   5.095   3.293
 2725SOL    HW1 9074   6.367   5.113   3.281
 2725SOL    HW2 9075   6.252   5.060   3.385
 2726SOL     OW 9076   4.994   4.800   1.840
 2726SOL    HW1 9077   5.013   4.727   1.775
 2726SOL    HW2 9078   4.986   4.761   1.932
 2727SOL     OW 9079   0.720   4.763   3.250
 2727SOL    HW1 9080   0.802   4.710   3.272
 2727SOL    HW2 9081   0.649   4.703   3.216
 2728SOL     OW 9082   2.938   0.677   4.729
 2728SOL    HW1 9083   2.852   0.716   4.764
 2728SOL    HW2 9084   2.924   0.641   4.637
 2729SOL     OW 9085   6.769   5.748   2.318
 2729SOL    HW1 9086   6.747   5.821   2.254
 2729SOL    HW2 9087   6.831   5.682   2.274
 2730SOL     OW 9088   1.949   6.828   0.745
 2730SOL    HW1 9089   2.012   6.767   0.697
 2730SOL    HW2 9090   1.855   6.802   0.723
 2731SOL     OW 9091   2.927   3.728   1.140
 2731SOL    HW1 9092   3.006   3.688   1.094
 2731SOL    HW2 9093   2.943   3.732   1.239
 2732SOL     OW 9094   6.123   3.068   2.329
 2732SOL    HW1 9095   6.049   3.076   2.263
 2732SOL    HW2 9096   6.186   2.996   2.300
 2733SOL     OW 9097   0.794   6.753   5.562
 2733SOL    HW1 9098   0.863   6.738   5.633
 2733SOL    HW2 9099   0.808   6.843   5.520
 2734SOL     OW 9100   1.584   5.476   2.942
 2734SOL    HW1 9101   1.590   5.538   3.021
 2734SOL    HW2 9102   1.491   5.442   2.932
 2735SOL     OW 9103   0.327   3.222   2.195
 2735SOL    HW1 9104   0.282   3.143   2.152
 2735SOL    HW2 9105   0.377   3.191   2.276
 2736SOL     OW 9106   4.914   0.794   4.999
 2736SOL    HW1 9107   4.918   0.844   5.085
 2736SOL    HW2 9108   5.000   0.807   4.949
 2737SOL     OW 9109   3.289   3.248   6.435
 2737SOL    HW1 9110   3.272   3.164   6.486
 2737SOL    HW2 9111   3.261   3.327   6.489
 2738SOL     OW 9112   4.976   5.804   4.440
 2738SOL    HW1 9113   4.901   5.848   4.391
 2738SOL    HW2 9114   5.034   5.873   4.484
 2739SOL     OW 9115   5.775   4.241   0.519
 2739SOL    HW1 9116   5.832   4.168   0.483
 2739SOL    HW2 9117   5.791   4.251   0.618
 2740SOL     OW 9118   5.281   1.995   2.294
 2740SOL    HW1 9119   5.235   2.045   2.368
 2740SOL    HW2 9120   5.312   1.907   2.328
 2741SOL     OW 9121   0.051   2.040   6.033
 2741SOL    HW1 9122   6.983   2.073   6.045
 2741SOL    HW2 9123   0.056   1.943   6.057
 2742SOL     OW 9124   1.812   6.111   6.312
 2742SOL    HW1 9125   1.803   6.114   6.411
 2742SOL    HW2 9126   1.730   6.069   6.272
 2743SOL     OW 9127   6.369   5.548   1.630
 2743SOL    HW1 9128   6.469   5.547   1.626
 2743SOL    HW2 9129   6.332   5.563   1.538
 2744SOL     OW 9130   4.135   1.940   0.067
 2744SOL    HW1 9131   4.221   1.954   0.018
 2744SOL    HW2 9132   4.142   1.978   0.159
 2745SOL     OW 9133   2.241   6.384   0.170
 2745SOL    HW1 9134   2.142   6.390   0.154
 2745SOL    HW2 9135   2.259   6.316   0.241
 2746SOL     OW 9136   2.153   3.050   4.563
 2746SOL    HW1 9137   2.224   3.022   4.497
 2746SOL    HW2 9138   2.186   3.036   4.656
 2747SOL     OW 9139   5.398   4.542   5.476
 2747SOL    HW1 9140   5.420   4.619   5.417
 2747SOL    HW2 9141   5.330   4.569   5.544
 2748SOL     OW 9142   3.504   1.800   2.666
 2748SOL    HW1 9143   3.413   1.829   2.635
 2748SOL    HW2 9144   3.568   1.877   2.659
 2749SOL     OW 9145   4.997   5.088   4.462
 2749SOL    HW1 9146   4.999   5.066   4.364
 2749SOL    HW2 9147   4.919   5.043   4.505
 2750SOL     OW 9148   1.167   5.200   1.420
 2750SOL    HW1 9149   1.131   5.134   1.485
 2750SOL    HW2 9150   1.095   5.226   1.355
 2751SOL     OW 9151   1.884   0.193   0.167
 2751SOL    HW1 9152   1.888   0.249   0.084
 2751SOL    HW2 9153   1.959   0.127   0.166
 2752SOL     OW 9154   5.198   5.893   5.154
 2752SOL    HW1 9155   5.130   5.960   5.125
 2752SOL    HW2 9156   5.163   5.800   5.140
 2753SOL     OW 9157   2.837   5.743   6.252
 2753SOL    HW1 9158   2.876   5.704   6.335
 2753SOL    HW2 9159   2.875   5.834   6.237
 2754SOL     OW 9160   6.738   0.275   4.381
 2754SOL    HW1 9161   6.761   0.193   4.328
 2754SOL    HW2 9162   6.649   0.310   4.352
 2755SOL     OW 9163   2.755   6.710   3.252
 2755SOL    HW1 9164   2.829   6.708   3.184
 2755SOL    HW2 9165   2.742   6.803   3.286
 2756SOL     OW 9166   6.468   4.623   4.112
 2756SOL    HW1 9167   6.447   4.560   4.187
 2756SOL    HW2 9168   6.552   4.593   4.066
 2757SOL     OW 9169   3.097   1.454   6.510
 2757SOL    HW1 9170   3.087   1.377   6.572
 2757SOL    HW2 9171   3.078   1.539   6.559
 2758SOL     OW 9172   5.251   5.880   3.440
 2758SOL    HW1 9173   5.222   5.962   3.490
 2758SOL    HW2 9174   5.276   5.808   3.506
 2759SOL     OW 9175   3.605   4.615   5.625
 2759SOL    HW1 9176   3.541   4.541   5.643
 2759SOL    HW2 9177   3.558   4.690   5.577
 2760SOL     OW 9178   6.388   5.518   2.815
 2760SOL    HW1 9179   6.322   5.504   2.889
 2760SOL    HW2 9180   6.469   5.462   2.832
 2761SOL     OW 9181   1.314   4.249   3.024
 2761SOL    HW1 9182   1.335   4.298   3.109
 2761SOL    HW2 9183   1.399   4.213   2.985
 2762SOL     OW 9184   1.273   2.043   0.046
 2762SOL    HW1 9185   1.325   2.011   6.992
 2762SOL    HW2 9186   1.225   1.966   0.087
 2763SOL     OW 9187   4.887   1.662   5.938
 2763SOL    HW1 9188   4.932   1.675   5.850
 2763SOL    HW2 9189   4.953   1.674   6.011
 2764SOL     OW 9190   0.474   4.425   2.679
 2764SOL    HW1 9191   0.403   4.466   2.736
 2764SOL    HW2 9192   0.490   4.331   2.709
 2765SOL     OW 9193   6.822   6.889   0.861
 2765SOL    HW1 9194   6.743   6.907   0.802
 2765SOL    HW2 9195   6.836   6.967   0.921
 2766SOL     OW 9196   4.147   0.845   6.901
 2766SOL    HW1 9197   4.188   0.932   6.873
 2766SOL    HW2 9198   4.067   0.863   6.959
 2767SOL     OW 9199   6.067   5.859   6.256
 2767SOL    HW1 9200   6.048   5.955   6.278
 2767SOL    HW2 9201   5.982   5.807   6.254
 2768SOL     OW 9202   3.805   0.389   0.714
 2768SOL    HW1 9203   3.829   0.403   0.618
 2768SOL    HW2 9204   3.805   0.292   0.735
 2769SOL     OW 9205   1.394   3.975   6.067
 2769SOL    HW1 9206   1.371   3.898   6.127
 2769SOL    HW2 9207   1.407   3.941   5.974
 2770SOL     OW 9208   3.921   6.352   5.876
 2770SOL    HW1 9209   3.978   6.433   5.893
 2770SOL    HW2 9210   3.949   6.278   5.937
 2771SOL     OW 9211   5.787   6.593   3.820
 2771SOL    HW1 9212   5.845   6.609   3.900
 2771SOL    HW2 9213   5.807   6.663   3.750
 2772SOL     OW 9214   3.713   1.146   2.504
 2772SOL    HW1 9215   3.723   1.112   2.410
 2772SOL    HW2 9216   3.676   1.239   2.502
 2773SOL     OW 9217   0.399   3.093   4.058
 2773SOL    HW1 9218   0.329   3.136   4.114
 2773SOL    HW2 9219   0.408   2.997   4.083
 2774SOL     OW 9220   5.162   2.340   2.639
 2774SOL    HW1 9221   5.122   2.432   2.637
 2774SOL    HW2 9222   5.261   2.348   2.646
 2775SOL     OW 9223   0.051   3.795   3.405
 2775SOL    HW1 9224   7.012   3.859   3.447
 2775SOL    HW2 9225   0.021   3.773   3.312
 2776SOL     OW 9226   5.357   5.609   6.976
 2776SOL    HW1 9227   5.326   5.578   0.041
 2776SOL    HW2 9228   5.367   5.530   6.915
 2777SOL     OW 9229   2.660   1.980   5.664
 2777SOL    HW1 9230   2.667   1.884   5.693
 2777SOL    HW2 9231   2.601   1.985   5.583
 2778SOL     OW 9232   2.536   6.047   6.444
 2778SOL    HW1 9233   2.453   6.077   6.396
 2778SOL    HW2 9234   2.564   5.957   6.410
 2779SOL     OW 9235   5.803   6.478   1.580
 2779SOL    HW1 9236   5.846   6.545   1.518
 2779SOL    HW2 9237   5.850   6.479   1.668
 2780SOL     OW 9238   0.649   0.523   6.519
 2780SOL    HW1 9239   0.666   0.464   6.599
 2780SOL    HW2 9240   0.735   0.568   6.493
 2781SOL     OW 9241   6.647   0.809   2.383
 2781SOL    HW1 9242   6.654   0.894   2.437
 2781SOL    HW2 9243   6.554   0.772   2.393
 2782SOL     OW 9244   4.346   0.679   5.825
 2782SOL    HW1 9245   4.439   0.685   5.860
 2782SOL    HW2 9246   4.331   0.751   5.758
 2783SOL     OW 9247   6.034   3.443   1.120
 2783SOL    HW1 9248   5.938   3.465   1.102
 2783SOL    HW2 9249   6.039   3.370   1.188
 2784SOL     OW 9250   2.866   1.564   2.073
 2784SOL    HW1 9251   2.857   1.656   2.112
 2784SOL    HW2 9252   2.840   1.496   2.142
 2785SOL     OW 9253   4.999   2.652   1.574
 2785SOL    HW1 9254   5.029   2.556   1.577
 2785SOL    HW2 9255   5.077   2.709   1.548
 2786SOL     OW 9256   6.689   5.982   1.266
 2786SOL    HW1 9257   6.748   5.931   1.204
 2786SOL    HW2 9258   6.700   5.949   1.359
 2787SOL     OW 9259   6.285   5.941   5.628
 2787SOL    HW1 9260   6.292   6.032   5.587
 2787SOL    HW2 9261   6.323   5.943   5.720
 2788SOL     OW 9262   3.610   6.628   5.899
 2788SOL    HW1 9263   3.609   6.539   5.852
 2788SOL    HW2 9264   3.551   6.623   5.980
 2789SOL     OW 9265   0.813   2.702   4.010
 2789SOL    HW1 9266   0.909   2.672   4.009
 2789SOL    HW2 9267   0.801   2.774   4.078
 2790SOL     OW 9268   2.790   5.025   0.301
 2790SOL    HW1 9269   2.817   5.114   0.338
 2790SOL    HW2 9270   2.808   5.023   0.203
 2791SOL     OW 9271   0.425   4.199   2.096
 2791SOL    HW1 9272   0.378   4.151   2.021
 2791SOL    HW2 9273   0.485   4.134   2.143
 2792SOL     OW 9274   3.126   0.516   4.831
 2792SOL    HW1 9275   3.046   0.566   4.797
 2792SOL    HW2 9276   3.210   0.563   4.805
 2793SOL     OW 9277   4.650   4.421   1.405
 2793SOL    HW1 9278   4.665   4.386   1.498
 2793SOL    HW2 9279   4.635   4.520   1.409
 2794SOL     OW 9280   6.750   0.968   6.582
 2794SOL    HW1 9281   6.708   1.057   6.563
 2794SOL    HW2 9282   6.749   0.951   6.681
 2795SOL     OW 9283   0.556   4.987   0.925
 2795SOL    HW1 9284   0.641   5.038   0.942
 2795SOL    HW2 9285   0.484   5.022   0.985
 2796SOL     OW 9286   0.876   5.883   5.535
 2796SOL    HW1 9287   0.904   5.833   5.617
 2796SOL    HW2 9288   0.941   5.956   5.516
 2797SOL     OW 9289   5.783   5.550   5.084
 2797SOL    HW1 9290   5.785   5.451   5.094
 2797SOL    HW2 9291   5.873   5.588   5.109
 2798SOL     OW 9292   6.327   6.176   2.509
 2798SOL    HW1 9293   6.387   6.132   2.576
 2798SOL    HW2 9294   6.234   6.142   2.519
 2799SOL     OW 9295   4.969   5.645   5.511
 2799SOL    HW1 9296   4.939   5.719   5.571
 2799SOL    HW2 9297   4.910   5.641   5.431
 2800SOL     OW 9298   5.900   0.911   0.540
 2800SOL    HW1 9299   5.925   0.883   0.447
 2800SOL    HW2 9300   5.814   0.962   0.537
 2801SOL     OW 9301   0.482   5.459   6.015
 2801SOL    HW1 9302   0.481   5.440   5.917
 2801SOL    HW2 9303   0.533   5.543   6.032
 2802SOL     OW 9304   6.189   6.500   5.190
 2802SOL    HW1 9305   6.125   6.554   5.135
 2802SOL    HW2 9306   6.182   6.404   5.164
 2803SOL     OW 9307   3.675   3.401   6.164
 2803SOL    HW1 9308   3.672   3.327   6.097
 2803SOL    HW2 9309   3.599   3.464   6.147
 2804SOL     OW 9310   0.433   2.827   4.166
 2804SOL    HW1 9311   0.403   2.742   4.123
 2804SOL    HW2 9312   0.394   2.836   4.257
 2805SOL     OW 9313   4.898   3.424   2.211
 2805SOL    HW1 9314   4.834   3.350   2.191
 2805SOL    HW2 9315   4.880   3.460   2.302
 2806SOL     OW 9316   2.438   3.826   6.389
 2806SOL    HW1 9317   2.380   3.805   6.310
 2806SOL    HW2 9318   2.388   3.887   6.451
 2807SOL     OW 9319   2.698   1.024   3.199
 2807SOL    HW1 9320   2.746   0.951   3.249
 2807SOL    HW2 9321   2.623   1.059   3.255
 2808SOL     OW 9322   6.152   5.627   0.837
 2808SOL    HW1 9323   6.172   5.689   0.913
 2808SOL    HW2 9324   6.068   5.656   0.791
 2809SOL     OW 9325   5.583   3.842   2.153
 2809SOL    HW1 9326   5.627   3.878   2.071
 2809SOL    HW2 9327   5.587   3.742   2.153
 2810SOL     OW 9328   2.413   5.905   3.445
 2810SOL    HW1 9329   2.453   5.993   3.421
 2810SOL    HW2 9330   2.458   5.869   3.527
 2811SOL     OW 9331   0.692   0.469   2.648
 2811SOL    HW1 9332   0.599   0.494   2.623
 2811SOL    HW2 9333   0.757   0.506   2.582
 2812SOL     OW 9334   0.532   3.024   0.471
 2812SOL    HW1 9335   0.471   3.103   0.463
 2812SOL    HW2 9336   0.627   3.056   0.475
 2813SOL     OW 9337   1.257   1.586   1.166
 2813SOL    HW1 9338   1.247   1.681   1.194
 2813SOL    HW2 9339   1.225   1.575   1.072
 2814SOL     OW 9340   2.939   3.773   6.826
 2814SOL    HW1 9341   2.935   3.851   6.765
 2814SOL    HW2 9342   3.011   3.787   6.894
 2815SOL     OW 9343   0.017   5.858   5.013
 2815SOL    HW1 9344   0.071   5.863   5.097
 2815SOL    HW2 9345   0.070   5.811   4.943
 2816SOL     OW 9346   6.684   5.869   4.819
 2816SOL    HW1 9347   6.663   5.853   4.916
 2816SOL    HW2 9348   6.774   5.912   4.812
 2817SOL     OW 9349   3.828   0.843   2.045
 2817SOL    HW1 9350   3.838   0.903   1.965
 2817SOL    HW2 9351   3.796   0.753   2.015
 2818SOL     OW 9352   1.253   0.577   1.155
 2818SOL    HW1 9353   1.241   0.552   1.251
 2818SOL    HW2 9354   1.188   0.525   1.099
 2819SOL     OW 9355   0.690   0.288   0.628
 2819SOL    HW1 9356   0.648   0.216   0.573
 2819SOL    HW2 9357   0.695   0.372   0.574
 2820SOL     OW 9358   0.860   2.529   2.219
 2820SOL    HW1 9359   0.828   2.466   2.149
 2820SOL    HW2 9360   0.941   2.491   2.264
 2821SOL     OW 9361   4.071   5.238   6.458
 2821SOL    HW1 9362   4.148   5.182   6.488
 2821SOL    HW2 9363   4.011   5.185   6.400
 2822SOL     OW 9364   3.578   3.477   1.097
 2822SOL    HW1 9365   3.569   3.566   1.143
 2822SOL    HW2 9366   3.670   3.469   1.058
 2823SOL     OW 9367   4.894   0.916   0.677
 2823SOL    HW1 9368   4.843   0.984   0.624
 2823SOL    HW2 9369   4.943   0.855   0.615
 2824SOL     OW 9370   1.329   3.720   6.124
 2824SOL    HW1 9371   1.308   3.690   6.031
 2824SOL    HW2 9372   1.341   3.640   6.183
 2825SOL     OW 9373   5.187   0.700   6.943
 2825SOL    HW1 9374   5.140   0.771   6.996
 2825SOL    HW2 9375   5.272   0.674   6.990
 2826SOL     OW 9376   1.715   3.274   6.335
 2826SOL    HW1 9377   1.750   3.243   6.247
 2826SOL    HW2 9378   1.759   3.221   6.408
 2827SOL     OW 9379   0.346   0.656   6.858
 2827SOL    HW1 9380   0.380   0.600   6.782
 2827SOL    HW2 9381   0.274   0.717   6.824
 2828SOL     OW 9382   1.528   3.484   1.316
 2828SOL    HW1 9383   1.559   3.391   1.298
 2828SOL    HW2 9384   1.513   3.532   1.229
 2829SOL     OW 9385   3.000   3.822   3.298
 2829SOL    HW1 9386   3.019   3.783   3.388
 2829SOL    HW2 9387   2.938   3.762   3.248
 2830SOL     OW 9388   3.856   4.467   5.350
 2830SOL    HW1 9389   3.919   4.537   5.316
 2830SOL    HW2 9390   3.873   4.453   5.448
 2831SOL     OW 9391   6.543   2.247   1.894
 2831SOL    HW1 9392   6.558   2.234   1.992
 2831SOL    HW2 9393   6.476   2.321   1.880
 2832SOL     OW 9394   0.860   3.407   1.325
 2832SOL    HW1 9395   0.768   3.442   1.343
 2832SOL    HW2 9396   0.854   3.312   1.293
 2833SOL     OW 9397   2.280   0.532   2.005
 2833SOL    HW1 9398   2.297   0.545   2.103
 2833SOL    HW2 9399   2.323   0.607   1.954
 2834SOL     OW 9400   4.342   6.112   4.837
 2834SOL    HW1 9401   4.252   6.151   4.854
 2834SOL    HW2 9402   4.333   6.021   4.797
 2835SOL     OW 9403   1.495   6.427   0.679
 2835SOL    HW1 9404   1.518   6.331   0.666
 2835SOL    HW2 9405   1.539   6.460   0.763
 2836SOL     OW 9406   3.618   6.671   3.442
 2836SOL    HW1 9407   3.549   6.633   3.504
 2836SOL    HW2 9408   3.682   6.727   3.495
 2837SOL     OW 9409   5.940   4.077   2.154
 2837SOL    HW1 9410   5.852   4.114   2.184
 2837SOL    HW2 9411   6.001   4.070   2.232
 2838SOL     OW 9412   4.741   3.744   6.324
 2838SOL    HW1 9413   4.719   3.841   6.323
 2838SOL    HW2 9414   4.687   3.699   6.396
 2839SOL     OW 9415   6.500   3.227   3.998
 2839SOL    HW1 9416   6.431   3.279   4.050
 2839SOL    HW2 9417   6.589   3.271   4.009
 2840SOL     OW 9418   0.674   5.238   2.641
 2840SOL    HW1 9419   0.633   5.283   2.720
 2840SOL    HW2 9420   0.676   5.139   2.657
 2841SOL     OW 9421   5.810   2.280   1.063
 2841SOL    HW1 9422   5.807   2.291   0.963
 2841SOL    HW2 9423   5.890   2.329   1.099
 2842SOL     OW 9424   1.251   5.961   4.473
 2842SOL    HW1 9425   1.187   5.903   4.423
 2842SOL    HW2 9426   1.264   6.047   4.424
 2843SOL     OW 9427   2.125   3.342   3.042
 2843SOL    HW1 9428   2.105   3.339   2.944
 2843SOL    HW2 9429   2.078   3.419   3.084
 2844SOL     OW 9430   4.983   4.503   1.374
 2844SOL    HW1 9431   5.067   4.509   1.320
 2844SOL    HW2 9432   4.918   4.444   1.328
 2845SOL     OW 9433   4.880   3.147   3.405
 2845SOL    HW1 9434   4.893   3.230   3.351
 2845SOL    HW2 9435   4.812   3.163   3.476
 2846SOL     OW 9436   4.538   0.297   0.049
 2846SOL    HW1 9437   4.576   0.252   0.130
 2846SOL    HW2 9438   4.495   0.383   0.076
 2847SOL     OW 9439   4.733   4.423   2.070
 2847SOL    HW1 9440   4.785   4.342   2.094
 2847SOL    HW2 9441   4.641   4.396   2.040
 2848SOL     OW 9442   0.671   3.001   5.164
 2848SOL    HW1 9443   0.638   3.088   5.200
 2848SOL    HW2 9444   0.756   3.015   5.114
 2849SOL     OW 9445   3.966   0.779   2.327
 2849SOL    HW1 9446   3.996   0.826   2.244
 2849SOL    HW2 9447   3.972   0.841   2.405
 2850SOL     OW 9448   2.420   6.657   3.520
 2850SOL    HW1 9449   2.505   6.709   3.527
 2850SOL    HW2 9450   2.343   6.716   3.543
 2851SOL     OW 9451   4.723   3.416   0.534
 2851SOL    HW1 9452   4.670   3.335   0.558
 2851SOL    HW2 9453   4.761   3.457   0.617
 2852SOL     OW 9454   6.296   4.284   6.413
 2852SOL    HW1 9455   6.231   4.313   6.342
 2852SOL    HW2 9456   6.248   4.227   6.480
 2853SOL     OW 9457   0.242   3.532   0.234
 2853SOL    HW1 9458   0.257   3.469   0.158
 2853SOL    HW2 9459   0.152   3.574   0.225
 2854SOL     OW 9460   2.822   1.045   6.974
 2854SOL    HW1 9461   2.819   1.108   6.896
 2854SOL    HW2 9462   2.734   1.047   7.022
 2855SOL     OW 9463   1.155   2.154   4.352
 2855SOL    HW1 9464   1.231   2.201   4.307
 2855SOL    HW2 9465   1.100   2.221   4.403
 2856SOL     OW 9466   1.730   4.044   2.951
 2856SOL    HW1 9467   1.818   4.002   2.973
 2856SOL    HW2 9468   1.674   4.051   3.035
 2857SOL     OW 9469   0.385   3.235   0.376
 2857SOL    HW1 9470   0.333   3.267   0.455
 2857SOL    HW2 9471   0.323   3.196   0.308
 2858SOL     OW 9472   5.320   5.958   3.185
 2858SOL    HW1 9473   5.362   5.876   3.146
 2858SOL    HW2 9474   5.289   5.939   3.278
 2859SOL     OW 9475   5.316   6.141   0.688
 2859SOL    HW1 9476   5.397   6.086   0.709
 2859SOL    HW2 9477   5.333   6.194   0.605
 2860SOL     OW 9478   1.648   6.113   1.681
 2860SOL    HW1 9479   1.729   6.060   1.707
 2860SOL    HW2 9480   1.666   6.210   1.695
 2861SOL     OW 9481   3.871   5.122   6.307
 2861SOL    HW1 9482   3.930   5.124   6.226
 2861SOL    HW2 9483   3.829   5.032   6.316
 2862SOL     OW 9484   4.548   2.963   1.117
 2862SOL    HW1 9485   4.482   2.894   1.147
 2862SOL    HW2 9486   4.611   2.983   1.193
 2863SOL     OW 9487   5.095   0.520   5.922
 2863SOL    HW1 9488   5.182   0.477   5.943
 2863SOL    HW2 9489   5.095   0.551   5.827
 2864SOL     OW 9490   4.209   3.506   1.616
 2864SOL    HW1 9491   4.198   3.421   1.668
 2864SOL    HW2 9492   4.268   3.488   1.537
 2865SOL     OW 9493   4.756   6.409   4.118
 2865SOL    HW1 9494   4.678   6.380   4.175
 2865SOL    HW2 9495   4.812   6.473   4.170
 2866SOL     OW 9496   5.414   4.602   6.544
 2866SOL    HW1 9497   5.327   4.617   6.497
 2866SOL    HW2 9498   5.468   4.535   6.493
 2867SOL     OW 9499   6.122   6.669   2.320
 2867SOL    HW1 9500   6.129   6.594   2.386
 2867SOL    HW2 9501   6.192   6.658   2.249
 2868SOL     OW 9502   1.287   1.649   5.930
 2868SOL    HW1 9503   1.264   1.589   6.006
 2868SOL    HW2 9504   1.328   1.596   5.856
 2869SOL     OW 9505   5.411   6.616   4.108
 2869SOL    HW1 9506   5.398   6.528   4.062
 2869SOL    HW2 9507   5.494   6.660   4.073
 2870SOL     OW 9508   1.426   1.242   1.036
 2870SOL    HW1 9509   1.443   1.166   0.974
 2870SOL    HW2 9510   1.342   1.224   1.089
 2871SOL     OW 9511   6.647   1.044   1.636
 2871SOL    HW1 9512   6.671   0.990   1.555
 2871SOL    HW2 9513   6.574   1.108   1.614
 2872SOL     OW 9514   2.355   1.673   2.694
 2872SOL    HW1 9515   2.404   1.728   2.626
 2872SOL    HW2 9516   2.291   1.612   2.647
 2873SOL     OW 9517   0.659   5.854   1.246
 2873SOL    HW1 9518   0.605   5.903   1.314
 2873SOL    HW2 9519   0.756   5.870   1.263
 2874SOL     OW 9520   3.265   0.405   2.903
 2874SOL    HW1 9521   3.211   0.366   2.978
 2874SOL    HW2 9522   3.235   0.364   2.816
 2875SOL     OW 9523   2.753   6.935   2.920
 2875SOL    HW1 9524   2.838   6.899   2.958
 2875SOL    HW2 9525   2.711   6.867   2.862
 2876SOL     OW 9526   1.820   5.984   2.436
 2876SOL    HW1 9527   1.773   5.965   2.349
 2876SOL    HW2 9528   1.867   5.902   2.467
 2877SOL     OW 9529   1.895   1.827   6.041
 2877SOL    HW1 9530   1.965   1.890   6.076
 2877SOL    HW2 9531   1.808   1.846   6.086
 2878SOL     OW 9532   3.417   3.011   4.822
 2878SOL    HW1 9533   3.378   2.981   4.909
 2878SOL    HW2 9534   3.398   3.109   4.809
 2879SOL     OW 9535   4.927   4.481   5.781
 2879SOL    HW1 9536   5.007   4.516   5.830
 2879SOL    HW2 9537   4.902   4.391   5.816
 2880SOL     OW 9538   0.602   2.010   4.218
 2880SOL    HW1 9539   0.589   1.982   4.123
 2880SOL    HW2 9540   0.698   1.998   4.243
 2881SOL     OW 9541   3.587   5.745   6.747
 2881SOL    HW1 9542   3.614   5.683   6.673
 2881SOL    HW2 9543   3.667   5.769   6.800
 2882SOL     OW 9544   5.650   6.041   0.430
 2882SOL    HW1 9545   5.715   5.973   0.396
 2882SOL    HW2 9546   5.639   6.030   0.529
 2883SOL     OW 9547   6.228   6.349   2.861
 2883SOL    HW1 9548   6.297   6.298   2.809
 2883SOL    HW2 9549   6.172   6.285   2.914
 2884SOL     OW 9550   0.162   5.075   2.868
 2884SOL    HW1 9551   0.182   4.989   2.917
 2884SOL    HW2 9552   0.197   5.152   2.921
 2885SOL     OW 9553   1.438   3.302   3.374
 2885SOL    HW1 9554   1.381   3.363   3.429
 2885SOL    HW2 9555   1.520   3.277   3.426
 2886SOL     OW 9556   2.380   4.469   6.826
 2886SOL    HW1 9557   2.308   4.496   6.761
 2886SOL    HW2 9558   2.431   4.550   6.855
 2887SOL     OW 9559   0.344   6.014   4.480
 2887SOL    HW1 9560   0.375   5.924   4.450
 2887SOL    HW2 9561   0.423   6.076   4.486
 2888SOL     OW 9562   0.184   6.045   0.395
 2888SOL    HW1 9563   0.152   6.069   0.303
 2888SOL    HW2 9564   0.246   5.967   0.389
 2889SOL     OW 9565   2.770   6.954   3.367
 2889SOL    HW1 9566   2.864   6.976   3.342
 2889SOL    HW2 9567   2.728   0.008   3.412
 2890SOL     OW 9568   2.160   5.897   1.332
 2890SOL    HW1 9569   2.242   5.840   1.333
 2890SOL    HW2 9570   2.185   5.993   1.323
 2891SOL     OW 9571   0.505   3.226   2.618
 2891SOL    HW1 9572   0.454   3.188   2.541
 2891SOL    HW2 9573   0.442   3.275   2.678
 2892SOL     OW 9574   6.386   4.128   1.050
 2892SOL    HW1 9575   6.420   4.220   1.072
 2892SOL    HW2 9576   6.455   4.060   1.075
 2893SOL     OW 9577   0.798   5.991   4.979
 2893SOL    HW1 9578   0.834   6.051   4.908
 2893SOL    HW2 9579   0.736   5.925   4.938
 2894SOL     OW 9580   1.686   4.502   1.554
 2894SOL    HW1 9581   1.784   4.484   1.565
 2894SOL    HW2 9582   1.639   4.416   1.534
 2895SOL     OW 9583   3.843   0.295   6.353
 2895SOL    HW1 9584   3.784   0.324   6.278
 2895SOL    HW2 9585   3.856   0.196   6.349
 2896SOL     OW 9586   5.609   0.107   5.780
 2896SOL    HW1 9587   5.679   0.147   5.721
 2896SOL    HW2 9588   5.548   0.050   5.724
 2897SOL     OW 9589   3.382   5.500   2.642
 2897SOL    HW1 9590   3.364   5.568   2.570
 2897SOL    HW2 9591   3.408   5.413   2.599
 2898SOL     OW 9592   6.404   3.848   3.456
 2898SOL    HW1 9593   6.419   3.929   3.512
 2898SOL    HW2 9594   6.330   3.793   3.494
 2899SOL     OW 9595   6.972   2.131   1.164
 2899SOL    HW1 9596   0.021   2.095   1.108
 2899SOL    HW2 9597   7.005   2.153   1.255
 2900SOL     OW 9598   3.259   3.496   0.116
 2900SOL    HW1 9599   3.335   3.556   0.092
 2900SOL    HW2 9600   3.206   3.537   0.190
 2901SOL     OW 9601   1.864   4.876   3.475
 2901SOL    HW1 9602   1.930   4.900   3.404
 2901SOL    HW2 9603   1.909   4.816   3.542
 2902SOL     OW 9604   0.412   6.061   4.065
 2902SOL    HW1 9605   0.354   6.142   4.072
 2902SOL    HW2 9606   0.362   5.981   4.097
 2903SOL     OW 9607   4.918   6.207   0.644
 2903SOL    HW1 9608   4.949   6.286   0.697
 2903SOL    HW2 9609   4.972   6.127   0.668
 2904SOL     OW 9610   2.885   4.872   4.876
 2904SOL    HW1 9611   2.847   4.800   4.935
 2904SOL    HW2 9612   2.958   4.920   4.925
 2905SOL     OW 9613   1.177   4.635   2.799
 2905SOL    HW1 9614   1.100   4.697   2.809
 2905SOL    HW2 9615   1.197   4.622   2.701
 2906SOL     OW 9616   5.249   6.034   2.910
 2906SOL    HW1 9617   5.155   6.049   2.941
 2906SOL    HW2 9618   5.306   6.007   2.987
 2907SOL     OW 9619   0.919   0.857   4.149
 2907SOL    HW1 9620   0.840   0.814   4.106
 2907SOL    HW2 9621   0.962   0.793   4.213
 2908SOL     OW 9622   4.999   0.647   3.589
 2908SOL    HW1 9623   5.047   0.559   3.594
 2908SOL    HW2 9624   4.957   0.667   3.677
 2909SOL     OW 9625   1.242   6.245   3.072
 2909SOL    HW1 9626   1.288   6.218   2.987
 2909SOL    HW2 9627   1.178   6.173   3.099
 2910SOL     OW 9628   6.807   1.001   4.043
 2910SOL    HW1 9629   6.820   0.938   4.120
 2910SOL    HW2 9630   6.827   0.953   3.958
 2911SOL     OW 9631   0.441   4.778   3.733
 2911SOL    HW1 9632   0.342   4.769   3.742
 2911SOL    HW2 9633   0.479   4.692   3.697
 2912SOL     OW 9634   0.211   6.684   0.597
 2912SOL    HW1 9635   0.187   6.703   0.502
 2912SOL    HW2 9636   0.129   6.687   0.654
 2913SOL     OW 9637   1.812   4.597   2.000
 2913SOL    HW1 9638   1.720   4.628   1.980
 2913SOL    HW2 9639   1.877   4.643   1.940
 2914SOL     OW 9640   5.463   4.923   0.395
 2914SOL    HW1 9641   5.458   4.988   0.470
 2914SOL    HW2 9642   5.444   4.970   0.309
 2915SOL     OW 9643   3.109   2.154   2.681
 2915SOL    HW1 9644   3.204   2.142   2.710
 2915SOL    HW2 9645   3.107   2.188   2.587
 2916SOL     OW 9646   2.853   5.040   0.044
 2916SOL    HW1 9647   2.786   4.982   7.023
 2916SOL    HW2 9648   2.945   5.004   0.028
 2917SOL     OW 9649   2.543   0.390   3.758
 2917SOL    HW1 9650   2.521   0.352   3.848
 2917SOL    HW2 9651   2.536   0.319   3.689
 2918SOL     OW 9652   5.955   3.965   1.167
 2918SOL    HW1 9653   5.940   3.931   1.260
 2918SOL    HW2 9654   6.054   3.973   1.150
 2919SOL     OW 9655   0.627   6.126   4.480
 2919SOL    HW1 9656   0.649   6.215   4.521
 2919SOL    HW2 9657   0.694   6.104   4.410
 2920SOL     OW 9658   1.975   0.558   2.005
 2920SOL    HW1 9659   2.070   0.538   2.029
 2920SOL    HW2 9660   1.915   0.502   2.062
 2921SOL     OW 9661   0.351   0.133   5.897
 2921SOL    HW1 9662   0.334   0.040   5.928
 2921SOL    HW2 9663   0.378   0.190   5.974
 2922SOL     OW 9664   4.355   0.236   2.992
 2922SOL    HW1 9665   4.454   0.230   2.976
 2922SOL    HW2 9666   4.310   0.270   2.909
 2923SOL     OW 9667   6.495   4.783   4.783
 2923SOL    HW1 9668   6.408   4.823   4.811
 2923SOL    HW2 9669   6.567   4.851   4.791
 2924SOL     OW 9670   7.013   1.841   5.285
 2924SOL    HW1 9671   6.977   1.826   5.193
 2924SOL    HW2 9672   6.960   1.788   5.351
 2925SOL     OW 9673   5.354   1.076   6.259
 2925SOL    HW1 9674   5.451   1.091   6.275
 2925SOL    HW2 9675   5.328   1.117   6.171
 2926SOL     OW 9676   7.022   2.116   5.321
 2926SOL    HW1 9677   0.093   2.142   5.335
 2926SOL    HW2 9678   7.018   2.022   5.289
 2927SOL     OW 9679   2.213   3.288   1.330
 2927SOL    HW1 9680   2.140   3.344   1.369
 2927SOL    HW2 9681   2.302   3.323   1.361
 2928SOL     OW 9682   6.465   2.071   0.288
 2928SOL    HW1 9683   6.549   2.076   0.234
 2928SOL    HW2 9684   6.414   2.157   0.279
 2929SOL     OW 9685   1.434   2.836   4.684
 2929SOL    HW1 9686   1.368   2.911   4.678
 2929SOL    HW2 9687   1.517   2.860   4.633
 2930SOL     OW 9688   6.407   5.617   5.321
 2930SOL    HW1 9689   6.336   5.564   5.367
 2930SOL    HW2 9690   6.386   5.623   5.224
 2931SOL     OW 9691   3.859   4.453   0.318
 2931SOL    HW1 9692   3.945   4.465   0.269
 2931SOL    HW2 9693   3.863   4.504   0.404
 2932SOL     OW 9694   6.785   6.315   1.596
 2932SOL    HW1 9695   6.850   6.365   1.653
 2932SOL    HW2 9696   6.786   6.218   1.621
 2933SOL     OW 9697   0.786   0.280   1.906
 2933SOL    HW1 9698   0.824   0.282   1.813
 2933SOL    HW2 9699   0.687   0.290   1.902
 2934SOL     OW 9700   3.840   3.077   1.114
 2934SOL    HW1 9701   3.888   3.162   1.135
 2934SOL    HW2 9702   3.881   3.035   1.034
 2935SOL     OW 9703   0.468   2.651   5.996
 2935SOL    HW1 9704   0.442   2.558   6.022
 2935SOL    HW2 9705   0.558   2.649   5.953
 2936SOL     OW 9706   4.640   0.350   0.550
 2936SOL    HW1 9707   4.632   0.447   0.570
 2936SOL    HW2 9708   4.722   0.313   0.594
 2937SOL     OW 9709   4.550   5.631   1.290
 2937SOL    HW1 9710   4.532   5.709   1.351
 2937SOL    HW2 9711   4.602   5.561   1.340
 2938SOL     OW 9712   6.107   5.546   6.869
 2938SOL    HW1 9713   6.156   5.573   6.786
 2938SOL    HW2 9714   6.093   5.447   6.869
 2939SOL     OW 9715   0.618   6.165   1.796
 2939SOL    HW1 9716   0.656   6.214   1.873
 2939SOL    HW2 9717   0.522   6.191   1.783
 2940SOL     OW 9718   6.027   5.996   4.581
 2940SOL    HW1 9719   5.935   6.035   4.586
 2940SOL    HW2 9720   6.075   6.033   4.502
 2941SOL     OW 9721   1.890   2.824   3.169
 2941SOL    HW1 9722   1.818   2.891   3.185
 2941SOL    HW2 9723   1.979   2.869   3.177
 2942SOL     OW 9724   2.565   1.844   6.795
 2942SOL    HW1 9725   2.551   1.811   6.702
 2942SOL    HW2 9726   2.504   1.795   6.857
 2943SOL     OW 9727   6.397   4.383   3.801
 2943SOL    HW1 9728   6.422   4.307   3.741
 2943SOL    HW2 9729   6.328   4.440   3.757
 2944SOL     OW 9730   2.433   6.114   4.026
 2944SOL    HW1 9731   2.407   6.151   3.937
 2944SOL    HW2 9732   2.352   6.085   4.075
 2945SOL     OW 9733   5.131   4.093   1.737
 2945SOL    HW1 9734   5.145   4.131   1.645
 2945SOL    HW2 9735   5.105   3.997   1.730
 2946SOL     OW 9736   2.911   4.013   5.843
 2946SOL    HW1 9737   2.988   3.968   5.796
 2946SOL    HW2 9738   2.900   3.974   5.934
 2947SOL     OW 9739   6.613   6.089   0.538
 2947SOL    HW1 9740   6.519   6.124   0.541
 2947SOL    HW2 9741   6.637   6.069   0.443
 2948SOL     OW 9742   5.829   4.681   3.077
 2948SOL    HW1 9743   5.816   4.747   3.003
 2948SOL    HW2 9744   5.923   4.686   3.111
 2949SOL     OW 9745   0.850   6.378   0.802
 2949SOL    HW1 9746   0.846   6.471   0.765
 2949SOL    HW2 9747   0.821   6.379   0.898
 2950SOL     OW 9748   5.278   4.698   2.229
 2950SOL    HW1 9749   5.189   4.669   2.195
 2950SOL    HW2 9750   5.349   4.667   2.167
 2951SOL     OW 9751   5.704   0.482   1.822
 2951SOL    HW1 9752   5.704   0.425   1.740
 2951SOL    HW2 9753   5.743   0.571   1.801
 2952SOL     OW 9754   6.350   0.703   4.697
 2952SOL    HW1 9755   6.252   0.723   4.695
 2952SOL    HW2 9756   6.375   0.649   4.617
 2953SOL     OW 9757   0.296   5.766   2.802
 2953SOL    HW1 9758   0.196   5.763   2.805
 2953SOL    HW2 9759   0.331   5.806   2.887
 2954SOL     OW 9760   0.950   4.863   6.207
 2954SOL    HW1 9761   0.880   4.802   6.244
 2954SOL    HW2 9762   1.035   4.812   6.195
 2955SOL     OW 9763   1.331   4.212   0.057
 2955SOL    HW1 9764   1.276   4.178   0.133
 2955SOL    HW2 9765   1.362   4.136   0.000
 2956SOL     OW 9766   6.908   4.715   4.423
 2956SOL    HW1 9767   6.952   4.760   4.345
 2956SOL    HW2 9768   6.948   4.749   4.508
 2957SOL     OW 9769   3.297   5.263   1.727
 2957SOL    HW1 9770   3.266   5.251   1.821
 2957SOL    HW2 9771   3.393   5.236   1.720
 2958SOL     OW 9772   1.709   5.197   2.933
 2958SOL    HW1 9773   1.758   5.209   3.019
 2958SOL    HW2 9774   1.659   5.280   2.911
 2959SOL     OW 9775   5.545   2.477   3.273
 2959SOL    HW1 9776   5.633   2.467   3.319
 2959SOL    HW2 9777   5.474   2.497   3.341
 2960SOL     OW 9778   3.844   0.482   0.087
 2960SOL    HW1 9779   3.901   0.513   0.011
 2960SOL    HW2 9780   3.901   0.431   0.152
 2961SOL     OW 9781   5.360   4.583   2.919
 2961SOL    HW1 9782   5.378   4.648   2.845
 2961SOL    HW2 9783   5.438   4.521   2.929
 2962SOL     OW 9784   5.516   6.927   2.942
 2962SOL    HW1 9785   5.522   6.880   2.853
 2962SOL    HW2 9786   5.548   7.021   2.932
 2963SOL     OW 9787   1.351   1.028   5.968
 2963SOL    HW1 9788   1.412   1.033   5.889
 2963SOL    HW2 9789   1.400   1.060   6.049
 2964SOL     OW 9790   0.519   2.769   0.016
 2964SOL    HW1 9791   0.496   2.821   0.099
 2964SOL    HW2 9792   0.472   2.681   0.018
 2965SOL     OW 9793   0.533   0.823   4.941
 2965SOL    HW1 9794   0.501   0.728   4.938
 2965SOL    HW2 9795   0.629   0.825   4.970
 2966SOL     OW 9796   4.448   5.661   3.728
 2966SOL    HW1 9797   4.401   5.659   3.817
 2966SOL    HW2 9798   4.465   5.756   3.702
 2967SOL     OW 9799   6.914   1.183   5.565
 2967SOL    HW1 9800   6.955   1.112   5.507
 2967SOL    HW2 9801   6.841   1.229   5.513
 2968SOL     OW 9802   2.146   3.115   1.140
 2968SOL    HW1 9803   2.164   3.178   1.215
 2968SOL    HW2 9804   2.073   3.051   1.167
 2969SOL     OW 9805   4.841   3.693   4.579
 2969SOL    HW1 9806   4.786   3.688   4.495
 2969SOL    HW2 9807   4.898   3.611   4.586
 2970SOL     OW 9808   2.669   2.664   5.686
 2970SOL    HW1 9809   2.689   2.710   5.773
 2970SOL    HW2 9810   2.700   2.721   5.610
 2971SOL     OW 9811   5.684   3.794   0.118
 2971SOL    HW1 9812   5.724   3.884   0.103
 2971SOL    HW2 9813   5.584   3.802   0.120
 2972SOL     OW 9814   6.123   4.889   6.763
 2972SOL    HW1 9815   6.150   4.846   6.677
 2972SOL    HW2 9816   6.121   4.988   6.752
 2973SOL     OW 9817   4.659   6.859   2.282
 2973SOL    HW1 9818   4.716   6.781   2.255
 2973SOL    HW2 9819   4.705   6.910   2.355
 2974SOL     OW 9820   6.309   4.771   3.224
 2974SOL    HW1 9821   6.315   4.835   3.300
 2974SOL    HW2 9822   6.287   4.820   3.140
 2975SOL     OW 9823   4.697   4.605   3.743
 2975SOL    HW1 9824   4.607   4.592   3.702
 2975SOL    HW2 9825   4.729   4.698   3.725
 2976SOL     OW 9826   4.550   1.971   3.218
 2976SOL    HW1 9827   4.530   2.063   3.186
 2976SOL    HW2 9828   4.597   1.975   3.306
 2977SOL     OW 9829   0.867   0.368   2.151
 2977SOL    HW1 9830   0.795   0.433   2.176
 2977SOL    HW2 9831   0.846   0.328   2.062
 2978SOL     OW 9832   4.466   4.286   6.657
 2978SOL    HW1 9833   4.562   4.269   6.679
 2978SOL    HW2 9834   4.441   4.233   6.576
 2979SOL     OW 9835   3.567   1.650   4.505
 2979SOL    HW1 9836   3.638   1.710   4.468
 2979SOL    HW2 9837   3.606   1.560   4.524
 2980SOL     OW 9838   3.726   4.439   6.619
 2980SOL    HW1 9839   3.767   4.527   6.595
 2980SOL    HW2 9840   3.631   4.452   6.646
 2981SOL     OW 9841   1.918   1.806   0.323
 2981SOL    HW1 9842   1.909   1.766   0.232
 2981SOL    HW2 9843   1.886   1.740   0.391
 2982SOL     OW 9844   1.725   6.560   2.204
 2982SOL    HW1 9845   1.699   6.633   2.140
 2982SOL    HW2 9846   1.695   6.584   2.296
 2983SOL     OW 9847   7.012   2.346   6.674
 2983SOL    HW1 9848   0.027   2.311   6.758
 2983SOL    HW2 9849   0.035   2.429   6.646
 2984SOL     OW 9850   6.180   4.928   0.018
 2984SOL    HW1 9851   6.233   4.933   6.958
 2984SOL    HW2 9852   6.104   4.864   0.006
 2985SOL     OW 9853   0.599   0.248   4.623
 2985SOL    HW1 9854   0.661   0.317   4.661
 2985SOL    HW2 9855   0.650   0.187   4.563
 2986SOL     OW 9856   3.345   4.007   2.724
 2986SOL    HW1 9857   3.416   4.064   2.765
 2986SOL    HW2 9858   3.271   3.992   2.789
 2987SOL     OW 9859   0.994   2.328   4.179
 2987SOL    HW1 9860   1.068   2.267   4.151
 2987SOL    HW2 9861   1.033   2.412   4.217
 2988SOL     OW 9862   1.268   0.590   1.522
 2988SOL    HW1 9863   1.211   0.662   1.563
 2988SOL    HW2 9864   1.211   0.513   1.495
 2989SOL     OW 9865   5.448   3.573   4.901
 2989SOL    HW1 9866   5.398   3.551   4.984
 2989SOL    HW2 9867   5.406   3.527   4.823
 2990SOL     OW 9868   5.450   1.923   4.490
 2990SOL    HW1 9869   5.387   1.950   4.562
 2990SOL    HW2 9870   5.419   1.837   4.450
 2991SOL     OW 9871   5.881   3.753   1.001
 2991SOL    HW1 9872   5.953   3.722   0.939
 2991SOL    HW2 9873   5.912   3.834   1.050
 2992SOL     OW 9874   0.793   3.593   4.753
 2992SOL    HW1 9875   0.859   3.558   4.819
 2992SOL    HW2 9876   0.700   3.579   4.788
 2993SOL     OW 9877   0.691   4.166   0.128
 2993SOL    HW1 9878   0.624   4.098   0.160
 2993SOL    HW2 9879   0.656   4.211   0.046
 2994SOL     OW 9880   4.832   6.255   6.459
 2994SOL    HW1 9881   4.916   6.201   6.459
 2994SOL    HW2 9882   4.801   6.269   6.553
 2995SOL     OW 9883   4.508   0.611   0.612
 2995SOL    HW1 9884   4.443   0.600   0.536
 2995SOL    HW2 9885   4.462   0.588   0.698
 2996SOL     OW 9886   1.446   1.980   4.899
 2996SOL    HW1 9887   1.470   2.077   4.906
 2996SOL    HW2 9888   1.436   1.942   4.991
 2997SOL     OW 9889   4.651   0.746   3.695
 2997SOL    HW1 9890   4.677   0.650   3.685
 2997SOL    HW2 9891   4.568   0.752   3.752
 2998SOL     OW 9892   2.872   0.541   3.976
 2998SOL    HW1 9893   2.805   0.475   4.012
 2998SOL    HW2 9894   2.865   0.543   3.876
 2999SOL     OW 9895   3.114   4.207   6.714
 2999SOL    HW1 9896   3.028   4.257   6.712
 2999SOL    HW2 9897   3.126   4.158   6.627
 3000SOL     OW 9898   2.916   3.626   5.890
 3000SOL    HW1 9899   2.981   3.564   5.934
 3000SOL    HW2 9900   2.942   3.638   5.794
 3001SOL     OW 9901   5.792   0.973   6.718
 3001SOL    HW1 9902   5.813   0.878   6.693
 3001SOL    HW2 9903   5.692   0.986   6.717
 3002SOL     OW 9904   2.792   1.435   0.983
 3002SOL    HW1 9905   2.841   1.396   1.061
 3002SOL    HW2 9906   2.847   1.507   0.941
 3003SOL     OW 9907   1.462   6.108   1.001
 3003SOL    HW1 9908   1.412   6.150   0.925
 3003SOL    HW2 9909   1.399   6.050   1.053
 3004SOL     OW 9910   2.355   4.456   4.214
 3004SOL    HW1 9911   2.308   4.540   4.185
 3004SOL    HW2 9912   2.339   4.384   4.146
 3005SOL     OW 9913   1.142   3.045   5.844
 3005SOL    HW1 9914   1.160   3.027   5.747
 3005SOL    HW2 9915   1.220   3.093   5.884
 3006SOL     OW 9916   5.308   1.697   5.614
 3006SOL    HW1 9917   5.347   1.721   5.525
 3006SOL    HW2 9918   5.374   1.641   5.665
 3007SOL     OW 9919   5.208   5.554   0.185
 3007SOL    HW1 9920   5.286   5.499   0.217
 3007SOL    HW2 9921   5.190   5.627   0.251
 3008SOL     OW 9922   4.111   1.894   6.025
 3008SOL    HW1 9923   4.017   1.907   5.993
 3008SOL    HW2 9924   4.170   1.965   5.988
 3009SOL     OW 9925   6.978   2.702   2.962
 3009SOL    HW1 9926   6.951   2.746   3.048
 3009SOL    HW2 9927   0.018   2.629   2.981
 3010SOL     OW 9928   4.069   5.598   6.059
 3010SOL    HW1 9929   3.970   5.582   6.052
 3010SOL    HW2 9930   4.099   5.656   5.983
 3011SOL     OW 9931   6.430   6.950   1.758
 3011SOL    HW1 9932   6.527   6.947   1.781
 3011SOL    HW2 9933   6.418   6.993   1.668
 3012SOL     OW 9934   2.795   3.627   6.399
 3012SOL    HW1 9935   2.763   3.586   6.484
 3012SOL    HW2 9936   2.783   3.726   6.402
 3013SOL     OW 9937   0.111   5.734   3.291
 3013SOL    HW1 9938   0.135   5.638   3.306
 3013SOL    HW2 9939   0.190   5.792   3.310
 3014SOL     OW 9940   5.279   0.784   6.254
 3014SOL    HW1 9941   5.208   0.766   6.185
 3014SOL    HW2 9942   5.301   0.881   6.254
 3015SOL     OW 9943   2.570   1.080   0.496
 3015SOL    HW1 9944   2.478   1.099   0.464
 3015SOL    HW2 9945   2.575   1.094   0.595
 3016SOL     OW 9946   3.487   6.971   4.485
 3016SOL    HW1 9947   3.398   6.992   4.527
 3016SOL    HW2 9948   3.520   6.883   4.518
 3017SOL     OW 9949   6.643   5.149   1.887
 3017SOL    HW1 9950   6.563   5.100   1.853
 3017SOL    HW2 9951   6.671   5.111   1.975
 3018SOL     OW 9952   4.095   6.881   0.256
 3018SOL    HW1 9953   4.081   6.817   0.180
 3018SOL    HW2 9954   4.010   6.931   0.273
 3019SOL     OW 9955   1.598   6.841   6.871
 3019SOL    HW1 9956   1.515   6.883   6.833
 3019SOL    HW2 9957   1.574   6.790   6.954
 3020SOL     OW 9958   5.254   3.074   6.887
 3020SOL    HW1 9959   5.292   3.023   6.810
 3020SOL    HW2 9960   5.304   3.050   6.970
 3021SOL     OW 9961   3.326   6.442   4.455
 3021SOL    HW1 9962   3.298   6.535   4.433
 3021SOL    HW2 9963   3.327   6.387   4.372
 3022SOL     OW 9964   3.806   6.304   3.248
 3022SOL    HW1 9965   3.734   6.337   3.187
 3022SOL    HW2 9966   3.794   6.346   3.339
 3023SOL     OW 9967   3.788   6.792   3.017
 3023SOL    HW1 9968   3.789   6.703   3.064
 3023SOL    HW2 9969   3.882   6.821   2.999
 3024SOL     OW 9970   6.879   6.163   5.194
 3024SOL    HW1 9971   6.852   6.126   5.283
 3024SOL    HW2 9972   6.797   6.184   5.141
 3025SOL     OW 9973   4.419   5.949   0.302
 3025SOL    HW1 9974   4.504   5.970   0.350
 3025SOL    HW2 9975   4.376   5.869   0.344
 3026SOL     OW 9976   5.788   1.189   0.834
 3026SOL    HW1 9977   5.756   1.283   0.848
 3026SOL    HW2 9978   5.780   1.165   0.738
 3027SOL     OW 9979   4.465   1.544   1.819
 3027SOL    HW1 9980   4.462   1.589   1.909
 3027SOL    HW2 9981   4.431   1.450   1.828
 3028SOL     OW 9982   1.942   3.985   6.519
 3028SOL    HW1 9983   1.890   3.902   6.499
 3028SOL    HW2 9984   1.890   4.042   6.582
 3029SOL     OW 9985   0.627   2.641   4.434
 3029SOL    HW1 9986   0.700   2.700   4.401
 3029SOL    HW2 9987   0.575   2.605   4.357
 3030SOL     OW 9988   1.502   4.348   1.202
 3030SOL    HW1 9989   1.403   4.335   1.190
 3030SOL    HW2 9990   1.518   4.423   1.265
 3031SOL     OW 9991   1.400   5.189   1.102
 3031SOL    HW1 9992   1.363   5.155   1.189
 3031SOL    HW2 9993   1.460   5.267   1.120
 3032SOL     OW 9994   2.157   6.893   3.346
 3032SOL    HW1 9995   2.060   6.897   3.324
 3032SOL    HW2 9996   2.210   6.893   3.261
 3033SOL     OW 9997   6.064   2.805   3.906
 3033SOL    HW1 9998   5.997   2.748   3.954
 3033SOL    HW2 9999   6.144   2.819   3.965
 3034SOL     OW10000   0.704   6.145   3.721
 3034SOL    HW110001   0.611   6.143   3.757
 3034SOL    HW210002   0.707   6.099   3.632
 3035SOL     OW10003   1.491   2.546   6.264
 3035SOL    HW110004   1.455   2.453   6.269
 3035SOL    HW210005   1.440   2.597   6.195
 3036SOL     OW10006   1.310   2.209   5.961
 3036SOL    HW110007   1.343   2.213   5.867
 3036SOL    HW210008   1.228   2.266   5.970
 3037SOL     OW10009   0.636   5.200   5.702
 3037SOL    HW110010   0.553   5.254   5.716
 3037SOL    HW210011   0.612   5.104   5.694
 3038SOL     OW10012   4.852   5.204   5.835
 3038SOL    HW110013   4.808   5.290   5.860
 3038SOL    HW210014   4.951   5.212   5.848
 3039SOL     OW10015   6.355   3.325   0.294
 3039SOL    HW110016   6.259   3.300   0.307
 3039SOL    HW210017   6.362   3.424   0.286
 3040SOL     OW10018   3.760   4.096   6.130
 3040SOL    HW110019   3.794   4.045   6.209
 3040SOL    HW210020   3.797   4.189   6.132
 3041SOL     OW10021   1.396   3.832   4.869
 3041SOL    HW110022   1.443   3.912   4.832
 3041SOL    HW210023   1.428   3.814   4.962
 3042SOL     OW10024   0.324   4.868   2.967
 3042SOL    HW110025   0.382   4.948   2.981
 3042SOL    HW210026   0.379   4.785   2.981
 3043SOL     OW10027   2.336   3.393   0.536
 3043SOL    HW110028   2.348   3.446   0.452
 3043SOL    HW210029   2.416   3.403   0.594
 3044SOL     OW10030   3.132   3.550   5.531
 3044SOL    HW110031   3.141   3.596   5.442
 3044SOL    HW210032   3.215   3.497   5.549
 3045SOL     OW10033   5.088   0.849   3.839
 3045SOL    HW110034   5.033   0.926   3.808
 3045SOL    HW210035   5.031   0.784   3.889
 3046SOL     OW10036   5.505   5.652   0.540
 3046SOL    HW110037   5.449   5.577   0.505
 3046SOL    HW210038   5.474   5.678   0.631
 3047SOL     OW10039   5.928   6.665   0.637
 3047SOL    HW110040   5.926   6.735   0.566
 3047SOL    HW210041   5.835   6.639   0.661
 3048SOL     OW10042   4.225   3.141   0.851
 3048SOL    HW110043   4.254   3.197   0.774
 3048SOL    HW210044   4.289   3.156   0.928
 3049SOL     OW10045   0.874   0.828   4.778
 3049SOL    HW110046   0.970   0.853   4.766
 3049SOL    HW210047   0.818   0.911   4.780
 3050SOL     OW10048   1.861   2.667   1.463
 3050SOL    HW110049   1.960   2.658   1.472
 3050SOL    HW210050   1.817   2.641   1.549
 3051SOL     OW10051   3.462   6.770   6.091
 3051SOL    HW110052   3.374   6.812   6.069
 3051SOL    HW210053   3.518   6.835   6.142
 3052SOL     OW10054   5.448   5.879   2.767
 3052SOL    HW110055   5.385   5.954   2.790
 3052SOL    HW210056   5.405   5.819   2.699
 3053SOL     OW10057   1.569   4.660   0.298
 3053SOL    HW110058   1.579   4.635   0.202
 3053SOL    HW210059   1.577   4.759   0.308
 3054SOL     OW10060   5.556   0.751   3.556
 3054SOL    HW110061   5.560   0.741   3.457
 3054SOL    HW210062   5.465   0.782   3.583
 3055SOL     OW10063   6.389   6.348   6.707
 3055SOL    HW110064   6.364   6.404   6.627
 3055SOL    HW210065   6.405   6.408   6.786
 3056SOL     OW10066   5.315   1.851   6.006
 3056SOL    HW110067   5.215   1.855   5.994
 3056SOL    HW210068   5.345   1.934   6.054
 3057SOL     OW10069   5.510   6.167   3.380
 3057SOL    HW110070   5.434   6.198   3.323
 3057SOL    HW210071   5.594   6.213   3.353
 3058SOL     OW10072   6.134   4.508   0.861
 3058SOL    HW110073   6.131   4.413   0.892
 3058SOL    HW210074   6.126   4.510   0.761
 3059SOL     OW10075   2.367   2.537   4.341
 3059SOL    HW110076   2.466   2.529   4.353
 3059SOL    HW210077   2.345   2.538   4.244
 3060SOL     OW10078   2.597   4.801   6.456
 3060SOL    HW110079   2.668   4.761   6.398
 3060SOL    HW210080   2.613   4.899   6.466
 3061SOL     OW10081   5.621   5.089   5.887
 3061SOL    HW110082   5.550   5.103   5.957
 3061SOL    HW210083   5.592   5.015   5.826
 3062SOL     OW10084   4.125   4.663   1.152
 3062SOL    HW110085   4.131   4.563   1.149
 3062SOL    HW210086   4.039   4.692   1.110
 3063SOL     OW10087   0.560   4.135   0.560
 3063SOL    HW110088   0.534   4.204   0.628
 3063SOL    HW210089   0.652   4.155   0.527
 3064SOL     OW10090   4.331   2.580   0.258
 3064SOL    HW110091   4.258   2.634   0.300
 3064SOL    HW210092   4.296   2.537   0.175
 3065SOL     OW10093   0.774   1.344   6.343
 3065SOL    HW110094   0.700   1.411   6.339
 3065SOL    HW210095   0.747   1.269   6.403
 3066SOL     OW10096   5.064   5.462   5.723
 3066SOL    HW110097   5.152   5.510   5.723
 3066SOL    HW210098   4.989   5.528   5.719
 3067SOL     OW10099   2.250   1.523   0.028
 3067SOL    HW110100   2.152   1.533   0.044
 3067SOL    HW210101   2.287   1.454   0.090
 3068SOL     OW10102   0.731   0.865   1.709
 3068SOL    HW110103   0.776   0.789   1.755
 3068SOL    HW210104   0.687   0.832   1.625
 3069SOL     OW10105   5.733   0.081   3.630
 3069SOL    HW110106   5.697   0.121   3.546
 3069SOL    HW210107   5.685   0.118   3.709
 3070SOL     OW10108   3.067   1.311   7.000
 3070SOL    HW110109   2.989   1.276   0.027
 3070SOL    HW210110   3.080   1.409   7.019
 3071SOL     OW10111   6.801   4.351   3.550
 3071SOL    HW110112   6.753   4.276   3.595
 3071SOL    HW210113   6.843   4.318   3.465
 3072SOL     OW10114   2.149   5.838   6.929
 3072SOL    HW110115   2.200   5.773   6.984
 3072SOL    HW210116   2.186   5.840   6.836
 3073SOL     OW10117   6.575   4.926   0.656
 3073SOL    HW110118   6.635   5.006   0.665
 3073SOL    HW210119   6.630   4.846   0.630
 3074SOL     OW10120   0.939   3.951   1.027
 3074SOL    HW110121   0.966   3.870   0.975
 3074SOL    HW210122   0.853   3.987   0.990
 3075SOL     OW10123   2.387   5.184   3.956
 3075SOL    HW110124   2.391   5.108   3.891
 3075SOL    HW210125   2.469   5.183   4.014
 3076SOL     OW10126   0.443   1.273   4.979
 3076SOL    HW110127   0.399   1.248   4.892
 3076SOL    HW210128   0.532   1.315   4.960
 3077SOL     OW10129   6.107   3.828   1.617
 3077SOL    HW110130   6.197   3.867   1.634
 3077SOL    HW210131   6.091   3.752   1.681
 3078SOL     OW10132   6.379   3.201   1.963
 3078SOL    HW110133   6.457   3.218   1.904
 3078SOL    HW210134   6.408   3.205   2.059
 3079SOL     OW10135   2.429   2.702   4.933
 3079SOL    HW110136   2.482   2.777   4.974
 3079SOL    HW210137   2.447   2.699   4.835
 3080SOL     OW10138   4.422   4.776   1.550
 3080SOL    HW110139   4.355   4.704   1.568
 3080SOL    HW210140   4.444   4.823   1.635
 3081SOL     OW10141   0.864   4.054   0.344
 3081SOL    HW110142   0.797   4.058   0.270
 3081SOL    HW210143   0.856   4.136   0.401
 3082SOL     OW10144   3.289   5.293   4.505
 3082SOL    HW110145   3.384   5.284   4.473
 3082SOL    HW210146   3.278   5.381   4.552
 3083SOL     OW10147   2.654   5.255   2.487
 3083SOL    HW110148   2.753   5.261   2.486
 3083SOL    HW210149   2.616   5.339   2.526
 3084SOL     OW10150   0.708   3.664   2.943
 3084SOL    HW110151   0.753   3.597   2.885
 3084SOL    HW210152   0.751   3.663   3.034
 3085SOL     OW10153   4.807   5.043   0.883
 3085SOL    HW110154   4.791   4.956   0.929
 3085SOL    HW210155   4.823   5.114   0.951
 3086SOL     OW10156   5.533   0.929   0.374
 3086SOL    HW110157   5.589   1.008   0.348
 3086SOL    HW210158   5.524   0.927   0.474
 3087SOL     OW10159   2.393   6.520   2.379
 3087SOL    HW110160   2.410   6.425   2.403
 3087SOL    HW210161   2.300   6.530   2.345
 3088SOL     OW10162   0.425   3.197   5.650
 3088SOL    HW110163   0.399   3.250   5.730
 3088SOL    HW210164   0.524   3.204   5.636
 3089SOL     OW10165   5.005   1.179   4.421
 3089SOL    HW110166   4.907   1.181   4.400
 3089SOL    HW210167   5.046   1.268   4.398
 3090SOL     OW10168   1.199   1.680   2.124
 3090SOL    HW110169   1.218   1.615   2.197
 3090SOL    HW210170   1.256   1.660   2.045
 3091SOL     OW10171   0.876   1.251   0.836
 3091SOL    HW110172   0.954   1.294   0.881
 3091SOL    HW210173   0.908   1.202   0.755
 3092SOL     OW10174   5.416   0.065   2.342
 3092SOL    HW110175   5.342   0.123   2.308
 3092SOL    HW210176   5.380   0.005   2.414
 3093SOL     OW10177   5.838   5.757   6.237
 3093SOL    HW110178   5.828   5.664   6.274
 3093SOL    HW210179   5.769   5.816   6.277
 3094SOL     OW10180   2.608   1.045   4.905
 3094SOL    HW110181   2.586   1.036   5.002
 3094SOL    HW210182   2.701   1.080   4.895
 3095SOL     OW10183   2.664   3.094   5.420
 3095SOL    HW110184   2.745   3.036   5.405
 3095SOL    HW210185   2.610   3.098   5.336
 3096SOL     OW10186   0.573   3.256   5.253
 3096SOL    HW110187   0.492   3.296   5.297
 3096SOL    HW210188   0.655   3.301   5.288
 3097SOL     OW10189   6.038   2.625   6.435
 3097SOL    HW110190   5.976   2.568   6.489
 3097SOL    HW210191   6.129   2.625   6.479
 3098SOL     OW10192   1.613   2.018   2.174
 3098SOL    HW110193   1.701   2.054   2.145
 3098SOL    HW210194   1.610   1.920   2.159
 3099SOL     OW10195   0.458   6.310   3.311
 3099SOL    HW110196   0.507   6.228   3.341
 3099SOL    HW210197   0.362   6.302   3.336
 3100SOL     OW10198   6.138   6.611   2.915
 3100SOL    HW110199   6.150   6.641   2.821
 3100SOL    HW210200   6.161   6.513   2.922
 3101SOL     OW10201   5.275   6.773   6.176
 3101SOL    HW110202   5.232   6.864   6.174
 3101SOL    HW210203   5.349   6.773   6.244
 3102SOL     OW10204   0.672   5.486   0.358
 3102SOL    HW110205   0.649   5.424   0.283
 3102SOL    HW210206   0.590   5.507   0.410
 3103SOL     OW10207   3.823   0.102   0.660
 3103SOL    HW110208   3.815   0.073   0.755
 3103SOL    HW210209   3.754   0.054   0.605
 3104SOL     OW10210   4.765   6.996   6.078
 3104SOL    HW110211   4.703   6.943   6.137
 3104SOL    HW210212   4.767   0.066   6.110
 3105SOL     OW10213   4.967   3.425   1.070
 3105SOL    HW110214   5.056   3.391   1.099
 3105SOL    HW210215   4.901   3.349   1.068
 3106SOL     OW10216   5.823   1.008   5.187
 3106SOL    HW110217   5.831   1.026   5.285
 3106SOL    HW210218   5.778   0.920   5.173
 3107SOL     OW10219   4.351   1.702   4.646
 3107SOL    HW110220   4.413   1.766   4.600
 3107SOL    HW210221   4.378   1.694   4.742
 3108SOL     OW10222   2.126   4.445   4.438
 3108SOL    HW110223   2.185   4.418   4.362
 3108SOL    HW210224   2.172   4.427   4.524
 3109SOL     OW10225   6.485   0.341   4.754
 3109SOL    HW110226   6.415   0.378   4.693
 3109SOL    HW210227   6.468   0.373   4.847
 3110SOL     OW10228   2.497   4.473   3.593
 3110SOL    HW110229   2.530   4.409   3.524
 3110SOL    HW210230   2.549   4.558   3.588
 3111SOL     OW10231   6.662   5.020   4.710
 3111SOL    HW110232   6.656   4.971   4.623
 3111SOL    HW210233   6.616   5.109   4.702
 3112SOL     OW10234   4.087   2.723   0.294
 3112SOL    HW110235   4.114   2.705   0.199
 3112SOL    HW210236   3.999   2.681   0.312
 3113SOL     OW10237   2.850   5.628   2.613
 3113SOL    HW110238   2.853   5.724   2.638
 3113SOL    HW210239   2.884   5.617   2.519
 3114SOL     OW10240   3.617   1.209   0.075
 3114SOL    HW110241   3.555   1.136   0.044
 3114SOL    HW210242   3.643   1.265   7.022
 3115SOL     OW10243   4.293   3.932   5.487
 3115SOL    HW110244   4.288   3.948   5.585
 3115SOL    HW210245   4.225   3.865   5.460
 3116SOL     OW10246   0.821   2.032   0.866
 3116SOL    HW110247   0.765   1.996   0.791
 3116SOL    HW210248   0.762   2.073   0.935
 3117SOL     OW10249   4.801   2.301   6.012
 3117SOL    HW110250   4.748   2.368   6.065
 3117SOL    HW210251   4.746   2.219   5.997
 3118SOL     OW10252   1.494   0.251   2.868
 3118SOL    HW110253   1.549   0.245   2.784
 3118SOL    HW210254   1.455   0.342   2.876
 3119SOL     OW10255   3.120   2.767   5.485
 3119SOL    HW110256   3.074   2.724   5.563
 3119SOL    HW210257   3.176   2.699   5.438
 3120SOL     OW10258   3.125   0.413   5.063
 3120SOL    HW110259   3.092   0.486   5.122
 3120SOL    HW210260   3.141   0.448   4.971
 3121SOL     OW10261   4.816   2.030   4.454
 3121SOL    HW110262   4.855   2.117   4.485
 3121SOL    HW210263   4.778   1.981   4.532
 3122SOL     OW10264   4.405   4.621   4.465
 3122SOL    HW110265   4.341   4.599   4.538
 3122SOL    HW210266   4.446   4.711   4.482
 3123SOL     OW10267   2.202   0.633   3.665
 3123SOL    HW110268   2.287   0.670   3.701
 3123SOL    HW210269   2.209   0.623   3.565
 3124SOL     OW10270   5.525   6.532   4.350
 3124SOL    HW110271   5.620   6.500   4.340
 3124SOL    HW210272   5.494   6.569   4.263
 3125SOL     OW10273   0.919   3.041   5.113
 3125SOL    HW110274   0.965   3.108   5.055
 3125SOL    HW210275   0.964   2.952   5.103
 3126SOL     OW10276   5.985   5.302   4.764
 3126SOL    HW110277   5.915   5.233   4.782
 3126SOL    HW210278   6.048   5.307   4.842
 3127SOL     OW10279   1.131   2.410   4.890
 3127SOL    HW110280   1.190   2.485   4.860
 3127SOL    HW210281   1.155   2.327   4.841
 3128SOL     OW10282   3.512   0.310   0.387
 3128SOL    HW110283   3.454   0.355   0.318
 3128SOL    HW210284   3.504   0.211   0.377
 3129SOL     OW10285   5.200   3.303   1.226
 3129SOL    HW110286   5.211   3.393   1.270
 3129SOL    HW210287   5.289   3.260   1.217
 3130SOL     OW10288   1.561   4.584   0.965
 3130SOL    HW110289   1.570   4.558   0.869
 3130SOL    HW210290   1.534   4.504   1.019
 3131SOL     OW10291   6.692   3.596   2.007
 3131SOL    HW110292   6.756   3.550   1.945
 3131SOL    HW210293   6.742   3.664   2.062
 3132SOL     OW10294   4.122   4.477   0.243
 3132SOL    HW110295   4.199   4.432   0.198
 3132SOL    HW210296   4.145   4.574   0.259
 3133SOL     OW10297   3.303   0.612   3.596
 3133SOL    HW110298   3.278   0.705   3.570
 3133SOL    HW210299   3.296   0.552   3.516
 3134SOL     OW10300   3.367   4.901   2.002
 3134SOL    HW110301   3.459   4.868   1.980
 3134SOL    HW210302   3.301   4.857   1.942
 3135SOL     OW10303   5.265   0.064   5.945
 3135SOL    HW110304   5.298   0.136   5.884
 3135SOL    HW210305   5.339   7.023   5.960
 3136SOL     OW10306   6.251   1.004   2.591
 3136SOL    HW110307   6.238   0.923   2.647
 3136SOL    HW210308   6.187   1.003   2.514
 3137SOL     OW10309   6.510   0.419   1.194
 3137SOL    HW110310   6.563   0.360   1.134
 3137SOL    HW210311   6.462   0.488   1.140
 3138SOL     OW10312   5.283   5.220   3.909
 3138SOL    HW110313   5.244   5.285   3.974
 3138SOL    HW210314   5.381   5.211   3.925
 3139SOL     OW10315   2.956   4.849   1.523
 3139SOL    HW110316   2.933   4.801   1.608
 3139SOL    HW210317   3.055   4.863   1.519
 3140SOL     OW10318   6.333   6.191   5.453
 3140SOL    HW110319   6.384   6.223   5.532
 3140SOL    HW210320   6.381   6.217   5.369
 3141SOL     OW10321   0.395   2.354   0.405
 3141SOL    HW110322   0.483   2.402   0.402
 3141SOL    HW210323   0.407   2.266   0.451
 3142SOL     OW10324   4.338   0.708   2.908
 3142SOL    HW110325   4.408   0.749   2.965
 3142SOL    HW210326   4.381   0.655   2.834
 3143SOL     OW10327   5.754   2.117   0.240
 3143SOL    HW110328   5.843   2.070   0.242
 3143SOL    HW210329   5.705   2.092   0.156
 3144SOL     OW10330   4.148   3.595   6.568
 3144SOL    HW110331   4.242   3.629   6.572
 3144SOL    HW210332   4.144   3.515   6.508
 3145SOL     OW10333   2.467   6.368   2.079
 3145SOL    HW110334   2.493   6.378   1.983
 3145SOL    HW210335   2.437   6.456   2.115
 3146SOL     OW10336   0.652   0.896   5.288
 3146SOL    HW110337   0.629   0.892   5.385
 3146SOL    HW210338   0.749   0.873   5.276
 3147SOL     OW10339   3.716   5.358   6.269
 3147SOL    HW110340   3.624   5.322   6.257
 3147SOL    HW210341   3.781   5.283   6.280
 3148SOL     OW10342   0.556   6.998   2.776
 3148SOL    HW110343   0.649   0.009   2.779
 3148SOL    HW210344   0.493   0.043   2.810
 3149SOL     OW10345   3.231   1.091   6.995
 3149SOL    HW110346   3.222   1.047   6.906
 3149SOL    HW210347   3.176   1.174   6.997
 3150SOL     OW10348   6.693   5.530   5.452
 3150SOL    HW110349   6.627   5.604   5.435
 3150SOL    HW210350   6.698   5.513   5.551
 3151SOL     OW10351   0.081   1.771   6.138
 3151SOL    HW110352   7.022   1.730   6.104
 3151SOL    HW210353   0.105   1.731   6.226
 3152SOL     OW10354   1.580   4.245   6.498
 3152SOL    HW110355   1.604   4.292   6.583
 3152SOL    HW210356   1.512   4.174   6.518
 3153SOL     OW10357   6.427   4.989   0.417
 3153SOL    HW110358   6.356   5.059   0.415
 3153SOL    HW210359   6.457   4.974   0.511
 3154SOL     OW10360   5.734   1.185   1.699
 3154SOL    HW110361   5.785   1.264   1.735
 3154SOL    HW210362   5.639   1.212   1.683
 3155SOL     OW10363   6.535   4.563   0.785
 3155SOL    HW110364   6.585   4.530   0.866
 3155SOL    HW210365   6.452   4.611   0.815
 3156SOL     OW10366   3.593   4.173   2.368
 3156SOL    HW110367   3.686   4.138   2.358
 3156SOL    HW210368   3.543   4.159   2.283
 3157SOL     OW10369   0.930   2.242   5.241
 3157SOL    HW110370   0.954   2.148   5.263
 3157SOL    HW210371   0.842   2.264   5.284
 3158SOL     OW10372   2.830   2.156   5.732
 3158SOL    HW110373   2.774   2.077   5.708
 3158SOL    HW210374   2.782   2.240   5.705
 3159SOL     OW10375   5.095   6.924   0.928
 3159SOL    HW110376   5.180   6.904   0.880
 3159SOL    HW210377   5.018   6.889   0.876
 3160SOL     OW10378   1.694   6.985   5.474
 3160SOL    HW110379   1.736   6.933   5.400
 3160SOL    HW210380   1.676   6.926   5.552
 3161SOL     OW10381   1.945   2.787   2.349
 3161SOL    HW110382   2.018   2.849   2.378
 3161SOL    HW210383   1.856   2.828   2.370
 3162SOL     OW10384   2.577   5.377   6.841
 3162SOL    HW110385   2.488   5.345   6.807
 3162SOL    HW210386   2.616   5.309   6.902
 3163SOL     OW10387   4.390   3.367   0.194
 3163SOL    HW110388   4.440   3.431   0.252
 3163SOL    HW210389   4.378   3.281   0.243
 3164SOL     OW10390   3.168   5.905   2.512
 3164SOL    HW110391   3.160   5.806   2.522
 3164SOL    HW210392   3.187   5.928   2.417
 3165SOL     OW10393   1.197   5.063   0.518
 3165SOL    HW110394   1.122   5.032   0.577
 3165SOL    HW210395   1.235   4.984   0.469
 3166SOL     OW10396   3.973   1.406   4.660
 3166SOL    HW110397   3.920   1.429   4.579
 3166SOL    HW210398   4.066   1.383   4.633
 3167SOL     OW10399   5.650   4.629   0.387
 3167SOL    HW110400   5.615   4.640   0.294
 3167SOL    HW210401   5.646   4.717   0.434
 3168SOL     OW10402   5.181   2.461   1.526
 3168SOL    HW110403   5.225   2.536   1.477
 3168SOL    HW210404   5.222   2.374   1.498
 3169SOL     OW10405   1.702   4.751   2.449
 3169SOL    HW110406   1.746   4.685   2.389
 3169SOL    HW210407   1.758   4.765   2.531
 3170SOL     OW10408   3.913   6.132   2.451
 3170SOL    HW110409   3.963   6.163   2.532
 3170SOL    HW210410   3.819   6.166   2.455
 3171SOL     OW10411   5.363   2.440   2.109
 3171SOL    HW110412   5.276   2.490   2.113
 3171SOL    HW210413   5.345   2.342   2.108
 3172SOL     OW10414   0.324   5.305   7.018
 3172SOL    HW110415   0.247   5.264   6.969
 3172SOL    HW210416   0.371   5.234   0.045
 3173SOL     OW10417   2.534   2.499   6.668
 3173SOL    HW110418   2.583   2.582   6.694
 3173SOL    HW210419   2.445   2.496   6.713
 3174SOL     OW10420   2.381   2.702   5.924
 3174SOL    HW110421   2.379   2.715   5.825
 3174SOL    HW210422   2.287   2.696   5.959
 3175SOL     OW10423   5.931   1.274   2.926
 3175SOL    HW110424   5.979   1.199   2.880
 3175SOL    HW210425   5.869   1.318   2.862
 3176SOL     OW10426   0.147   3.561   5.304
 3176SOL    HW110427   0.110   3.527   5.218
 3176SOL    HW210428   0.229   3.509   5.328
 3177SOL     OW10429   5.533   4.201   3.751
 3177SOL    HW110430   5.616   4.250   3.777
 3177SOL    HW210431   5.552   4.103   3.744
 3178SOL     OW10432   5.837   1.950   6.859
 3178SOL    HW110433   5.859   1.885   6.932
 3178SOL    HW210434   5.738   1.951   6.843
 3179SOL     OW10435   1.605   1.741   2.169
 3179SOL    HW110436   1.521   1.744   2.222
 3179SOL    HW210437   1.627   1.645   2.147
 3180SOL     OW10438   5.968   6.467   6.980
 3180SOL    HW110439   6.055   6.429   7.013
 3180SOL    HW210440   5.957   6.560   7.016
 3181SOL     OW10441   0.238   1.406   4.093
 3181SOL    HW110442   0.197   1.488   4.053
 3181SOL    HW210443   0.317   1.377   4.037
 3182SOL     OW10444   3.068   0.469   6.946
 3182SOL    HW110445   3.137   0.441   7.013
 3182SOL    HW210446   3.064   0.402   6.872
 3183SOL     OW10447   4.601   4.755   2.407
 3183SOL    HW110448   4.507   4.724   2.420
 3183SOL    HW210449   4.648   4.694   2.343
 3184SOL     OW10450   0.580   2.078   3.346
 3184SOL    HW110451   0.583   2.151   3.277
 3184SOL    HW210452   0.535   2.113   3.428
 3185SOL     OW10453   6.259   6.758   5.574
 3185SOL    HW110454   6.247   6.661   5.595
 3185SOL    HW210455   6.315   6.801   5.646
 3186SOL     OW10456   1.816   0.900   0.289
 3186SOL    HW110457   1.828   0.982   0.232
 3186SOL    HW210458   1.870   0.825   0.250
 3187SOL     OW10459   3.195   5.304   2.190
 3187SOL    HW110460   3.168   5.266   2.278
 3187SOL    HW210461   3.257   5.381   2.204
 3188SOL     OW10462   1.974   5.354   4.647
 3188SOL    HW110463   1.889   5.301   4.636
 3188SOL    HW210464   2.048   5.294   4.676
 3189SOL     OW10465   1.887   1.109   0.121
 3189SOL    HW110466   1.823   1.130   0.048
 3189SOL    HW210467   1.880   1.178   0.193
 3190SOL     OW10468   6.268   5.120   5.872
 3190SOL    HW110469   6.271   5.026   5.837
 3190SOL    HW210470   6.361   5.154   5.886
 3191SOL     OW10471   4.335   5.719   2.078
 3191SOL    HW110472   4.397   5.683   2.148
 3191SOL    HW210473   4.346   5.818   2.072
 3192SOL     OW10474   6.918   2.774   1.189
 3192SOL    HW110475   6.932   2.708   1.114
 3192SOL    HW210476   6.926   2.726   1.276
 3193SOL     OW10477   4.075   1.146   4.942
 3193SOL    HW110478   4.143   1.196   4.889
 3193SOL    HW210479   4.008   1.106   4.880
 3194SOL     OW10480   0.663   1.365   5.534
 3194SOL    HW110481   0.685   1.364   5.436
 3194SOL    HW210482   0.587   1.427   5.551
 3195SOL     OW10483   0.870   1.174   2.290
 3195SOL    HW110484   0.808   1.097   2.275
 3195SOL    HW210485   0.817   1.257   2.306
 3196SOL     OW10486   0.016   0.878   6.489
 3196SOL    HW110487   0.020   0.805   6.421
 3196SOL    HW210488   6.946   0.908   6.501
 3197SOL     OW10489   2.464   6.604   5.644
 3197SOL    HW110490   2.463   6.696   5.683
 3197SOL    HW210491   2.533   6.600   5.571
 3198SOL     OW10492   6.394   2.594   3.840
 3198SOL    HW110493   6.317   2.549   3.794
 3198SOL    HW210494   6.395   2.569   3.937
 3199SOL     OW10495   5.644   4.897   3.285
 3199SOL    HW110496   5.592   4.978   3.258
 3199SOL    HW210497   5.719   4.882   3.220
 3200SOL     OW10498   6.245   3.516   3.336
 3200SOL    HW110499   6.283   3.431   3.372
 3200SOL    HW210500   6.309   3.591   3.351
 3201SOL     OW10501   5.803   5.065   3.458
 3201SOL    HW110502   5.756   4.989   3.412
 3201SOL    HW210503   5.898   5.068   3.428
 3202SOL     OW10504   1.189   5.233   0.890
 3202SOL    HW110505   1.124   5.290   0.940
 3202SOL    HW210506   1.271   5.219   0.946
 3203SOL     OW10507   5.007   0.772   1.440
 3203SOL    HW110508   5.010   0.842   1.368
 3203SOL    HW210509   5.091   0.777   1.494
 3204SOL     OW10510   2.867   1.529   3.134
 3204SOL    HW110511   2.966   1.545   3.139
 3204SOL    HW210512   2.843   1.447   3.185
 3205SOL     OW10513   4.937   2.653   5.856
 3205SOL    HW110514   4.938   2.554   5.842
 3205SOL    HW210515   4.845   2.688   5.840
 3206SOL     OW10516   2.828   3.576   1.426
 3206SOL    HW110517   2.923   3.545   1.427
 3206SOL    HW210518   2.781   3.539   1.346
 3207SOL     OW10519   1.623   0.951   6.135
 3207SOL    HW110520   1.624   1.018   6.209
 3207SOL    HW210521   1.548   0.886   6.148
 3208SOL     OW10522   6.160   5.665   5.989
 3208SOL    HW110523   6.158   5.740   6.056
 3208SOL    HW210524   6.089   5.681   5.920
 3209SOL     OW10525   3.507   5.490   5.029
 3209SOL    HW110526   3.532   5.484   5.126
 3209SOL    HW210527   3.486   5.398   4.995
 3210SOL     OW10528   0.772   5.221   1.595
 3210SOL    HW110529   0.681   5.182   1.582
 3210SOL    HW210530   0.783   5.301   1.536
 3211SOL     OW10531   1.509   5.182   0.625
 3211SOL    HW110532   1.478   5.094   0.662
 3211SOL    HW210533   1.441   5.252   0.645
 3212SOL     OW10534   3.101   6.880   2.365
 3212SOL    HW110535   3.109   6.880   2.265
 3212SOL    HW210536   3.185   6.917   2.405
 3213SOL     OW10537   1.664   0.241   6.430
 3213SOL    HW110538   1.606   0.159   6.438
 3213SOL    HW210539   1.744   0.220   6.374
 3214SOL     OW10540   4.503   6.935   3.123
 3214SOL    HW110541   4.446   6.936   3.041
 3214SOL    HW210542   4.591   6.976   3.103
 3215SOL     OW10543   1.042   3.713   0.319
 3215SOL    HW110544   0.999   3.639   0.369
 3215SOL    HW210545   1.002   3.800   0.347
 3216SOL     OW10546   5.641   4.935   1.227
 3216SOL    HW110547   5.666   4.852   1.278
 3216SOL    HW210548   5.717   4.964   1.170
 3217SOL     OW10549   0.228   5.361   2.316
 3217SOL    HW110550   0.281   5.317   2.388
 3217SOL    HW210551   0.288   5.378   2.237
 3218SOL     OW10552   5.924   2.440   3.700
 3218SOL    HW110553   5.832   2.475   3.718
 3218SOL    HW210554   5.950   2.376   3.772
 3219SOL     OW10555   6.899   0.974   4.844
 3219SOL    HW110556   6.932   0.951   4.752
 3219SOL    HW210557   6.968   0.948   4.912
 3220SOL     OW10558   0.761   5.846   6.997
 3220SOL    HW110559   0.755   5.755   6.958
 3220SOL    HW210560   0.747   5.841   0.071
 3221SOL     OW10561   3.319   0.269   2.256
 3221SOL    HW110562   3.400   0.233   2.304
 3221SOL    HW210563   3.237   0.229   2.296
 3222SOL     OW10564   2.972   1.187   2.314
 3222SOL    HW110565   2.944   1.115   2.251
 3222SOL    HW210566   3.063   1.219   2.289
 3223SOL     OW10567   2.561   6.340   0.111
 3223SOL    HW110568   2.635   6.278   0.136
 3223SOL    HW210569   2.505   6.359   0.191
 3224SOL     OW10570   5.181   2.263   5.168
 3224SOL    HW110571   5.229   2.349   5.155
 3224SOL    HW210572   5.147   2.258   5.262
 3225SOL     OW10573   4.290   1.519   5.123
 3225SOL    HW110574   4.373   1.468   5.143
 3225SOL    HW210575   4.240   1.474   5.049
 3226SOL     OW10576   1.752   0.278   1.324
 3226SOL    HW110577   1.660   0.276   1.286
 3226SOL    HW210578   1.817   0.305   1.253
 3227SOL     OW10579   3.534   2.688   6.700
 3227SOL    HW110580   3.564   2.663   6.607
 3227SOL    HW210581   3.531   2.787   6.708
 3228SOL     OW10582   6.882   3.967   6.994
 3228SOL    HW110583   6.829   3.883   7.006
 3228SOL    HW210584   6.968   3.946   6.948
 3229SOL     OW10585   3.406   0.421   5.517
 3229SOL    HW110586   3.399   0.335   5.467
 3229SOL    HW210587   3.440   0.403   5.610
 3230SOL     OW10588   1.617   5.486   5.797
 3230SOL    HW110589   1.690   5.483   5.865
 3230SOL    HW210590   1.650   5.534   5.715
 3231SOL     OW10591   2.666   0.957   2.745
 3231SOL    HW110592   2.600   0.936   2.817
 3231SOL    HW210593   2.633   1.034   2.691
 3232SOL     OW10594   4.013   5.699   3.966
 3232SOL    HW110595   3.925   5.678   4.008
 3232SOL    HW210596   4.030   5.634   3.891
 3233SOL     OW10597   6.734   2.976   0.636
 3233SOL    HW110598   6.694   3.030   0.710
 3233SOL    HW210599   6.661   2.939   0.579
 3234SOL     OW10600   1.803   2.751   0.280
 3234SOL    HW110601   1.726   2.711   0.331
 3234SOL    HW210602   1.873   2.781   0.345
 3235SOL     OW10603   6.334   6.070   1.801
 3235SOL    HW110604   6.238   6.091   1.818
 3235SOL    HW210605   6.381   6.057   1.889
 3236SOL     OW10606   1.400   4.376   0.712
 3236SOL    HW110607   1.424   4.280   0.697
 3236SOL    HW210608   1.323   4.401   0.654
 3237SOL     OW10609   6.361   2.108   3.529
 3237SOL    HW110610   6.311   2.148   3.606
 3237SOL    HW210611   6.444   2.160   3.513
 3238SOL     OW10612   6.061   5.173   6.727
 3238SOL    HW110613   5.968   5.206   6.741
 3238SOL    HW210614   6.074   5.147   6.632
 3239SOL     OW10615   6.836   0.423   3.236
 3239SOL    HW110616   6.923   0.374   3.234
 3239SOL    HW210617   6.837   0.494   3.166
 3240SOL     OW10618   0.153   0.505   5.931
 3240SOL    HW110619   0.135   0.514   5.833
 3240SOL    HW210620   0.119   0.586   5.979
 3241SOL     OW10621   4.923   1.337   6.183
 3241SOL    HW110622   4.834   1.322   6.140
 3241SOL    HW210623   4.955   1.252   6.225
 3242SOL     OW10624   5.162   3.756   5.798
 3242SOL    HW110625   5.097   3.680   5.804
 3242SOL    HW210626   5.164   3.805   5.886
 3243SOL     OW10627   4.773   5.353   0.243
 3243SOL    HW110628   4.796   5.424   0.309
 3243SOL    HW210629   4.747   5.395   0.156
 3244SOL     OW10630   6.167   5.987   6.746
 3244SOL    HW110631   6.171   6.072   6.799
 3244SOL    HW210632   6.112   6.002   6.664
 3245SOL     OW10633   4.654   2.367   4.137
 3245SOL    HW110634   4.754   2.373   4.136
 3245SOL    HW210635   4.618   2.420   4.213
 3246SOL     OW10636   6.512   0.232   3.093
 3246SOL    HW110637   6.457   0.225   3.010
 3246SOL    HW210638   6.609   0.227   3.069
 3247SOL     OW10639   6.742   5.071   2.143
 3247SOL    HW110640   6.709   5.067   2.238
 3247SOL    HW210641   6.804   5.148   2.132
 3248SOL     OW10642   5.764   2.278   2.363
 3248SOL    HW110643   5.806   2.191   2.392
 3248SOL    HW210644   5.666   2.275   2.381
 3249SOL     OW10645   3.730   3.770   3.967
 3249SOL    HW110646   3.634   3.752   3.948
 3249SOL    HW210647   3.770   3.690   4.012
 3250SOL     OW10648   5.093   6.922   3.255
 3250SOL    HW110649   5.176   6.876   3.224
 3250SOL    HW210650   5.016   6.857   3.253
 3251SOL     OW10651   2.661   0.982   4.629
 3251SOL    HW110652   2.654   0.997   4.728
 3251SOL    HW210653   2.756   0.994   4.600
 3252SOL     OW10654   3.065   0.593   2.900
 3252SOL    HW110655   3.146   0.533   2.902
 3252SOL    HW210656   2.983   0.537   2.888
 3253SOL     OW10657   4.388   3.495   0.910
 3253SOL    HW110658   4.427   3.579   0.873
 3253SOL    HW210659   4.365   3.433   0.834
 3254SOL     OW10660   5.491   6.955   5.957
 3254SOL    HW110661   5.524   6.898   6.032
 3254SOL    HW210662   5.545   0.013   5.951
 3255SOL     OW10663   5.560   6.315   1.189
 3255SOL    HW110664   5.616   6.398   1.201
 3255SOL    HW210665   5.464   6.342   1.177
 3256SOL     OW10666   3.971   1.687   1.753
 3256SOL    HW110667   3.903   1.703   1.681
 3256SOL    HW210668   3.925   1.683   1.842
 3257SOL     OW10669   2.802   1.831   1.775
 3257SOL    HW110670   2.763   1.917   1.743
 3257SOL    HW210671   2.878   1.805   1.716
 3258SOL     OW10672   3.688   4.903   3.401
 3258SOL    HW110673   3.597   4.884   3.437
 3258SOL    HW210674   3.710   5.000   3.413
 3259SOL     OW10675   4.823   5.227   4.176
 3259SOL    HW110676   4.851   5.277   4.258
 3259SOL    HW210677   4.855   5.133   4.182
 3260SOL     OW10678   1.572   3.594   2.255
 3260SOL    HW110679   1.570   3.552   2.345
 3260SOL    HW210680   1.643   3.551   2.199
 3261SOL     OW10681   4.678   0.635   2.204
 3261SOL    HW110682   4.642   0.564   2.143
 3261SOL    HW210683   4.638   0.625   2.295
 3262SOL     OW10684   3.955   2.190   2.122
 3262SOL    HW110685   3.961   2.272   2.178
 3262SOL    HW210686   3.862   2.180   2.086
 3263SOL     OW10687   3.404   1.001   3.387
 3263SOL    HW110688   3.395   1.100   3.373
 3263SOL    HW210689   3.484   0.983   3.444
 3264SOL     OW10690   2.057   5.255   0.991
 3264SOL    HW110691   2.087   5.306   1.071
 3264SOL    HW210692   2.106   5.168   0.986
 3265SOL     OW10693   5.941   6.158   6.267
 3265SOL    HW110694   6.032   6.192   6.294
 3265SOL    HW210695   5.939   6.143   6.168
 3266SOL     OW10696   2.710   4.146   6.953
 3266SOL    HW110697   2.776   4.105   6.890
 3266SOL    HW210698   2.621   4.101   6.941
 3267SOL     OW10699   2.941   0.140   1.828
 3267SOL    HW110700   2.932   0.233   1.792
 3267SOL    HW210701   3.027   0.101   1.797
 3268SOL     OW10702   1.319   4.720   0.989
 3268SOL    HW110703   1.308   4.773   1.073
 3268SOL    HW210704   1.403   4.666   0.994
 3269SOL     OW10705   0.135   5.353   1.609
 3269SOL    HW110706   0.076   5.328   1.686
 3269SOL    HW210707   0.225   5.379   1.644
 3270SOL     OW10708   1.883   3.073   6.463
 3270SOL    HW110709   1.962   3.044   6.517
 3270SOL    HW210710   1.913   3.104   6.373
 3271SOL     OW10711   6.699   3.420   1.591
 3271SOL    HW110712   6.618   3.399   1.535
 3271SOL    HW210713   6.782   3.404   1.537
 3272SOL     OW10714   3.159   4.506   6.820
 3272SOL    HW110715   3.211   4.447   6.882
 3272SOL    HW210716   3.174   4.476   6.726
 3273SOL     OW10717   5.611   5.081   6.266
 3273SOL    HW110718   5.580   4.989   6.240
 3273SOL    HW210719   5.709   5.090   6.245
 3274SOL     OW10720   6.188   0.423   1.003
 3274SOL    HW110721   6.204   0.325   1.016
 3274SOL    HW210722   6.185   0.444   0.905
 3275SOL     OW10723   4.693   1.117   0.570
 3275SOL    HW110724   4.616   1.151   0.624
 3275SOL    HW210725   4.660   1.064   0.493
 3276SOL     OW10726   4.909   6.203   6.871
 3276SOL    HW110727   4.837   6.254   6.824
 3276SOL    HW210728   4.932   6.249   6.956
 3277SOL     OW10729   3.660   1.210   0.899
 3277SOL    HW110730   3.731   1.232   0.966
 3277SOL    HW210731   3.663   1.276   0.824
 3278SOL     OW10732   0.668   0.485   5.919
 3278SOL    HW110733   0.712   0.413   5.865
 3278SOL    HW210734   0.570   0.468   5.924
 3279SOL     OW10735   4.987   6.975   1.255
 3279SOL    HW110736   5.081   7.004   1.273
 3279SOL    HW210737   4.936   6.970   1.342
 3280SOL     OW10738   4.700   4.528   4.307
 3280SOL    HW110739   4.692   4.585   4.388
 3280SOL    HW210740   4.664   4.437   4.327
 3281SOL     OW10741   0.438   4.547   1.474
 3281SOL    HW110742   0.400   4.575   1.386
 3281SOL    HW210743   0.471   4.453   1.468
 3282SOL     OW10744   6.855   4.385   5.142
 3282SOL    HW110745   6.842   4.473   5.187
 3282SOL    HW210746   6.781   4.323   5.168
 3283SOL     OW10747   3.570   1.073   1.386
 3283SOL    HW110748   3.556   1.141   1.314
 3283SOL    HW210749   3.484   1.023   1.402
 3284SOL     OW10750   1.355   5.822   5.233
 3284SOL    HW110751   1.304   5.897   5.190
 3284SOL    HW210752   1.312   5.735   5.209
 3285SOL     OW10753   5.936   1.668   4.613
 3285SOL    HW110754   5.960   1.764   4.630
 3285SOL    HW210755   5.879   1.661   4.532
 3286SOL     OW10756   3.307   2.578   1.716
 3286SOL    HW110757   3.359   2.663   1.715
 3286SOL    HW210758   3.209   2.599   1.719
 3287SOL     OW10759   0.880   0.822   0.436
 3287SOL    HW110760   0.929   0.743   0.473
 3287SOL    HW210761   0.821   0.792   0.361
 3288SOL     OW10762   2.027   6.883   0.386
 3288SOL    HW110763   1.968   6.942   0.441
 3288SOL    HW210764   2.123   6.898   0.412
 3289SOL     OW10765   2.786   1.982   6.536
 3289SOL    HW110766   2.874   1.935   6.534
 3289SOL    HW210767   2.712   1.915   6.535
 3290SOL     OW10768   0.121   5.373   0.890
 3290SOL    HW110769   0.195   5.360   0.956
 3290SOL    HW210770   0.161   5.389   0.799
 3291SOL     OW10771   2.857   0.758   6.056
 3291SOL    HW110772   2.868   0.814   5.973
 3291SOL    HW210773   2.781   0.795   6.110
 3292SOL     OW10774   0.097   1.183   0.935
 3292SOL    HW110775   0.151   1.213   1.014
 3292SOL    HW210776   0.044   1.260   0.900
 3293SOL     OW10777   6.820   4.932   1.600
 3293SOL    HW110778   6.808   4.977   1.512
 3293SOL    HW210779   6.856   4.840   1.586
 3294SOL     OW10780   4.799   1.923   5.870
 3294SOL    HW110781   4.807   1.835   5.918
 3294SOL    HW210782   4.749   1.988   5.927
 3295SOL     OW10783   1.255   3.502   1.445
 3295SOL    HW110784   1.192   3.550   1.385
 3295SOL    HW210785   1.322   3.452   1.390
 3296SOL     OW10786   0.233   0.640   4.315
 3296SOL    HW110787   0.174   0.614   4.391
 3296SOL    HW210788   0.180   0.637   4.230
 3297SOL     OW10789   3.211   1.846   5.126
 3297SOL    HW110790   3.296   1.825   5.175
 3297SOL    HW210791   3.172   1.931   5.161
 3298SOL     OW10792   6.479   2.507   5.624
 3298SOL    HW110793   6.447   2.594   5.587
 3298SOL    HW210794   6.575   2.493   5.598
 3299SOL     OW10795   3.897   6.112   2.836
 3299SOL    HW110796   3.901   6.123   2.935
 3299SOL    HW210797   3.803   6.087   2.809
 3300SOL     OW10798   1.541   0.359   6.111
 3300SOL    HW110799   1.585   0.385   6.025
 3300SOL    HW210800   1.573   0.418   6.184
 3301SOL     OW10801   1.545   3.879   3.312
 3301SOL    HW110802   1.643   3.862   3.320
 3301SOL    HW210803   1.497   3.835   3.387
 3302SOL     OW10804   1.190   4.745   6.299
 3302SOL    HW110805   1.199   4.835   6.342
 3302SOL    HW210806   1.136   4.685   6.358
 3303SOL     OW10807   3.052   3.237   0.471
 3303SOL    HW110808   3.103   3.323   0.468
 3303SOL    HW210809   3.039   3.209   0.566
 3304SOL     OW10810   2.369   5.489   6.139
 3304SOL    HW110811   2.450   5.503   6.082
 3304SOL    HW210812   2.293   5.458   6.082
 3305SOL     OW10813   3.023   0.847   1.890
 3305SOL    HW110814   3.076   0.917   1.939
 3305SOL    HW210815   3.081   0.804   1.822
 3306SOL     OW10816   1.353   6.036   5.441
 3306SOL    HW110817   1.442   6.080   5.444
 3306SOL    HW210818   1.363   5.938   5.456
 3307SOL     OW10819   0.737   0.172   5.433
 3307SOL    HW110820   0.750   0.151   5.530
 3307SOL    HW210821   0.770   0.096   5.378
 3308SOL     OW10822   3.363   5.467   1.054
 3308SOL    HW110823   3.430   5.396   1.033
 3308SOL    HW210824   3.340   5.517   0.970
 3309SOL     OW10825   6.276   4.650   3.908
 3309SOL    HW110826   6.323   4.659   3.820
 3309SOL    HW210827   6.342   4.657   3.982
 3310SOL     OW10828   0.504   4.128   4.778
 3310SOL    HW110829   0.453   4.200   4.826
 3310SOL    HW210830   0.552   4.071   4.844
 3311SOL     OW10831   3.020   3.437   0.833
 3311SOL    HW110832   3.059   3.481   0.753
 3311SOL    HW210833   2.948   3.494   0.872
 3312SOL     OW10834   3.935   2.767   5.606
 3312SOL    HW110835   3.945   2.683   5.553
 3312SOL    HW210836   4.009   2.773   5.674
 3313SOL     OW10837   0.838   0.249   3.336
 3313SOL    HW110838   0.878   0.166   3.375
 3313SOL    HW210839   0.815   0.232   3.240
 3314SOL     OW10840   3.326   0.946   2.303
 3314SOL    HW110841   3.289   0.979   2.389
 3314SOL    HW210842   3.372   1.021   2.255
 3315SOL     OW10843   0.752   4.457   5.181
 3315SOL    HW110844   0.728   4.428   5.088
 3315SOL    HW210845   0.742   4.380   5.243
 3316SOL     OW10846   3.964   0.787   5.089
 3316SOL    HW110847   4.051   0.767   5.135
 3316SOL    HW210848   3.929   0.875   5.121
 3317SOL     OW10849   5.332   1.734   2.411
 3317SOL    HW110850   5.338   1.637   2.388
 3317SOL    HW210851   5.253   1.749   2.471
 3318SOL     OW10852   1.588   0.978   6.799
 3318SOL    HW110853   1.523   0.977   6.723
 3318SOL    HW210854   1.680   0.960   6.764
 3319SOL     OW10855   6.194   0.481   3.420
 3319SOL    HW110856   6.231   0.546   3.355
 3319SOL    HW210857   6.191   0.390   3.379
 3320SOL     OW10858   6.550   0.506   0.116
 3320SOL    HW110859   6.476   0.486   0.051
 3320SOL    HW210860   6.635   0.465   0.083
 3321SOL     OW10861   5.939   1.629   0.798
 3321SOL    HW110862   6.008   1.573   0.844
 3321SOL    HW210863   5.854   1.577   0.790
 3322SOL     OW10864   7.016   2.992   1.048
 3322SOL    HW110865   6.986   3.070   1.103
 3322SOL    HW210866   6.982   2.907   1.090
 3323SOL     OW10867   2.494   1.785   0.960
 3323SOL    HW110868   2.526   1.874   0.995
 3323SOL    HW210869   2.452   1.798   0.871
 3324SOL     OW10870   4.702   5.328   5.280
 3324SOL    HW110871   4.704   5.377   5.193
 3324SOL    HW210872   4.692   5.394   5.355
 3325SOL     OW10873   0.350   2.940   6.600
 3325SOL    HW110874   0.444   2.919   6.572
 3325SOL    HW210875   0.326   3.032   6.569
 3326SOL     OW10876   4.824   1.374   1.528
 3326SOL    HW110877   4.829   1.275   1.529
 3326SOL    HW210878   4.807   1.406   1.434
 3327SOL     OW10879   2.222   5.154   1.474
 3327SOL    HW110880   2.228   5.126   1.570
 3327SOL    HW210881   2.196   5.250   1.468
 3328SOL     OW10882   3.700   1.980   1.241
 3328SOL    HW110883   3.669   2.070   1.271
 3328SOL    HW210884   3.785   1.956   1.288
 3329SOL     OW10885   6.314   0.303   5.672
 3329SOL    HW110886   6.366   0.318   5.588
 3329SOL    HW210887   6.261   0.219   5.664
 3330SOL     OW10888   6.100   3.599   1.790
 3330SOL    HW110889   6.051   3.606   1.877
 3330SOL    HW210890   6.187   3.552   1.805
 3331SOL     OW10891   2.370   2.790   1.282
 3331SOL    HW110892   2.466   2.778   1.308
 3331SOL    HW210893   2.336   2.877   1.318
 3332SOL     OW10894   6.084   5.453   0.249
 3332SOL    HW110895   6.086   5.357   0.220
 3332SOL    HW210896   6.010   5.500   0.202
 3333SOL     OW10897   4.357   5.508   6.589
 3333SOL    HW110898   4.341   5.474   6.496
 3333SOL    HW210899   4.279   5.564   6.617
 3334SOL     OW10900   3.480   3.512   1.493
 3334SOL    HW110901   3.575   3.542   1.501
 3334SOL    HW210902   3.474   3.414   1.514
 3335SOL     OW10903   4.599   5.521   5.457
 3335SOL    HW110904   4.500   5.525   5.472
 3335SOL    HW210905   4.639   5.611   5.476
 3336SOL     OW10906   3.209   5.306   5.151
 3336SOL    HW110907   3.211   5.254   5.236
 3336SOL    HW210908   3.115   5.331   5.129
 3337SOL     OW10909   3.067   2.570   1.401
 3337SOL    HW110910   3.062   2.548   1.499
 3337SOL    HW210911   3.033   2.494   1.347
 3338SOL     OW10912   6.318   3.452   1.494
 3338SOL    HW110913   6.220   3.451   1.478
 3338SOL    HW210914   6.359   3.533   1.451
 3339SOL     OW10915   0.075   6.716   6.920
 3339SOL    HW110916   0.098   6.691   6.825
 3339SOL    HW210917   0.050   6.633   6.971
 3340SOL     OW10918   3.537   0.287   1.640
 3340SOL    HW110919   3.598   0.281   1.560
 3340SOL    HW210920   3.587   0.262   1.722
 3341SOL     OW10921   1.601   7.000   4.122
 3341SOL    HW110922   1.604   0.046   4.193
 3341SOL    HW210923   1.512   7.003   4.076
 3342SOL     OW10924   2.138   6.467   3.947
 3342SOL    HW110925   2.098   6.553   3.979
 3342SOL    HW210926   2.186   6.484   3.861
 3343SOL     OW10927   4.837   2.808   0.588
 3343SOL    HW110928   4.840   2.784   0.491
 3343SOL    HW210929   4.825   2.907   0.597
 3344SOL     OW10930   5.527   4.262   5.038
 3344SOL    HW110931   5.599   4.195   5.060
 3344SOL    HW210932   5.509   4.260   4.940
 3345SOL     OW10933   2.562   3.743   6.106
 3345SOL    HW110934   2.465   3.760   6.121
 3345SOL    HW210935   2.579   3.728   6.009
 3346SOL     OW10936   1.507   0.944   1.570
 3346SOL    HW110937   1.586   0.967   1.626
 3346SOL    HW210938   1.536   0.928   1.476
 3347SOL     OW10939   0.894   5.238   3.576
 3347SOL    HW110940   0.834   5.190   3.512
 3347SOL    HW210941   0.847   5.250   3.663
 3348SOL     OW10942   2.913   3.265   3.424
 3348SOL    HW110943   2.977   3.260   3.500
 3348SOL    HW210944   2.901   3.361   3.397
 3349SOL     OW10945   0.575   4.435   4.901
 3349SOL    HW110946   0.599   4.497   4.826
 3349SOL    HW210947   0.498   4.378   4.874
 3350SOL     OW10948   1.340   1.952   6.798
 3350SOL    HW110949   1.315   2.037   6.750
 3350SOL    HW210950   1.353   1.879   6.731
 3351SOL     OW10951   5.210   0.214   2.197
 3351SOL    HW110952   5.196   0.312   2.212
 3351SOL    HW210953   5.121   0.169   2.187
 3352SOL     OW10954   6.882   3.666   0.360
 3352SOL    HW110955   6.867   3.735   0.431
 3352SOL    HW210956   6.900   3.712   0.273
 3353SOL     OW10957   1.187   6.698   1.736
 3353SOL    HW110958   1.161   6.791   1.763
 3353SOL    HW210959   1.104   6.641   1.731
 3354SOL     OW10960   6.268   2.851   4.141
 3354SOL    HW110961   6.340   2.814   4.081
 3354SOL    HW210962   6.306   2.864   4.233
 3355SOL     OW10963   0.923   1.430   0.118
 3355SOL    HW110964   0.914   1.332   0.137
 3355SOL    HW210965   0.979   1.472   0.190
 3356SOL     OW10966   2.177   2.777   0.276
 3356SOL    HW110967   2.212   2.864   0.312
 3356SOL    HW210968   2.172   2.783   0.176
 3357SOL     OW10969   2.227   4.677   1.740
 3357SOL    HW110970   2.302   4.740   1.760
 3357SOL    HW210971   2.263   4.586   1.723
 3358SOL     OW10972   4.607   6.200   1.581
 3358SOL    HW110973   4.522   6.161   1.617
 3358SOL    HW210974   4.610   6.187   1.482
 3359SOL     OW10975   6.858   0.538   3.864
 3359SOL    HW110976   6.833   0.500   3.953
 3359SOL    HW210977   6.792   0.508   3.795
 3360SOL     OW10978   0.261   1.369   1.070
 3360SOL    HW110979   0.259   1.467   1.053
 3360SOL    HW210980   0.277   1.351   1.167
 3361SOL     OW10981   7.023   4.741   2.472
 3361SOL    HW110982   0.037   4.819   2.423
 3361SOL    HW210983   6.927   4.758   2.493
 3362SOL     OW10984   3.636   1.219   4.443
 3362SOL    HW110985   3.659   1.133   4.489
 3362SOL    HW210986   3.702   1.236   4.370
 3363SOL     OW10987   0.385   0.546   6.281
 3363SOL    HW110988   0.442   0.603   6.339
 3363SOL    HW210989   0.320   0.603   6.231
 3364SOL     OW10990   1.344   5.159   5.206
 3364SOL    HW110991   1.400   5.113   5.137
 3364SOL    HW210992   1.390   5.244   5.234
 3365SOL     OW10993   0.500   2.811   5.124
 3365SOL    HW110994   0.453   2.844   5.043
 3365SOL    HW210995   0.571   2.876   5.151
 3366SOL     OW10996   6.280   0.827   5.074
 3366SOL    HW110997   6.229   0.886   5.012
 3366SOL    HW210998   6.277   0.733   5.040
 3367SOL     OW10999   2.019   2.853   1.808
 3367SOL    HW111000   1.977   2.899   1.729
 3367SOL    HW211001   2.090   2.912   1.847
 3368SOL     OW11002   0.651   6.046   6.876
 3368SOL    HW111003   0.698   5.972   6.924
 3368SOL    HW211004   0.605   6.009   6.795
 3369SOL     OW11005   3.230   2.163   6.106
 3369SOL    HW111006   3.137   2.154   6.070
 3369SOL    HW211007   3.255   2.260   6.108
 3370SOL     OW11008   6.677   6.538   5.124
 3370SOL    HW111009   6.698   6.443   5.099
 3370SOL    HW211010   6.603   6.571   5.066
 3371SOL     OW11011   0.688   4.179   2.590
 3371SOL    HW111012   0.733   4.264   2.617
 3371SOL    HW211013   0.741   4.135   2.517
 3372SOL     OW11014   1.250   1.610   2.595
 3372SOL    HW111015   1.312   1.535   2.619
 3372SOL    HW211016   1.247   1.676   2.670
 3373SOL     OW11017   6.852   1.544   4.054
 3373SOL    HW111018   6.800   1.591   3.983
 3373SOL    HW211019   6.838   1.445   4.047
 3374SOL     OW11020   3.045   5.531   4.403
 3374SOL    HW111021   3.129   5.477   4.409
 3374SOL    HW211022   3.028   5.575   4.492
 3375SOL     OW11023   3.954   4.915   4.613
 3375SOL    HW111024   4.044   4.916   4.568
 3375SOL    HW211025   3.964   4.949   4.707
 3376SOL     OW11026   4.118   3.583   2.838
 3376SOL    HW111027   4.113   3.599   2.936
 3376SOL    HW211028   4.044   3.522   2.810
 3377SOL     OW11029   0.390   6.760   4.228
 3377SOL    HW111030   0.444   6.835   4.190
 3377SOL    HW211031   0.400   6.759   4.328
 3378SOL     OW11032   6.741   0.509   1.695
 3378SOL    HW111033   6.739   0.522   1.596
 3378SOL    HW211034   6.827   0.542   1.731
 3379SOL     OW11035   6.834   4.737   6.034
 3379SOL    HW111036   6.788   4.763   6.119
 3379SOL    HW211037   6.858   4.820   5.983
 3380SOL     OW11038   6.405   5.677   5.729
 3380SOL    HW111039   6.345   5.623   5.670
 3380SOL    HW211040   6.353   5.712   5.807
 3381SOL     OW11041   1.878   2.011   0.082
 3381SOL    HW111042   1.949   1.957   0.127
 3381SOL    HW211043   1.789   1.992   0.124
 3382SOL     OW11044   0.645   1.342   0.974
 3382SOL    HW111045   0.703   1.299   0.905
 3382SOL    HW211046   0.555   1.363   0.934
 3383SOL     OW11047   5.432   4.911   2.006
 3383SOL    HW111048   5.391   4.827   1.970
 3383SOL    HW211049   5.522   4.924   1.964
 3384SOL     OW11050   2.894   3.652   5.160
 3384SOL    HW111051   2.818   3.617   5.215
 3384SOL    HW211052   2.902   3.598   5.076
 3385SOL     OW11053   0.425   3.931   3.817
 3385SOL    HW111054   0.490   3.910   3.890
 3385SOL    HW211055   0.392   4.024   3.827
 3386SOL     OW11056   6.300   2.998   5.472
 3386SOL    HW111057   6.243   2.942   5.532
 3386SOL    HW211058   6.365   3.051   5.527
 3387SOL     OW11059   2.418   0.729   2.722
 3387SOL    HW111060   2.477   0.779   2.785
 3387SOL    HW211061   2.448   0.746   2.628
 3388SOL     OW11062   5.713   3.738   1.206
 3388SOL    HW111063   5.752   3.738   1.114
 3388SOL    HW211064   5.784   3.716   1.273
 3389SOL     OW11065   4.226   5.271   4.529
 3389SOL    HW111066   4.217   5.328   4.447
 3389SOL    HW211067   4.321   5.238   4.537
 3390SOL     OW11068   5.065   4.043   5.506
 3390SOL    HW111069   5.128   3.967   5.520
 3390SOL    HW211070   5.102   4.105   5.438
 3391SOL     OW11071   5.613   2.377   4.777
 3391SOL    HW111072   5.592   2.460   4.725
 3391SOL    HW211073   5.673   2.318   4.724
 3392SOL     OW11074   2.800   1.064   3.605
 3392SOL    HW111075   2.723   1.030   3.550
 3392SOL    HW211076   2.877   1.001   3.596
 3393SOL     OW11077   6.973   6.542   0.675
 3393SOL    HW111078   6.953   6.603   0.752
 3393SOL    HW211079   6.887   6.518   0.629
 3394SOL     OW11080   5.837   3.539   1.358
 3394SOL    HW111081   5.927   3.528   1.399
 3394SOL    HW211082   5.808   3.453   1.316
 3395SOL     OW11083   6.937   3.548   4.042
 3395SOL    HW111084   7.008   3.542   3.972
 3395SOL    HW211085   6.916   3.644   4.060
 3396SOL     OW11086   0.402   2.867   3.602
 3396SOL    HW111087   0.473   2.830   3.543
 3396SOL    HW211088   0.342   2.793   3.633
 3397SOL     OW11089   2.866   1.092   5.545
 3397SOL    HW111090   2.920   1.042   5.477
 3397SOL    HW211091   2.920   1.168   5.580
 3398SOL     OW11092   1.283   6.801   4.374
 3398SOL    HW111093   1.350   6.869   4.404
 3398SOL    HW211094   1.260   6.817   4.278
 3399SOL     OW11095   4.973   4.326   4.129
 3399SOL    HW111096   4.988   4.394   4.201
 3399SOL    HW211097   4.927   4.368   4.051
 3400SOL     OW11098   4.217   1.225   5.287
 3400SOL    HW111099   4.209   1.206   5.189
 3400SOL    HW211100   4.126   1.232   5.327
 3401SOL     OW11101   6.808   3.749   0.618
 3401SOL    HW111102   6.908   3.749   0.626
 3401SOL    HW211103   6.771   3.670   0.668
 3402SOL     OW11104   4.869   5.726   0.768
 3402SOL    HW111105   4.772   5.721   0.743
 3402SOL    HW211106   4.925   5.699   0.690
 3403SOL     OW11107   3.580   0.740   4.356
 3403SOL    HW111108   3.671   0.700   4.342
 3403SOL    HW211109   3.560   0.745   4.453
 3404SOL     OW11110   3.740   1.587   0.535
 3404SOL    HW111111   3.824   1.593   0.590
 3404SOL    HW211112   3.683   1.667   0.552
 3405SOL     OW11113   6.451   3.479   4.364
 3405SOL    HW111114   6.542   3.520   4.371
 3405SOL    HW211115   6.422   3.449   4.455
 3406SOL     OW11116   1.491   4.013   1.815
 3406SOL    HW111117   1.520   3.991   1.722
 3406SOL    HW211118   1.558   4.075   1.857
 3407SOL     OW11119   1.652   5.371   0.443
 3407SOL    HW111120   1.697   5.319   0.370
 3407SOL    HW211121   1.640   5.312   0.523
 3408SOL     OW11122   4.871   4.350   4.894
 3408SOL    HW111123   4.772   4.366   4.894
 3408SOL    HW211124   4.919   4.437   4.900
 3409SOL     OW11125   3.384   6.315   5.797
 3409SOL    HW111126   3.340   6.274   5.877
 3409SOL    HW211127   3.476   6.347   5.823
 3410SOL     OW11128   5.901   5.922   0.130
 3410SOL    HW111129   5.878   5.894   0.223
 3410SOL    HW211130   5.817   5.934   0.077
 3411SOL     OW11131   0.064   2.731   1.877
 3411SOL    HW111132   7.016   2.798   1.893
 3411SOL    HW211133   0.081   2.723   1.779
 3412SOL     OW11134   4.486   2.477   0.004
 3412SOL    HW111135   4.427   2.548   6.992
 3412SOL    HW211136   4.438   2.389   0.002
 3413SOL     OW11137   4.884   0.925   2.664
 3413SOL    HW111138   4.912   0.900   2.572
 3413SOL    HW211139   4.905   1.022   2.680
 3414SOL     OW11140   2.109   1.252   5.409
 3414SOL    HW111141   2.187   1.310   5.432
 3414SOL    HW211142   2.137   1.184   5.340
 3415SOL     OW11143   2.263   4.132   4.375
 3415SOL    HW111144   2.243   4.035   4.373
 3415SOL    HW211145   2.309   4.158   4.290
 3416SOL     OW11146   6.434   4.896   6.613
 3416SOL    HW111147   6.351   4.865   6.567
 3416SOL    HW211148   6.486   4.955   6.552
 3417SOL     OW11149   6.344   5.731   3.262
 3417SOL    HW111150   6.436   5.709   3.294
 3417SOL    HW211151   6.291   5.769   3.338
 3418SOL     OW11152   4.079   0.030   5.068
 3418SOL    HW111153   3.993   0.015   5.019
 3418SOL    HW211154   4.100   0.127   5.070
 3419SOL     OW11155   3.018   5.513   5.850
 3419SOL    HW111156   3.067   5.589   5.806
 3419SOL    HW211157   2.948   5.550   5.911
 3420SOL     OW11158   5.226   2.318   3.407
 3420SOL    HW111159   5.172   2.247   3.362
 3420SOL    HW211160   5.278   2.278   3.482
 3421SOL     OW11161   6.632   0.307   6.459
 3421SOL    HW111162   6.703   0.343   6.398
 3421SOL    HW211163   6.671   0.233   6.515
 3422SOL     OW11164   2.346   6.544   1.280
 3422SOL    HW111165   2.246   6.544   1.284
 3422SOL    HW211166   2.380   6.638   1.292
 3423SOL     OW11167   2.423   6.933   0.765
 3423SOL    HW111168   2.516   6.961   0.787
 3423SOL    HW211169   2.359   6.977   0.828
 3424SOL     OW11170   3.059   0.161   2.366
 3424SOL    HW111171   2.977   0.193   2.319
 3424SOL    HW211172   3.033   0.095   2.437
 3425SOL     OW11173   4.548   4.772   2.041
 3425SOL    HW111174   4.569   4.744   1.947
 3425SOL    HW211175   4.506   4.695   2.090
 3426SOL     OW11176   3.422   2.920   0.000
 3426SOL    HW111177   3.502   2.976   7.006
 3426SOL    HW211178   3.432   2.831   6.980
 3427SOL     OW11179   6.644   6.519   6.551
 3427SOL    HW111180   6.551   6.512   6.589
 3427SOL    HW211181   6.692   6.433   6.565
 3428SOL     OW11182   3.836   4.982   1.626
 3428SOL    HW111183   3.902   4.997   1.552
 3428SOL    HW211184   3.808   5.070   1.664
 3429SOL     OW11185   0.499   1.510   0.096
 3429SOL    HW111186   0.501   1.529   0.194
 3429SOL    HW211187   0.566   1.567   0.049
 3430SOL     OW11188   0.483   6.944   6.047
 3430SOL    HW111189   0.402   6.936   5.989
 3430SOL    HW211190   0.542   6.865   6.034
 3431SOL     OW11191   1.990   6.961   1.287
 3431SOL    HW111192   1.918   6.901   1.251
 3431SOL    HW211193   2.016   0.003   1.217
 3432SOL     OW11194   2.717   2.294   6.009
 3432SOL    HW111195   2.671   2.376   5.975
 3432SOL    HW211196   2.804   2.319   6.050
 3433SOL     OW11197   1.368   6.765   6.402
 3433SOL    HW111198   1.416   6.680   6.381
 3433SOL    HW211199   1.289   6.745   6.461
 3434SOL     OW11200   3.541   2.858   0.850
 3434SOL    HW111201   3.636   2.830   0.863
 3434SOL    HW211202   3.487   2.833   0.930
 3435SOL     OW11203   0.542   2.215   1.861
 3435SOL    HW111204   0.642   2.222   1.855
 3435SOL    HW211205   0.505   2.192   1.771
 3436SOL     OW11206   4.085   6.843   5.439
 3436SOL    HW111207   4.064   6.886   5.526
 3436SOL    HW211208   4.122   6.751   5.455
 3437SOL     OW11209   4.633   0.080   6.456
 3437SOL    HW111210   4.685   7.021   6.473
 3437SOL    HW211211   4.659   0.149   6.523
 3438SOL     OW11212   1.130   2.360   6.913
 3438SOL    HW111213   1.112   2.422   6.989
 3438SOL    HW211214   1.198   2.401   6.852
 3439SOL     OW11215   2.366   0.330   5.883
 3439SOL    HW111216   2.366   0.408   5.821
 3439SOL    HW211217   2.284   0.334   5.941
 3440SOL     OW11218   4.612   3.546   1.693
 3440SOL    HW111219   4.569   3.575   1.608
 3440SOL    HW211220   4.622   3.447   1.694
 3441SOL     OW11221   5.297   0.338   3.435
 3441SOL    HW111222   5.396   0.324   3.445
 3441SOL    HW211223   5.259   0.367   3.522
 3442SOL     OW11224   2.881   4.781   2.687
 3442SOL    HW111225   2.953   4.792   2.756
 3442SOL    HW211226   2.924   4.769   2.597
 3443SOL     OW11227   5.926   0.864   2.682
 3443SOL    HW111228   5.859   0.798   2.717
 3443SOL    HW211229   5.984   0.819   2.613
 3444SOL     OW11230   5.446   4.796   6.982
 3444SOL    HW111231   5.428   4.721   6.920
 3444SOL    HW211232   5.415   4.882   6.942
 3445SOL     OW11233   5.996   4.684   4.079
 3445SOL    HW111234   6.049   4.713   4.159
 3445SOL    HW211235   6.033   4.728   3.997
 3446SOL     OW11236   6.593   1.285   3.053
 3446SOL    HW111237   6.575   1.239   3.140
 3446SOL    HW211238   6.507   1.320   3.016
 3447SOL     OW11239   5.323   4.512   0.702
 3447SOL    HW111240   5.256   4.498   0.775
 3447SOL    HW211241   5.320   4.433   0.640
 3448SOL     OW11242   3.252   0.164   0.550
 3448SOL    HW111243   3.314   0.197   0.621
 3448SOL    HW211244   3.253   0.064   0.550
 3449SOL     OW11245   5.804   6.634   3.505
 3449SOL    HW111246   5.727   6.591   3.457
 3449SOL    HW211247   5.771   6.710   3.561
 3450SOL     OW11248   0.753   2.745   0.492
 3450SOL    HW111249   0.737   2.815   0.561
 3450SOL    HW211250   0.820   2.778   0.426
 3451SOL     OW11251   0.499   5.441   3.576
 3451SOL    HW111252   0.431   5.437   3.649
 3451SOL    HW211253   0.468   5.503   3.504
 3452SOL     OW11254   5.741   1.385   6.957
 3452SOL    HW111255   5.791   1.381   6.871
 3452SOL    HW211256   5.805   1.393   0.008
 3453SOL     OW11257   6.501   5.888   5.446
 3453SOL    HW111258   6.502   5.804   5.391
 3453SOL    HW211259   6.453   5.871   5.531
 3454SOL     OW11260   2.404   1.072   5.623
 3454SOL    HW111261   2.484   1.047   5.679
 3454SOL    HW211262   2.397   1.010   5.545
 3455SOL     OW11263   1.605   2.996   4.224
 3455SOL    HW111264   1.696   2.959   4.246
 3455SOL    HW211265   1.604   3.025   4.128
 3456SOL     OW11266   5.417   6.442   2.246
 3456SOL    HW111267   5.376   6.487   2.167
 3456SOL    HW211268   5.392   6.492   2.329
 3457SOL     OW11269   2.390   5.478   3.999
 3457SOL    HW111270   2.350   5.519   3.917
 3457SOL    HW211271   2.356   5.384   4.009
 3458SOL     OW11272   5.711   0.045   0.147
 3458SOL    HW111273   5.633   0.031   0.086
 3458SOL    HW211274   5.718   6.994   0.210
 3459SOL     OW11275   6.501   4.364   2.896
 3459SOL    HW111276   6.439   4.411   2.959
 3459SOL    HW211277   6.553   4.431   2.844
 3460SOL     OW11278   2.721   3.657   0.461
 3460SOL    HW111279   2.623   3.636   0.463
 3460SOL    HW211280   2.767   3.598   0.395
 3461SOL     OW11281   4.593   5.650   4.142
 3461SOL    HW111282   4.563   5.741   4.171
 3461SOL    HW211283   4.572   5.584   4.215
 3462SOL     OW11284   6.416   3.573   2.356
 3462SOL    HW111285   6.488   3.520   2.401
 3462SOL    HW211286   6.415   3.666   2.393
 3463SOL     OW11287   0.913   2.951   2.539
 3463SOL    HW111288   0.986   2.886   2.558
 3463SOL    HW211289   0.927   2.992   2.449
 3464SOL     OW11290   6.279   2.446   6.961
 3464SOL    HW111291   6.297   2.476   6.867
 3464SOL    HW211292   6.337   2.367   6.982
 3465SOL     OW11293   1.031   3.237   1.904
 3465SOL    HW111294   1.090   3.316   1.922
 3465SOL    HW211295   0.999   3.241   1.809
 3466SOL     OW11296   6.815   5.011   5.934
 3466SOL    HW111297   6.869   5.081   5.980
 3466SOL    HW211298   6.725   5.003   5.977
 3467SOL     OW11299   1.777   1.629   0.456
 3467SOL    HW111300   1.790   1.652   0.553
 3467SOL    HW211301   1.679   1.623   0.436
 3468SOL     OW11302   5.450   1.819   3.363
 3468SOL    HW111303   5.424   1.746   3.427
 3468SOL    HW211304   5.490   1.779   3.281
 3469SOL     OW11305   4.586   6.953   4.536
 3469SOL    HW111306   4.541   6.863   4.537
 3469SOL    HW211307   4.617   6.976   4.628
 3470SOL     OW11308   0.400   2.556   1.541
 3470SOL    HW111309   0.459   2.631   1.512
 3470SOL    HW211310   0.453   2.471   1.544
 3471SOL     OW11311   4.363   4.580   3.564
 3471SOL    HW111312   4.396   4.521   3.492
 3471SOL    HW211313   4.275   4.621   3.537
 3472SOL     OW11314   2.892   1.180   1.566
 3472SOL    HW111315   2.919   1.088   1.537
 3472SOL    HW211316   2.957   1.246   1.530
 3473SOL     OW11317   6.309   3.312   2.717
 3473SOL    HW111318   6.327   3.224   2.762
 3473SOL    HW211319   6.217   3.312   2.678
 3474SOL     OW11320   6.909   4.197   2.506
 3474SOL    HW111321   6.919   4.135   2.584
 3474SOL    HW211322   6.993   4.251   2.496
 3475SOL     OW11323   0.865   4.633   4.897
 3475SOL    HW111324   0.941   4.657   4.958
 3475SOL    HW211325   0.836   4.539   4.916
 3476SOL     OW11326   2.302   2.394   2.382
 3476SOL    HW111327   2.339   2.317   2.331
 3476SOL    HW211328   2.362   2.415   2.460
 3477SOL     OW11329   1.535   4.891   0.730
 3477SOL    HW111330   1.625   4.907   0.689
 3477SOL    HW211331   1.499   4.803   0.698
 3478SOL     OW11332   2.922   6.304   6.807
 3478SOL    HW111333   2.898   6.219   6.761
 3478SOL    HW211334   2.886   6.382   6.755
 3479SOL     OW11335   0.574   0.788   2.616
 3479SOL    HW111336   0.614   0.755   2.701
 3479SOL    HW211337   0.524   0.713   2.572
 3480SOL     OW11338   0.231   6.229   5.136
 3480SOL    HW111339   0.203   6.283   5.056
 3480SOL    HW211340   0.320   6.188   5.117
 3481SOL     OW11341   5.026   0.470   0.543
 3481SOL    HW111342   4.959   0.479   0.470
 3481SOL    HW211343   5.060   0.375   0.546
 3482SOL     OW11344   6.303   1.259   2.024
 3482SOL    HW111345   6.353   1.282   2.108
 3482SOL    HW211346   6.324   1.165   1.997
 3483SOL     OW11347   5.545   1.814   2.556
 3483SOL    HW111348   5.571   1.752   2.629
 3483SOL    HW211349   5.473   1.773   2.501
 3484SOL     OW11350   1.277   3.288   0.439
 3484SOL    HW111351   1.354   3.261   0.497
 3484SOL    HW211352   1.191   3.272   0.488
 3485SOL     OW11353   1.710   1.966   3.999
 3485SOL    HW111354   1.671   2.057   3.985
 3485SOL    HW211355   1.748   1.933   3.913
 3486SOL     OW11356   1.895   0.019   3.274
 3486SOL    HW111357   1.843   7.025   3.190
 3486SOL    HW211358   1.960   0.093   3.257
 3487SOL     OW11359   6.999   1.755   0.653
 3487SOL    HW111360   6.918   1.791   0.609
 3487SOL    HW211361   0.046   1.740   0.585
 3488SOL     OW11362   5.651   1.369   5.192
 3488SOL    HW111363   5.645   1.312   5.110
 3488SOL    HW211364   5.591   1.331   5.263
 3489SOL     OW11365   3.718   0.212   1.814
 3489SOL    HW111366   3.764   0.184   1.899
 3489SOL    HW211367   3.751   0.154   1.739
 3490SOL     OW11368   3.617   4.714   1.258
 3490SOL    HW111369   3.604   4.644   1.329
 3490SOL    HW211370   3.568   4.686   1.176
 3491SOL     OW11371   4.262   2.120   5.935
 3491SOL    HW111372   4.171   2.148   5.903
 3491SOL    HW211373   4.279   2.159   6.026
 3492SOL     OW11374   5.935   4.668   0.956
 3492SOL    HW111375   5.861   4.602   0.972
 3492SOL    HW211376   6.012   4.622   0.912
 3493SOL     OW11377   4.941   4.048   4.034
 3493SOL    HW111378   4.960   3.997   4.118
 3493SOL    HW211379   4.920   4.143   4.056
 3494SOL     OW11380   2.532   1.258   1.849
 3494SOL    HW111381   2.616   1.305   1.880
 3494SOL    HW211382   2.544   1.226   1.755
 3495SOL     OW11383   6.693   4.821   2.084
 3495SOL    HW111384   6.723   4.914   2.103
 3495SOL    HW211385   6.678   4.810   1.985
 3496SOL     OW11386   6.082   5.360   0.818
 3496SOL    HW111387   6.153   5.301   0.856
 3496SOL    HW211388   6.116   5.454   0.814
 3497SOL     OW11389   2.688   1.626   3.815
 3497SOL    HW111390   2.767   1.571   3.844
 3497SOL    HW211391   2.685   1.711   3.867
 3498SOL     OW11392   3.187   1.241   1.760
 3498SOL    HW111393   3.119   1.196   1.817
 3498SOL    HW211394   3.193   1.338   1.785
 3499SOL     OW11395   5.579   4.616   4.219
 3499SOL    HW111396   5.628   4.546   4.167
 3499SOL    HW211397   5.640   4.655   4.288
 3500SOL     OW11398   1.748   3.068   2.890
 3500SOL    HW111399   1.732   3.165   2.871
 3500SOL    HW211400   1.776   3.057   2.986
 3501SOL     OW11401   3.476   6.521   6.211
 3501SOL    HW111402   3.503   6.610   6.175
 3501SOL    HW211403   3.380   6.525   6.240
 3502SOL     OW11404   6.885   1.786   1.448
 3502SOL    HW111405   6.984   1.803   1.454
 3502SOL    HW211406   6.858   1.725   1.523
 3503SOL     OW11407   6.023   6.247   4.869
 3503SOL    HW111408   6.002   6.292   4.782
 3503SOL    HW211409   5.940   6.239   4.924
 3504SOL     OW11410   2.579   0.678   2.125
 3504SOL    HW111411   2.527   0.727   2.054
 3504SOL    HW211412   2.659   0.636   2.083
 3505SOL     OW11413   5.181   4.346   5.583
 3505SOL    HW111414   5.220   4.262   5.621
 3505SOL    HW211415   5.253   4.413   5.569
 3506SOL     OW11416   5.512   5.068   5.141
 3506SOL    HW111417   5.609   5.046   5.140
 3506SOL    HW211418   5.481   5.080   5.236
 3507SOL     OW11419   2.632   0.853   1.022
 3507SOL    HW111420   2.676   0.763   1.018
 3507SOL    HW211421   2.600   0.870   1.116
 3508SOL     OW11422   2.333   1.598   5.880
 3508SOL    HW111423   2.328   1.661   5.958
 3508SOL    HW211424   2.241   1.586   5.842
 3509SOL     OW11425   6.160   6.879   0.231
 3509SOL    HW111426   6.079   6.927   0.197
 3509SOL    HW211427   6.242   6.925   0.198
 3510SOL     OW11428   1.412   0.995   2.361
 3510SOL    HW111429   1.404   0.975   2.263
 3510SOL    HW211430   1.324   0.978   2.405
 3511SOL     OW11431   2.144   4.105   1.638
 3511SOL    HW111432   2.074   4.038   1.661
 3511SOL    HW211433   2.124   4.145   1.548
 3512SOL     OW11434   0.257   4.450   0.111
 3512SOL    HW111435   0.252   4.434   0.210
 3512SOL    HW211436   0.178   4.408   0.066
 3513SOL     OW11437   5.800   2.043   0.704
 3513SOL    HW111438   5.844   2.130   0.724
 3513SOL    HW211439   5.870   1.972   0.695
 3514SOL     OW11440   0.246   0.761   1.974
 3514SOL    HW111441   0.243   0.774   1.875
 3514SOL    HW211442   0.240   0.850   2.020
 3515SOL     OW11443   4.346   6.309   2.716
 3515SOL    HW111444   4.431   6.272   2.677
 3515SOL    HW211445   4.336   6.404   2.688
 3516SOL     OW11446   4.874   6.853   0.764
 3516SOL    HW111447   4.875   6.903   0.678
 3516SOL    HW211448   4.811   6.776   0.757
 3517SOL     OW11449   0.036   1.360   1.662
 3517SOL    HW111450   0.074   1.310   1.584
 3517SOL    HW211451   0.072   1.453   1.663
 3518SOL     OW11452   5.353   2.806   5.239
 3518SOL    HW111453   5.403   2.835   5.321
 3518SOL    HW211454   5.417   2.794   5.163
 3519SOL     OW11455   1.471   0.213   5.707
 3519SOL    HW111456   1.454   0.168   5.620
 3519SOL    HW211457   1.433   0.157   5.781
 3520SOL     OW11458   3.413   5.980   6.893
 3520SOL    HW111459   3.333   5.977   6.952
 3520SOL    HW211460   3.425   5.891   6.848
 3521SOL     OW11461   4.570   2.732   0.211
 3521SOL    HW111462   4.611   2.723   0.121
 3521SOL    HW211463   4.501   2.660   0.224
 3522SOL     OW11464   0.244   5.317   0.654
 3522SOL    HW111465   0.301   5.240   0.686
 3522SOL    HW211466   0.164   5.281   0.606
 3523SOL     OW11467   1.608   4.708   5.107
 3523SOL    HW111468   1.586   4.611   5.110
 3523SOL    HW211469   1.683   4.723   5.043
 3524SOL     OW11470   4.490   1.423   1.500
 3524SOL    HW111471   4.542   1.494   1.547
 3524SOL    HW211472   4.392   1.437   1.516
 3525SOL     OW11473   6.690   4.109   3.646
 3525SOL    HW111474   6.733   4.061   3.722
 3525SOL    HW211475   6.596   4.077   3.634
 3526SOL     OW11476   2.029   6.768   4.009
 3526SOL    HW111477   2.048   6.769   3.911
 3526SOL    HW211478   2.012   6.861   4.041
 3527SOL     OW11479   5.770   3.183   6.455
 3527SOL    HW111480   5.760   3.175   6.555
 3527SOL    HW211481   5.705   3.121   6.411
 3528SOL     OW11482   1.501   6.805   5.269
 3528SOL    HW111483   1.454   6.868   5.207
 3528SOL    HW211484   1.480   6.711   5.242
 3529SOL     OW11485   4.107   6.931   0.537
 3529SOL    HW111486   4.113   6.928   0.437
 3529SOL    HW211487   4.116   0.000   0.569
 3530SOL     OW11488   6.482   6.120   1.141
 3530SOL    HW111489   6.547   6.081   1.206
 3530SOL    HW211490   6.481   6.063   1.058
 3531SOL     OW11491   4.780   2.222   0.989
 3531SOL    HW111492   4.776   2.287   1.065
 3531SOL    HW211493   4.780   2.272   0.903
 3532SOL     OW11494   2.563   0.153   1.894
 3532SOL    HW111495   2.514   0.213   1.830
 3532SOL    HW211496   2.648   0.198   1.923
 3533SOL     OW11497   0.730   1.457   2.780
 3533SOL    HW111498   0.660   1.526   2.801
 3533SOL    HW211499   0.701   1.403   2.701
 3534SOL     OW11500   0.658   1.812   0.987
 3534SOL    HW111501   0.664   1.714   1.006
 3534SOL    HW211502   0.746   1.855   1.010
 3535SOL     OW11503   2.016   5.081   6.268
 3535SOL    HW111504   1.964   5.048   6.347
 3535SOL    HW211505   1.966   5.154   6.223
 3536SOL     OW11506   3.675   1.936   3.071
 3536SOL    HW111507   3.702   1.927   2.975
 3536SOL    HW211508   3.613   2.014   3.082
 3537SOL     OW11509   2.305   5.386   2.710
 3537SOL    HW111510   2.226   5.398   2.650
 3537SOL    HW211511   2.385   5.433   2.670
 3538SOL     OW11512   2.022   6.670   5.350
 3538SOL    HW111513   2.090   6.608   5.390
 3538SOL    HW211514   2.070   6.737   5.293
 3539SOL     OW11515   3.410   3.005   5.204
 3539SOL    HW111516   3.436   3.098   5.176
 3539SOL    HW211517   3.357   2.963   5.130
 3540SOL     OW11518   2.093   2.641   4.760
 3540SOL    HW111519   2.180   2.591   4.763
 3540SOL    HW211520   2.028   2.590   4.703
 3541SOL     OW11521   2.355   2.851   6.208
 3541SOL    HW111522   2.298   2.817   6.134
 3541SOL    HW211523   2.297   2.887   6.282
 3542SOL     OW11524   1.417   5.366   3.409
 3542SOL    HW111525   1.425   5.271   3.377
 3542SOL    HW211526   1.498   5.390   3.462
 3543SOL     OW11527   0.862   2.607   5.015
 3543SOL    HW111528   0.874   2.522   4.964
 3543SOL    HW211529   0.846   2.682   4.952
 3544SOL     OW11530   1.877   4.104   5.530
 3544SOL    HW111531   1.816   4.102   5.451
 3544SOL    HW211532   1.952   4.039   5.516
 3545SOL     OW11533   4.228   5.657   7.010
 3545SOL    HW111534   4.308   5.600   0.002
 3545SOL    HW211535   4.220   5.725   0.058
 3546SOL     OW11536   1.811   4.434   3.929
 3546SOL    HW111537   1.896   4.476   3.961
 3546SOL    HW211538   1.748   4.505   3.898
 3547SOL     OW11539   6.652   4.514   3.937
 3547SOL    HW111540   6.594   4.451   3.887
 3547SOL    HW211541   6.726   4.547   3.878
 3548SOL     OW11542   6.084   1.747   5.990
 3548SOL    HW111543   6.053   1.698   5.908
 3548SOL    HW211544   6.102   1.842   5.967
 3549SOL     OW11545   6.475   4.664   5.707
 3549SOL    HW111546   6.566   4.649   5.670
 3549SOL    HW211547   6.434   4.576   5.734
 3550SOL     OW11548   5.715   2.379   2.693
 3550SOL    HW111549   5.787   2.315   2.665
 3550SOL    HW211550   5.756   2.453   2.746
 3551SOL     OW11551   3.698   6.892   2.770
 3551SOL    HW111552   3.782   6.882   2.718
 3551SOL    HW211553   3.703   6.837   2.854
 3552SOL     OW11554   5.267   6.293   1.277
 3552SOL    HW111555   5.244   6.311   1.372
 3552SOL    HW211556   5.264   6.195   1.259
 3553SOL     OW11557   5.371   3.866   1.492
 3553SOL    HW111558   5.274   3.853   1.509
 3553SOL    HW211559   5.418   3.886   1.578
 3554SOL     OW11560   3.822   2.800   0.794
 3554SOL    HW111561   3.889   2.871   0.814
 3554SOL    HW211562   3.862   2.710   0.811
 3555SOL     OW11563   1.186   4.012   3.131
 3555SOL    HW111564   1.208   3.922   3.092
 3555SOL    HW211565   1.261   4.076   3.112
 3556SOL     OW11566   4.719   0.899   3.962
 3556SOL    HW111567   4.708   0.821   4.024
 3556SOL    HW211568   4.752   0.868   3.873
 3557SOL     OW11569   1.145   0.197   3.962
 3557SOL    HW111570   1.237   0.168   3.935
 3557SOL    HW211571   1.081   0.181   3.888
 3558SOL     OW11572   1.107   5.638   0.839
 3558SOL    HW111573   1.173   5.666   0.909
 3558SOL    HW211574   1.151   5.575   0.775
 3559SOL     OW11575   0.700   6.869   4.669
 3559SOL    HW111576   0.771   6.886   4.738
 3559SOL    HW211577   0.740   6.819   4.592
 3560SOL     OW11578   1.522   5.629   1.338
 3560SOL    HW111579   1.520   5.673   1.249
 3560SOL    HW211580   1.434   5.639   1.384
 3561SOL     OW11581   3.881   4.828   5.339
 3561SOL    HW111582   3.870   4.792   5.432
 3561SOL    HW211583   3.959   4.783   5.295
 3562SOL     OW11584   5.706   0.787   4.263
 3562SOL    HW111585   5.744   0.879   4.265
 3562SOL    HW211586   5.617   0.786   4.309
 3563SOL     OW11587   5.719   0.633   1.177
 3563SOL    HW111588   5.789   0.566   1.151
 3563SOL    HW211589   5.654   0.590   1.241
 3564SOL     OW11590   1.907   4.705   4.234
 3564SOL    HW111591   1.898   4.746   4.144
 3564SOL    HW211592   1.843   4.630   4.244
 3565SOL     OW11593   3.596   6.423   5.545
 3565SOL    HW111594   3.600   6.519   5.517
 3565SOL    HW211595   3.533   6.374   5.484
 3566SOL     OW11596   6.784   3.346   6.480
 3566SOL    HW111597   6.784   3.278   6.553
 3566SOL    HW211598   6.707   3.409   6.494
 3567SOL     OW11599   1.075   3.005   0.089
 3567SOL    HW111600   1.094   2.952   0.172
 3567SOL    HW211601   0.989   3.055   0.100
 3568SOL     OW11602   5.229   6.412   3.903
 3568SOL    HW111603   5.193   6.502   3.878
 3568SOL    HW211604   5.320   6.400   3.864
 3569SOL     OW11605   3.217   2.436   6.178
 3569SOL    HW111606   3.187   2.492   6.255
 3569SOL    HW211607   3.244   2.495   6.103
 3570SOL     OW11608   5.598   0.522   4.682
 3570SOL    HW111609   5.657   0.507   4.602
 3570SOL    HW211610   5.508   0.552   4.652
 3571SOL     OW11611   2.380   0.688   4.864
 3571SOL    HW111612   2.402   0.676   4.960
 3571SOL    HW211613   2.292   0.735   4.855
 3572SOL     OW11614   5.384   3.888   2.797
 3572SOL    HW111615   5.354   3.819   2.731
 3572SOL    HW211616   5.397   3.845   2.887
 3573SOL     OW11617   5.853   3.848   2.668
 3573SOL    HW111618   5.802   3.784   2.725
 3573SOL    HW211619   5.813   3.851   2.577
 3574SOL     OW11620   1.327   3.588   0.371
 3574SOL    HW111621   1.325   3.490   0.353
 3574SOL    HW211622   1.235   3.621   0.392
 3575SOL     OW11623   4.671   5.971   1.896
 3575SOL    HW111624   4.659   5.900   1.827
 3575SOL    HW211625   4.729   5.936   1.970
 3576SOL     OW11626   0.625   1.843   0.703
 3576SOL    HW111627   0.557   1.776   0.674
 3576SOL    HW211628   0.625   1.849   0.803
 3577SOL     OW11629   2.124   3.006   6.620
 3577SOL    HW111630   2.196   2.937   6.629
 3577SOL    HW211631   2.128   3.068   6.698
 3578SOL     OW11632   5.013   1.947   1.199
 3578SOL    HW111633   5.034   2.030   1.147
 3578SOL    HW211634   4.944   1.969   1.269
 3579SOL     OW11635   6.773   2.953   2.404
 3579SOL    HW111636   6.742   3.047   2.392
 3579SOL    HW211637   6.858   2.952   2.456
 3580SOL     OW11638   6.146   3.017   0.092
 3580SOL    HW111639   6.095   2.940   0.131
 3580SOL    HW211640   6.161   3.086   0.163
 3581SOL     OW11641   0.462   5.888   2.567
 3581SOL    HW111642   0.416   5.954   2.625
 3581SOL    HW211643   0.520   5.829   2.623
 3582SOL     OW11644   2.112   5.066   5.745
 3582SOL    HW111645   2.201   5.019   5.743
 3582SOL    HW211646   2.039   4.999   5.732
 3583SOL     OW11647   1.288   4.773   6.992
 3583SOL    HW111648   1.243   4.686   7.013
 3583SOL    HW211649   1.243   4.816   6.914
 3584SOL     OW11650   5.485   4.847   5.796
 3584SOL    HW111651   5.485   4.867   5.894
 3584SOL    HW211652   5.497   4.749   5.782
 3585SOL     OW11653   3.171   2.043   4.897
 3585SOL    HW111654   3.201   2.109   4.966
 3585SOL    HW211655   3.208   1.953   4.920
 3586SOL     OW11656   0.050   2.434   5.258
 3586SOL    HW111657   0.032   2.367   5.331
 3586SOL    HW211658   7.023   2.409   5.177
 3587SOL     OW11659   2.798   5.395   6.306
 3587SOL    HW111660   2.839   5.325   6.246
 3587SOL    HW211661   2.702   5.372   6.322
 3588SOL     OW11662   6.589   3.135   4.817
 3588SOL    HW111663   6.540   3.167   4.898
 3588SOL    HW211664   6.688   3.148   4.830
 3589SOL     OW11665   6.262   7.009   6.804
 3589SOL    HW111666   6.189   0.050   6.820
 3589SOL    HW211667   6.294   7.016   6.710
 3590SOL     OW11668   0.394   3.938   6.939
 3590SOL    HW111669   0.455   3.911   6.865
 3590SOL    HW211670   0.330   4.008   6.906
 3591SOL     OW11671   5.679   3.611   0.908
 3591SOL    HW111672   5.682   3.512   0.923
 3591SOL    HW211673   5.769   3.650   0.926
 3592SOL     OW11674   0.559   0.037   3.097
 3592SOL    HW111675   0.655   0.027   3.125
 3592SOL    HW211676   0.548   0.124   3.049
 3593SOL     OW11677   0.804   4.474   6.089
 3593SOL    HW111678   0.896   4.493   6.121
 3593SOL    HW211679   0.797   4.497   5.991
 3594SOL     OW11680   5.418   0.521   4.165
 3594SOL    HW111681   5.432   0.458   4.241
 3594SOL    HW211682   5.323   0.552   4.165
 3595SOL     OW11683   5.180   5.486   6.145
 3595SOL    HW111684   5.121   5.405   6.148
 3595SOL    HW211685   5.243   5.484   6.223
 3596SOL     OW11686   4.624   2.695   3.755
 3596SOL    HW111687   4.598   2.673   3.661
 3596SOL    HW211688   4.586   2.626   3.817
 3597SOL     OW11689   1.919   3.032   5.442
 3597SOL    HW111690   1.890   2.950   5.491
 3597SOL    HW211691   1.917   3.014   5.343
 3598SOL     OW11692   1.654   6.430   5.177
 3598SOL    HW111693   1.719   6.469   5.111
 3598SOL    HW211694   1.589   6.371   5.128
 3599SOL     OW11695   4.401   1.868   6.984
 3599SOL    HW111696   4.458   1.785   6.981
 3599SOL    HW211697   4.460   1.948   6.979
 3600SOL     OW11698   0.867   3.764   1.941
 3600SOL    HW111699   0.864   3.686   2.003
 3600SOL    HW211700   0.897   3.845   1.992
 3601SOL     OW11701   5.282   2.503   5.966
 3601SOL    HW111702   5.263   2.408   5.992
 3601SOL    HW211703   5.249   2.520   5.873
 3602SOL     OW11704   1.331   3.381   0.907
 3602SOL    HW111705   1.356   3.453   0.842
 3602SOL    HW211706   1.240   3.399   0.943
 3603SOL     OW11707   3.561   1.094   5.063
 3603SOL    HW111708   3.575   1.096   5.162
 3603SOL    HW211709   3.463   1.085   5.043
 3604SOL     OW11710   6.427   0.739   3.968
 3604SOL    HW111711   6.339   0.784   3.982
 3604SOL    HW211712   6.485   0.797   3.910
 3605SOL     OW11713   0.910   4.912   4.072
 3605SOL    HW111714   0.983   4.859   4.115
 3605SOL    HW211715   0.835   4.852   4.046
 3606SOL     OW11716   1.136   6.540   3.189
 3606SOL    HW111717   1.166   6.451   3.222
 3606SOL    HW211718   1.046   6.560   3.226
 3607SOL     OW11719   5.590   3.569   2.142
 3607SOL    HW111720   5.515   3.523   2.093
 3607SOL    HW211721   5.610   3.518   2.226
 3608SOL     OW11722   4.957   1.747   4.344
 3608SOL    HW111723   4.910   1.834   4.332
 3608SOL    HW211724   4.954   1.696   4.257
 3609SOL     OW11725   2.478   0.259   4.253
 3609SOL    HW111726   2.407   0.326   4.276
 3609SOL    HW211727   2.541   0.250   4.330
 3610SOL     OW11728   1.482   0.823   5.680
 3610SOL    HW111729   1.554   0.820   5.611
 3610SOL    HW211730   1.506   0.765   5.757
 3611SOL     OW11731   4.191   4.802   3.742
 3611SOL    HW111732   4.196   4.774   3.647
 3611SOL    HW211733   4.253   4.746   3.797
 3612SOL     OW11734   6.637   1.003   6.881
 3612SOL    HW111735   6.563   1.057   6.841
 3612SOL    HW211736   6.723   1.055   6.878
 3613SOL     OW11737   4.414   4.929   1.773
 3613SOL    HW111738   4.332   4.986   1.766
 3613SOL    HW211739   4.493   4.987   1.790
 3614SOL     OW11740   2.849   3.553   0.218
 3614SOL    HW111741   2.797   3.626   0.174
 3614SOL    HW211742   2.809   3.464   0.195
 3615SOL     OW11743   5.714   2.516   6.307
 3615SOL    HW111744   5.723   2.482   6.400
 3615SOL    HW211745   5.682   2.611   6.309
 3616SOL     OW11746   1.442   0.773   6.230
 3616SOL    HW111747   1.471   0.729   6.315
 3616SOL    HW211748   1.343   0.786   6.231
 3617SOL     OW11749   4.092   0.507   6.099
 3617SOL    HW111750   4.051   0.416   6.107
 3617SOL    HW211751   4.077   0.543   6.008
 3618SOL     OW11752   2.622   3.340   5.519
 3618SOL    HW111753   2.542   3.360   5.463
 3618SOL    HW211754   2.667   3.257   5.485
 3619SOL     OW11755   5.610   3.377   0.248
 3619SOL    HW111756   5.693   3.425   0.274
 3619SOL    HW211757   5.624   3.330   0.161
 3620SOL     OW11758   6.023   5.364   5.483
 3620SOL    HW111759   5.962   5.398   5.555
 3620SOL    HW211760   6.022   5.264   5.483
 3621SOL     OW11761   3.250   3.589   4.577
 3621SOL    HW111762   3.266   3.685   4.602
 3621SOL    HW211763   3.337   3.544   4.561
 3622SOL     OW11764   1.758   0.481   0.519
 3622SOL    HW111765   1.707   0.561   0.488
 3622SOL    HW211766   1.824   0.508   0.589
 3623SOL     OW11767   0.237   5.644   5.103
 3623SOL    HW111768   0.260   5.546   5.102
 3623SOL    HW211769   0.139   5.655   5.093
 3624SOL     OW11770   1.587   6.907   2.433
 3624SOL    HW111771   1.672   6.896   2.381
 3624SOL    HW211772   1.511   6.866   2.382
 3625SOL     OW11773   0.260   3.485   6.633
 3625SOL    HW111774   0.184   3.541   6.666
 3625SOL    HW211775   0.267   3.493   6.534
 3626SOL     OW11776   0.783   3.415   3.953
 3626SOL    HW111777   0.801   3.333   3.899
 3626SOL    HW211778   0.713   3.395   4.021
 3627SOL     OW11779   4.661   3.258   1.708
 3627SOL    HW111780   4.759   3.272   1.723
 3627SOL    HW211781   4.634   3.170   1.748
 3628SOL     OW11782   1.767   0.930   1.972
 3628SOL    HW111783   1.851   0.941   2.026
 3628SOL    HW211784   1.732   0.837   1.985
 3629SOL     OW11785   1.100   0.496   4.361
 3629SOL    HW111786   1.125   0.557   4.286
 3629SOL    HW211787   1.182   0.473   4.414
 3630SOL     OW11788   6.298   2.846   3.742
 3630SOL    HW111789   6.325   2.772   3.804
 3630SOL    HW211790   6.246   2.914   3.793
 3631SOL     OW11791   1.526   6.832   3.506
 3631SOL    HW111792   1.575   6.918   3.518
 3631SOL    HW211793   1.554   6.789   3.421
 3632SOL     OW11794   4.546   4.160   0.063
 3632SOL    HW111795   4.608   4.185   7.013
 3632SOL    HW211796   4.599   4.135   0.143
 3633SOL     OW11797   4.160   2.854   5.769
 3633SOL    HW111798   4.183   2.945   5.733
 3633SOL    HW211799   4.244   2.803   5.786
 3634SOL     OW11800   1.998   6.399   6.181
 3634SOL    HW111801   2.030   6.490   6.155
 3634SOL    HW211802   1.901   6.390   6.160
 3635SOL     OW11803   2.215   1.471   0.973
 3635SOL    HW111804   2.236   1.509   0.882
 3635SOL    HW211805   2.257   1.381   0.982
 3636SOL     OW11806   0.415   6.128   1.206
 3636SOL    HW111807   0.346   6.152   1.273
 3636SOL    HW211808   0.373   6.121   1.115
 3637SOL     OW11809   0.614   3.035   0.898
 3637SOL    HW111810   0.564   3.120   0.916
 3637SOL    HW211811   0.550   2.958   0.903
 3638SOL     OW11812   6.657   3.934   2.744
 3638SOL    HW111813   6.751   3.970   2.743
 3638SOL    HW211814   6.595   4.006   2.774
 3639SOL     OW11815   3.570   4.596   6.277
 3639SOL    HW111816   3.586   4.512   6.225
 3639SOL    HW211817   3.517   4.575   6.359
 3640SOL     OW11818   5.289   1.770   0.698
 3640SOL    HW111819   5.312   1.829   0.620
 3640SOL    HW211820   5.320   1.677   0.679
 3641SOL     OW11821   5.231   4.164   1.063
 3641SOL    HW111822   5.214   4.112   1.147
 3641SOL    HW211823   5.144   4.192   1.022
 3642SOL     OW11824   4.970   2.171   6.804
 3642SOL    HW111825   5.039   2.219   6.857
 3642SOL    HW211826   5.011   2.092   6.758
 3643SOL     OW11827   4.147   6.442   6.133
 3643SOL    HW111828   4.121   6.434   6.230
 3643SOL    HW211829   4.117   6.531   6.098
 3644SOL     OW11830   2.888   0.545   1.507
 3644SOL    HW111831   2.872   0.614   1.579
 3644SOL    HW211832   2.806   0.489   1.497
 3645SOL     OW11833   1.437   3.771   4.490
 3645SOL    HW111834   1.381   3.690   4.507
 3645SOL    HW211835   1.392   3.830   4.423
 3646SOL     OW11836   1.698   4.885   4.721
 3646SOL    HW111837   1.720   4.795   4.683
 3646SOL    HW211838   1.783   4.932   4.746
 3647SOL     OW11839   2.718   6.101   6.856
 3647SOL    HW111840   2.681   6.189   6.827
 3647SOL    HW211841   2.730   6.043   6.776
 3648SOL     OW11842   4.980   6.068   3.017
 3648SOL    HW111843   4.963   6.058   3.115
 3648SOL    HW211844   4.902   6.033   2.966
 3649SOL     OW11845   6.040   3.971   0.166
 3649SOL    HW111846   6.025   3.875   0.191
 3649SOL    HW211847   6.133   3.998   0.193
 3650SOL     OW11848   5.783   4.220   0.793
 3650SOL    HW111849   5.723   4.201   0.871
 3650SOL    HW211850   5.876   4.235   0.826
 3651SOL     OW11851   1.874   1.504   4.650
 3651SOL    HW111852   1.867   1.476   4.555
 3651SOL    HW211853   1.858   1.603   4.657
 3652SOL     OW11854   5.807   0.321   2.655
 3652SOL    HW111855   5.820   0.362   2.746
 3652SOL    HW211856   5.854   0.233   2.651
 3653SOL     OW11857   1.499   1.061   3.279
 3653SOL    HW111858   1.539   1.023   3.195
 3653SOL    HW211859   1.409   1.019   3.295
 3654SOL     OW11860   5.096   5.978   0.668
 3654SOL    HW111861   5.189   6.011   0.657
 3654SOL    HW211862   5.085   5.891   0.619
 3655SOL     OW11863   2.994   1.133   3.918
 3655SOL    HW111864   2.962   1.111   4.010
 3655SOL    HW211865   2.935   1.204   3.878
 3656SOL     OW11866   1.348   5.019   1.340
 3656SOL    HW111867   1.291   4.957   1.287
 3656SOL    HW211868   1.292   5.093   1.377
 3657SOL     OW11869   4.785   5.650   5.274
 3657SOL    HW111870   4.759   5.738   5.314
 3657SOL    HW211871   4.722   5.628   5.200
 3658SOL     OW11872   1.804   4.747   6.367
 3658SOL    HW111873   1.840   4.712   6.453
 3658SOL    HW211874   1.832   4.685   6.292
 3659SOL     OW11875   0.592   1.746   6.589
 3659SOL    HW111876   0.642   1.783   6.667
 3659SOL    HW211877   0.640   1.770   6.504
 3660SOL     OW11878   6.158   6.249   5.097
 3660SOL    HW111879   6.244   6.204   5.072
 3660SOL    HW211880   6.109   6.274   5.014
 3661SOL     OW11881   0.446   0.562   4.603
 3661SOL    HW111882   0.450   0.538   4.507
 3661SOL    HW211883   0.538   0.561   4.642
 3662SOL     OW11884   3.739   0.930   4.554
 3662SOL    HW111885   3.779   0.928   4.463
 3662SOL    HW211886   3.810   0.915   4.622
 3663SOL     OW11887   2.265   2.907   6.836
 3663SOL    HW111888   2.174   2.887   6.872
 3663SOL    HW211889   2.324   2.827   6.846
 3664SOL     OW11890   3.729   1.502   1.941
 3664SOL    HW111891   3.729   1.474   1.845
 3664SOL    HW211892   3.743   1.421   1.999
 3665SOL     OW11893   0.648   6.038   5.682
 3665SOL    HW111894   0.615   6.014   5.590
 3665SOL    HW211895   0.732   5.986   5.701
 3666SOL     OW11896   1.207   3.295   3.140
 3666SOL    HW111897   1.191   3.230   3.066
 3666SOL    HW211898   1.201   3.247   3.228
 3667SOL     OW11899   0.995   1.402   3.886
 3667SOL    HW111900   1.063   1.468   3.919
 3667SOL    HW211901   0.945   1.442   3.809
 3668SOL     OW11902   1.098   0.394   1.008
 3668SOL    HW111903   1.127   0.299   1.025
 3668SOL    HW211904   1.015   0.413   1.061
 3669SOL     OW11905   5.980   1.638   3.855
 3669SOL    HW111906   5.936   1.656   3.943
 3669SOL    HW211907   5.958   1.545   3.826
 3670SOL     OW11908   3.082   5.085   0.847
 3670SOL    HW111909   3.088   5.061   0.750
 3670SOL    HW211910   3.056   5.004   0.900
 3671SOL     OW11911   6.627   1.379   2.586
 3671SOL    HW111912   6.541   1.344   2.548
 3671SOL    HW211913   6.613   1.404   2.682
 3672SOL     OW11914   4.721   1.539   2.847
 3672SOL    HW111915   4.727   1.467   2.916
 3672SOL    HW211916   4.688   1.624   2.889
 3673SOL     OW11917   4.126   5.467   0.199
 3673SOL    HW111918   4.123   5.430   0.292
 3673SOL    HW211919   4.181   5.407   0.141
 3674SOL     OW11920   1.419   6.136   5.726
 3674SOL    HW111921   1.417   6.037   5.711
 3674SOL    HW211922   1.487   6.177   5.665
 3675SOL     OW11923   0.178   3.062   3.520
 3675SOL    HW111924   0.237   3.004   3.576
 3675SOL    HW211925   0.203   3.158   3.534
 3676SOL     OW11926   5.493   2.638   3.038
 3676SOL    HW111927   5.521   2.568   3.103
 3676SOL    HW211928   5.401   2.672   3.062
 3677SOL     OW11929   2.307   0.948   5.198
 3677SOL    HW111930   2.220   0.936   5.150
 3677SOL    HW211931   2.339   1.042   5.186
 3678SOL     OW11932   1.136   1.708   4.484
 3678SOL    HW111933   1.207   1.768   4.446
 3678SOL    HW211934   1.047   1.735   4.449
 3679SOL     OW11935   6.705   0.059   3.733
 3679SOL    HW111936   6.706   6.987   3.709
 3679SOL    HW211937   6.635   0.075   3.803
 3680SOL     OW11938   4.419   2.319   3.814
 3680SOL    HW111939   4.482   2.267   3.871
 3680SOL    HW211940   4.445   2.309   3.718
 3681SOL     OW11941   0.300   1.122   6.065
 3681SOL    HW111942   0.274   1.153   5.974
 3681SOL    HW211943   0.294   1.198   6.130
 3682SOL     OW11944   5.181   2.234   0.771
 3682SOL    HW111945   5.156   2.160   0.708
 3682SOL    HW211946   5.161   2.206   0.865
 3683SOL     OW11947   0.471   0.947   4.677
 3683SOL    HW111948   0.530   1.028   4.682
 3683SOL    HW211949   0.472   0.900   4.764
 3684SOL     OW11950   1.962   6.296   0.098
 3684SOL    HW111951   1.884   6.335   0.050
 3684SOL    HW211952   1.958   6.196   0.092
 3685SOL     OW11953   2.463   6.109   4.995
 3685SOL    HW111954   2.466   6.185   5.059
 3685SOL    HW211955   2.538   6.045   5.016
 3686SOL     OW11956   6.740   4.461   4.331
 3686SOL    HW111957   6.795   4.383   4.303
 3686SOL    HW211958   6.799   4.529   4.374
 3687SOL     OW11959   5.322   6.816   3.104
 3687SOL    HW111960   5.336   6.721   3.075
 3687SOL    HW211961   5.391   6.874   3.063
 3688SOL     OW11962   5.843   3.154   0.342
 3688SOL    HW111963   5.823   3.137   0.438
 3688SOL    HW211964   5.759   3.146   0.288
 3689SOL     OW11965   2.129   1.962   5.576
 3689SOL    HW111966   2.226   1.959   5.601
 3689SOL    HW211967   2.074   1.978   5.657
 3690SOL     OW11968   4.813   5.603   1.007
 3690SOL    HW111969   4.836   5.654   0.924
 3690SOL    HW211970   4.845   5.653   1.087
 3691SOL     OW11971   2.540   2.075   5.996
 3691SOL    HW111972   2.606   2.149   5.982
 3691SOL    HW211973   2.588   1.987   5.992
 3692SOL     OW11974   6.430   4.449   6.081
 3692SOL    HW111975   6.332   4.437   6.092
 3692SOL    HW211976   6.450   4.545   6.063
 3693SOL     OW11977   1.478   2.343   2.612
 3693SOL    HW111978   1.482   2.297   2.522
 3693SOL    HW211979   1.498   2.440   2.601
 3694SOL     OW11980   1.105   0.399   1.392
 3694SOL    HW111981   1.012   0.367   1.376
 3694SOL    HW211982   1.166   0.320   1.403
 3695SOL     OW11983   6.022   2.022   1.782
 3695SOL    HW111984   6.087   2.096   1.765
 3695SOL    HW211985   6.070   1.944   1.822
 3696SOL     OW11986   5.167   0.624   5.686
 3696SOL    HW111987   5.116   0.696   5.639
 3696SOL    HW211988   5.178   0.546   5.625
 3697SOL     OW11989   6.066   6.039   3.367
 3697SOL    HW111990   6.144   6.049   3.305
 3697SOL    HW211991   6.002   5.972   3.330
 3698SOL     OW11992   2.524   1.400   3.512
 3698SOL    HW111993   2.615   1.397   3.554
 3698SOL    HW211994   2.475   1.481   3.544
 3699SOL     OW11995   2.193   1.994   3.528
 3699SOL    HW111996   2.185   1.935   3.448
 3699SOL    HW211997   2.101   2.021   3.559
 3700SOL     OW11998   1.560   5.496   5.056
 3700SOL    HW111999   1.555   5.414   4.999
 3700SOL    HW212000   1.570   5.577   4.998
 3701SOL     OW12001   0.397   6.413   2.351
 3701SOL    HW112002   0.408   6.512   2.360
 3701SOL    HW212003   0.402   6.371   2.442
 3702SOL     OW12004   5.267   6.667   3.411
 3702SOL    HW112005   5.237   6.573   3.393
 3702SOL    HW212006   5.200   6.731   3.376
 3703SOL     OW12007   0.448   0.755   6.488
 3703SOL    HW112008   0.494   0.771   6.576
 3703SOL    HW212009   0.496   0.806   6.417
 3704SOL     OW12010   5.430   3.659   1.079
 3704SOL    HW112011   5.483   3.707   1.149
 3704SOL    HW212012   5.488   3.640   1.000
 3705SOL     OW12013   4.732   4.897   3.690
 3705SOL    HW112014   4.819   4.946   3.703
 3705SOL    HW212015   4.722   4.874   3.593
 3706SOL     OW12016   0.743   3.932   6.968
 3706SOL    HW112017   0.660   3.926   6.914
 3706SOL    HW212018   0.733   4.003   0.012
 3707SOL     OW12019   4.020   5.486   3.741
 3707SOL    HW112020   4.047   5.392   3.724
 3707SOL    HW212021   3.921   5.489   3.758
 3708SOL     OW12022   4.482   0.115   1.423
 3708SOL    HW112023   4.406   0.177   1.443
 3708SOL    HW212024   4.506   0.064   1.505
 3709SOL     OW12025   2.116   0.167   1.422
 3709SOL    HW112026   2.072   0.080   1.401
 3709SOL    HW212027   2.212   0.165   1.392
 3710SOL     OW12028   0.395   5.427   5.428
 3710SOL    HW112029   0.462   5.457   5.360
 3710SOL    HW212030   0.434   5.352   5.482
 3711SOL     OW12031   1.582   6.057   4.890
 3711SOL    HW112032   1.507   6.079   4.827
 3711SOL    HW212033   1.565   5.968   4.933
 3712SOL     OW12034   2.096   5.789   6.292
 3712SOL    HW112035   2.100   5.820   6.197
 3712SOL    HW212036   2.184   5.751   6.319
 3713SOL     OW12037   0.362   6.685   5.024
 3713SOL    HW112038   0.448   6.731   5.002
 3713SOL    HW212039   0.295   6.704   4.952
 3714SOL     OW12040   0.385   4.987   6.944
 3714SOL    HW112041   0.473   5.030   6.925
 3714SOL    HW212042   0.388   4.943   0.009
 3715SOL     OW12043   0.441   5.120   3.025
 3715SOL    HW112044   0.381   5.191   3.062
 3715SOL    HW212045   0.525   5.117   3.078
 3716SOL     OW12046   6.065   5.333   3.931
 3716SOL    HW112047   6.047   5.382   3.846
 3716SOL    HW212048   6.115   5.393   3.994
 3717SOL     OW12049   5.520   1.419   0.359
 3717SOL    HW112050   5.531   1.512   0.323
 3717SOL    HW212051   5.538   1.354   0.286
 3718SOL     OW12052   0.839   0.112   6.809
 3718SOL    HW112053   0.803   0.038   6.866
 3718SOL    HW212054   0.859   0.192   6.865
 3719SOL     OW12055   4.324   2.946   6.580
 3719SOL    HW112056   4.298   2.993   6.496
 3719SOL    HW212057   4.391   3.001   6.630
 3720SOL     OW12058   5.388   3.728   0.786
 3720SOL    HW112059   5.306   3.774   0.752
 3720SOL    HW212060   5.361   3.651   0.844
 3721SOL     OW12061   6.675   5.085   0.038
 3721SOL    HW112062   6.593   5.134   0.067
 3721SOL    HW212063   6.656   4.987   0.036
 3722SOL     OW12064   4.812   0.038   1.467
 3722SOL    HW112065   4.801   0.069   1.373
 3722SOL    HW212066   4.895   0.077   1.506
 3723SOL     OW12067   4.557   5.134   6.897
 3723SOL    HW112068   4.640   5.168   6.942
 3723SOL    HW212069   4.532   5.196   6.823
 3724SOL     OW12070   1.919   4.770   5.557
 3724SOL    HW112071   1.987   4.697   5.546
 3724SOL    HW212072   1.873   4.785   5.469
 3725SOL     OW12073   0.517   6.323   6.925
 3725SOL    HW112074   0.417   6.321   6.918
 3725SOL    HW212075   0.551   6.232   6.949
 3726SOL     OW12076   5.329   3.622   5.420
 3726SOL    HW112077   5.413   3.661   5.382
 3726SOL    HW212078   5.296   3.550   5.360
 3727SOL     OW12079   6.831   2.982   4.475
 3727SOL    HW112080   6.889   3.028   4.543
 3727SOL    HW212081   6.782   3.051   4.421
 3728SOL     OW12082   2.511   3.937   6.885
 3728SOL    HW112083   2.499   3.843   6.852
 3728SOL    HW212084   2.427   3.967   6.931
 3729SOL     OW12085   0.703   0.311   4.191
 3729SOL    HW112086   0.613   0.299   4.149
 3729SOL    HW212087   0.714   0.246   4.265
 3730SOL     OW12088   3.969   6.222   5.473
 3730SOL    HW112089   3.928   6.305   5.437
 3730SOL    HW212090   4.026   6.245   5.553
 3731SOL     OW12091   0.650   1.493   0.421
 3731SOL    HW112092   0.668   1.398   0.397
 3731SOL    HW212093   0.656   1.505   0.520
 3732SOL     OW12094   1.887   1.378   0.739
 3732SOL    HW112095   1.791   1.398   0.719
 3732SOL    HW212096   1.928   1.455   0.788
 3733SOL     OW12097   2.001   2.698   3.473
 3733SOL    HW112098   2.060   2.651   3.539
 3733SOL    HW212099   2.057   2.761   3.419
 3734SOL     OW12100   3.817   0.917   1.765
 3734SOL    HW112101   3.787   1.012   1.770
 3734SOL    HW212102   3.790   0.877   1.678
 3735SOL     OW12103   3.879   0.546   2.281
 3735SOL    HW112104   3.785   0.546   2.246
 3735SOL    HW212105   3.909   0.640   2.295
 3736SOL     OW12106   6.362   0.874   1.495
 3736SOL    HW112107   6.379   0.923   1.410
 3736SOL    HW212108   6.415   0.789   1.495
 3737SOL     OW12109   5.898   2.350   4.026
 3737SOL    HW112110   5.849   2.288   3.965
 3737SOL    HW212111   5.914   2.306   4.114
 3738SOL     OW12112   6.362   5.959   0.801
 3738SOL    HW112113   6.360   6.017   0.720
 3738SOL    HW212114   6.275   5.967   0.850
 3739SOL     OW12115   2.929   4.511   1.569
 3739SOL    HW112116   2.847   4.546   1.525
 3739SOL    HW212117   2.929   4.538   1.665
 3740SOL     OW12118   6.155   5.828   0.307
 3740SOL    HW112119   6.137   5.916   0.352
 3740SOL    HW212120   6.080   5.807   0.245
 3741SOL     OW12121   4.593   3.138   6.721
 3741SOL    HW112122   4.678   3.190   6.723
 3741SOL    HW212123   4.580   3.091   6.808
 3742SOL     OW12124   4.805   6.139   0.324
 3742SOL    HW112125   4.788   6.194   0.242
 3742SOL    HW212126   4.831   6.199   0.399
 3743SOL     OW12127   4.664   4.705   1.430
 3743SOL    HW112128   4.633   4.733   1.339
 3743SOL    HW212129   4.609   4.751   1.500
 3744SOL     OW12130   0.641   6.295   2.587
 3744SOL    HW112131   0.571   6.302   2.659
 3744SOL    HW212132   0.607   6.237   2.513
 3745SOL     OW12133   4.869   3.945   2.256
 3745SOL    HW112134   4.868   3.886   2.176
 3745SOL    HW212135   4.851   4.040   2.228
 3746SOL     OW12136   6.855   0.619   3.061
 3746SOL    HW112137   6.824   0.714   3.067
 3746SOL    HW212138   6.819   0.578   2.977
 3747SOL     OW12139   5.014   6.401   5.568
 3747SOL    HW112140   5.065   6.319   5.593
 3747SOL    HW212141   5.051   6.480   5.617
 3748SOL     OW12142   5.548   1.027   2.125
 3748SOL    HW112143   5.562   0.939   2.080
 3748SOL    HW212144   5.456   1.060   2.106
 3749SOL     OW12145   1.669   4.924   2.927
 3749SOL    HW112146   1.667   5.018   2.892
 3749SOL    HW212147   1.757   4.907   2.972
 3750SOL     OW12148   5.559   4.498   0.876
 3750SOL    HW112149   5.600   4.562   0.811
 3750SOL    HW212150   5.475   4.460   0.838
 3751SOL     OW12151   0.179   2.477   0.878
 3751SOL    HW112152   0.147   2.565   0.843
 3751SOL    HW212153   0.230   2.430   0.806
 3752SOL     OW12154   0.843   6.784   0.270
 3752SOL    HW112155   0.864   6.691   0.239
 3752SOL    HW212156   0.750   6.786   0.306
 3753SOL     OW12157   0.654   6.921   5.371
 3753SOL    HW112158   0.576   6.929   5.310
 3753SOL    HW212159   0.630   6.865   5.451
 3754SOL     OW12160   5.130   6.338   1.516
 3754SOL    HW112161   5.034   6.335   1.488
 3754SOL    HW212162   5.153   6.429   1.549
 3755SOL     OW12163   5.537   5.549   4.190
 3755SOL    HW112164   5.626   5.588   4.214
 3755SOL    HW212165   5.500   5.501   4.269
 3756SOL     OW12166   1.744   0.518   6.247
 3756SOL    HW112167   1.817   0.474   6.299
 3756SOL    HW212168   1.776   0.536   6.154
 3757SOL     OW12169   3.503   6.024   6.361
 3757SOL    HW112170   3.459   6.109   6.389
 3757SOL    HW212171   3.440   5.970   6.305
 3758SOL     OW12172   1.543   1.669   4.888
 3758SOL    HW112173   1.506   1.576   4.885
 3758SOL    HW212174   1.634   1.667   4.928
 3759SOL     OW12175   4.030   5.066   5.244
 3759SOL    HW112176   4.122   5.057   5.280
 3759SOL    HW212177   3.975   4.988   5.275
 3760SOL     OW12178   1.291   4.117   4.282
 3760SOL    HW112179   1.391   4.110   4.278
 3760SOL    HW212180   1.252   4.025   4.277
 3761SOL     OW12181   1.110   6.753   5.079
 3761SOL    HW112182   1.059   6.679   5.124
 3761SOL    HW212183   1.139   6.723   4.988
 3762SOL     OW12184   0.747   4.960   6.828
 3762SOL    HW112185   0.686   4.880   6.825
 3762SOL    HW212186   0.804   4.955   6.910
 3763SOL     OW12187   6.857   4.816   0.172
 3763SOL    HW112188   6.782   4.826   0.108
 3763SOL    HW212189   6.936   4.777   0.126
 3764SOL     OW12190   2.067   0.705   4.851
 3764SOL    HW112191   2.017   0.721   4.766
 3764SOL    HW212192   2.110   0.615   4.848
 3765SOL     OW12193   5.160   1.011   1.753
 3765SOL    HW112194   5.253   0.984   1.732
 3765SOL    HW212195   5.127   0.961   1.834
 3766SOL     OW12196   0.710   0.514   4.661
 3766SOL    HW112197   0.766   0.546   4.585
 3766SOL    HW212198   0.760   0.524   4.747
 3767SOL     OW12199   2.541   4.907   0.233
 3767SOL    HW112200   2.572   4.813   0.221
 3767SOL    HW212201   2.606   4.957   0.290
 3768SOL     OW12202   2.933   6.019   6.159
 3768SOL    HW112203   2.992   5.945   6.126
 3768SOL    HW212204   2.989   6.098   6.185
 3769SOL     OW12205   5.790   6.027   5.238
 3769SOL    HW112206   5.771   6.055   5.144
 3769SOL    HW212207   5.883   6.057   5.263
 3770SOL     OW12208   2.002   0.324   6.772
 3770SOL    HW112209   2.069   0.253   6.748
 3770SOL    HW212210   1.924   0.317   6.711
 3771SOL     OW12211   5.168   2.156   0.496
 3771SOL    HW112212   5.211   2.245   0.486
 3771SOL    HW212213   5.236   2.084   0.483
 3772SOL     OW12214   6.307   1.441   1.078
 3772SOL    HW112215   6.405   1.423   1.065
 3772SOL    HW212216   6.282   1.420   1.173
 3773SOL     OW12217   5.368   2.604   6.240
 3773SOL    HW112218   5.337   2.585   6.147
 3773SOL    HW212219   5.462   2.640   6.237
 3774SOL     OW12220   1.279   6.539   6.789
 3774SOL    HW112221   1.270   6.584   6.700
 3774SOL    HW212222   1.375   6.520   6.807
 3775SOL     OW12223   5.222   3.739   2.238
 3775SOL    HW112224   5.202   3.826   2.283
 3775SOL    HW212225   5.281   3.683   2.296
 3776SOL     OW12226   3.223   1.566   1.313
 3776SOL    HW112227   3.313   1.609   1.321
 3776SOL    HW212228   3.152   1.636   1.324
 3777SOL     OW12229   2.659   4.753   4.208
 3777SOL    HW112230   2.645   4.682   4.276
 3777SOL    HW212231   2.727   4.819   4.242
 3778SOL     OW12232   2.277   6.004   3.018
 3778SOL    HW112233   2.286   5.908   2.991
 3778SOL    HW212234   2.326   6.062   2.953
 3779SOL     OW12235   2.497   4.708   6.945
 3779SOL    HW112236   2.466   4.678   0.010
 3779SOL    HW212237   2.595   4.728   6.948
 3780SOL     OW12238   3.791   5.099   5.035
 3780SOL    HW112239   3.707   5.059   5.073
 3780SOL    HW212240   3.868   5.078   5.095
 3781SOL     OW12241   1.794   6.764   4.134
 3781SOL    HW112242   1.759   6.856   4.118
 3781SOL    HW212243   1.881   6.753   4.087
 3782SOL     OW12244   3.009   2.249   4.408
 3782SOL    HW112245   3.050   2.187   4.341
 3782SOL    HW212246   3.047   2.231   4.498
 3783SOL     OW12247   6.384   6.359   4.823
 3783SOL    HW112248   6.384   6.343   4.725
 3783SOL    HW212249   6.377   6.272   4.872
 3784SOL     OW12250   4.329   1.862   3.062
 3784SOL    HW112251   4.416   1.891   3.101
 3784SOL    HW212252   4.319   1.764   3.071
 3785SOL     OW12253   2.321   1.160   6.926
 3785SOL    HW112254   2.295   1.164   7.023
 3785SOL    HW212255   2.239   1.150   6.870
 3786SOL     OW12256   2.901   6.332   3.458
 3786SOL    HW112257   2.881   6.256   3.395
 3786SOL    HW212258   2.867   6.309   3.549
 3787SOL     OW12259   5.533   6.247   3.653
 3787SOL    HW112260   5.480   6.222   3.572
 3787SOL    HW212261   5.534   6.171   3.717
 3788SOL     OW12262   0.383   2.977   3.317
 3788SOL    HW112263   0.311   2.994   3.384
 3788SOL    HW212264   0.456   3.045   3.328
 3789SOL     OW12265   1.442   3.867   3.846
 3789SOL    HW112266   1.461   3.954   3.890
 3789SOL    HW212267   1.422   3.882   3.749
 3790SOL     OW12268   1.509   3.741   5.091
 3790SOL    HW112269   1.497   3.670   5.160
 3790SOL    HW212270   1.606   3.751   5.070
 3791SOL     OW12271   6.214   0.177   1.128
 3791SOL    HW112272   6.162   0.213   1.205
 3791SOL    HW212273   6.176   0.089   1.099
 3792SOL     OW12274   6.819   0.652   4.601
 3792SOL    HW112275   6.745   0.715   4.622
 3792SOL    HW212276   6.794   0.560   4.633
 3793SOL     OW12277   2.917   0.386   3.240
 3793SOL    HW112278   2.946   0.436   3.321
 3793SOL    HW212279   2.868   0.447   3.178
 3794SOL     OW12280   3.521   4.886   1.712
 3794SOL    HW112281   3.512   4.853   1.618
 3794SOL    HW212282   3.553   4.811   1.770
 3795SOL     OW12283   4.101   6.312   0.208
 3795SOL    HW112284   4.168   6.260   0.154
 3795SOL    HW212285   4.150   6.372   0.272
 3796SOL     OW12286   2.057   2.348   1.605
 3796SOL    HW112287   1.967   2.330   1.645
 3796SOL    HW212288   2.103   2.420   1.656
 3797SOL     OW12289   6.796   4.985   2.736
 3797SOL    HW112290   6.796   4.899   2.685
 3797SOL    HW212291   6.846   4.972   2.822
 3798SOL     OW12292   2.973   5.371   3.278
 3798SOL    HW112293   2.994   5.276   3.254
 3798SOL    HW212294   2.914   5.411   3.207
 3799SOL     OW12295   0.762   2.195   4.618
 3799SOL    HW112296   0.793   2.255   4.544
 3799SOL    HW212297   0.838   2.138   4.648
 3800SOL     OW12298   5.470   2.244   5.018
 3800SOL    HW112299   5.414   2.327   5.021
 3800SOL    HW212300   5.559   2.265   4.979
 3801SOL     OW12301   0.168   6.387   4.915
 3801SOL    HW112302   0.201   6.481   4.914
 3801SOL    HW212303   0.086   6.381   4.972
 3802SOL     OW12304   0.722   1.713   5.074
 3802SOL    HW112305   0.641   1.672   5.117
 3802SOL    HW212306   0.733   1.806   5.107
 3803SOL     OW12307   3.724   1.464   1.621
 3803SOL    HW112308   3.787   1.388   1.634
 3803SOL    HW212309   3.641   1.430   1.575
 3804SOL     OW12310   5.179   2.266   4.433
 3804SOL    HW112311   5.099   2.252   4.492
 3804SOL    HW212312   5.165   2.347   4.377
 3805SOL     OW12313   2.766   3.783   1.608
 3805SOL    HW112314   2.843   3.761   1.667
 3805SOL    HW212315   2.745   3.704   1.550
 3806SOL     OW12316   2.448   3.052   6.975
 3806SOL    HW112317   2.462   3.148   6.948
 3806SOL    HW212318   2.376   3.012   6.919
 3807SOL     OW12319   2.423   1.402   4.447
 3807SOL    HW112320   2.339   1.427   4.496
 3807SOL    HW212321   2.502   1.417   4.506
 3808SOL     OW12322   3.271   1.063   1.588
 3808SOL    HW112323   3.232   1.137   1.642
 3808SOL    HW212324   3.247   1.077   1.491
 3809SOL     OW12325   6.166   1.820   0.067
 3809SOL    HW112326   6.177   1.758   0.145
 3809SOL    HW212327   6.245   1.810   0.006
 3810SOL     OW12328   4.092   2.840   5.381
 3810SOL    HW112329   4.007   2.832   5.434
 3810SOL    HW212330   4.091   2.773   5.306
 3811SOL     OW12331   1.242   4.607   4.870
 3811SOL    HW112332   1.242   4.509   4.851
 3811SOL    HW212333   1.212   4.622   4.965
 3812SOL     OW12334   5.639   1.469   5.490
 3812SOL    HW112335   5.543   1.457   5.514
 3812SOL    HW212336   5.652   1.444   5.394
 3813SOL     OW12337   4.544   4.553   0.925
 3813SOL    HW112338   4.546   4.652   0.910
 3813SOL    HW212339   4.502   4.534   1.014
 3814SOL     OW12340   0.630   6.292   1.151
 3814SOL    HW112341   0.570   6.227   1.198
 3814SOL    HW212342   0.579   6.341   1.081
 3815SOL     OW12343   4.440   2.085   0.489
 3815SOL    HW112344   4.476   2.074   0.582
 3815SOL    HW212345   4.441   2.181   0.464
 3816SOL     OW12346   0.156   6.467   1.137
 3816SOL    HW112347   0.237   6.524   1.129
 3816SOL    HW212348   0.111   6.460   1.048
 3817SOL     OW12349   4.713   2.890   3.953
 3817SOL    HW112350   4.737   2.810   4.008
 3817SOL    HW212351   4.652   2.862   3.879
 3818SOL     OW12352   4.875   6.415   1.444
 3818SOL    HW112353   4.894   6.505   1.405
 3818SOL    HW212354   4.797   6.374   1.396
 3819SOL     OW12355   5.356   4.784   0.614
 3819SOL    HW112356   5.422   4.797   0.540
 3819SOL    HW212357   5.365   4.691   0.650
 3820SOL     OW12358   6.606   6.712   3.906
 3820SOL    HW112359   6.627   6.619   3.937
 3820SOL    HW212360   6.644   6.725   3.814
 3821SOL     OW12361   1.541   3.253   2.021
 3821SOL    HW112362   1.609   3.325   2.009
 3821SOL    HW212363   1.503   3.228   1.932
 3822SOL     OW12364   1.133   5.647   2.178
 3822SOL    HW112365   1.230   5.625   2.184
 3822SOL    HW212366   1.109   5.712   2.250
 3823SOL     OW12367   4.023   2.129   5.487
 3823SOL    HW112368   4.056   2.124   5.393
 3823SOL    HW212369   3.929   2.165   5.487
 3824SOL     OW12370   6.013   1.652   5.731
 3824SOL    HW112371   5.996   1.555   5.711
 3824SOL    HW212372   5.932   1.705   5.709
 3825SOL     OW12373   0.565   0.281   7.018
 3825SOL    HW112374   0.471   0.290   6.984
 3825SOL    HW212375   0.600   0.371   0.018
 3826SOL     OW12376   0.011   3.598   6.865
 3826SOL    HW112377   6.998   3.512   6.898
 3826SOL    HW212378   0.084   3.629   6.926
 3827SOL     OW12379   3.609   3.981   0.916
 3827SOL    HW112380   3.567   3.925   0.845
 3827SOL    HW212381   3.596   4.078   0.893
 3828SOL     OW12382   4.501   2.393   1.380
 3828SOL    HW112383   4.587   2.379   1.429
 3828SOL    HW212384   4.455   2.474   1.417
 3829SOL     OW12385   2.313   4.723   3.904
 3829SOL    HW112386   2.290   4.626   3.905
 3829SOL    HW212387   2.306   4.761   3.996
 3830SOL     OW12388   0.957   0.120   4.614
 3830SOL    HW112389   0.903   0.093   4.694
 3830SOL    HW212390   0.992   0.038   4.568
 3831SOL     OW12391   4.718   1.831   2.547
 3831SOL    HW112392   4.710   1.733   2.561
 3831SOL    HW212393   4.631   1.868   2.514
 3832SOL     OW12394   6.261   0.521   2.240
 3832SOL    HW112395   6.276   0.432   2.282
 3832SOL    HW212396   6.282   0.516   2.143
 3833SOL     OW12397   0.766   5.770   6.618
 3833SOL    HW112398   0.793   5.681   6.581
 3833SOL    HW212399   0.829   5.796   6.692
 3834SOL     OW12400   3.341   2.402   0.130
 3834SOL    HW112401   3.260   2.360   0.089
 3834SOL    HW212402   3.322   2.497   0.153
 3835SOL     OW12403   3.290   5.263   5.439
 3835SOL    HW112404   3.332   5.182   5.398
 3835SOL    HW212405   3.303   5.261   5.538
 3836SOL     OW12406   2.144   3.138   5.094
 3836SOL    HW112407   2.207   3.061   5.106
 3836SOL    HW212408   2.085   3.120   5.015
 3837SOL     OW12409   4.814   3.432   0.261
 3837SOL    HW112410   4.751   3.374   0.209
 3837SOL    HW212411   4.801   3.416   0.359
 3838SOL     OW12412   5.604   3.716   4.427
 3838SOL    HW112413   5.642   3.627   4.453
 3838SOL    HW212414   5.550   3.753   4.503
 3839SOL     OW12415   4.697   0.021   4.755
 3839SOL    HW112416   4.794   7.022   4.752
 3839SOL    HW212417   4.665   0.018   4.849
 3840SOL     OW12418   1.285   1.133   5.558
 3840SOL    HW112419   1.287   1.036   5.583
 3840SOL    HW212420   1.374   1.175   5.576
 3841SOL     OW12421   0.501   3.590   5.269
 3841SOL    HW112422   0.451   3.504   5.260
 3841SOL    HW212423   0.593   3.572   5.303
 3842SOL     OW12424   0.979   5.233   0.284
 3842SOL    HW112425   0.976   5.331   0.301
 3842SOL    HW212426   0.994   5.184   0.370
 3843SOL     OW12427   6.996   3.241   1.190
 3843SOL    HW112428   6.916   3.242   1.249
 3843SOL    HW212429   0.046   3.288   1.235
 3844SOL     OW12430   0.573   4.940   5.657
 3844SOL    HW112431   0.558   4.930   5.558
 3844SOL    HW212432   0.616   4.856   5.692
 3845SOL     OW12433   3.476   2.879   2.819
 3845SOL    HW112434   3.556   2.910   2.768
 3845SOL    HW212435   3.396   2.881   2.760
 3846SOL     OW12436   0.461   4.724   4.261
 3846SOL    HW112437   0.480   4.781   4.181
 3846SOL    HW212438   0.461   4.628   4.234
 3847SOL     OW12439   6.491   1.329   6.096
 3847SOL    HW112440   6.393   1.313   6.084
 3847SOL    HW212441   6.529   1.370   6.012
 3848SOL     OW12442   2.004   5.552   2.987
 3848SOL    HW112443   1.994   5.578   2.891
 3848SOL    HW212444   1.930   5.592   3.041
 3849SOL     OW12445   0.316   1.195   5.584
 3849SOL    HW112446   0.268   1.220   5.500
 3849SOL    HW212447   0.413   1.183   5.565
 3850SOL     OW12448   2.459   3.380   1.659
 3850SOL    HW112449   2.419   3.433   1.585
 3850SOL    HW212450   2.407   3.395   1.743
 3851SOL     OW12451   2.059   4.277   2.512
 3851SOL    HW112452   2.073   4.333   2.593
 3851SOL    HW212453   1.963   4.250   2.506
 3852SOL     OW12454   4.321   6.434   4.993
 3852SOL    HW112455   4.255   6.434   4.918
 3852SOL    HW212456   4.303   6.354   5.052
 3853SOL     OW12457   1.069   3.350   2.631
 3853SOL    HW112458   1.156   3.309   2.605
 3853SOL    HW212459   1.003   3.278   2.652
 3854SOL     OW12460   1.005   3.801   3.454
 3854SOL    HW112461   1.073   3.737   3.419
 3854SOL    HW212462   1.051   3.884   3.486
 3855SOL     OW12463   5.542   5.097   6.533
 3855SOL    HW112464   5.609   5.071   6.464
 3855SOL    HW212465   5.463   5.037   6.528
 3856SOL     OW12466   0.042   0.560   5.674
 3856SOL    HW112467   0.072   0.653   5.694
 3856SOL    HW212468   0.104   0.519   5.607
 3857SOL     OW12469   1.650   0.061   5.151
 3857SOL    HW112470   1.718   0.084   5.081
 3857SOL    HW212471   1.660   6.990   5.177
 3858SOL     OW12472   1.343   6.079   5.995
 3858SOL    HW112473   1.402   6.103   5.918
 3858SOL    HW212474   1.256   6.043   5.961
 3859SOL     OW12475   6.776   2.300   3.864
 3859SOL    HW112476   6.843   2.242   3.911
 3859SOL    HW212477   6.823   2.360   3.799
 3860SOL     OW12478   2.391   6.282   4.413
 3860SOL    HW112479   2.311   6.300   4.356
 3860SOL    HW212480   2.362   6.245   4.501
 3861SOL     OW12481   5.550   4.610   1.442
 3861SOL    HW112482   5.625   4.622   1.377
 3861SOL    HW212483   5.464   4.602   1.391
 3862SOL     OW12484   6.705   6.990   6.162
 3862SOL    HW112485   6.719   6.924   6.089
 3862SOL    HW212486   6.648   6.950   6.234
 3863SOL     OW12487   3.725   3.675   0.060
 3863SOL    HW112488   3.639   3.626   0.046
 3863SOL    HW212489   3.721   3.728   0.144
 3864SOL     OW12490   4.447   1.958   6.452
 3864SOL    HW112491   4.379   2.029   6.467
 3864SOL    HW212492   4.421   1.903   6.372
 3865SOL     OW12493   3.631   0.531   2.187
 3865SOL    HW112494   3.572   0.611   2.181
 3865SOL    HW212495   3.575   0.450   2.203
 3866SOL     OW12496   4.168   0.413   0.523
 3866SOL    HW112497   4.237   0.465   0.471
 3866SOL    HW212498   4.115   0.476   0.579
 3867SOL     OW12499   1.797   4.095   3.362
 3867SOL    HW112500   1.762   4.003   3.376
 3867SOL    HW212501   1.859   4.097   3.284
 3868SOL     OW12502   1.955   5.789   1.764
 3868SOL    HW112503   1.911   5.700   1.780
 3868SOL    HW212504   1.970   5.801   1.666
 3869SOL     OW12505   0.241   2.710   3.733
 3869SOL    HW112506   0.231   2.750   3.824
 3869SOL    HW212507   0.298   2.628   3.739
 3870SOL     OW12508   3.050   4.861   6.675
 3870SOL    HW112509   3.118   4.919   6.629
 3870SOL    HW212510   2.976   4.919   6.711
 3871SOL     OW12511   3.159   0.262   2.699
 3871SOL    HW112512   3.179   0.165   2.681
 3871SOL    HW212513   3.061   0.279   2.686
 3872SOL     OW12514   3.885   3.634   0.986
 3872SOL    HW112515   3.962   3.670   1.038
 3872SOL    HW212516   3.802   3.686   1.007
 3873SOL     OW12517   5.222   5.108   1.114
 3873SOL    HW112518   5.168   5.108   1.030
 3873SOL    HW212519   5.249   5.014   1.136
 3874SOL     OW12520   4.458   6.599   0.102
 3874SOL    HW112521   4.398   6.595   0.021
 3874SOL    HW212522   4.406   6.632   0.180
 3875SOL     OW12523   1.478   4.117   2.542
 3875SOL    HW112524   1.450   4.212   2.542
 3875SOL    HW212525   1.444   4.072   2.458
 3876SOL     OW12526   5.135   5.745   5.864
 3876SOL    HW112527   5.047   5.709   5.896
 3876SOL    HW212528   5.204   5.733   5.935
 3877SOL     OW12529   5.994   1.054   1.244
 3877SOL    HW112530   5.999   1.050   1.344
 3877SOL    HW212531   5.903   1.086   1.217
 3878SOL     OW12532   3.790   6.837   5.951
 3878SOL    HW112533   3.739   6.753   5.935
 3878SOL    HW212534   3.727   6.915   5.955
 3879SOL     OW12535   4.666   5.507   0.634
 3879SOL    HW112536   4.728   5.536   0.561
 3879SOL    HW212537   4.625   5.587   0.677
 3880SOL     OW12538   6.092   4.096   2.384
 3880SOL    HW112539   6.140   4.034   2.445
 3880SOL    HW212540   6.046   4.167   2.438
 3881SOL     OW12541   1.771   5.586   0.574
 3881SOL    HW112542   1.745   5.516   0.506
 3881SOL    HW212543   1.689   5.633   0.606
 3882SOL     OW12544   6.347   1.357   6.644
 3882SOL    HW112545   6.332   1.441   6.695
 3882SOL    HW212546   6.259   1.313   6.625
 3883SOL     OW12547   4.963   1.458   3.719
 3883SOL    HW112548   4.922   1.539   3.676
 3883SOL    HW212549   4.895   1.413   3.776
 3884SOL     OW12550   1.395   6.546   5.345
 3884SOL    HW112551   1.311   6.495   5.364
 3884SOL    HW212552   1.472   6.498   5.387
 3885SOL     OW12553   6.589   1.227   4.140
 3885SOL    HW112554   6.661   1.239   4.208
 3885SOL    HW212555   6.619   1.267   4.053
 3886SOL     OW12556   6.965   0.428   5.097
 3886SOL    HW112557   6.950   0.500   5.029
 3886SOL    HW212558   6.879   0.408   5.144
 3887SOL     OW12559   3.855   1.506   5.879
 3887SOL    HW112560   3.816   1.422   5.842
 3887SOL    HW212561   3.835   1.582   5.817
 3888SOL     OW12562   6.816   1.370   0.480
 3888SOL    HW112563   6.870   1.453   0.462
 3888SOL    HW212564   6.783   1.332   0.394
 3889SOL     OW12565   0.585   5.755   6.387
 3889SOL    HW112566   0.533   5.672   6.408
 3889SOL    HW212567   0.679   5.745   6.421
 3890SOL     OW12568   5.682   5.614   3.157
 3890SOL    HW112569   5.662   5.696   3.103
 3890SOL    HW212570   5.597   5.580   3.197
 3891SOL     OW12571   5.091   5.529   4.867
 3891SOL    HW112572   5.073   5.530   4.965
 3891SOL    HW212573   5.018   5.479   4.820
 3892SOL     OW12574   6.472   6.487   2.812
 3892SOL    HW112575   6.389   6.474   2.866
 3892SOL    HW212576   6.448   6.527   2.723
 3893SOL     OW12577   3.256   5.616   3.936
 3893SOL    HW112578   3.212   5.612   4.025
 3893SOL    HW212579   3.204   5.678   3.876
 3894SOL     OW12580   4.134   2.898   0.470
 3894SOL    HW112581   4.122   2.842   0.389
 3894SOL    HW212582   4.202   2.855   0.530
 3895SOL     OW12583   1.813   1.030   5.557
 3895SOL    HW112584   1.837   1.114   5.508
 3895SOL    HW212585   1.871   0.955   5.525
 3896SOL     OW12586   0.075   2.244   5.759
 3896SOL    HW112587   0.021   2.323   5.786
 3896SOL    HW212588   0.024   2.189   5.693
 3897SOL     OW12589   3.051   6.308   2.212
 3897SOL    HW112590   3.037   6.290   2.114
 3897SOL    HW212591   3.101   6.395   2.223
 3898SOL     OW12592   4.117   3.336   4.393
 3898SOL    HW112593   4.195   3.356   4.334
 3898SOL    HW212594   4.075   3.250   4.364
 3899SOL     OW12595   4.843   1.250   5.745
 3899SOL    HW112596   4.891   1.325   5.791
 3899SOL    HW212597   4.829   1.273   5.649
 3900SOL     OW12598   6.539   2.328   3.377
 3900SOL    HW112599   6.467   2.396   3.392
 3900SOL    HW212600   6.521   2.278   3.292
 3901SOL     OW12601   1.223   6.683   4.827
 3901SOL    HW112602   1.316   6.651   4.845
 3901SOL    HW212603   1.173   6.612   4.777
 3902SOL     OW12604   5.358   4.875   1.206
 3902SOL    HW112605   5.351   4.790   1.154
 3902SOL    HW212606   5.454   4.896   1.223
 3903SOL     OW12607   3.871   2.557   0.362
 3903SOL    HW112608   3.923   2.509   0.290
 3903SOL    HW212609   3.881   2.507   0.448
 3904SOL     OW12610   1.222   6.772   0.596
 3904SOL    HW112611   1.319   6.799   0.595
 3904SOL    HW212612   1.176   6.811   0.517
 3905SOL     OW12613   0.050   0.239   5.838
 3905SOL    HW112614   0.053   0.327   5.886
 3905SOL    HW212615   0.054   0.254   5.740
 3906SOL     OW12616   1.737   5.008   4.229
 3906SOL    HW112617   1.746   5.059   4.143
 3906SOL    HW212618   1.654   5.037   4.276
 3907SOL     OW12619   0.044   1.258   4.221
 3907SOL    HW112620   0.123   1.294   4.172
 3907SOL    HW212621   0.023   1.318   4.298
 3908SOL     OW12622   1.303   0.819   5.123
 3908SOL    HW112623   1.262   0.732   5.093
 3908SOL    HW212624   1.311   0.819   5.223
 3909SOL     OW12625   5.185   2.704   5.735
 3909SOL    HW112626   5.097   2.706   5.782
 3909SOL    HW212627   5.222   2.796   5.730
 3910SOL     OW12628   3.281   3.107   0.725
 3910SOL    HW112629   3.189   3.135   0.701
 3910SOL    HW212630   3.289   3.100   0.824
 3911SOL     OW12631   5.764   0.961   1.864
 3911SOL    HW112632   5.782   1.057   1.843
 3911SOL    HW212633   5.666   0.948   1.879
 3912SOL     OW12634   3.706   2.258   0.426
 3912SOL    HW112635   3.743   2.297   0.342
 3912SOL    HW212636   3.608   2.273   0.430
 3913SOL     OW12637   4.741   5.993   0.688
 3913SOL    HW112638   4.781   6.080   0.660
 3913SOL    HW212639   4.730   5.992   0.787
 3914SOL     OW12640   6.107   0.780   0.909
 3914SOL    HW112641   6.021   0.748   0.869
 3914SOL    HW212642   6.156   0.835   0.842
 3915SOL     OW12643   5.029   5.258   0.214
 3915SOL    HW112644   5.091   5.286   0.288
 3915SOL    HW212645   4.937   5.292   0.234
 3916SOL     OW12646   2.163   0.609   2.751
 3916SOL    HW112647   2.109   0.616   2.835
 3916SOL    HW212648   2.255   0.645   2.768
 3917SOL     OW12649   3.008   4.845   0.384
 3917SOL    HW112650   3.012   4.763   0.327
 3917SOL    HW212651   2.919   4.889   0.373
 3918SOL     OW12652   5.515   0.051   1.058
 3918SOL    HW112653   5.604   0.071   1.099
 3918SOL    HW212654   5.455   0.130   1.066
 3919SOL     OW12655   4.027   0.476   0.963
 3919SOL    HW112656   4.034   0.380   0.992
 3919SOL    HW212657   3.958   0.483   0.890
 3920SOL     OW12658   3.453   0.582   6.014
 3920SOL    HW112659   3.532   0.614   5.961
 3920SOL    HW212660   3.438   0.485   5.995
 3921SOL     OW12661   0.846   2.496   6.010
 3921SOL    HW112662   0.797   2.533   5.932
 3921SOL    HW212663   0.847   2.563   6.085
 3922SOL     OW12664   4.332   5.178   2.012
 3922SOL    HW112665   4.269   5.145   1.942
 3922SOL    HW212666   4.299   5.265   2.049
 3923SOL     OW12667   5.281   0.864   1.430
 3923SOL    HW112668   5.281   0.866   1.530
 3923SOL    HW212669   5.281   0.958   1.395
 3924SOL     OW12670   6.667   4.546   4.641
 3924SOL    HW112671   6.697   4.502   4.726
 3924SOL    HW212672   6.652   4.644   4.657
 3925SOL     OW12673   4.817   3.751   0.315
 3925SOL    HW112674   4.780   3.664   0.281
 3925SOL    HW212675   4.916   3.745   0.320
 3926SOL     OW12676   0.493   0.549   5.521
 3926SOL    HW112677   0.591   0.539   5.539
 3926SOL    HW212678   0.480   0.620   5.452
 3927SOL     OW12679   7.005   2.603   4.871
 3927SOL    HW112680   0.052   2.538   4.893
 3927SOL    HW212681   6.920   2.554   4.851
 3928SOL     OW12682   1.732   6.552   2.902
 3928SOL    HW112683   1.671   6.535   2.979
 3928SOL    HW212684   1.678   6.581   2.823
 3929SOL     OW12685   0.437   2.140   5.085
 3929SOL    HW112686   0.531   2.172   5.071
 3929SOL    HW212687   0.379   2.217   5.112
 3930SOL     OW12688   1.286   3.763   4.080
 3930SOL    HW112689   1.193   3.797   4.067
 3930SOL    HW212690   1.330   3.750   3.991
 3931SOL     OW12691   1.068   2.269   1.765
 3931SOL    HW112692   1.115   2.295   1.681
 3931SOL    HW212693   1.027   2.350   1.807
 3932SOL     OW12694   1.792   5.794   4.026
 3932SOL    HW112695   1.761   5.754   3.940
 3932SOL    HW212696   1.869   5.856   4.009
 3933SOL     OW12697   2.247   5.221   0.308
 3933SOL    HW112698   2.266   5.124   0.293
 3933SOL    HW212699   2.185   5.232   0.386
 3934SOL     OW12700   0.772   1.439   2.391
 3934SOL    HW112701   0.736   1.504   2.325
 3934SOL    HW212702   0.863   1.468   2.421
 3935SOL     OW12703   6.189   3.064   6.868
 3935SOL    HW112704   6.190   3.032   6.963
 3935SOL    HW212705   6.230   2.995   6.809
 3936SOL     OW12706   0.076   5.232   5.246
 3936SOL    HW112707   0.101   5.172   5.322
 3936SOL    HW212708   0.021   5.308   5.280
 3937SOL     OW12709   6.768   6.821   2.330
 3937SOL    HW112710   6.839   6.795   2.395
 3937SOL    HW212711   6.682   6.776   2.355
 3938SOL     OW12712   7.012   4.191   2.944
 3938SOL    HW112713   0.006   4.153   3.035
 3938SOL    HW212714   6.963   4.277   2.954
 3939SOL     OW12715   0.686   0.935   2.274
 3939SOL    HW112716   0.703   0.871   2.199
 3939SOL    HW212717   0.591   0.966   2.270
 3940SOL     OW12718   3.135   4.624   1.391
 3940SOL    HW112719   3.226   4.628   1.432
 3940SOL    HW212720   3.074   4.569   1.449
 3941SOL     OW12721   5.725   6.273   4.161
 3941SOL    HW112722   5.756   6.360   4.201
 3941SOL    HW212723   5.634   6.285   4.122
 3942SOL     OW12724   0.854   6.180   6.741
 3942SOL    HW112725   0.855   6.155   6.644
 3942SOL    HW212726   0.816   6.104   6.794
 3943SOL     OW12727   1.125   3.410   1.076
 3943SOL    HW112728   1.042   3.409   1.021
 3943SOL    HW212729   1.106   3.450   1.166
 3944SOL     OW12730   6.433   2.120   6.696
 3944SOL    HW112731   6.420   2.189   6.625
 3944SOL    HW212732   6.365   2.133   6.768
 3945SOL     OW12733   0.395   1.010   2.661
 3945SOL    HW112734   0.463   0.943   2.630
 3945SOL    HW212735   0.330   0.967   2.722
 3946SOL     OW12736   1.048   3.284   0.601
 3946SOL    HW112737   1.045   3.307   0.698
 3946SOL    HW212738   0.960   3.244   0.574
 3947SOL     OW12739   6.418   5.582   1.024
 3947SOL    HW112740   6.355   5.646   1.068
 3947SOL    HW212741   6.375   5.542   0.943
 3948SOL     OW12742   2.005   2.499   5.420
 3948SOL    HW112743   2.061   2.470   5.343
 3948SOL    HW212744   1.949   2.578   5.394
 3949SOL     OW12745   6.204   6.406   2.452
 3949SOL    HW112746   6.254   6.320   2.461
 3949SOL    HW212747   6.211   6.458   2.537
 3950SOL     OW12748   3.279   4.042   1.430
 3950SOL    HW112749   3.208   4.088   1.376
 3950SOL    HW212750   3.265   4.060   1.527
 3951SOL     OW12751   0.254   1.451   5.113
 3951SOL    HW112752   0.177   1.485   5.059
 3951SOL    HW212753   0.307   1.386   5.059
 3952SOL     OW12754   6.727   3.344   5.918
 3952SOL    HW112755   6.646   3.301   5.880
 3952SOL    HW212756   6.713   3.360   6.016
 3953SOL     OW12757   3.575   4.350   6.163
 3953SOL    HW112758   3.489   4.300   6.158
 3953SOL    HW212759   3.630   4.315   6.239
 3954SOL     OW12760   1.153   3.862   5.707
 3954SOL    HW112761   1.089   3.889   5.780
 3954SOL    HW212762   1.235   3.918   5.713
 3955SOL     OW12763   5.328   5.016   6.881
 3955SOL    HW112764   5.272   5.040   6.960
 3955SOL    HW212765   5.396   5.088   6.866
 3956SOL     OW12766   0.335   3.139   6.006
 3956SOL    HW112767   0.354   3.164   6.101
 3956SOL    HW212768   0.417   3.096   5.967
 3957SOL     OW12769   2.052   0.016   4.086
 3957SOL    HW112770   2.090   7.018   4.175
 3957SOL    HW212771   2.111   0.083   4.040
 3958SOL     OW12772   5.605   6.667   5.258
 3958SOL    HW112773   5.541   6.710   5.322
 3958SOL    HW212774   5.685   6.633   5.309
 3959SOL     OW12775   3.334   4.924   6.920
 3959SOL    HW112776   3.332   4.965   6.828
 3959SOL    HW212777   3.410   4.859   6.925
 3960SOL     OW12778   3.933   3.119   0.305
 3960SOL    HW112779   3.876   3.201   0.293
 3960SOL    HW212780   3.913   3.054   0.232
 3961SOL     OW12781   4.598   0.441   1.417
 3961SOL    HW112782   4.601   0.361   1.358
 3961SOL    HW212783   4.640   0.420   1.505
 3962SOL     OW12784   0.973   0.374   6.593
 3962SOL    HW112785   0.878   0.361   6.620
 3962SOL    HW212786   1.030   0.377   6.675
 3963SOL     OW12787   4.719   5.544   3.926
 3963SOL    HW112788   4.664   5.496   3.857
 3963SOL    HW212789   4.661   5.573   4.002
 3964SOL     OW12790   4.931   6.058   5.370
 3964SOL    HW112791   4.998   6.028   5.438
 3964SOL    HW212792   4.848   6.003   5.378
 3965SOL     OW12793   3.080   3.633   0.267
 3965SOL    HW112794   3.078   3.686   0.352
 3965SOL    HW212795   2.990   3.592   0.251
 3966SOL     OW12796   6.413   4.509   5.239
 3966SOL    HW112797   6.477   4.558   5.298
 3966SOL    HW212798   6.383   4.425   5.283
 3967SOL     OW12799   0.672   6.035   6.280
 3967SOL    HW112800   0.575   6.028   6.302
 3967SOL    HW212801   0.683   6.053   6.182
 3968SOL     OW12802   5.509   1.007   2.406
 3968SOL    HW112803   5.485   0.911   2.419
 3968SOL    HW212804   5.555   1.018   2.317
 3969SOL     OW12805   0.690   4.777   2.873
 3969SOL    HW112806   0.640   4.711   2.929
 3969SOL    HW212807   0.708   4.860   2.927
 3970SOL     OW12808   5.117   4.450   2.947
 3970SOL    HW112809   5.202   4.487   2.908
 3970SOL    HW212810   5.044   4.456   2.879
 3971SOL     OW12811   1.741   6.138   3.224
 3971SOL    HW112812   1.770   6.136   3.128
 3971SOL    HW212813   1.805   6.194   3.277
 3972SOL     OW12814   0.488   6.761   0.433
 3972SOL    HW112815   0.432   6.843   0.420
 3972SOL    HW212816   0.472   6.698   0.357
 3973SOL     OW12817   3.123   4.069   4.624
 3973SOL    HW112818   3.177   4.098   4.545
 3973SOL    HW212819   3.062   4.143   4.652
 3974SOL     OW12820   6.309   0.902   6.697
 3974SOL    HW112821   6.360   0.827   6.657
 3974SOL    HW212822   6.253   0.867   6.773
 3975SOL     OW12823   6.597   1.096   6.183
 3975SOL    HW112824   6.558   1.181   6.148
 3975SOL    HW212825   6.654   1.055   6.112
 3976SOL     OW12826   1.357   3.648   0.745
 3976SOL    HW112827   1.376   3.622   0.650
 3976SOL    HW212828   1.423   3.718   0.773
 3977SOL     OW12829   2.958   6.305   6.501
 3977SOL    HW112830   3.040   6.362   6.514
 3977SOL    HW212831   2.883   6.343   6.555
 3978SOL     OW12832   6.230   2.578   5.961
 3978SOL    HW112833   6.230   2.528   6.048
 3978SOL    HW212834   6.187   2.522   5.890
 3979SOL     OW12835   0.510   6.772   2.190
 3979SOL    HW112836   0.588   6.748   2.248
 3979SOL    HW212837   0.534   6.853   2.136
 3980SOL     OW12838   4.818   3.086   4.356
 3980SOL    HW112839   4.818   3.115   4.451
 3980SOL    HW212840   4.765   3.002   4.346
 3981SOL     OW12841   6.867   2.083   0.343
 3981SOL    HW112842   6.844   2.152   0.411
 3981SOL    HW212843   6.832   2.111   0.254
 3982SOL     OW12844   2.549   1.968   3.810
 3982SOL    HW112845   2.594   2.017   3.885
 3982SOL    HW212846   2.617   1.932   3.747
 3983SOL     OW12847   2.918   6.290   4.224
 3983SOL    HW112848   2.823   6.275   4.250
 3983SOL    HW212849   2.978   6.276   4.303
 3984SOL     OW12850   1.861   6.048   1.829
 3984SOL    HW112851   1.921   5.969   1.816
 3984SOL    HW212852   1.845   6.062   1.927
 3985SOL     OW12853   2.446   3.095   1.053
 3985SOL    HW112854   2.356   3.072   1.089
 3985SOL    HW212855   2.517   3.054   1.111
 3986SOL     OW12856   0.147   2.010   2.292
 3986SOL    HW112857   0.164   2.090   2.234
 3986SOL    HW212858   0.050   2.005   2.315
 3987SOL     OW12859   2.309   4.819   6.542
 3987SOL    HW112860   2.325   4.810   6.641
 3987SOL    HW212861   2.397   4.832   6.496
 3988SOL     OW12862   3.967   3.019   0.842
 3988SOL    HW112863   3.935   3.035   0.748
 3988SOL    HW212864   4.048   3.075   0.859
 3989SOL     OW12865   6.095   6.412   0.293
 3989SOL    HW112866   6.174   6.441   0.238
 3989SOL    HW212867   6.070   6.318   0.268
 3990SOL     OW12868   0.906   3.739   3.691
 3990SOL    HW112869   0.925   3.756   3.595
 3990SOL    HW212870   0.899   3.826   3.740
 3991SOL     OW12871   0.342   2.112   3.977
 3991SOL    HW112872   0.272   2.092   3.909
 3991SOL    HW212873   0.336   2.047   4.053
 3992SOL     OW12874   4.353   3.520   6.245
 3992SOL    HW112875   4.345   3.421   6.252
 3992SOL    HW212876   4.429   3.544   6.185
 3993SOL     OW12877   2.904   2.121   2.855
 3993SOL    HW112878   2.834   2.187   2.828
 3993SOL    HW212879   2.988   2.137   2.802
 3994SOL     OW12880   2.435   2.635   3.857
 3994SOL    HW112881   2.484   2.601   3.777
 3994SOL    HW212882   2.480   2.601   3.940
 3995SOL     OW12883   2.125   4.215   3.078
 3995SOL    HW112884   2.187   4.241   3.152
 3995SOL    HW212885   2.176   4.160   3.011
 3996SOL     OW12886   0.717   1.154   3.288
 3996SOL    HW112887   0.759   1.237   3.324
 3996SOL    HW212888   0.661   1.177   3.209
 3997SOL     OW12889   5.709   3.817   3.054
 3997SOL    HW112890   5.707   3.752   2.978
 3997SOL    HW212891   5.731   3.908   3.019
 3998SOL     OW12892   6.397   2.248   3.162
 3998SOL    HW112893   6.326   2.213   3.223
 3998SOL    HW212894   6.433   2.174   3.107
 3999SOL     OW12895   5.712   3.823   2.446
 3999SOL    HW112896   5.725   3.788   2.353
 3999SOL    HW212897   5.633   3.778   2.487
 4000SOL     OW12898   2.559   5.516   2.577
 4000SOL    HW112899   2.616   5.565   2.511
 4000SOL    HW212900   2.555   5.568   2.663
 4001SOL     OW12901   2.540   3.843   5.590
 4001SOL    HW112902   2.440   3.833   5.593
 4001SOL    HW212903   2.570   3.848   5.495
 4002SOL     OW12904   3.346   3.264   4.801
 4002SOL    HW112905   3.271   3.279   4.736
 4002SOL    HW212906   3.410   3.341   4.795
 4003SOL     OW12907   2.654   0.992   5.700
 4003SOL    HW112908   2.729   1.050   5.668
 4003SOL    HW212909   2.648   0.910   5.645
 4004SOL     OW12910   6.963   3.776   2.771
 4004SOL    HW112911   6.995   3.685   2.742
 4004SOL    HW212912   6.890   3.765   2.839
 4005SOL     OW12913   4.729   3.537   1.328
 4005SOL    HW112914   4.647   3.567   1.377
 4005SOL    HW212915   4.711   3.538   1.229
 4006SOL     OW12916   4.792   5.486   2.462
 4006SOL    HW112917   4.711   5.452   2.509
 4006SOL    HW212918   4.869   5.424   2.478
 4007SOL     OW12919   1.141   1.721   3.340
 4007SOL    HW112920   1.142   1.632   3.295
 4007SOL    HW212921   1.182   1.789   3.279
 4008SOL     OW12922   2.979   6.910   0.511
 4008SOL    HW112923   2.893   6.860   0.507
 4008SOL    HW212924   2.965   7.004   0.478
 4009SOL     OW12925   4.625   2.011   1.052
 4009SOL    HW112926   4.537   2.029   1.096
 4009SOL    HW212927   4.659   2.095   1.010
 4010SOL     OW12928   3.790   4.350   1.393
 4010SOL    HW112929   3.704   4.392   1.419
 4010SOL    HW212930   3.864   4.387   1.450
 4011SOL     OW12931   7.024   5.921   0.534
 4011SOL    HW112932   0.065   5.966   0.475
 4011SOL    HW212933   6.965   5.990   0.578
 4012SOL     OW12934   4.506   6.985   1.636
 4012SOL    HW112935   4.417   0.002   1.657
 4012SOL    HW212936   4.511   6.895   1.680
 4013SOL     OW12937   2.103   0.383   0.809
 4013SOL    HW112938   2.179   0.326   0.778
 4013SOL    HW212939   2.021   0.327   0.817
 4014SOL     OW12940   3.088   6.042   3.573
 4014SOL    HW112941   3.106   6.058   3.476
 4014SOL    HW212942   3.016   6.104   3.604
 4015SOL     OW12943   4.513   5.016   6.072
 4015SOL    HW112944   4.479   4.935   6.120
 4015SOL    HW212945   4.606   4.999   6.040
 4016SOL     OW12946   3.443   5.108   6.681
 4016SOL    HW112947   3.515   5.156   6.731
 4016SOL    HW212948   3.358   5.160   6.687
 4017SOL     OW12949   0.918   5.191   5.433
 4017SOL    HW112950   0.856   5.238   5.496
 4017SOL    HW212951   1.012   5.206   5.462
 4018SOL     OW12952   3.580   6.376   2.044
 4018SOL    HW112953   3.658   6.344   1.991
 4018SOL    HW212954   3.545   6.461   2.005
 4019SOL     OW12955   5.563   3.027   2.380
 4019SOL    HW112956   5.619   3.079   2.445
 4019SOL    HW212957   5.608   2.941   2.359
 4020SOL     OW12958   0.265   3.870   4.297
 4020SOL    HW112959   0.363   3.883   4.312
 4020SOL    HW212960   0.239   3.776   4.322
 4021SOL     OW12961   3.367   3.425   5.565
 4021SOL    HW112962   3.392   3.328   5.558
 4021SOL    HW212963   3.426   3.479   5.506
 4022SOL     OW12964   3.980   6.759   0.902
 4022SOL    HW112965   3.881   6.771   0.902
 4022SOL    HW212966   4.003   6.665   0.927
 4023SOL     OW12967   0.179   1.218   5.357
 4023SOL    HW112968   0.222   1.301   5.321
 4023SOL    HW212969   0.122   1.177   5.286
 4024SOL     OW12970   1.593   4.918   3.962
 4024SOL    HW112971   1.561   5.013   3.957
 4024SOL    HW212972   1.569   4.879   4.050
 4025SOL     OW12973   1.109   5.681   4.385
 4025SOL    HW112974   1.160   5.655   4.303
 4025SOL    HW212975   1.011   5.666   4.369
 4026SOL     OW12976   6.209   6.205   4.303
 4026SOL    HW112977   6.304   6.204   4.271
 4026SOL    HW212978   6.188   6.295   4.341
 4027SOL     OW12979   2.650   2.304   6.826
 4027SOL    HW112980   2.603   2.381   6.783
 4027SOL    HW212981   2.657   2.320   6.924
 4028SOL     OW12982   4.578   1.632   3.490
 4028SOL    HW112983   4.491   1.604   3.449
 4028SOL    HW212984   4.562   1.706   3.555
 4029SOL     OW12985   3.078   4.095   6.166
 4029SOL    HW112986   3.091   4.180   6.115
 4029SOL    HW212987   3.113   4.018   6.112
 4030SOL     OW12988   6.975   1.150   1.881
 4030SOL    HW112989   7.003   1.241   1.913
 4030SOL    HW212990   6.966   1.152   1.781
 4031SOL     OW12991   5.526   0.502   2.679
 4031SOL    HW112992   5.515   0.516   2.777
 4031SOL    HW212993   5.616   0.538   2.651
 4032SOL     OW12994   6.322   6.643   2.139
 4032SOL    HW112995   6.301   6.545   2.142
 4032SOL    HW212996   6.334   6.672   2.044
 4033SOL     OW12997   2.581   2.041   2.685
 4033SOL    HW112998   2.642   2.118   2.671
 4033SOL    HW212999   2.603   1.995   2.771
 4034SOL     OW13000   6.131   2.234   5.245
 4034SOL    HW113001   6.045   2.258   5.200
 4034SOL    HW213002   6.206   2.287   5.204
 4035SOL     OW13003   6.525   1.507   1.256
 4035SOL    HW113004   6.436   1.475   1.290
 4035SOL    HW213005   6.537   1.604   1.280
 4036SOL     OW13006   4.092   4.742   2.244
 4036SOL    HW113007   4.152   4.820   2.263
 4036SOL    HW213008   4.029   4.766   2.171
 4037SOL     OW13009   2.961   1.342   6.125
 4037SOL    HW113010   2.979   1.435   6.156
 4037SOL    HW213011   2.882   1.341   6.065
 4038SOL     OW13012   4.696   3.250   0.050
 4038SOL    HW113013   4.759   3.223   7.003
 4038SOL    HW213014   4.608   3.276   0.010
 4039SOL     OW13015   4.805   5.919   1.600
 4039SOL    HW113016   4.833   6.008   1.636
 4039SOL    HW213017   4.719   5.930   1.550
 4040SOL     OW13018   2.933   6.182   4.653
 4040SOL    HW113019   2.947   6.091   4.614
 4040SOL    HW213020   2.886   6.174   4.741
 4041SOL     OW13021   1.923   6.269   1.661
 4041SOL    HW113022   1.929   6.247   1.564
 4041SOL    HW213023   1.940   6.187   1.715
 4042SOL     OW13024   6.068   6.413   3.161
 4042SOL    HW113025   6.167   6.426   3.159
 4042SOL    HW213026   6.043   6.339   3.098
 4043SOL     OW13027   6.663   1.993   6.749
 4043SOL    HW113028   6.583   2.047   6.721
 4043SOL    HW213029   6.718   2.047   6.812
 4044SOL     OW13030   5.362   4.806   2.741
 4044SOL    HW113031   5.375   4.793   2.643
 4044SOL    HW213032   5.386   4.900   2.765
 4045SOL     OW13033   4.101   6.609   5.814
 4045SOL    HW113034   4.182   6.564   5.778
 4045SOL    HW213035   4.026   6.600   5.748
 4046SOL     OW13036   1.059   1.803   2.767
 4046SOL    HW113037   1.074   1.901   2.775
 4046SOL    HW213038   1.005   1.770   2.844
 4047SOL     OW13039   2.043   2.503   6.705
 4047SOL    HW113040   2.007   2.595   6.690
 4047SOL    HW213041   1.985   2.455   6.771
 4048SOL     OW13042   5.450   1.320   1.656
 4048SOL    HW113043   5.462   1.354   1.563
 4048SOL    HW213044   5.466   1.394   1.721
 4049SOL     OW13045   4.566   6.237   6.110
 4049SOL    HW113046   4.585   6.334   6.123
 4049SOL    HW213047   4.563   6.192   6.199
 4050SOL     OW13048   0.893   6.441   2.446
 4050SOL    HW113049   0.816   6.399   2.493
 4050SOL    HW213050   0.947   6.494   2.512
 4051SOL     OW13051   4.710   1.024   6.544
 4051SOL    HW113052   4.637   1.066   6.490
 4051SOL    HW213053   4.710   1.063   6.636
 4052SOL     OW13054   6.022   2.319   3.460
 4052SOL    HW113055   6.012   2.361   3.550
 4052SOL    HW213056   6.085   2.373   3.405
 4053SOL     OW13057   2.086   6.041   4.616
 4053SOL    HW113058   2.019   6.079   4.554
 4053SOL    HW213059   2.138   5.969   4.570
 4054SOL     OW13060   5.027   4.391   0.786
 4054SOL    HW113061   5.049   4.342   0.702
 4054SOL    HW213062   5.022   4.325   0.862
 4055SOL     OW13063   1.634   4.176   1.038
 4055SOL    HW113064   1.595   4.101   1.091
 4055SOL    HW213065   1.608   4.264   1.080
 4056SOL     OW13066   5.230   3.859   1.060
 4056SOL    HW113067   5.268   3.948   1.034
 4056SOL    HW213068   5.300   3.789   1.050
 4057SOL     OW13069   6.885   2.976   0.065
 4057SOL    HW113070   6.896   2.890   0.113
 4057SOL    HW213071   6.975   3.020   0.054
 4058SOL     OW13072   2.963   6.548   4.788
 4058SOL    HW113073   2.888   6.481   4.791
 4058SOL    HW213074   3.014   6.543   4.873
 4059SOL     OW13075   0.382   2.407   3.294
 4059SOL    HW113076   0.451   2.468   3.254
 4059SOL    HW213077   0.294   2.453   3.296
 4060SOL     OW13078   5.387   5.008   5.582
 4060SOL    HW113079   5.426   4.966   5.664
 4060SOL    HW213080   5.398   5.107   5.587
 4061SOL     OW13081   2.539   4.550   2.041
 4061SOL    HW113082   2.546   4.454   2.066
 4061SOL    HW213083   2.611   4.574   1.976
 4062SOL     OW13084   2.818   0.439   2.394
 4062SOL    HW113085   2.843   0.468   2.301
 4062SOL    HW213086   2.812   0.520   2.453
 4063SOL     OW13087   6.264   6.878   0.664
 4063SOL    HW113088   6.234   6.827   0.745
 4063SOL    HW213089   6.310   6.816   0.600
 4064SOL     OW13090   2.942   1.916   4.299
 4064SOL    HW113091   3.008   1.890   4.370
 4064SOL    HW213092   2.987   1.974   4.231
 4065SOL     OW13093   0.964   0.213   1.703
 4065SOL    HW113094   0.939   0.126   1.661
 4065SOL    HW213095   1.059   0.235   1.679
 4066SOL     OW13096   6.369   4.247   2.553
 4066SOL    HW113097   6.400   4.325   2.499
 4066SOL    HW213098   6.402   4.162   2.510
 4067SOL     OW13099   5.281   3.881   3.768
 4067SOL    HW113100   5.245   3.795   3.804
 4067SOL    HW213101   5.216   3.919   3.702
 4068SOL     OW13102   2.605   2.143   4.350
 4068SOL    HW113103   2.666   2.220   4.369
 4068SOL    HW213104   2.594   2.088   4.432
 4069SOL     OW13105   3.804   5.131   6.938
 4069SOL    HW113106   3.789   5.037   6.906
 4069SOL    HW213107   3.755   5.195   6.880
 4070SOL     OW13108   0.287   2.984   2.702
 4070SOL    HW113109   0.256   2.926   2.777
 4070SOL    HW213110   0.254   2.946   2.615
 4071SOL     OW13111   1.372   1.441   4.830
 4071SOL    HW113112   1.354   1.476   4.738
 4071SOL    HW213113   1.312   1.364   4.850
 4072SOL     OW13114   0.643   5.931   4.666
 4072SOL    HW113115   0.612   6.002   4.603
 4072SOL    HW213116   0.732   5.896   4.637
 4073SOL     OW13117   3.118   5.552   6.160
 4073SOL    HW113118   3.147   5.458   6.141
 4073SOL    HW213119   3.033   5.571   6.111
 4074SOL     OW13120   0.380   4.635   1.171
 4074SOL    HW113121   0.437   4.644   1.090
 4074SOL    HW213122   0.302   4.576   1.152
 4075SOL     OW13123   4.775   1.975   1.323
 4075SOL    HW113124   4.718   1.980   1.242
 4075SOL    HW213125   4.718   1.954   1.403
 4076SOL     OW13126   2.425   3.278   6.266
 4076SOL    HW113127   2.469   3.192   6.240
 4076SOL    HW213128   2.485   3.354   6.243
 4077SOL     OW13129   4.057   1.994   1.145
 4077SOL    HW113130   4.074   2.090   1.123
 4077SOL    HW213131   4.052   1.984   1.245
 4078SOL     OW13132   2.100   4.753   2.144
 4078SOL    HW113133   2.039   4.784   2.217
 4078SOL    HW213134   2.052   4.757   2.057
 4079SOL     OW13135   2.164   1.175   2.825
 4079SOL    HW113136   2.139   1.270   2.812
 4079SOL    HW213137   2.101   1.116   2.775
 4080SOL     OW13138   4.528   2.856   5.853
 4080SOL    HW113139   4.625   2.851   5.829
 4080SOL    HW213140   4.496   2.950   5.841
 4081SOL     OW13141   1.407   2.755   3.607
 4081SOL    HW113142   1.387   2.785   3.513
 4081SOL    HW213143   1.395   2.656   3.613
 4082SOL     OW13144   0.526   3.934   0.135
 4082SOL    HW113145   0.478   3.925   0.048
 4082SOL    HW213146   0.462   3.923   0.210
 4083SOL     OW13147   6.531   3.140   3.000
 4083SOL    HW113148   6.518   3.098   2.910
 4083SOL    HW213149   6.442   3.152   3.044
 4084SOL     OW13150   5.793   1.899   3.855
 4084SOL    HW113151   5.732   1.861   3.785
 4084SOL    HW213152   5.876   1.844   3.860
 4085SOL     OW13153   4.002   5.508   0.719
 4085SOL    HW113154   3.920   5.565   0.715
 4085SOL    HW213155   4.019   5.467   0.630
 4086SOL     OW13156   2.157   6.059   1.939
 4086SOL    HW113157   2.081   6.104   1.985
 4086SOL    HW213158   2.192   6.118   1.867
 4087SOL     OW13159   3.138   2.068   3.396
 4087SOL    HW113160   3.234   2.058   3.372
 4087SOL    HW213161   3.082   2.064   3.313
 4088SOL     OW13162   0.461   2.039   0.935
 4088SOL    HW113163   0.462   1.949   0.977
 4088SOL    HW213164   0.532   2.096   0.976
 4089SOL     OW13165   6.512   6.206   3.835
 4089SOL    HW113166   6.421   6.230   3.803
 4089SOL    HW213167   6.507   6.131   3.900
 4090SOL     OW13168   2.278   4.156   5.643
 4090SOL    HW113169   2.322   4.129   5.728
 4090SOL    HW213170   2.224   4.239   5.657
 4091SOL     OW13171   6.685   6.122   0.273
 4091SOL    HW113172   6.634   6.126   0.188
 4091SOL    HW213173   6.719   6.213   0.296
 4092SOL     OW13174   6.432   3.261   5.131
 4092SOL    HW113175   6.369   3.183   5.131
 4092SOL    HW213176   6.458   3.282   5.225
 4093SOL     OW13177   4.072   0.018   3.498
 4093SOL    HW113178   4.171   0.015   3.485
 4093SOL    HW213179   4.050   0.072   3.579
 4094SOL     OW13180   2.142   5.658   4.657
 4094SOL    HW113181   2.168   5.598   4.582
 4094SOL    HW213182   2.156   5.753   4.630
 4095SOL     OW13183   0.682   3.643   6.650
 4095SOL    HW113184   0.749   3.716   6.638
 4095SOL    HW213185   0.678   3.587   6.567
 4096SOL     OW13186   4.712   5.385   0.885
 4096SOL    HW113187   4.708   5.470   0.937
 4096SOL    HW213188   4.716   5.405   0.787
 4097SOL     OW13189   3.820   3.726   6.315
 4097SOL    HW113190   3.893   3.788   6.285
 4097SOL    HW213191   3.846   3.632   6.297
 4098SOL     OW13192   0.213   3.029   2.024
 4098SOL    HW113193   0.160   3.055   1.943
 4098SOL    HW213194   0.301   2.990   1.995
 4099SOL     OW13195   3.033   4.846   0.946
 4099SOL    HW113196   3.054   4.825   1.041
 4099SOL    HW213197   3.113   4.825   0.889
 4100SOL     OW13198   6.390   6.131   5.032
 4100SOL    HW113199   6.367   6.055   5.093
 4100SOL    HW213200   6.426   6.095   4.946
 4101SOL     OW13201   5.862   0.778   0.789
 4101SOL    HW113202   5.896   0.826   0.708
 4101SOL    HW213203   5.856   0.842   0.866
 4102SOL     OW13204   6.470   0.607   1.576
 4102SOL    HW113205   6.514   0.531   1.529
 4102SOL    HW213206   6.496   0.607   1.672
 4103SOL     OW13207   0.472   0.473   0.833
 4103SOL    HW113208   0.444   0.397   0.891
 4103SOL    HW213209   0.454   0.451   0.737
 4104SOL     OW13210   0.922   4.812   1.982
 4104SOL    HW113211   0.834   4.845   2.015
 4104SOL    HW213212   0.963   4.753   2.052
 4105SOL     OW13213   4.136   5.465   1.206
 4105SOL    HW113214   4.133   5.436   1.111
 4105SOL    HW213215   4.080   5.403   1.262
 4106SOL     OW13216   0.697   2.008   5.209
 4106SOL    HW113217   0.602   1.976   5.210
 4106SOL    HW213218   0.700   2.105   5.232
 4107SOL     OW13219   1.678   6.200   1.174
 4107SOL    HW113220   1.606   6.209   1.105
 4107SOL    HW213221   1.645   6.144   1.250
 4108SOL     OW13222   0.088   4.884   6.461
 4108SOL    HW113223   0.072   4.946   6.384
 4108SOL    HW213224   0.032   4.913   6.539
 4109SOL     OW13225   4.593   5.900   4.857
 4109SOL    HW113226   4.525   5.830   4.837
 4109SOL    HW213227   4.577   5.937   4.949
 4110SOL     OW13228   4.774   3.057   6.390
 4110SOL    HW113229   4.683   3.044   6.350
 4110SOL    HW213230   4.788   2.990   6.463
 4111SOL     OW13231   4.146   2.745   6.638
 4111SOL    HW113232   4.225   2.804   6.621
 4111SOL    HW213233   4.063   2.801   6.645
 4112SOL     OW13234   4.944   0.791   5.452
 4112SOL    HW113235   4.939   0.692   5.441
 4112SOL    HW213236   4.961   0.814   5.547
 4113SOL     OW13237   4.523   6.537   4.586
 4113SOL    HW113238   4.503   6.588   4.670
 4113SOL    HW213239   4.509   6.439   4.603
 4114SOL     OW13240   3.874   2.161   3.918
 4114SOL    HW113241   3.964   2.181   3.957
 4114SOL    HW213242   3.871   2.194   3.823
 4115SOL     OW13243   4.268   6.187   2.063
 4115SOL    HW113244   4.338   6.233   2.117
 4115SOL    HW213245   4.310   6.123   1.999
 4116SOL     OW13246   3.929   2.027   1.714
 4116SOL    HW113247   4.005   1.978   1.672
 4116SOL    HW213248   3.934   2.017   1.813
 4117SOL     OW13249   0.645   5.369   1.815
 4117SOL    HW113250   0.709   5.328   1.749
 4117SOL    HW213251   0.679   5.354   1.908
 4118SOL     OW13252   2.577   6.321   1.018
 4118SOL    HW113253   2.654   6.313   1.081
 4118SOL    HW213254   2.612   6.332   0.925
 4119SOL     OW13255   4.070   2.252   3.392
 4119SOL    HW113256   4.143   2.228   3.456
 4119SOL    HW213257   3.989   2.281   3.443
 4120SOL     OW13258   4.373   0.626   0.860
 4120SOL    HW113259   4.335   0.566   0.931
 4120SOL    HW213260   4.300   0.679   0.818
 4121SOL     OW13261   5.910   1.434   5.257
 4121SOL    HW113262   5.956   1.365   5.312
 4121SOL    HW213263   5.815   1.405   5.239
 4122SOL     OW13264   0.898   6.407   5.542
 4122SOL    HW113265   0.825   6.418   5.474
 4122SOL    HW213266   0.864   6.351   5.618
 4123SOL     OW13267   4.874   4.744   5.257
 4123SOL    HW113268   4.865   4.645   5.251
 4123SOL    HW213269   4.968   4.771   5.238
 4124SOL     OW13270   6.009   5.084   5.771
 4124SOL    HW113271   6.078   5.116   5.835
 4124SOL    HW213272   5.928   5.143   5.776
 4125SOL     OW13273   4.715   1.179   1.869
 4125SOL    HW113274   4.638   1.170   1.932
 4125SOL    HW213275   4.702   1.260   1.812
 4126SOL     OW13276   1.365   4.366   3.975
 4126SOL    HW113277   1.369   4.463   4.000
 4126SOL    HW213278   1.287   4.350   3.914
 4127SOL     OW13279   4.782   4.666   4.590
 4127SOL    HW113280   4.852   4.596   4.604
 4127SOL    HW213281   4.704   4.646   4.650
 4128SOL     OW13282   1.288   3.417   1.909
 4128SOL    HW113283   1.336   3.365   1.838
 4128SOL    HW213284   1.270   3.510   1.877
 4129SOL     OW13285   5.036   1.208   6.594
 4129SOL    HW113286   5.115   1.158   6.559
 4129SOL    HW213287   4.959   1.146   6.604
 4130SOL     OW13288   6.991   3.332   5.971
 4130SOL    HW113289   7.022   3.239   5.948
 4130SOL    HW213290   6.891   3.335   5.972
 4131SOL     OW13291   1.134   5.694   3.924
 4131SOL    HW113292   1.180   5.639   3.854
 4131SOL    HW213293   1.101   5.634   3.997
 4132SOL     OW13294   5.012   4.688   4.043
 4132SOL    HW113295   5.051   4.687   3.951
 4132SOL    HW213296   5.084   4.706   4.110
 4133SOL     OW13297   2.881   6.564   1.828
 4133SOL    HW113298   2.847   6.644   1.877
 4133SOL    HW213299   2.929   6.594   1.746
 4134SOL     OW13300   1.786   2.528   0.549
 4134SOL    HW113301   1.776   2.436   0.511
 4134SOL    HW213302   1.703   2.581   0.533
 4135SOL     OW13303   2.138   0.590   2.457
 4135SOL    HW113304   2.114   0.590   2.554
 4135SOL    HW213305   2.238   0.588   2.448
 4136SOL     OW13306   1.101   2.128   2.755
 4136SOL    HW113307   1.006   2.135   2.724
 4136SOL    HW213308   1.140   2.220   2.766
 4137SOL     OW13309   1.895   4.120   1.117
 4137SOL    HW113310   1.961   4.163   1.054
 4137SOL    HW213311   1.803   4.132   1.080
 4138SOL     OW13312   3.754   5.369   3.246
 4138SOL    HW113313   3.770   5.361   3.148
 4138SOL    HW213314   3.823   5.429   3.286
 4139SOL     OW13315   2.245   2.188   5.246
 4139SOL    HW113316   2.246   2.265   5.182
 4139SOL    HW213317   2.264   2.103   5.197
 4140SOL     OW13318   2.813   0.756   5.546
 4140SOL    HW113319   2.900   0.801   5.567
 4140SOL    HW213320   2.767   0.731   5.631
 4141SOL     OW13321   5.265   6.205   1.913
 4141SOL    HW113322   5.301   6.297   1.907
 4141SOL    HW213323   5.190   6.195   1.848
 4142SOL     OW13324   6.695   5.655   0.990
 4142SOL    HW113325   6.618   5.600   1.022
 4142SOL    HW213326   6.769   5.595   0.961
 4143SOL     OW13327   0.213   3.109   0.188
 4143SOL    HW113328   0.185   3.046   0.116
 4143SOL    HW213329   0.171   3.198   0.172
 4144SOL     OW13330   5.372   3.166   0.312
 4144SOL    HW113331   5.469   3.187   0.306
 4144SOL    HW213332   5.350   3.091   0.249
 4145SOL     OW13333   0.318   6.116   1.473
 4145SOL    HW113334   0.412   6.083   1.462
 4145SOL    HW213335   0.254   6.041   1.456
 4146SOL     OW13336   6.782   0.911   6.057
 4146SOL    HW113337   6.860   0.934   6.115
 4146SOL    HW213338   6.798   0.822   6.014
 4147SOL     OW13339   3.997   1.860   5.518
 4147SOL    HW113340   4.015   1.957   5.535
 4147SOL    HW213341   3.933   1.852   5.441
 4148SOL     OW13342   0.592   0.410   3.748
 4148SOL    HW113343   0.683   0.401   3.706
 4148SOL    HW213344   0.563   0.506   3.745
 4149SOL     OW13345   0.786   3.043   0.389
 4149SOL    HW113346   0.776   3.053   0.290
 4149SOL    HW213347   0.870   2.992   0.409
 4150SOL     OW13348   0.036   0.979   6.098
 4150SOL    HW113349   0.029   0.990   5.999
 4150SOL    HW213350   0.132   0.986   6.125
 4151SOL     OW13351   4.861   6.564   5.975
 4151SOL    HW113352   4.853   6.504   6.055
 4151SOL    HW213353   4.917   6.519   5.905
 4152SOL     OW13354   2.808   5.428   0.991
 4152SOL    HW113355   2.888   5.417   0.932
 4152SOL    HW213356   2.825   5.502   1.057
 4153SOL     OW13357   4.651   4.882   6.508
 4153SOL    HW113358   4.726   4.906   6.446
 4153SOL    HW213359   4.650   4.783   6.523
 4154SOL     OW13360   0.331   4.277   4.938
 4154SOL    HW113361   0.275   4.207   4.893
 4154SOL    HW213362   0.271   4.346   4.979
 4155SOL     OW13363   5.792   2.764   3.490
 4155SOL    HW113364   5.712   2.738   3.543
 4155SOL    HW213365   5.843   2.835   3.539
 4156SOL     OW13366   5.345   6.939   5.211
 4156SOL    HW113367   5.391   6.942   5.300
 4156SOL    HW213368   5.253   6.901   5.223
 4157SOL     OW13369   3.912   6.530   4.001
 4157SOL    HW113370   3.899   6.433   3.982
 4157SOL    HW213371   3.839   6.583   3.958
 4158SOL     OW13372   1.665   5.382   4.154
 4158SOL    HW113373   1.755   5.364   4.114
 4158SOL    HW213374   1.625   5.462   4.110
 4159SOL     OW13375   1.913   3.062   3.659
 4159SOL    HW113376   1.863   3.059   3.746
 4159SOL    HW213377   2.002   3.105   3.673
 4160SOL     OW13378   6.575   0.760   1.228
 4160SOL    HW113379   6.655   0.729   1.178
 4160SOL    HW213380   6.493   0.745   1.172
 4161SOL     OW13381   2.158   6.213   6.593
 4161SOL    HW113382   2.202   6.209   6.683
 4161SOL    HW213383   2.179   6.130   6.542
 4162SOL     OW13384   6.344   6.986   5.261
 4162SOL    HW113385   6.326   6.890   5.280
 4162SOL    HW213386   6.377   6.996   5.167
 4163SOL     OW13387   6.098   0.601   3.082
 4163SOL    HW113388   6.169   0.623   3.148
 4163SOL    HW213389   6.083   0.502   3.081
 4164SOL     OW13390   1.317   6.468   6.335
 4164SOL    HW113391   1.319   6.464   6.235
 4164SOL    HW213392   1.396   6.417   6.371
 4165SOL     OW13393   4.704   0.221   0.297
 4165SOL    HW113394   4.680   0.258   0.387
 4165SOL    HW213395   4.711   0.122   0.302
 4166SOL     OW13396   5.774   3.319   1.195
 4166SOL    HW113397   5.735   3.303   1.104
 4166SOL    HW213398   5.807   3.232   1.233
 4167SOL     OW13399   2.405   3.744   0.496
 4167SOL    HW113400   2.344   3.696   0.433
 4167SOL    HW213401   2.430   3.683   0.571
 4168SOL     OW13402   0.728   5.230   0.919
 4168SOL    HW113403   0.670   5.258   0.995
 4168SOL    HW213404   0.684   5.254   0.832
 4169SOL     OW13405   5.953   3.693   3.915
 4169SOL    HW113406   6.006   3.769   3.953
 4169SOL    HW213407   5.856   3.708   3.934
 4170SOL     OW13408   3.431   3.242   5.078
 4170SOL    HW113409   3.376   3.253   4.996
 4170SOL    HW213410   3.511   3.301   5.073
 4171SOL     OW13411   5.397   4.355   1.217
 4171SOL    HW113412   5.345   4.282   1.172
 4171SOL    HW213413   5.333   4.421   1.258
 4172SOL     OW13414   0.218   2.192   6.197
 4172SOL    HW113415   0.247   2.166   6.290
 4172SOL    HW213416   0.156   2.121   6.161
 4173SOL     OW13417   6.077   3.307   4.615
 4173SOL    HW113418   6.143   3.282   4.544
 4173SOL    HW213419   5.990   3.261   4.597
 4174SOL     OW13420   5.809   0.842   3.651
 4174SOL    HW113421   5.717   0.817   3.623
 4174SOL    HW213422   5.875   0.811   3.583
 4175SOL     OW13423   2.491   6.409   4.005
 4175SOL    HW113424   2.435   6.441   3.929
 4175SOL    HW213425   2.439   6.343   4.060
 4176SOL     OW13426   3.018   6.614   2.151
 4176SOL    HW113427   3.098   6.586   2.097
 4176SOL    HW213428   2.954   6.663   2.092
 4177SOL     OW13429   0.717   5.155   5.272
 4177SOL    HW113430   0.640   5.218   5.268
 4177SOL    HW213431   0.790   5.194   5.329
 4178SOL     OW13432   4.039   0.690   4.186
 4178SOL    HW113433   3.960   0.641   4.222
 4178SOL    HW213434   4.009   0.756   4.117
 4179SOL     OW13435   5.227   3.381   4.132
 4179SOL    HW113436   5.323   3.352   4.132
 4179SOL    HW213437   5.222   3.480   4.138
 4180SOL     OW13438   5.281   3.039   2.400
 4180SOL    HW113439   5.227   3.068   2.322
 4180SOL    HW213440   5.378   3.041   2.376
 4181SOL     OW13441   2.162   2.404   6.012
 4181SOL    HW113442   2.229   2.383   6.084
 4181SOL    HW213443   2.210   2.429   5.928
 4182SOL     OW13444   0.357   6.612   2.860
 4182SOL    HW113445   0.389   6.557   2.938
 4182SOL    HW213446   0.275   6.570   2.821
 4183SOL     OW13447   3.790   0.917   1.323
 4183SOL    HW113448   3.729   0.989   1.357
 4183SOL    HW213449   3.742   0.829   1.325
 4184SOL     OW13450   4.340   4.839   1.179
 4184SOL    HW113451   4.258   4.786   1.163
 4184SOL    HW213452   4.335   4.884   1.269
 4185SOL     OW13453   0.226   5.315   3.062
 4185SOL    HW113454   0.280   5.394   3.031
 4185SOL    HW213455   0.138   5.347   3.098
 4186SOL     OW13456   1.202   4.872   0.220
 4186SOL    HW113457   1.234   4.813   0.294
 4186SOL    HW213458   1.244   4.844   0.134
 4187SOL     OW13459   3.865   3.030   5.542
 4187SOL    HW113460   3.886   3.092   5.618
 4187SOL    HW213461   3.879   2.935   5.572
 4188SOL     OW13462   5.015   6.961   4.468
 4188SOL    HW113463   5.056   6.870   4.474
 4188SOL    HW213464   4.937   6.959   4.406
 4189SOL     OW13465   3.340   1.576   4.657
 4189SOL    HW113466   3.310   1.669   4.681
 4189SOL    HW213467   3.433   1.580   4.621
 4190SOL     OW13468   2.132   6.974   6.407
 4190SOL    HW113469   2.121   6.978   6.308
 4190SOL    HW213470   2.075   6.901   6.445
 4191SOL     OW13471   5.942   3.413   2.761
 4191SOL    HW113472   6.003   3.432   2.838
 4191SOL    HW213473   5.987   3.440   2.676
 4192SOL     OW13474   0.186   1.613   3.886
 4192SOL    HW113475   0.208   1.708   3.863
 4192SOL    HW213476   0.167   1.562   3.802
 4193SOL     OW13477   2.213   6.188   1.627
 4193SOL    HW113478   2.279   6.251   1.668
 4193SOL    HW213479   2.131   6.239   1.599
 4194SOL     OW13480   6.930   2.257   5.070
 4194SOL    HW113481   6.911   2.196   4.993
 4194SOL    HW213482   6.962   2.202   5.148
 4195SOL     OW13483   3.304   0.360   1.798
 4195SOL    HW113484   3.371   0.327   1.732
 4195SOL    HW213485   3.351   0.403   1.875
 4196SOL     OW13486   6.368   2.079   4.174
 4196SOL    HW113487   6.358   1.981   4.190
 4196SOL    HW213488   6.281   2.116   4.142
 4197SOL     OW13489   4.492   4.860   4.161
 4197SOL    HW113490   4.477   4.761   4.156
 4197SOL    HW213491   4.409   4.908   4.134
 4198SOL     OW13492   5.951   3.614   6.924
 4198SOL    HW113493   5.897   3.620   6.840
 4198SOL    HW213494   5.934   3.525   6.967
 4199SOL     OW13495   2.193   3.406   6.236
 4199SOL    HW113496   2.277   3.353   6.250
 4199SOL    HW213497   2.199   3.455   6.149
 4200SOL     OW13498   2.833   6.287   5.310
 4200SOL    HW113499   2.892   6.211   5.337
 4200SOL    HW213500   2.740   6.269   5.341
 4201SOL     OW13501   5.524   6.495   3.810
 4201SOL    HW113502   5.613   6.537   3.827
 4201SOL    HW213503   5.537   6.412   3.755
 4202SOL     OW13504   4.185   4.533   6.099
 4202SOL    HW113505   4.264   4.514   6.157
 4202SOL    HW213506   4.105   4.486   6.136
 4203SOL     OW13507   3.658   6.056   2.721
 4203SOL    HW113508   3.652   6.082   2.625
 4203SOL    HW213509   3.622   5.963   2.733
 4204SOL     OW13510   3.379   2.920   1.976
 4204SOL    HW113511   3.380   2.998   1.913
 4204SOL    HW213512   3.446   2.934   2.048
 4205SOL     OW13513   3.675   5.349   4.117
 4205SOL    HW113514   3.715   5.302   4.038
 4205SOL    HW213515   3.697   5.298   4.201
 4206SOL     OW13516   4.692   1.029   5.804
 4206SOL    HW113517   4.756   1.105   5.788
 4206SOL    HW213518   4.675   0.981   5.719
 4207SOL     OW13519   1.938   1.546   1.965
 4207SOL    HW113520   1.897   1.637   1.964
 4207SOL    HW213521   1.934   1.506   1.874
 4208SOL     OW13522   1.442   2.326   0.877
 4208SOL    HW113523   1.425   2.371   0.789
 4208SOL    HW213524   1.358   2.326   0.931
 4209SOL     OW13525   1.260   1.185   4.884
 4209SOL    HW113526   1.225   1.146   4.799
 4209SOL    HW213527   1.218   1.138   4.961
 4210SOL     OW13528   3.336   3.328   2.013
 4210SOL    HW113529   3.415   3.311   2.072
 4210SOL    HW213530   3.363   3.389   1.938
 4211SOL     OW13531   5.335   5.859   5.734
 4211SOL    HW113532   5.344   5.959   5.732
 4211SOL    HW213533   5.244   5.834   5.766
 4212SOL     OW13534   6.347   2.558   2.147
 4212SOL    HW113535   6.365   2.652   2.118
 4212SOL    HW213536   6.287   2.559   2.228
 4213SOL     OW13537   2.562   0.828   2.486
 4213SOL    HW113538   2.580   0.899   2.553
 4213SOL    HW213539   2.647   0.804   2.439
 4214SOL     OW13540   0.747   4.057   5.871
 4214SOL    HW113541   0.695   4.083   5.953
 4214SOL    HW213542   0.836   4.021   5.898
 4215SOL     OW13543   6.949   5.517   4.728
 4215SOL    HW113544   6.873   5.483   4.673
 4215SOL    HW213545   6.939   5.484   4.822
 4216SOL     OW13546   1.626   2.187   3.608
 4216SOL    HW113547   1.544   2.154   3.655
 4216SOL    HW213548   1.661   2.116   3.547
 4217SOL     OW13549   6.722   0.455   2.854
 4217SOL    HW113550   6.755   0.361   2.847
 4217SOL    HW213551   6.747   0.506   2.771
 4218SOL     OW13552   5.154   0.061   1.900
 4218SOL    HW113553   5.113   0.118   1.972
 4218SOL    HW213554   5.242   0.100   1.873
 4219SOL     OW13555   2.966   4.792   5.246
 4219SOL    HW113556   3.047   4.776   5.302
 4219SOL    HW213557   2.936   4.706   5.205
 4220SOL     OW13558   6.448   3.484   3.040
 4220SOL    HW113559   6.442   3.537   2.955
 4220SOL    HW213560   6.395   3.400   3.031
 4221SOL     OW13561   6.671   5.631   5.985
 4221SOL    HW113562   6.709   5.551   6.030
 4221SOL    HW213563   6.687   5.712   6.041
 4222SOL     OW13564   6.112   1.761   1.895
 4222SOL    HW113565   6.202   1.734   1.930
 4222SOL    HW213566   6.045   1.753   1.969
 4223SOL     OW13567   4.058   3.256   3.540
 4223SOL    HW113568   4.093   3.255   3.633
 4223SOL    HW213569   3.990   3.184   3.529
 4224SOL     OW13570   4.886   3.352   3.933
 4224SOL    HW113571   4.858   3.301   4.015
 4224SOL    HW213572   4.897   3.449   3.956
 4225SOL     OW13573   5.775   0.853   5.431
 4225SOL    HW113574   5.748   0.893   5.519
 4225SOL    HW213575   5.874   0.840   5.430
 4226SOL     OW13576   2.136   0.670   3.395
 4226SOL    HW113577   2.103   0.763   3.379
 4226SOL    HW213578   2.058   0.607   3.393
 4227SOL     OW13579   3.385   4.134   6.458
 4227SOL    HW113580   3.418   4.065   6.523
 4227SOL    HW213581   3.459   4.198   6.437
 4228SOL     OW13582   5.455   5.576   3.937
 4228SOL    HW113583   5.396   5.498   3.914
 4228SOL    HW213584   5.472   5.578   4.035
 4229SOL     OW13585   3.910   4.673   6.061
 4229SOL    HW113586   3.982   4.721   6.010
 4229SOL    HW213587   3.824   4.723   6.053
 4230SOL     OW13588   2.468   0.172   4.800
 4230SOL    HW113589   2.418   0.205   4.721
 4230SOL    HW213590   2.554   0.130   4.770
 4231SOL     OW13591   5.531   6.176   5.113
 4231SOL    HW113592   5.432   6.184   5.098
 4231SOL    HW213593   5.572   6.267   5.112
 4232SOL     OW13594   0.487   5.013   1.797
 4232SOL    HW113595   0.481   5.080   1.871
 4232SOL    HW213596   0.472   5.059   1.710
 4233SOL     OW13597   6.402   0.186   0.378
 4233SOL    HW113598   6.494   0.220   0.363
 4233SOL    HW213599   6.342   0.217   0.304
 4234SOL     OW13600   2.328   5.448   5.393
 4234SOL    HW113601   2.359   5.403   5.309
 4234SOL    HW213602   2.257   5.392   5.436
 4235SOL     OW13603   6.000   4.504   5.431
 4235SOL    HW113604   5.919   4.554   5.462
 4235SOL    HW213605   5.973   4.431   5.369
 4236SOL     OW13606   6.743   3.395   3.873
 4236SOL    HW113607   6.821   3.437   3.920
 4236SOL    HW213608   6.694   3.465   3.820
 4237SOL     OW13609   6.441   4.424   4.316
 4237SOL    HW113610   6.536   4.398   4.333
 4237SOL    HW213611   6.399   4.453   4.402
 4238SOL     OW13612   4.329   4.670   3.936
 4238SOL    HW113613   4.422   4.669   3.972
 4238SOL    HW213614   4.266   4.629   4.001
 4239SOL     OW13615   5.168   0.265   4.051
 4239SOL    HW113616   5.213   0.222   4.129
 4239SOL    HW213617   5.237   0.304   3.990
 4240SOL     OW13618   2.630   6.575   6.378
 4240SOL    HW113619   2.562   6.511   6.342
 4240SOL    HW213620   2.597   6.669   6.365
 4241SOL     OW13621   5.756   0.514   0.736
 4241SOL    HW113622   5.757   0.518   0.636
 4241SOL    HW213623   5.773   0.605   0.774
 4242SOL     OW13624   2.353   6.616   3.251
 4242SOL    HW113625   2.322   6.697   3.201
 4242SOL    HW213626   2.371   6.641   3.346
 4243SOL     OW13627   0.238   3.658   2.223
 4243SOL    HW113628   0.236   3.586   2.153
 4243SOL    HW213629   0.286   3.625   2.304
 4244SOL     OW13630   4.923   6.014   1.028
 4244SOL    HW113631   4.951   5.920   1.050
 4244SOL    HW213632   5.004   6.073   1.026
 4245SOL     OW13633   6.922   2.740   0.155
 4245SOL    HW113634   6.924   2.655   0.102
 4245SOL    HW213635   6.863   2.727   0.235
 4246SOL     OW13636   5.169   2.816   2.746
 4246SOL    HW113637   5.238   2.888   2.751
 4246SOL    HW213638   5.208   2.730   2.777
 4247SOL     OW13639   2.371   5.620   4.232
 4247SOL    HW113640   2.465   5.648   4.250
 4247SOL    HW213641   2.368   5.568   4.146
 4248SOL     OW13642   1.715   0.317   3.124
 4248SOL    HW113643   1.662   0.396   3.157
 4248SOL    HW213644   1.667   0.276   3.046
 4249SOL     OW13645   0.254   1.847   3.763
 4249SOL    HW113646   0.336   1.875   3.714
 4249SOL    HW213647   0.194   1.926   3.776
 4250SOL     OW13648   0.173   5.952   4.275
 4250SOL    HW113649   0.245   5.967   4.342
 4250SOL    HW213650   0.122   5.869   4.298
 4251SOL     OW13651   6.071   2.738   6.956
 4251SOL    HW113652   6.169   2.759   6.966
 4251SOL    HW213653   6.041   2.762   6.864
 4252SOL     OW13654   6.398   5.522   6.038
 4252SOL    HW113655   6.322   5.580   6.008
 4252SOL    HW213656   6.483   5.575   6.035
 4253SOL     OW13657   4.006   6.465   2.426
 4253SOL    HW113658   3.939   6.410   2.377
 4253SOL    HW213659   4.033   6.418   2.510
 4254SOL     OW13660   1.834   4.624   1.180
 4254SOL    HW113661   1.745   4.600   1.216
 4254SOL    HW213662   1.840   4.600   1.083
 4255SOL     OW13663   0.668   4.140   3.849
 4255SOL    HW113664   0.644   4.105   3.758
 4255SOL    HW213665   0.593   4.195   3.885
 4256SOL     OW13666   0.946   5.286   1.262
 4256SOL    HW113667   0.971   5.326   1.174
 4256SOL    HW213668   0.847   5.269   1.264
 4257SOL     OW13669   6.350   1.445   4.661
 4257SOL    HW113670   6.313   1.526   4.614
 4257SOL    HW213671   6.418   1.474   4.728
 4258SOL     OW13672   3.494   5.695   1.227
 4258SOL    HW113673   3.507   5.605   1.187
 4258SOL    HW213674   3.414   5.739   1.186
 4259SOL     OW13675   1.582   6.604   1.164
 4259SOL    HW113676   1.671   6.581   1.202
 4259SOL    HW213677   1.513   6.541   1.199
 4260SOL     OW13678   4.867   0.374   4.289
 4260SOL    HW113679   4.938   0.434   4.253
 4260SOL    HW213680   4.907   0.311   4.355
 4261SOL     OW13681   2.439   0.233   3.982
 4261SOL    HW113682   2.348   0.273   3.968
 4261SOL    HW213683   2.463   0.239   4.079
 4262SOL     OW13684   1.786   5.110   5.685
 4262SOL    HW113685   1.812   5.096   5.780
 4262SOL    HW213686   1.744   5.026   5.649
 4263SOL     OW13687   2.885   2.203   3.361
 4263SOL    HW113688   2.917   2.153   3.280
 4263SOL    HW213689   2.964   2.237   3.412
 4264SOL     OW13690   6.016   1.491   4.249
 4264SOL    HW113691   5.939   1.489   4.185
 4264SOL    HW213692   6.054   1.583   4.253
 4265SOL     OW13693   3.486   6.862   0.736
 4265SOL    HW113694   3.424   6.830   0.664
 4265SOL    HW213695   3.468   6.959   0.754
 4266SOL     OW13696   1.415   0.340   0.090
 4266SOL    HW113697   1.390   0.281   0.167
 4266SOL    HW213698   1.458   0.285   0.019
 4267SOL     OW13699   2.094   4.048   3.950
 4267SOL    HW113700   2.038   4.009   3.877
 4267SOL    HW213701   2.117   3.977   4.017
 4268SOL     OW13702   1.494   5.333   6.816
 4268SOL    HW113703   1.407   5.344   6.767
 4268SOL    HW213704   1.476   5.321   6.914
 4269SOL     OW13705   3.611   1.721   3.702
 4269SOL    HW113706   3.527   1.752   3.658
 4269SOL    HW213707   3.620   1.622   3.692
 4270SOL     OW13708   3.803   3.354   1.512
 4270SOL    HW113709   3.720   3.308   1.482
 4270SOL    HW213710   3.876   3.287   1.524
 4271SOL     OW13711   6.051   1.157   0.974
 4271SOL    HW113712   6.014   1.123   1.061
 4271SOL    HW213713   5.977   1.170   0.909
 4272SOL     OW13714   6.805   3.094   6.084
 4272SOL    HW113715   6.767   3.180   6.118
 4272SOL    HW213716   6.875   3.061   6.148
 4273SOL     OW13717   4.787   6.468   5.377
 4273SOL    HW113718   4.828   6.466   5.286
 4273SOL    HW213719   4.847   6.421   5.442
 4274SOL     OW13720   0.748   6.714   2.328
 4274SOL    HW113721   0.789   6.784   2.387
 4274SOL    HW213722   0.814   6.641   2.311
 4275SOL     OW13723   0.165   2.269   4.320
 4275SOL    HW113724   0.133   2.264   4.225
 4275SOL    HW213725   0.245   2.210   4.331
 4276SOL     OW13726   3.007   4.910   3.863
 4276SOL    HW113727   2.911   4.885   3.874
 4276SOL    HW213728   3.015   4.981   3.793
 4277SOL     OW13729   6.895   4.943   3.909
 4277SOL    HW113730   6.961   4.977   3.976
 4277SOL    HW213731   6.804   4.942   3.950
 4278SOL     OW13732   6.624   6.391   3.031
 4278SOL    HW113733   6.571   6.396   3.115
 4278SOL    HW213734   6.569   6.427   2.955
 4279SOL     OW13735   1.531   1.180   2.791
 4279SOL    HW113736   1.521   1.101   2.729
 4279SOL    HW213737   1.625   1.213   2.787
 4280SOL     OW13738   6.486   6.916   6.324
 4280SOL    HW113739   6.424   6.975   6.375
 4280SOL    HW213740   6.437   6.834   6.294
 4281SOL     OW13741   4.879   5.331   3.928
 4281SOL    HW113742   4.834   5.420   3.920
 4281SOL    HW213743   4.850   5.286   4.012
 4282SOL     OW13744   3.171   4.156   0.503
 4282SOL    HW113745   3.095   4.138   0.440
 4282SOL    HW213746   3.218   4.240   0.476
 4283SOL     OW13747   4.935   1.026   3.358
 4283SOL    HW113748   4.930   0.926   3.369
 4283SOL    HW213749   4.919   1.049   3.262
 4284SOL     OW13750   4.281   5.299   0.356
 4284SOL    HW113751   4.348   5.366   0.388
 4284SOL    HW213752   4.303   5.271   0.263
 4285SOL     OW13753   3.699   0.768   6.183
 4285SOL    HW113754   3.763   0.723   6.245
 4285SOL    HW213755   3.607   0.767   6.223
 4286SOL     OW13756   6.824   0.767   0.002
 4286SOL    HW113757   6.894   0.705   6.991
 4286SOL    HW213758   6.734   0.727   7.011
 4287SOL     OW13759   4.364   0.886   0.089
 4287SOL    HW113760   4.319   0.975   0.101
 4287SOL    HW213761   4.305   0.825   0.038
 4288SOL     OW13762   6.332   5.764   1.828
 4288SOL    HW113763   6.342   5.863   1.814
 4288SOL    HW213764   6.355   5.717   1.743
 4289SOL     OW13765   0.313   2.346   5.185
 4289SOL    HW113766   0.377   2.405   5.234
 4289SOL    HW213767   0.221   2.385   5.188
 4290SOL     OW13768   6.945   6.954   3.116
 4290SOL    HW113769   6.979   0.003   3.173
 4290SOL    HW213770   7.013   6.880   3.115
 4291SOL     OW13771   5.039   3.012   6.275
 4291SOL    HW113772   4.948   3.034   6.308
 4291SOL    HW213773   5.033   2.946   6.201
 4292SOL     OW13774   5.105   2.300   0.248
 4292SOL    HW113775   5.112   2.201   0.261
 4292SOL    HW213776   5.170   2.346   0.308
 4293SOL     OW13777   4.534   3.944   6.821
 4293SOL    HW113778   4.526   3.852   6.858
 4293SOL    HW213779   4.444   3.988   6.818
 4294SOL     OW13780   2.739   1.592   6.123
 4294SOL    HW113781   2.770   1.568   6.215
 4294SOL    HW213782   2.714   1.509   6.074
 4295SOL     OW13783   3.964   6.430   2.969
 4295SOL    HW113784   4.032   6.494   2.933
 4295SOL    HW213785   4.010   6.348   3.003
 4296SOL     OW13786   3.336   6.795   1.078
 4296SOL    HW113787   3.355   6.697   1.080
 4296SOL    HW213788   3.422   6.845   1.063
 4297SOL     OW13789   6.887   5.463   1.354
 4297SOL    HW113790   6.936   5.541   1.314
 4297SOL    HW213791   6.951   5.388   1.369
 4298SOL     OW13792   4.132   6.102   1.129
 4298SOL    HW113793   4.171   6.011   1.140
 4298SOL    HW213794   4.038   6.095   1.096
 4299SOL     OW13795   0.802   2.781   0.054
 4299SOL    HW113796   0.840   2.773   6.987
 4299SOL    HW213797   0.708   2.747   0.055
 4300SOL     OW13798   3.264   0.318   0.896
 4300SOL    HW113799   3.269   0.388   0.825
 4300SOL    HW213800   3.197   0.346   0.965
 4301SOL     OW13801   2.772   6.411   1.390
 4301SOL    HW113802   2.702   6.351   1.428
 4301SOL    HW213803   2.791   6.486   1.454
 4302SOL     OW13804   0.161   6.950   6.781
 4302SOL    HW113805   0.138   6.908   6.869
 4302SOL    HW213806   0.078   6.966   6.728
 4303SOL     OW13807   6.965   4.780   3.691
 4303SOL    HW113808   6.942   4.852   3.757
 4303SOL    HW213809   6.939   4.810   3.599
 4304SOL     OW13810   3.530   4.179   1.939
 4304SOL    HW113811   3.511   4.270   1.976
 4304SOL    HW213812   3.592   4.187   1.861
 4305SOL     OW13813   0.546   6.909   5.706
 4305SOL    HW113814   0.493   6.890   5.623
 4305SOL    HW213815   0.484   6.927   5.782
 4306SOL     OW13816   4.849   3.837   4.811
 4306SOL    HW113817   4.836   3.792   4.723
 4306SOL    HW213818   4.841   3.769   4.884
 4307SOL     OW13819   5.980   2.578   5.656
 4307SOL    HW113820   6.001   2.481   5.667
 4307SOL    HW213821   5.942   2.613   5.742
 4308SOL     OW13822   5.445   5.383   1.809
 4308SOL    HW113823   5.346   5.387   1.800
 4308SOL    HW213824   5.469   5.379   1.906
 4309SOL     OW13825   0.803   3.317   6.545
 4309SOL    HW113826   0.838   3.268   6.625
 4309SOL    HW213827   0.878   3.335   6.482
 4310SOL     OW13828   1.213   2.380   2.772
 4310SOL    HW113829   1.213   2.479   2.764
 4310SOL    HW213830   1.300   2.344   2.738
 4311SOL     OW13831   1.130   6.090   2.685
 4311SOL    HW113832   1.082   6.012   2.726
 4311SOL    HW213833   1.064   6.164   2.669
 4312SOL     OW13834   0.839   4.950   2.459
 4312SOL    HW113835   0.811   4.980   2.368
 4312SOL    HW213836   0.926   4.992   2.483
 4313SOL     OW13837   4.292   1.636   0.290
 4313SOL    HW113838   4.201   1.594   0.288
 4313SOL    HW213839   4.284   1.734   0.308
 4314SOL     OW13840   6.652   2.300   6.174
 4314SOL    HW113841   6.599   2.328   6.094
 4314SOL    HW213842   6.743   2.342   6.169
 4315SOL     OW13843   1.917   1.887   2.966
 4315SOL    HW113844   1.888   1.912   2.874
 4315SOL    HW213845   1.838   1.886   3.027
 4316SOL     OW13846   4.879   0.716   2.873
 4316SOL    HW113847   4.903   0.802   2.827
 4316SOL    HW213848   4.962   0.673   2.908
 4317SOL     OW13849   4.592   0.724   5.403
 4317SOL    HW113850   4.578   0.641   5.458
 4317SOL    HW213851   4.624   0.699   5.312
 4318SOL     OW13852   0.681   1.087   3.855
 4318SOL    HW113853   0.661   1.123   3.947
 4318SOL    HW213854   0.620   1.129   3.789
 4319SOL     OW13855   1.320   2.103   1.604
 4319SOL    HW113856   1.417   2.107   1.627
 4319SOL    HW213857   1.283   2.013   1.626
 4320SOL     OW13858   3.937   6.086   0.583
 4320SOL    HW113859   3.951   6.031   0.500
 4320SOL    HW213860   4.012   6.151   0.591
 4321SOL     OW13861   6.707   5.849   3.249
 4321SOL    HW113862   6.680   5.911   3.175
 4321SOL    HW213863   6.803   5.863   3.270
 4322SOL     OW13864   0.709   2.884   5.411
 4322SOL    HW113865   0.717   2.931   5.322
 4322SOL    HW213866   0.797   2.843   5.435
 4323SOL     OW13867   4.257   5.253   0.043
 4323SOL    HW113868   4.338   5.253   7.010
 4323SOL    HW213869   4.219   5.161   0.049
 4324SOL     OW13870   6.760   3.525   5.667
 4324SOL    HW113871   6.856   3.548   5.649
 4324SOL    HW213872   6.755   3.467   5.748
 4325SOL     OW13873   2.489   1.343   2.333
 4325SOL    HW113874   2.522   1.411   2.398
 4325SOL    HW213875   2.401   1.371   2.297
 4326SOL     OW13876   5.371   3.018   2.678
 4326SOL    HW113877   5.402   3.112   2.695
 4326SOL    HW213878   5.374   3.000   2.579
 4327SOL     OW13879   3.514   5.496   3.303
 4327SOL    HW113880   3.606   5.459   3.297
 4327SOL    HW213881   3.492   5.515   3.398
 4328SOL     OW13882   6.258   4.990   4.851
 4328SOL    HW113883   6.305   5.060   4.906
 4328SOL    HW213884   6.254   5.021   4.755
 4329SOL     OW13885   5.621   2.918   5.204
 4329SOL    HW113886   5.615   2.844   5.272
 4329SOL    HW213887   5.573   2.891   5.121
 4330SOL     OW13888   2.640   6.521   5.050
 4330SOL    HW113889   2.692   6.446   5.009
 4330SOL    HW213890   2.688   6.554   5.131
 4331SOL     OW13891   0.099   0.347   1.646
 4331SOL    HW113892   0.170   0.278   1.630
 4331SOL    HW213893   0.061   0.376   1.558
 4332SOL     OW13894   5.751   3.659   2.835
 4332SOL    HW113895   5.656   3.638   2.810
 4332SOL    HW213896   5.810   3.583   2.808
 4333SOL     OW13897   4.939   2.468   4.892
 4333SOL    HW113898   5.018   2.445   4.836
 4333SOL    HW213899   4.959   2.449   4.988
 4334SOL     OW13900   0.613   2.878   2.948
 4334SOL    HW113901   0.588   2.942   3.020
 4334SOL    HW213902   0.647   2.929   2.869
 4335SOL     OW13903   3.007   3.170   0.719
 4335SOL    HW113904   2.955   3.099   0.766
 4335SOL    HW213905   2.980   3.260   0.753
 4336SOL     OW13906   1.988   5.302   5.778
 4336SOL    HW113907   1.898   5.302   5.734
 4336SOL    HW213908   2.036   5.217   5.757
 4337SOL     OW13909   1.050   5.820   2.755
 4337SOL    HW113910   1.019   5.792   2.846
 4337SOL    HW213911   1.071   5.739   2.700
 4338SOL     OW13912   6.266   6.739   6.068
 4338SOL    HW113913   6.189   6.692   6.024
 4338SOL    HW213914   6.317   6.790   5.999
 4339SOL     OW13915   4.030   2.330   0.244
 4339SOL    HW113916   3.949   2.276   0.222
 4339SOL    HW213917   4.112   2.282   0.215
 4340SOL     OW13918   5.953   3.461   0.847
 4340SOL    HW113919   6.027   3.520   0.878
 4340SOL    HW213920   5.973   3.428   0.754
 4341SOL     OW13921   1.014   5.846   2.351
 4341SOL    HW113922   1.056   5.937   2.356
 4341SOL    HW213923   0.919   5.853   2.381
 4342SOL     OW13924   4.943   3.415   2.972
 4342SOL    HW113925   4.884   3.458   2.905
 4342SOL    HW213926   4.979   3.329   2.935
 4343SOL     OW13927   3.532   6.987   6.247
 4343SOL    HW113928   3.576   0.017   6.177
 4343SOL    HW213929   3.565   7.015   6.337
 4344SOL     OW13930   0.456   3.083   3.794
 4344SOL    HW113931   0.409   3.005   3.755
 4344SOL    HW213932   0.438   3.087   3.893
 4345SOL     OW13933   2.968   3.522   2.742
 4345SOL    HW113934   2.973   3.611   2.696
 4345SOL    HW213935   3.053   3.471   2.726
 4346SOL     OW13936   2.217   2.626   3.004
 4346SOL    HW113937   2.131   2.590   3.040
 4346SOL    HW213938   2.284   2.634   3.078
 4347SOL     OW13939   6.389   5.765   1.252
 4347SOL    HW113940   6.484   5.742   1.230
 4347SOL    HW213941   6.387   5.847   1.309
 4348SOL     OW13942   6.762   6.121   4.099
 4348SOL    HW113943   6.742   6.194   4.165
 4348SOL    HW213944   6.692   6.122   4.028
 4349SOL     OW13945   0.375   4.131   3.553
 4349SOL    HW113946   0.337   4.048   3.594
 4349SOL    HW213947   0.392   4.115   3.455
 4350SOL     OW13948   5.671   1.673   4.572
 4350SOL    HW113949   5.602   1.743   4.552
 4350SOL    HW213950   5.724   1.702   4.652
 4351SOL     OW13951   1.656   5.770   1.835
 4351SOL    HW113952   1.744   5.809   1.810
 4351SOL    HW213953   1.611   5.829   1.902
 4352SOL     OW13954   5.502   3.941   1.248
 4352SOL    HW113955   5.448   3.899   1.321
 4352SOL    HW213956   5.580   3.882   1.226
 4353SOL     OW13957   3.227   3.488   6.663
 4353SOL    HW113958   3.188   3.487   6.571
 4353SOL    HW213959   3.245   3.582   6.691
 4354SOL     OW13960   0.733   0.556   5.037
 4354SOL    HW113961   0.735   0.473   5.093
 4354SOL    HW213962   0.640   0.572   5.004
 4355SOL     OW13963   1.328   6.807   3.832
 4355SOL    HW113964   1.307   6.710   3.835
 4355SOL    HW213965   1.267   6.853   3.768
 4356SOL     OW13966   4.921   3.109   5.621
 4356SOL    HW113967   4.829   3.077   5.599
 4356SOL    HW213968   4.957   3.162   5.544
 4357SOL     OW13969   0.051   1.340   2.057
 4357SOL    HW113970   0.035   1.346   2.155
 4357SOL    HW213971   0.008   1.417   2.011
 4358SOL     OW13972   0.108   1.169   0.325
 4358SOL    HW113973   0.192   1.165   0.271
 4358SOL    HW213974   0.053   1.247   0.296
 4359SOL     OW13975   2.192   0.751   6.283
 4359SOL    HW113976   2.124   0.789   6.345
 4359SOL    HW213977   2.199   0.652   6.299
 4360SOL     OW13978   0.915   2.958   3.714
 4360SOL    HW113979   0.973   2.945   3.634
 4360SOL    HW213980   0.850   2.882   3.720
 4361SOL     OW13981   1.843   2.560   0.817
 4361SOL    HW113982   1.780   2.625   0.858
 4361SOL    HW213983   1.827   2.554   0.719
 4362SOL     OW13984   0.822   6.400   4.167
 4362SOL    HW113985   0.852   6.364   4.079
 4362SOL    HW213986   0.886   6.470   4.199
 4363SOL     OW13987   4.508   0.430   3.174
 4363SOL    HW113988   4.534   0.374   3.096
 4363SOL    HW213989   4.416   0.467   3.160
 4364SOL     OW13990   3.005   3.744   2.591
 4364SOL    HW113991   2.955   3.779   2.512
 4364SOL    HW213992   3.101   3.772   2.585
 4365SOL     OW13993   2.720   2.055   1.702
 4365SOL    HW113994   2.806   2.106   1.694
 4365SOL    HW213995   2.682   2.039   1.612
 4366SOL     OW13996   5.702   6.143   5.606
 4366SOL    HW113997   5.656   6.132   5.517
 4366SOL    HW213998   5.693   6.059   5.658
 4367SOL     OW13999   3.126   4.865   2.521
 4367SOL    HW114000   3.155   4.884   2.427
 4367SOL    HW214001   3.193   4.806   2.565
 4368SOL     OW14002   4.028   6.303   2.643
 4368SOL    HW114003   4.127   6.317   2.651
 4368SOL    HW214004   3.993   6.266   2.728
 4369SOL     OW14005   5.008   5.356   3.184
 4369SOL    HW114006   5.065   5.412   3.125
 4369SOL    HW214007   5.065   5.294   3.238
 4370SOL     OW14008   3.808   4.026   1.531
 4370SOL    HW114009   3.716   4.016   1.568
 4370SOL    HW214010   3.874   4.028   1.606
 4371SOL     OW14011   3.190   0.961   2.532
 4371SOL    HW114012   3.230   0.900   2.600
 4371SOL    HW214013   3.093   0.938   2.519
 4372SOL     OW14014   1.714   3.273   4.736
 4372SOL    HW114015   1.753   3.204   4.675
 4372SOL    HW214016   1.692   3.230   4.824
 4373SOL     OW14017   4.826   0.712   6.334
 4373SOL    HW114018   4.893   0.774   6.374
 4373SOL    HW214019   4.824   0.627   6.387
 4374SOL     OW14020   2.570   2.028   1.037
 4374SOL    HW114021   2.537   2.107   1.088
 4374SOL    HW214022   2.657   1.997   1.076
 4375SOL     OW14023   3.835   0.017   3.720
 4375SOL    HW114024   3.785   6.998   3.646
 4375SOL    HW214025   3.891   0.091   3.683
 4376SOL     OW14026   6.465   6.217   1.434
 4376SOL    HW114027   6.446   6.271   1.516
 4376SOL    HW214028   6.552   6.246   1.394
 4377SOL     OW14029   6.602   5.834   0.113
 4377SOL    HW114030   6.523   5.787   0.151
 4377SOL    HW214031   6.686   5.798   0.155
 4378SOL     OW14032   1.440   4.914   1.868
 4378SOL    HW114033   1.387   4.893   1.786
 4378SOL    HW214034   1.382   4.903   1.949
 4379SOL     OW14035   2.230   0.322   1.826
 4379SOL    HW114036   2.259   0.399   1.883
 4379SOL    HW214037   2.235   0.237   1.879
 4380SOL     OW14038   2.082   5.855   5.005
 4380SOL    HW114039   2.178   5.870   5.028
 4380SOL    HW214040   2.073   5.770   4.953
 4381SOL     OW14041   3.340   5.536   4.639
 4381SOL    HW114042   3.324   5.629   4.606
 4381SOL    HW214043   3.324   5.533   4.738
 4382SOL     OW14044   4.694   4.330   4.608
 4382SOL    HW114045   4.685   4.401   4.677
 4382SOL    HW214046   4.727   4.246   4.651
 4383SOL     OW14047   1.302   1.803   5.653
 4383SOL    HW114048   1.391   1.829   5.691
 4383SOL    HW214049   1.230   1.853   5.701
 4384SOL     OW14050   4.158   0.172   1.292
 4384SOL    HW114051   4.201   0.226   1.365
 4384SOL    HW214052   4.224   0.156   1.219
 4385SOL     OW14053   0.017   1.730   4.065
 4385SOL    HW114054   0.085   1.689   4.005
 4385SOL    HW214055   6.974   1.661   4.090
 4386SOL     OW14056   0.832   4.353   6.345
 4386SOL    HW114057   0.902   4.299   6.392
 4386SOL    HW214058   0.874   4.405   6.271
 4387SOL     OW14059   6.545   2.254   1.602
 4387SOL    HW114060   6.614   2.195   1.559
 4387SOL    HW214061   6.534   2.228   1.698
 4388SOL     OW14062   3.801   0.922   6.627
 4388SOL    HW114063   3.882   0.908   6.571
 4388SOL    HW214064   3.824   0.977   6.707
 4389SOL     OW14065   5.564   2.174   1.713
 4389SOL    HW114066   5.636   2.195   1.779
 4389SOL    HW214067   5.479   2.154   1.760
 4390SOL     OW14068   4.087   2.236   1.904
 4390SOL    HW114069   4.028   2.224   1.984
 4390SOL    HW214070   4.037   2.284   1.832
 4391SOL     OW14071   1.186   5.720   6.576
 4391SOL    HW114072   1.116   5.697   6.644
 4391SOL    HW214073   1.166   5.808   6.535
 4392SOL     OW14074   5.304   3.456   4.643
 4392SOL    HW114075   5.272   3.362   4.651
 4392SOL    HW214076   5.281   3.491   4.552
 4393SOL     OW14077   4.768   6.990   3.672
 4393SOL    HW114078   4.727   0.034   3.613
 4393SOL    HW214079   4.744   6.899   3.639
 4394SOL     OW14080   5.639   6.001   2.554
 4394SOL    HW114081   5.689   5.936   2.497
 4394SOL    HW214082   5.579   5.951   2.617
 4395SOL     OW14083   4.326   1.852   0.792
 4395SOL    HW114084   4.384   1.817   0.865
 4395SOL    HW214085   4.339   1.951   0.783
 4396SOL     OW14086   2.240   1.741   4.446
 4396SOL    HW114087   2.233   1.713   4.351
 4396SOL    HW214088   2.227   1.662   4.505
 4397SOL     OW14089   0.631   1.361   4.071
 4397SOL    HW114090   0.606   1.403   3.984
 4397SOL    HW214091   0.565   1.388   4.142
 4398SOL     OW14092   1.579   4.383   4.419
 4398SOL    HW114093   1.625   4.420   4.339
 4398SOL    HW214094   1.550   4.459   4.479
 4399SOL     OW14095   2.822   0.504   0.876
 4399SOL    HW114096   2.849   0.408   0.874
 4399SOL    HW214097   2.759   0.519   0.952
 4400SOL     OW14098   1.848   6.900   4.615
 4400SOL    HW114099   1.859   6.990   4.657
 4400SOL    HW214100   1.865   6.907   4.517
 4401SOL     OW14101   6.050   6.146   5.343
 4401SOL    HW114102   6.115   6.186   5.407
 4401SOL    HW214103   6.089   6.147   5.251
 4402SOL     OW14104   1.018   6.043   3.039
 4402SOL    HW114105   1.033   5.955   3.083
 4402SOL    HW214106   0.926   6.076   3.060
 4403SOL     OW14107   6.720   0.143   3.346
 4403SOL    HW114108   6.814   0.176   3.333
 4403SOL    HW214109   6.661   0.220   3.372
 4404SOL     OW14110   1.340   3.504   4.505
 4404SOL    HW114111   1.299   3.481   4.417
 4404SOL    HW214112   1.388   3.424   4.541
 4405SOL     OW14113   3.222   4.648   5.910
 4405SOL    HW114114   3.321   4.640   5.907
 4405SOL    HW214115   3.183   4.608   5.827
 4406SOL     OW14116   4.936   4.869   1.335
 4406SOL    HW114117   4.852   4.843   1.383
 4406SOL    HW214118   4.921   4.864   1.236
 4407SOL     OW14119   0.106   5.730   0.771
 4407SOL    HW114120   0.011   5.760   0.763
 4407SOL    HW214121   0.160   5.768   0.696
 4408SOL     OW14122   4.624   0.624   0.994
 4408SOL    HW114123   4.563   0.650   0.918
 4408SOL    HW214124   4.575   0.562   1.055
 4409SOL     OW14125   3.975   1.125   1.939
 4409SOL    HW114126   3.936   1.192   2.003
 4409SOL    HW214127   4.054   1.081   1.980
 4410SOL     OW14128   2.032   4.307   0.020
 4410SOL    HW114129   1.942   4.290   0.061
 4410SOL    HW214130   2.103   4.262   0.074
 4411SOL     OW14131   3.603   3.156   3.061
 4411SOL    HW114132   3.652   3.184   2.979
 4411SOL    HW214133   3.663   3.165   3.140
 4412SOL     OW14134   4.496   1.403   5.256
 4412SOL    HW114135   4.531   1.495   5.275
 4412SOL    HW214136   4.446   1.370   5.336
 4413SOL     OW14137   4.764   5.736   4.611
 4413SOL    HW114138   4.834   5.778   4.552
 4413SOL    HW214139   4.687   5.799   4.621
 4414SOL     OW14140   4.796   4.754   2.162
 4414SOL    HW114141   4.709   4.732   2.119
 4414SOL    HW214142   4.821   4.849   2.142
 4415SOL     OW14143   5.386   3.355   6.515
 4415SOL    HW114144   5.301   3.304   6.527
 4415SOL    HW214145   5.423   3.378   6.605
 4416SOL     OW14146   2.729   1.786   4.167
 4416SOL    HW114147   2.730   1.686   4.172
 4416SOL    HW214148   2.800   1.824   4.226
 4417SOL     OW14149   6.864   4.571   2.690
 4417SOL    HW114150   6.922   4.647   2.659
 4417SOL    HW214151   6.862   4.500   2.619
 4418SOL     OW14152   4.174   6.656   4.003
 4418SOL    HW114153   4.245   6.634   3.936
 4418SOL    HW214154   4.084   6.640   3.962
 4419SOL     OW14155   5.802   5.588   0.348
 4419SOL    HW114156   5.768   5.555   0.435
 4419SOL    HW214157   5.834   5.511   0.293
 4420SOL     OW14158   4.366   0.910   0.622
 4420SOL    HW114159   4.436   0.852   0.664
 4420SOL    HW214160   4.277   0.889   0.664
 4421SOL     OW14161   1.947   1.478   2.540
 4421SOL    HW114162   1.960   1.406   2.472
 4421SOL    HW214163   2.029   1.486   2.597
 4422SOL     OW14164   2.772   3.299   5.744
 4422SOL    HW114165   2.716   3.289   5.826
 4422SOL    HW214166   2.717   3.335   5.669
 4423SOL     OW14167   0.961   2.512   5.481
 4423SOL    HW114168   0.900   2.506   5.561
 4423SOL    HW214169   0.906   2.521   5.398
 4424SOL     OW14170   5.137   0.208   3.275
 4424SOL    HW114171   5.204   0.259   3.329
 4424SOL    HW214172   5.118   0.120   3.319
 4425SOL     OW14173   3.768   5.616   6.186
 4425SOL    HW114174   3.756   5.519   6.210
 4425SOL    HW214175   3.853   5.650   6.225
 4426SOL     OW14176   6.914   0.962   5.379
 4426SOL    HW114177   6.922   0.868   5.413
 4426SOL    HW214178   6.832   0.971   5.323
 4427SOL     OW14179   0.442   0.577   2.913
 4427SOL    HW114180   0.532   0.619   2.897
 4427SOL    HW214181   0.380   0.646   2.950
 4428SOL     OW14182   2.765   4.811   3.931
 4428SOL    HW114183   2.735   4.773   4.018
 4428SOL    HW214184   2.712   4.770   3.856
 4429SOL     OW14185   3.303   0.225   3.844
 4429SOL    HW114186   3.327   0.141   3.795
 4429SOL    HW214187   3.335   0.219   3.939
 4430SOL     OW14188   4.562   2.532   3.551
 4430SOL    HW114189   4.491   2.502   3.488
 4430SOL    HW214190   4.639   2.468   3.548
 4431SOL     OW14191   2.842   1.174   2.559
 4431SOL    HW114192   2.831   1.266   2.598
 4431SOL    HW214193   2.911   1.177   2.486
 4432SOL     OW14194   3.495   2.924   3.822
 4432SOL    HW114195   3.453   2.972   3.899
 4432SOL    HW214196   3.434   2.926   3.743
 4433SOL     OW14197   6.573   6.944   4.045
 4433SOL    HW114198   6.564   6.856   3.999
 4433SOL    HW214199   6.494   6.959   4.104
 4434SOL     OW14200   5.069   1.424   4.256
 4434SOL    HW114201   5.106   1.345   4.206
 4434SOL    HW214202   5.046   1.496   4.190
 4435SOL     OW14203   3.876   3.608   0.679
 4435SOL    HW114204   3.919   3.521   0.657
 4435SOL    HW214205   3.910   3.640   0.768
 4436SOL     OW14206   3.275   2.062   6.818
 4436SOL    HW114207   3.215   2.138   6.791
 4436SOL    HW214208   3.354   2.098   6.867
 4437SOL     OW14209   4.457   0.747   4.359
 4437SOL    HW114210   4.539   0.689   4.349
 4437SOL    HW214211   4.376   0.690   4.361
 4438SOL     OW14212   4.568   1.554   6.816
 4438SOL    HW114213   4.561   1.508   6.904
 4438SOL    HW214214   4.605   1.646   6.830
 4439SOL     OW14215   0.684   5.257   1.264
 4439SOL    HW114216   0.669   5.160   1.284
 4439SOL    HW214217   0.619   5.312   1.316
 4440SOL     OW14218   2.095   5.578   6.745
 4440SOL    HW114219   2.167   5.606   6.809
 4440SOL    HW214220   2.136   5.547   6.660
 4441SOL     OW14221   6.157   1.742   1.622
 4441SOL    HW114222   6.200   1.831   1.606
 4441SOL    HW214223   6.134   1.733   1.719
 4442SOL     OW14224   2.793   6.569   3.787
 4442SOL    HW114225   2.782   6.477   3.825
 4442SOL    HW214226   2.795   6.565   3.687
 4443SOL     OW14227   1.288   2.172   6.634
 4443SOL    HW114228   1.338   2.244   6.684
 4443SOL    HW214229   1.190   2.187   6.644
 4444SOL     OW14230   4.118   6.378   6.401
 4444SOL    HW114231   4.050   6.306   6.384
 4444SOL    HW214232   4.127   6.392   6.500
 4445SOL     OW14233   1.418   1.159   6.225
 4445SOL    HW114234   1.436   1.254   6.200
 4445SOL    HW214235   1.478   1.133   6.300
 4446SOL     OW14236   6.156   0.822   1.179
 4446SOL    HW114237   6.148   0.816   1.079
 4446SOL    HW214238   6.096   0.895   1.213
 4447SOL     OW14239   5.188   3.406   5.586
 4447SOL    HW114240   5.243   3.478   5.544
 4447SOL    HW214241   5.134   3.359   5.516
 4448SOL     OW14242   2.838   3.873   0.296
 4448SOL    HW114243   2.930   3.835   0.297
 4448SOL    HW214244   2.777   3.813   0.348
 4449SOL     OW14245   3.758   0.462   6.138
 4449SOL    HW114246   3.795   0.533   6.199
 4449SOL    HW214247   3.777   0.486   6.043
 4450SOL     OW14248   3.812   2.986   3.245
 4450SOL    HW114249   3.788   2.940   3.159
 4450SOL    HW214250   3.879   3.057   3.227
 4451SOL     OW14251   5.714   4.133   2.356
 4451SOL    HW114252   5.658   4.055   2.383
 4451SOL    HW214253   5.793   4.140   2.417
 4452SOL     OW14254   5.945   6.324   4.612
 4452SOL    HW114255   5.934   6.420   4.586
 4452SOL    HW214256   5.865   6.272   4.582
 4453SOL     OW14257   5.870   3.137   0.612
 4453SOL    HW114258   5.928   3.059   0.632
 4453SOL    HW214259   5.927   3.216   0.588
 4454SOL     OW14260   5.466   1.927   0.850
 4454SOL    HW114261   5.421   1.856   0.797
 4454SOL    HW214262   5.551   1.955   0.805
 4455SOL     OW14263   3.022   6.244   0.819
 4455SOL    HW114264   3.019   6.207   0.726
 4455SOL    HW214265   2.966   6.188   0.879
 4456SOL     OW14266   2.239   5.098   2.308
 4456SOL    HW114267   2.190   5.114   2.394
 4456SOL    HW214268   2.173   5.098   2.232
 4457SOL     OW14269   4.212   2.343   6.927
 4457SOL    HW114270   4.227   2.276   7.000
 4457SOL    HW214271   4.118   2.377   6.933
 4458SOL     OW14272   1.981   3.248   6.761
 4458SOL    HW114273   1.897   3.210   6.801
 4458SOL    HW214274   1.966   3.269   6.665
 4459SOL     OW14275   5.536   0.208   4.081
 4459SOL    HW114276   5.492   0.148   4.147
 4459SOL    HW214277   5.523   0.172   3.989
 4460SOL     OW14278   2.352   3.281   6.522
 4460SOL    HW114279   2.290   3.359   6.526
 4460SOL    HW214280   2.381   3.266   6.427
 4461SOL     OW14281   1.176   0.225   2.475
 4461SOL    HW114282   1.132   0.225   2.565
 4461SOL    HW214283   1.272   0.200   2.485
 4462SOL     OW14284   6.773   4.183   1.149
 4462SOL    HW114285   6.829   4.236   1.212
 4462SOL    HW214286   6.710   4.125   1.201
 4463SOL     OW14287   1.996   2.848   6.883
 4463SOL    HW114288   1.992   2.756   6.924
 4463SOL    HW214289   1.987   2.917   6.955
 4464SOL     OW14290   6.132   5.303   0.558
 4464SOL    HW114291   6.104   5.302   0.654
 4464SOL    HW214292   6.140   5.398   0.526
 4465SOL     OW14293   1.870   6.083   2.947
 4465SOL    HW114294   1.946   6.112   2.888
 4465SOL    HW214295   1.790   6.139   2.929
 4466SOL     OW14296   0.881   0.729   2.756
 4466SOL    HW114297   0.836   0.734   2.667
 4466SOL    HW214298   0.898   0.822   2.789
 4467SOL     OW14299   0.677   6.749   3.709
 4467SOL    HW114300   0.756   6.691   3.729
 4467SOL    HW214301   0.663   6.813   3.785
 4468SOL     OW14302   0.884   1.928   0.541
 4468SOL    HW114303   0.856   2.023   0.528
 4468SOL    HW214304   0.821   1.883   0.605
 4469SOL     OW14305   3.157   6.745   1.602
 4469SOL    HW114306   3.186   6.792   1.518
 4469SOL    HW214307   3.229   6.682   1.631
 4470SOL     OW14308   5.683   3.312   1.895
 4470SOL    HW114309   5.651   3.402   1.866
 4470SOL    HW214310   5.605   3.254   1.917
 4471SOL     OW14311   0.416   2.910   0.247
 4471SOL    HW114312   0.373   2.983   0.194
 4471SOL    HW214313   0.479   2.950   0.313
 4472SOL     OW14314   1.472   4.372   2.818
 4472SOL    HW114315   1.411   4.414   2.885
 4472SOL    HW214316   1.426   4.365   2.730
 4473SOL     OW14317   0.461   0.546   4.983
 4473SOL    HW114318   0.406   0.526   5.064
 4473SOL    HW214319   0.441   0.479   4.912
 4474SOL     OW14320   3.722   0.545   2.515
 4474SOL    HW114321   3.712   0.637   2.554
 4474SOL    HW214322   3.774   0.551   2.430
 4475SOL     OW14323   1.579   3.891   1.605
 4475SOL    HW114324   1.646   3.891   1.531
 4475SOL    HW214325   1.512   3.818   1.589
 4476SOL     OW14326   5.357   6.562   3.069
 4476SOL    HW114327   5.443   6.542   3.022
 4476SOL    HW214328   5.294   6.485   3.058
 4477SOL     OW14329   1.753   0.394   6.654
 4477SOL    HW114330   1.735   0.323   6.586
 4477SOL    HW214331   1.781   0.478   6.607
 4478SOL     OW14332   2.126   6.471   2.864
 4478SOL    HW114333   2.081   6.502   2.948
 4478SOL    HW214334   2.080   6.511   2.785
 4479SOL     OW14335   1.472   0.698   6.569
 4479SOL    HW114336   1.405   0.629   6.541
 4479SOL    HW214337   1.426   0.786   6.583
 4480SOL     OW14338   2.143   3.286   4.388
 4480SOL    HW114339   2.145   3.217   4.460
 4480SOL    HW214340   2.049   3.306   4.363
 4481SOL     OW14341   2.033   6.592   4.369
 4481SOL    HW114342   2.129   6.618   4.371
 4481SOL    HW214343   2.019   6.509   4.423
 4482SOL     OW14344   0.699   3.645   3.832
 4482SOL    HW114345   0.723   3.562   3.882
 4482SOL    HW214346   0.780   3.681   3.786
 4483SOL     OW14347   6.409   2.686   1.392
 4483SOL    HW114348   6.406   2.592   1.426
 4483SOL    HW214349   6.504   2.714   1.377
 4484SOL     OW14350   3.690   1.663   5.294
 4484SOL    HW114351   3.738   1.750   5.306
 4484SOL    HW214352   3.673   1.648   5.196
 4485SOL     OW14353   5.091   2.343   6.337
 4485SOL    HW114354   5.084   2.438   6.368
 4485SOL    HW214355   5.044   2.334   6.249
 4486SOL     OW14356   6.458   4.016   4.951
 4486SOL    HW114357   6.403   3.986   4.874
 4486SOL    HW214358   6.540   4.063   4.918
 4487SOL     OW14359   2.430   3.684   6.815
 4487SOL    HW114360   2.454   3.682   6.718
 4487SOL    HW214361   2.447   3.594   6.855
 4488SOL     OW14362   5.126   2.546   6.660
 4488SOL    HW114363   5.188   2.467   6.668
 4488SOL    HW214364   5.100   2.577   6.751
 4489SOL     OW14365   5.481   6.257   4.035
 4489SOL    HW114366   5.515   6.198   3.963
 4489SOL    HW214367   5.406   6.212   4.084
 4490SOL     OW14368   5.659   1.875   1.830
 4490SOL    HW114369   5.575   1.877   1.883
 4490SOL    HW214370   5.694   1.968   1.816
 4491SOL     OW14371   0.847   2.919   3.285
 4491SOL    HW114372   0.839   3.013   3.317
 4491SOL    HW214373   0.884   2.917   3.193
 4492SOL     OW14374   5.218   2.829   0.670
 4492SOL    HW114375   5.301   2.867   0.628
 4492SOL    HW214376   5.236   2.736   0.701
 4493SOL     OW14377   3.846   4.915   4.368
 4493SOL    HW114378   3.750   4.938   4.384
 4493SOL    HW214379   3.893   4.903   4.455
 4494SOL     OW14380   6.900   2.420   6.153
 4494SOL    HW114381   6.973   2.404   6.220
 4494SOL    HW214382   6.941   2.430   6.062
 4495SOL     OW14383   5.489   6.941   3.435
 4495SOL    HW114384   5.441   6.948   3.522
 4495SOL    HW214385   5.462   6.857   3.388
 4496SOL     OW14386   5.397   5.141   0.591
 4496SOL    HW114387   5.337   5.187   0.656
 4496SOL    HW214388   5.491   5.172   0.606
 4497SOL     OW14389   5.133   6.213   6.703
 4497SOL    HW114390   5.179   6.223   6.791
 4497SOL    HW214391   5.035   6.198   6.718
 4498SOL     OW14392   0.546   3.350   6.614
 4498SOL    HW114393   0.644   3.332   6.603
 4498SOL    HW214394   0.531   3.403   6.697
 4499SOL     OW14395   6.691   3.145   4.265
 4499SOL    HW114396   6.593   3.155   4.285
 4499SOL    HW214397   6.703   3.081   4.189
 4500SOL     OW14398   2.952   3.748   3.987
 4500SOL    HW114399   2.894   3.683   4.037
 4500SOL    HW214400   3.014   3.698   3.927
 4501SOL     OW14401   0.733   3.858   5.671
 4501SOL    HW114402   0.747   3.921   5.748
 4501SOL    HW214403   0.669   3.786   5.698
 4502SOL     OW14404   2.140   2.694   6.056
 4502SOL    HW114405   2.117   2.597   6.050
 4502SOL    HW214406   2.057   2.749   6.052
 4503SOL     OW14407   1.884   0.412   2.847
 4503SOL    HW114408   1.882   0.406   2.747
 4503SOL    HW214409   1.840   0.497   2.876
 4504SOL     OW14410   6.600   2.207   5.295
 4504SOL    HW114411   6.597   2.210   5.195
 4504SOL    HW214412   6.511   2.177   5.329
 4505SOL     OW14413   0.362   6.232   4.774
 4505SOL    HW114414   0.392   6.161   4.837
 4505SOL    HW214415   0.265   6.249   4.787
 4506SOL     OW14416   4.445   2.152   4.599
 4506SOL    HW114417   4.455   2.164   4.698
 4506SOL    HW214418   4.360   2.196   4.570
 4507SOL     OW14419   4.929   4.429   1.894
 4507SOL    HW114420   4.835   4.435   1.927
 4507SOL    HW214421   4.934   4.466   1.801
 4508SOL     OW14422   1.302   4.333   6.788
 4508SOL    HW114423   1.401   4.350   6.786
 4508SOL    HW214424   1.285   4.235   6.780
 4509SOL     OW14425   4.391   1.599   4.199
 4509SOL    HW114426   4.427   1.678   4.249
 4509SOL    HW214427   4.465   1.552   4.152
 4510SOL     OW14428   5.546   0.247   4.771
 4510SOL    HW114429   5.542   0.346   4.758
 4510SOL    HW214430   5.604   0.226   4.850
 4511SOL     OW14431   0.033   3.281   6.451
 4511SOL    HW114432   0.065   3.350   6.386
 4511SOL    HW214433   6.959   3.289   6.462
 4512SOL     OW14434   2.295   6.752   5.877
 4512SOL    HW114435   2.314   6.824   5.810
 4512SOL    HW214436   2.367   6.684   5.873
 4513SOL     OW14437   4.803   6.514   1.154
 4513SOL    HW114438   4.848   6.586   1.207
 4513SOL    HW214439   4.713   6.546   1.124
 4514SOL     OW14440   4.033   0.839   4.747
 4514SOL    HW114441   4.071   0.893   4.673
 4514SOL    HW214442   3.999   0.899   4.820
 4515SOL     OW14443   6.491   3.988   6.822
 4515SOL    HW114444   6.408   3.962   6.772
 4515SOL    HW214445   6.468   4.060   6.888
 4516SOL     OW14446   0.960   1.545   6.381
 4516SOL    HW114447   1.041   1.520   6.435
 4516SOL    HW214448   0.911   1.463   6.353
 4517SOL     OW14449   2.571   0.141   5.836
 4517SOL    HW114450   2.487   0.194   5.848
 4517SOL    HW214451   2.580   0.117   5.739
 4518SOL     OW14452   0.123   2.067   3.805
 4518SOL    HW114453   0.043   2.078   3.864
 4518SOL    HW214454   0.116   2.128   3.726
 4519SOL     OW14455   7.002   1.370   2.350
 4519SOL    HW114456   6.914   1.418   2.355
 4519SOL    HW214457   0.051   1.437   2.345
 4520SOL     OW14458   5.365   5.069   2.774
 4520SOL    HW114459   5.312   5.045   2.693
 4520SOL    HW214460   5.366   5.168   2.786
 4521SOL     OW14461   4.538   1.544   5.727
 4521SOL    HW114462   4.499   1.635   5.714
 4521SOL    HW214463   4.561   1.531   5.823
 4522SOL     OW14464   5.071   7.008   3.734
 4522SOL    HW114465   5.042   0.077   3.752
 4522SOL    HW214466   4.991   6.951   3.716
 4523SOL     OW14467   1.388   3.988   6.973
 4523SOL    HW114468   1.409   3.920   0.018
 4523SOL    HW214469   1.330   3.946   6.903
 4524SOL     OW14470   5.048   2.041   5.750
 4524SOL    HW114471   5.136   2.002   5.725
 4524SOL    HW214472   5.016   2.000   5.836
 4525SOL     OW14473   6.669   1.976   3.766
 4525SOL    HW114474   6.725   1.923   3.702
 4525SOL    HW214475   6.648   2.065   3.725
 4526SOL     OW14476   5.064   0.268   1.322
 4526SOL    HW114477   5.087   0.186   1.374
 4526SOL    HW214478   5.080   0.349   1.379
 4527SOL     OW14479   4.336   1.320   3.860
 4527SOL    HW114480   4.329   1.284   3.953
 4527SOL    HW214481   4.413   1.275   3.813
 4528SOL     OW14482   5.052   6.445   0.319
 4528SOL    HW114483   4.988   6.520   0.332
 4528SOL    HW214484   5.096   6.423   0.406
 4529SOL     OW14485   2.562   1.115   3.428
 4529SOL    HW114486   2.464   1.095   3.425
 4529SOL    HW214487   2.575   1.211   3.455
 4530SOL     OW14488   0.525   3.636   5.797
 4530SOL    HW114489   0.487   3.624   5.889
 4530SOL    HW214490   0.466   3.697   5.744
 4531SOL     OW14491   0.788   3.979   3.325
 4531SOL    HW114492   0.812   4.007   3.232
 4531SOL    HW214493   0.850   3.906   3.354
 4532SOL     OW14494   0.357   1.356   2.195
 4532SOL    HW114495   0.295   1.406   2.256
 4532SOL    HW214496   0.340   1.383   2.101
 4533SOL     OW14497   1.458   0.424   3.583
 4533SOL    HW114498   1.413   0.334   3.578
 4533SOL    HW214499   1.432   0.470   3.668
 4534SOL     OW14500   6.401   3.773   4.645
 4534SOL    HW114501   6.326   3.828   4.682
 4534SOL    HW214502   6.386   3.758   4.547
 4535SOL     OW14503   4.508   2.175   2.588
 4535SOL    HW114504   4.541   2.165   2.682
 4535SOL    HW214505   4.516   2.087   2.541
 4536SOL     OW14506   4.811   1.620   4.562
 4536SOL    HW114507   4.858   1.532   4.563
 4536SOL    HW214508   4.856   1.681   4.497
 4537SOL     OW14509   3.694   3.243   6.444
 4537SOL    HW114510   3.626   3.308   6.479
 4537SOL    HW214511   3.648   3.175   6.386
 4538SOL     OW14512   3.455   1.969   4.244
 4538SOL    HW114513   3.466   1.877   4.207
 4538SOL    HW214514   3.539   2.021   4.229
 4539SOL     OW14515   2.703   2.030   4.052
 4539SOL    HW114516   2.656   2.085   4.121
 4539SOL    HW214517   2.683   1.933   4.067
 4540SOL     OW14518   4.054   3.689   3.639
 4540SOL    HW114519   4.121   3.652   3.575
 4540SOL    HW214520   4.024   3.616   3.701
 4541SOL     OW14521   5.677   0.644   0.449
 4541SOL    HW114522   5.581   0.618   0.440
 4541SOL    HW214523   5.691   0.736   0.413
 4542SOL     OW14524   6.067   6.112   1.901
 4542SOL    HW114525   6.000   6.112   1.827
 4542SOL    HW214526   6.040   6.045   1.971
 4543SOL     OW14527   4.575   1.318   6.695
 4543SOL    HW114528   4.548   1.409   6.727
 4543SOL    HW214529   4.644   1.328   6.622
 4544SOL     OW14530   2.319   6.191   6.334
 4544SOL    HW114531   2.314   6.172   6.236
 4544SOL    HW214532   2.283   6.283   6.352
 4545SOL     OW14533   5.152   2.286   5.434
 4545SOL    HW114534   5.154   2.233   5.518
 4545SOL    HW214535   5.095   2.367   5.447
 4546SOL     OW14536   0.868   0.063   6.124
 4546SOL    HW114537   0.825   0.086   6.212
 4546SOL    HW214538   0.856   6.991   6.106
 4547SOL     OW14539   6.101   3.220   1.939
 4547SOL    HW114540   6.061   3.147   1.995
 4547SOL    HW214541   6.199   3.206   1.930
 4548SOL     OW14542   1.345   4.623   4.096
 4548SOL    HW114543   1.272   4.684   4.127
 4548SOL    HW214544   1.434   4.663   4.121
 4549SOL     OW14545   6.472   4.088   2.875
 4549SOL    HW114546   6.535   4.062   2.948
 4549SOL    HW214547   6.462   4.188   2.874
 4550SOL     OW14548   0.685   5.784   3.859
 4550SOL    HW114549   0.733   5.698   3.878
 4550SOL    HW214550   0.586   5.766   3.853
 4551SOL     OW14551   0.269   1.760   5.514
 4551SOL    HW114552   0.237   1.722   5.601
 4551SOL    HW214553   0.262   1.859   5.516
 4552SOL     OW14554   7.001   3.034   6.318
 4552SOL    HW114555   0.025   3.118   6.344
 4552SOL    HW214556   6.923   3.020   6.379
 4553SOL     OW14557   3.766   4.322   0.066
 4553SOL    HW114558   3.669   4.337   0.087
 4553SOL    HW214559   3.821   4.349   0.144
 4554SOL     OW14560   4.253   0.960   2.302
 4554SOL    HW114561   4.310   0.883   2.273
 4554SOL    HW214562   4.196   0.932   2.379
 4555SOL     OW14563   4.343   1.239   6.588
 4555SOL    HW114564   4.264   1.299   6.595
 4555SOL    HW214565   4.418   1.276   6.643
 4556SOL     OW14566   4.343   1.592   3.786
 4556SOL    HW114567   4.399   1.615   3.706
 4556SOL    HW214568   4.346   1.494   3.801
 4557SOL     OW14569   5.328   0.238   4.612
 4557SOL    HW114570   5.386   0.211   4.689
 4557SOL    HW214571   5.236   0.258   4.644
 4558SOL     OW14572   6.521   4.059   6.238
 4558SOL    HW114573   6.612   4.035   6.205
 4558SOL    HW214574   6.529   4.116   6.320
 4559SOL     OW14575   1.658   6.778   2.023
 4559SOL    HW114576   1.728   6.788   1.952
 4559SOL    HW214577   1.570   6.811   1.988
 4560SOL     OW14578   5.007   4.546   3.230
 4560SOL    HW114579   5.093   4.567   3.184
 4560SOL    HW214580   4.998   4.602   3.312
 4561SOL     OW14581   2.679   0.530   1.110
 4561SOL    HW114582   2.605   0.550   1.174
 4561SOL    HW214583   2.767   0.543   1.157
 4562SOL     OW14584   2.884   5.668   5.226
 4562SOL    HW114585   2.801   5.613   5.218
 4562SOL    HW214586   2.922   5.657   5.318
 4563SOL     OW14587   5.919   3.851   0.519
 4563SOL    HW114588   5.926   3.816   0.426
 4563SOL    HW214589   5.823   3.865   0.543
 4564SOL     OW14590   1.599   5.478   0.924
 4564SOL    HW114591   1.654   5.409   0.876
 4564SOL    HW214592   1.580   5.446   1.017
 4565SOL     OW14593   0.502   1.256   5.248
 4565SOL    HW114594   0.482   1.241   5.151
 4565SOL    HW214595   0.592   1.297   5.258
 4566SOL     OW14596   6.874   0.461   0.430
 4566SOL    HW114597   6.973   0.446   0.424
 4566SOL    HW214598   6.850   0.546   0.384
 4567SOL     OW14599   0.409   0.944   0.926
 4567SOL    HW114600   0.417   0.854   0.882
 4567SOL    HW214601   0.341   0.999   0.877
 4568SOL     OW14602   1.895   3.846   5.301
 4568SOL    HW114603   1.945   3.759   5.296
 4568SOL    HW214604   1.947   3.917   5.253
 4569SOL     OW14605   1.949   2.116   3.564
 4569SOL    HW114606   1.904   2.178   3.628
 4569SOL    HW214607   1.882   2.054   3.524
 4570SOL     OW14608   0.088   6.084   3.493
 4570SOL    HW114609   0.083   6.100   3.592
 4570SOL    HW214610   7.023   6.055   3.460
 4571SOL     OW14611   3.680   3.906   5.255
 4571SOL    HW114612   3.749   3.835   5.245
 4571SOL    HW214613   3.600   3.870   5.302
 4572SOL     OW14614   0.429   0.025   0.822
 4572SOL    HW114615   0.413   7.023   0.727
 4572SOL    HW214616   0.448   6.968   0.877
 4573SOL     OW14617   6.185   5.802   1.049
 4573SOL    HW114618   6.221   5.869   1.114
 4573SOL    HW214619   6.095   5.771   1.079
 4574SOL     OW14620   6.990   4.496   0.945
 4574SOL    HW114621   6.919   4.431   0.917
 4574SOL    HW214622   0.001   4.542   0.864
 4575SOL     OW14623   7.023   2.234   0.770
 4575SOL    HW114624   0.088   2.201   0.798
 4575SOL    HW214625   7.018   2.333   0.789
 4576SOL     OW14626   2.816   5.591   6.006
 4576SOL    HW114627   2.751   5.515   6.002
 4576SOL    HW214628   2.798   5.646   6.088
 4577SOL     OW14629   0.230   3.448   2.836
 4577SOL    HW114630   0.243   3.350   2.847
 4577SOL    HW214631   0.291   3.497   2.898
 4578SOL     OW14632   0.770   4.385   3.624
 4578SOL    HW114633   0.715   4.326   3.683
 4578SOL    HW214634   0.830   4.329   3.566
 4579SOL     OW14635   4.460   1.602   3.151
 4579SOL    HW114636   4.547   1.572   3.190
 4579SOL    HW214637   4.430   1.535   3.083
 4580SOL     OW14638   6.014   4.884   0.531
 4580SOL    HW114639   6.066   4.860   0.613
 4580SOL    HW214640   6.036   4.819   0.458
 4581SOL     OW14641   2.874   5.077   2.363
 4581SOL    HW114642   2.880   5.095   2.265
 4581SOL    HW214643   2.864   4.979   2.379
 4582SOL     OW14644   5.823   6.484   4.320
 4582SOL    HW114645   5.836   6.581   4.300
 4582SOL    HW214646   5.911   6.436   4.313
 4583SOL     OW14647   2.958   1.836   4.989
 4583SOL    HW114648   2.964   1.902   4.914
 4583SOL    HW214649   3.043   1.838   5.042
 4584SOL     OW14650   0.407   5.953   6.380
 4584SOL    HW114651   0.471   5.877   6.379
 4584SOL    HW214652   0.326   5.929   6.326
 4585SOL     OW14653   2.669   6.285   3.045
 4585SOL    HW114654   2.629   6.369   3.082
 4585SOL    HW214655   2.626   6.264   2.957
 4586SOL     OW14656   3.553   4.942   1.424
 4586SOL    HW114657   3.592   4.878   1.357
 4586SOL    HW214658   3.625   5.004   1.456
 4587SOL     OW14659   4.250   3.805   1.691
 4587SOL    HW114660   4.215   3.850   1.773
 4587SOL    HW214661   4.204   3.716   1.680
 4588SOL     OW14662   3.707   3.252   5.155
 4588SOL    HW114663   3.735   3.179   5.093
 4588SOL    HW214664   3.686   3.213   5.245
 4589SOL     OW14665   5.721   1.963   2.756
 4589SOL    HW114666   5.796   1.994   2.814
 4589SOL    HW214667   5.696   2.036   2.693
 4590SOL     OW14668   4.289   5.954   1.465
 4590SOL    HW114669   4.199   5.913   1.481
 4590SOL    HW214670   4.277   6.044   1.422
 4591SOL     OW14671   6.683   6.090   5.382
 4591SOL    HW114672   6.618   6.014   5.381
 4591SOL    HW214673   6.712   6.109   5.476
 4592SOL     OW14674   3.969   3.130   1.541
 4592SOL    HW114675   4.020   3.095   1.462
 4592SOL    HW214676   3.924   3.053   1.587
 4593SOL     OW14677   4.310   5.518   3.271
 4593SOL    HW114678   4.325   5.596   3.333
 4593SOL    HW214679   4.282   5.552   3.181
 4594SOL     OW14680   4.210   1.553   1.682
 4594SOL    HW114681   4.269   1.519   1.755
 4594SOL    HW214682   4.141   1.614   1.721
 4595SOL     OW14683   3.834   3.007   6.056
 4595SOL    HW114684   3.895   2.930   6.074
 4595SOL    HW214685   3.888   3.091   6.045
 4596SOL     OW14686   6.107   6.593   1.708
 4596SOL    HW114687   6.112   6.677   1.762
 4596SOL    HW214688   6.148   6.517   1.759
 4597SOL     OW14689   5.071   4.981   6.661
 4597SOL    HW114690   4.976   5.005   6.680
 4597SOL    HW214691   5.101   4.910   6.725
 4598SOL     OW14692   0.915   5.063   6.436
 4598SOL    HW114693   0.947   5.005   6.512
 4598SOL    HW214694   0.937   5.019   6.349
 4599SOL     OW14695   1.393   3.802   1.373
 4599SOL    HW114696   1.358   3.787   1.280
 4599SOL    HW214697   1.347   3.740   1.436
 4600SOL     OW14698   2.892   5.206   6.103
 4600SOL    HW114699   2.840   5.153   6.036
 4600SOL    HW214700   2.973   5.245   6.059
 4601SOL     OW14701   1.851   1.316   5.440
 4601SOL    HW114702   1.950   1.310   5.452
 4601SOL    HW214703   1.828   1.298   5.344
 4602SOL     OW14704   1.143   6.601   1.208
 4602SOL    HW114705   1.108   6.548   1.285
 4602SOL    HW214706   1.239   6.577   1.193
 4603SOL     OW14707   3.697   6.401   0.935
 4603SOL    HW114708   3.669   6.368   0.844
 4603SOL    HW214709   3.621   6.450   0.977
 4604SOL     OW14710   4.127   1.200   1.094
 4604SOL    HW114711   4.126   1.276   1.029
 4604SOL    HW214712   4.157   1.232   1.183
 4605SOL     OW14713   4.940   0.718   4.278
 4605SOL    HW114714   4.990   0.795   4.317
 4605SOL    HW214715   4.997   0.636   4.282
 4606SOL     OW14716   6.942   6.730   2.504
 4606SOL    HW114717   0.001   6.730   2.558
 4606SOL    HW214718   6.881   6.658   2.537
 4607SOL     OW14719   2.416   1.818   0.660
 4607SOL    HW114720   2.345   1.883   0.689
 4607SOL    HW214721   2.433   1.829   0.563
 4608SOL     OW14722   1.294   5.348   4.828
 4608SOL    HW114723   1.225   5.406   4.871
 4608SOL    HW214724   1.263   5.253   4.827
 4609SOL     OW14725   4.558   5.270   6.164
 4609SOL    HW114726   4.527   5.177   6.147
 4609SOL    HW214727   4.492   5.317   6.223
 4610SOL     OW14728   0.016   3.082   0.387
 4610SOL    HW114729   0.042   3.024   0.464
 4610SOL    HW214730   0.091   3.085   0.321
 4611SOL     OW14731   6.569   4.211   6.487
 4611SOL    HW114732   6.571   4.201   6.587
 4611SOL    HW214733   6.486   4.259   6.461
 4612SOL     OW14734   1.599   6.249   6.780
 4612SOL    HW114735   1.669   6.226   6.849
 4612SOL    HW214736   1.588   6.172   6.718
 4613SOL     OW14737   2.392   6.116   2.805
 4613SOL    HW114738   2.473   6.174   2.813
 4613SOL    HW214739   2.408   6.046   2.736
 4614SOL     OW14740   1.713   4.894   6.159
 4614SOL    HW114741   1.620   4.923   6.179
 4614SOL    HW214742   1.763   4.879   6.244
 4615SOL     OW14743   1.908   1.644   0.093
 4615SOL    HW114744   1.810   1.624   0.093
 4615SOL    HW214745   1.950   1.602   0.013
 4616SOL     OW14746   0.200   0.666   6.520
 4616SOL    HW114747   0.174   0.631   6.431
 4616SOL    HW214748   0.296   0.696   6.517
 4617SOL     OW14749   1.204   2.590   2.252
 4617SOL    HW114750   1.169   2.597   2.346
 4617SOL    HW214751   1.186   2.498   2.217
 4618SOL     OW14752   1.489   2.824   5.088
 4618SOL    HW114753   1.448   2.734   5.099
 4618SOL    HW214754   1.563   2.819   5.021
 4619SOL     OW14755   4.778   6.670   3.503
 4619SOL    HW114756   4.695   6.648   3.451
 4619SOL    HW214757   4.759   6.665   3.601
 4620SOL     OW14758   3.268   3.751   6.711
 4620SOL    HW114759   3.247   3.778   6.617
 4620SOL    HW214760   3.301   3.830   6.762
 4621SOL     OW14761   5.977   2.177   4.265
 4621SOL    HW114762   5.997   2.108   4.334
 4621SOL    HW214763   6.034   2.258   4.282
 4622SOL     OW14764   0.859   3.076   0.995
 4622SOL    HW114765   0.884   2.980   1.009
 4622SOL    HW214766   0.760   3.083   0.980
 4623SOL     OW14767   7.021   5.146   0.812
 4623SOL    HW114768   0.056   5.205   0.866
 4623SOL    HW214769   0.027   5.144   0.717
 4624SOL     OW14770   4.603   0.287   3.858
 4624SOL    HW114771   4.647   0.297   3.948
 4624SOL    HW214772   4.562   0.196   3.851
 4625SOL     OW14773   1.199   4.481   0.040
 4625SOL    HW114774   1.255   4.400   0.026
 4625SOL    HW214775   1.157   4.477   0.131
 4626SOL     OW14776   5.876   4.927   1.548
 4626SOL    HW114777   5.962   4.877   1.553
 4626SOL    HW214778   5.807   4.879   1.603
 4627SOL     OW14779   3.327   5.675   5.477
 4627SOL    HW114780   3.308   5.577   5.464
 4627SOL    HW214781   3.324   5.696   5.575
 4628SOL     OW14782   6.177   3.992   3.241
 4628SOL    HW114783   6.223   4.077   3.218
 4628SOL    HW214784   6.213   3.957   3.327
 4629SOL     OW14785   2.009   4.791   5.907
 4629SOL    HW114786   1.954   4.711   5.934
 4629SOL    HW214787   1.949   4.870   5.897
 4630SOL     OW14788   3.161   5.827   3.725
 4630SOL    HW114789   3.223   5.787   3.658
 4630SOL    HW214790   3.118   5.909   3.686
 4631SOL     OW14791   2.947   0.120   3.574
 4631SOL    HW114792   2.866   0.150   3.524
 4631SOL    HW214793   2.971   0.188   3.642
 4632SOL     OW14794   4.060   5.287   2.924
 4632SOL    HW114795   4.028   5.379   2.901
 4632SOL    HW214796   3.983   5.233   2.958
 4633SOL     OW14797   6.683   1.840   4.262
 4633SOL    HW114798   6.689   1.938   4.244
 4633SOL    HW214799   6.605   1.802   4.214
 4634SOL     OW14800   2.452   4.451   6.261
 4634SOL    HW114801   2.458   4.364   6.310
 4634SOL    HW214802   2.541   4.497   6.263
 4635SOL     OW14803   6.141   3.363   2.339
 4635SOL    HW114804   6.147   3.264   2.352
 4635SOL    HW214805   6.098   3.382   2.251
 4636SOL     OW14806   2.651   4.405   6.826
 4636SOL    HW114807   2.683   4.335   6.889
 4636SOL    HW214808   2.553   4.418   6.836
 4637SOL     OW14809   1.205   0.685   6.778
 4637SOL    HW114810   1.266   0.763   6.761
 4637SOL    HW214811   1.183   0.640   6.691
 4638SOL     OW14812   3.921   2.583   6.499
 4638SOL    HW114813   3.908   2.645   6.575
 4638SOL    HW214814   3.987   2.622   6.435
 4639SOL     OW14815   1.492   4.574   5.562
 4639SOL    HW114816   1.539   4.612   5.642
 4639SOL    HW214817   1.493   4.641   5.488
 4640SOL     OW14818   4.961   5.301   3.684
 4640SOL    HW114819   4.941   5.311   3.782
 4640SOL    HW214820   5.007   5.383   3.650
 4641SOL     OW14821   2.649   5.156   4.092
 4641SOL    HW114822   2.614   5.181   4.182
 4641SOL    HW214823   2.628   5.060   4.073
 4642SOL     OW14824   6.556   6.323   5.325
 4642SOL    HW114825   6.596   6.374   5.249
 4642SOL    HW214826   6.592   6.230   5.326
 4643SOL     OW14827   4.538   2.455   0.652
 4643SOL    HW114828   4.576   2.465   0.744
 4643SOL    HW214829   4.469   2.525   0.637
 4644SOL     OW14830   1.670   5.130   5.276
 4644SOL    HW114831   1.608   5.085   5.340
 4644SOL    HW214832   1.626   5.138   5.187
 4645SOL     OW14833   1.873   0.163   4.623
 4645SOL    HW114834   1.841   0.245   4.670
 4645SOL    HW214835   1.839   0.163   4.529
 4646SOL     OW14836   2.619   6.702   2.412
 4646SOL    HW114837   2.541   6.643   2.389
 4646SOL    HW214838   2.702   6.664   2.371
 4647SOL     OW14839   0.892   6.626   3.329
 4647SOL    HW114840   0.855   6.698   3.389
 4647SOL    HW214841   0.821   6.560   3.308
 4648SOL     OW14842   3.726   7.007   1.322
 4648SOL    HW114843   3.826   7.008   1.327
 4648SOL    HW214844   3.697   6.956   1.241
 4649SOL     OW14845   5.000   0.526   5.452
 4649SOL    HW114846   5.096   0.502   5.438
 4649SOL    HW214847   4.956   0.455   5.506
 4650SOL     OW14848   3.413   6.067   2.900
 4650SOL    HW114849   3.436   6.070   2.803
 4650SOL    HW214850   3.449   6.149   2.945
 4651SOL     OW14851   0.277   2.032   1.770
 4651SOL    HW114852   0.310   2.066   1.859
 4651SOL    HW214853   0.200   2.087   1.740
 4652SOL     OW14854   0.627   0.599   3.424
 4652SOL    HW114855   0.689   0.535   3.468
 4652SOL    HW214856   0.549   0.617   3.484
 4653SOL     OW14857   6.695   5.452   6.962
 4653SOL    HW114858   6.651   5.433   0.025
 4653SOL    HW214859   6.704   5.550   6.950
 4654SOL     OW14860   0.902   0.256   0.037
 4654SOL    HW114861   1.001   0.246   0.049
 4654SOL    HW214862   0.859   0.166   0.044
 4655SOL     OW14863   0.206   4.690   2.230
 4655SOL    HW114864   0.111   4.671   2.204
 4655SOL    HW214865   0.252   4.604   2.253
 4656SOL     OW14866   0.934   7.022   2.690
 4656SOL    HW114867   0.900   0.083   2.651
 4656SOL    HW214868   0.963   0.012   2.784
 4657SOL     OW14869   5.231   6.886   2.055
 4657SOL    HW114870   5.213   6.950   1.981
 4657SOL    HW214871   5.329   6.873   2.065
 4658SOL     OW14872   3.559   0.321   2.555
 4658SOL    HW114873   3.550   0.263   2.636
 4658SOL    HW214874   3.641   0.378   2.562
 4659SOL     OW14875   2.080   3.568   5.277
 4659SOL    HW114876   2.164   3.616   5.302
 4659SOL    HW214877   2.103   3.489   5.219
 4660SOL     OW14878   1.336   2.600   4.784
 4660SOL    HW114879   1.363   2.690   4.750
 4660SOL    HW214880   1.411   2.560   4.838
 4661SOL     OW14881   3.920   3.894   4.803
 4661SOL    HW114882   3.979   3.870   4.726
 4661SOL    HW214883   3.870   3.813   4.833
 4662SOL     OW14884   5.258   0.591   5.154
 4662SOL    HW114885   5.182   0.625   5.209
 4662SOL    HW214886   5.231   0.506   5.108
 4663SOL     OW14887   6.939   1.203   2.586
 4663SOL    HW114888   6.842   1.219   2.601
 4663SOL    HW214889   6.964   1.234   2.494
 4664SOL     OW14890   2.237   2.571   6.419
 4664SOL    HW114891   2.170   2.521   6.474
 4664SOL    HW214892   2.207   2.665   6.406
 4665SOL     OW14893   4.577   6.865   6.936
 4665SOL    HW114894   4.619   6.802   6.870
 4665SOL    HW214895   4.604   6.959   6.914
 4666SOL     OW14896   2.292   1.036   0.161
 4666SOL    HW114897   2.224   0.969   0.191
 4666SOL    HW214898   2.303   1.106   0.232
 4667SOL     OW14899   6.591   4.815   0.036
 4667SOL    HW114900   6.578   4.773   6.972
 4667SOL    HW214901   6.503   4.831   0.080
 4668SOL     OW14902   0.234   1.945   4.427
 4668SOL    HW114903   0.144   1.936   4.383
 4668SOL    HW214904   0.257   1.860   4.475
 4669SOL     OW14905   3.377   6.527   1.016
 4669SOL    HW114906   3.435   6.548   0.937
 4669SOL    HW214907   3.293   6.482   0.984
 4670SOL     OW14908   3.298   1.467   4.912
 4670SOL    HW114909   3.387   1.422   4.925
 4670SOL    HW214910   3.289   1.496   4.817
 4671SOL     OW14911   6.036   3.454   1.566
 4671SOL    HW114912   5.987   3.377   1.608
 4671SOL    HW214913   6.047   3.527   1.633
 4672SOL     OW14914   2.892   4.799   6.150
 4672SOL    HW114915   2.841   4.831   6.070
 4672SOL    HW214916   2.890   4.869   6.222
 4673SOL     OW14917   3.736   0.304   1.413
 4673SOL    HW114918   3.791   0.383   1.385
 4673SOL    HW214919   3.777   0.221   1.375
 4674SOL     OW14920   5.510   6.131   6.671
 4674SOL    HW114921   5.477   6.038   6.657
 4674SOL    HW214922   5.547   6.166   6.585
 4675SOL     OW14923   0.534   3.774   0.764
 4675SOL    HW114924   0.538   3.787   0.664
 4675SOL    HW214925   0.448   3.729   0.789
 4676SOL     OW14926   1.039   5.497   4.090
 4676SOL    HW114927   0.983   5.508   4.172
 4676SOL    HW214928   0.995   5.432   4.028
 4677SOL     OW14929   1.742   1.673   0.755
 4677SOL    HW114930   1.834   1.708   0.740
 4677SOL    HW214931   1.706   1.708   0.842
 4678SOL     OW14932   2.469   4.437   2.989
 4678SOL    HW114933   2.431   4.365   2.931
 4678SOL    HW214934   2.522   4.500   2.933
 4679SOL     OW14935   4.537   0.073   2.215
 4679SOL    HW114936   4.438   0.082   2.216
 4679SOL    HW214937   4.563   7.008   2.251
 4680SOL     OW14938   4.024   1.694   1.222
 4680SOL    HW114939   4.113   1.715   1.181
 4680SOL    HW214940   3.962   1.658   1.153
 4681SOL     OW14941   4.473   4.893   6.980
 4681SOL    HW114942   4.393   4.893   6.920
 4681SOL    HW214943   4.526   4.976   6.965
 4682SOL     OW14944   5.608   3.156   6.104
 4682SOL    HW114945   5.570   3.148   6.196
 4682SOL    HW214946   5.708   3.148   6.109
 4683SOL     OW14947   5.872   5.369   2.884
 4683SOL    HW114948   5.890   5.281   2.839
 4683SOL    HW214949   5.853   5.438   2.814
 4684SOL     OW14950   4.440   5.911   6.097
 4684SOL    HW114951   4.463   5.976   6.169
 4684SOL    HW214952   4.342   5.892   6.100
 4685SOL     OW14953   1.801   4.123   6.065
 4685SOL    HW114954   1.827   4.145   6.159
 4685SOL    HW214955   1.877   4.143   6.004
 4686SOL     OW14956   3.983   5.722   0.182
 4686SOL    HW114957   4.044   5.787   0.138
 4686SOL    HW214958   4.032   5.637   0.200
 4687SOL     OW14959   4.323   1.990   4.062
 4687SOL    HW114960   4.303   1.940   3.979
 4687SOL    HW214961   4.250   1.974   4.129
 4688SOL     OW14962   5.846   2.382   5.404
 4688SOL    HW114963   5.894   2.353   5.486
 4688SOL    HW214964   5.778   2.451   5.427
 4689SOL     OW14965   5.895   0.435   1.087
 4689SOL    HW114966   5.994   0.447   1.074
 4689SOL    HW214967   5.857   0.387   1.008
 4690SOL     OW14968   1.850   0.981   0.608
 4690SOL    HW114969   1.834   0.972   0.707
 4690SOL    HW214970   1.887   0.895   0.573
 4691SOL     OW14971   4.483   3.827   0.293
 4691SOL    HW114972   4.451   3.733   0.293
 4691SOL    HW214973   4.583   3.828   0.303
 4692SOL     OW14974   5.992   4.726   3.486
 4692SOL    HW114975   5.990   4.769   3.396
 4692SOL    HW214976   6.046   4.782   3.548
 4693SOL     OW14977   1.449   0.968   3.736
 4693SOL    HW114978   1.398   0.886   3.711
 4693SOL    HW214979   1.531   0.942   3.787
 4694SOL     OW14980   2.214   2.399   0.419
 4694SOL    HW114981   2.313   2.392   0.425
 4694SOL    HW214982   2.181   2.461   0.490
 4695SOL     OW14983   1.847   5.959   0.730
 4695SOL    HW114984   1.847   5.937   0.827
 4695SOL    HW214985   1.940   5.952   0.694
 4696SOL     OW14986   0.201   5.724   6.669
 4696SOL    HW114987   0.287   5.675   6.684
 4696SOL    HW214988   0.184   5.734   6.571
 4697SOL     OW14989   1.341   3.556   2.129
 4697SOL    HW114990   1.347   3.498   2.048
 4697SOL    HW214991   1.433   3.571   2.167
 4698SOL     OW14992   3.714   6.995   3.444
 4698SOL    HW114993   3.615   6.989   3.452
 4698SOL    HW214994   3.740   6.991   3.347
 4699SOL     OW14995   0.548   6.737   2.680
 4699SOL    HW114996   0.470   6.689   2.720
 4699SOL    HW214997   0.547   6.833   2.707
 4700SOL     OW14998   6.594   1.677   2.254
 4700SOL    HW114999   6.633   1.696   2.163
 4700SOL    HW215000   6.495   1.667   2.247
 4701SOL     OW15001   3.227   2.170   1.658
 4701SOL    HW115002   3.291   2.225   1.711
 4701SOL    HW215003   3.142   2.159   1.710
 4702SOL     OW15004   4.732   5.127   0.615
 4702SOL    HW115005   4.766   5.055   0.676
 4702SOL    HW215006   4.677   5.086   0.542
 4703SOL     OW15007   1.000   5.435   2.636
 4703SOL    HW115008   1.040   5.523   2.611
 4703SOL    HW215009   0.933   5.408   2.567
 4704SOL     OW15010   0.405   6.262   5.615
 4704SOL    HW115011   0.370   6.237   5.706
 4704SOL    HW215012   0.375   6.193   5.548
 4705SOL     OW15013   3.043   2.299   0.436
 4705SOL    HW115014   3.129   2.252   0.418
 4705SOL    HW215015   3.007   2.271   0.525
 4706SOL     OW15016   1.609   0.297   0.766
 4706SOL    HW115017   1.545   0.221   0.755
 4706SOL    HW215018   1.607   0.354   0.685
 4707SOL     OW15019   1.463   5.934   1.596
 4707SOL    HW115020   1.416   5.903   1.678
 4707SOL    HW215021   1.525   6.010   1.620
 4708SOL     OW15022   0.709   2.125   5.778
 4708SOL    HW115023   0.762   2.087   5.854
 4708SOL    HW215024   0.677   2.050   5.720
 4709SOL     OW15025   4.421   4.835   4.662
 4709SOL    HW115026   4.471   4.858   4.578
 4709SOL    HW215027   4.339   4.893   4.667
 4710SOL     OW15028   6.090   0.126   5.392
 4710SOL    HW115029   6.104   0.114   5.491
 4710SOL    HW215030   6.179   0.130   5.346
 4711SOL     OW15031   6.825   2.485   3.016
 4711SOL    HW115032   6.773   2.529   3.089
 4711SOL    HW215033   6.872   2.556   2.962
 4712SOL     OW15034   4.058   4.451   6.400
 4712SOL    HW115035   4.013   4.540   6.411
 4712SOL    HW215036   4.116   4.433   6.479
 4713SOL     OW15037   5.177   5.748   0.869
 4713SOL    HW115038   5.096   5.782   0.820
 4713SOL    HW215039   5.155   5.737   0.966
 4714SOL     OW15040   0.318   1.713   6.576
 4714SOL    HW115041   0.417   1.712   6.564
 4714SOL    HW215042   0.295   1.678   6.667
 4715SOL     OW15043   5.572   2.320   1.215
 4715SOL    HW115044   5.556   2.223   1.234
 4715SOL    HW215045   5.650   2.328   1.153
 4716SOL     OW15046   4.875   5.718   5.953
 4716SOL    HW115047   4.890   5.749   6.047
 4716SOL    HW215048   4.777   5.716   5.934
 4717SOL     OW15049   2.171   5.188   5.235
 4717SOL    HW115050   2.080   5.208   5.272
 4717SOL    HW215051   2.190   5.249   5.157
 4718SOL     OW15052   4.974   2.970   1.092
 4718SOL    HW115053   4.968   2.918   1.007
 4718SOL    HW215054   5.064   2.956   1.133
 4719SOL     OW15055   5.099   3.855   2.775
 4719SOL    HW115056   5.046   3.858   2.860
 4719SOL    HW215057   5.180   3.914   2.784
 4720SOL     OW15058   2.211   4.404   5.720
 4720SOL    HW115059   2.297   4.445   5.749
 4720SOL    HW215060   2.158   4.471   5.667
 4721SOL     OW15061   5.777   2.652   1.738
 4721SOL    HW115062   5.852   2.716   1.719
 4721SOL    HW215063   5.775   2.581   1.668
 4722SOL     OW15064   1.023   5.714   0.249
 4722SOL    HW115065   1.032   5.630   0.196
 4722SOL    HW215066   0.976   5.784   0.195
 4723SOL     OW15067   3.686   4.098   5.442
 4723SOL    HW115068   3.688   4.036   5.363
 4723SOL    HW215069   3.657   4.189   5.412
 4724SOL     OW15070   0.286   6.949   3.956
 4724SOL    HW115071   0.252   6.953   3.862
 4724SOL    HW215072   0.219   6.902   4.013
 4725SOL     OW15073   5.959   4.756   0.288
 4725SOL    HW115074   5.970   4.660   0.316
 4725SOL    HW215075   6.001   4.769   0.198
 4726SOL     OW15076   1.058   3.039   6.115
 4726SOL    HW115077   1.084   3.044   6.019
 4726SOL    HW215078   1.124   2.982   6.164
 4727SOL     OW15079   0.285   5.791   0.307
 4727SOL    HW115080   0.260   5.705   0.262
 4727SOL    HW215081   0.361   5.834   0.258
 4728SOL     OW15082   6.559   1.515   2.841
 4728SOL    HW115083   6.486   1.564   2.792
 4728SOL    HW215084   6.617   1.580   2.889
 4729SOL     OW15085   5.127   0.187   0.567
 4729SOL    HW115086   5.199   0.189   0.636
 4729SOL    HW215087   5.103   0.092   0.546
 4730SOL     OW15088   3.696   6.010   5.318
 4730SOL    HW115089   3.741   5.976   5.236
 4730SOL    HW215090   3.624   5.946   5.345
 4731SOL     OW15091   2.928   0.743   0.851
 4731SOL    HW115092   2.885   0.654   0.866
 4731SOL    HW215093   2.936   0.760   0.753
 4732SOL     OW15094   0.771   3.727   5.435
 4732SOL    HW115095   0.761   3.795   5.362
 4732SOL    HW215096   0.772   3.774   5.524
 4733SOL     OW15097   1.789   4.235   2.553
 4733SOL    HW115098   1.773   4.293   2.633
 4733SOL    HW215099   1.785   4.139   2.580
 4734SOL     OW15100   5.183   3.215   0.506
 4734SOL    HW115101   5.262   3.182   0.455
 4734SOL    HW215102   5.164   3.310   0.481
 4735SOL     OW15103   6.684   5.498   4.094
 4735SOL    HW115104   6.684   5.537   4.187
 4735SOL    HW215105   6.656   5.568   4.029
 4736SOL     OW15106   5.692   2.207   4.313
 4736SOL    HW115107   5.785   2.185   4.283
 4736SOL    HW215108   5.636   2.124   4.310
 4737SOL     OW15109   2.383   4.483   0.657
 4737SOL    HW115110   2.449   4.540   0.705
 4737SOL    HW215111   2.375   4.394   0.702
 4738SOL     OW15112   3.453   6.564   3.952
 4738SOL    HW115113   3.424   6.607   4.037
 4738SOL    HW215114   3.375   6.517   3.909
 4739SOL     OW15115   5.652   1.943   4.086
 4739SOL    HW115116   5.587   2.019   4.073
 4739SOL    HW215117   5.719   1.945   4.012
 4740SOL     OW15118   0.343   0.388   0.539
 4740SOL    HW115119   0.330   0.298   0.499
 4740SOL    HW215120   0.394   0.446   0.475
 4741SOL     OW15121   4.856   4.568   1.027
 4741SOL    HW115122   4.901   4.479   1.021
 4741SOL    HW215123   4.757   4.555   1.029
 4742SOL     OW15124   3.000   5.239   1.259
 4742SOL    HW115125   2.954   5.245   1.347
 4742SOL    HW215126   3.039   5.327   1.235
 4743SOL     OW15127   2.088   1.502   5.762
 4743SOL    HW115128   2.019   1.574   5.765
 4743SOL    HW215129   2.045   1.414   5.742
 4744SOL     OW15130   2.393   3.342   5.728
 4744SOL    HW115131   2.468   3.323   5.665
 4744SOL    HW215132   2.407   3.431   5.771
 4745SOL     OW15133   2.578   4.776   5.513
 4745SOL    HW115134   2.612   4.710   5.447
 4745SOL    HW215135   2.481   4.759   5.531
 4746SOL     OW15136   6.016   6.310   1.196
 4746SOL    HW115137   6.100   6.353   1.230
 4746SOL    HW215138   5.969   6.372   1.134
 4747SOL     OW15139   1.277   3.495   6.303
 4747SOL    HW115140   1.332   3.512   6.385
 4747SOL    HW215141   1.182   3.519   6.322
 4748SOL     OW15142   1.388   6.880   1.244
 4748SOL    HW115143   1.469   6.824   1.256
 4748SOL    HW215144   1.410   6.959   1.186
 4749SOL     OW15145   3.108   6.322   6.120
 4749SOL    HW115146   3.096   6.260   6.043
 4749SOL    HW215147   3.020   6.336   6.165
 4750SOL     OW15148   0.608   2.013   3.947
 4750SOL    HW115149   0.683   2.079   3.941
 4750SOL    HW215150   0.521   2.061   3.937
 4751SOL     OW15151   1.965   3.404   0.289
 4751SOL    HW115152   2.031   3.329   0.287
 4751SOL    HW215153   1.891   3.386   0.224
 4752SOL     OW15154   3.026   6.610   0.711
 4752SOL    HW115155   3.069   6.691   0.750
 4752SOL    HW215156   2.945   6.586   0.765
 4753SOL     OW15157   5.497   6.963   4.259
 4753SOL    HW115158   5.471   6.872   4.224
 4753SOL    HW215159   5.595   6.976   4.248
 4754SOL     OW15160   6.209   0.291   5.971
 4754SOL    HW115161   6.270   0.301   6.049
 4754SOL    HW215162   6.249   0.336   5.891
 4755SOL     OW15163   2.550   0.701   0.167
 4755SOL    HW115164   2.478   0.737   0.106
 4755SOL    HW215165   2.552   0.756   0.251
 4756SOL     OW15166   5.655   2.023   1.512
 4756SOL    HW115167   5.592   2.039   1.436
 4756SOL    HW215168   5.627   2.077   1.591
 4757SOL     OW15169   1.785   1.816   1.943
 4757SOL    HW115170   1.705   1.790   1.996
 4757SOL    HW215171   1.843   1.877   1.998
 4758SOL     OW15172   3.533   5.820   5.034
 4758SOL    HW115173   3.543   5.794   5.130
 4758SOL    HW215174   3.440   5.798   5.004
 4759SOL     OW15175   5.466   5.685   4.683
 4759SOL    HW115176   5.522   5.702   4.764
 4759SOL    HW215177   5.490   5.749   4.611
 4760SOL     OW15178   3.270   2.267   1.283
 4760SOL    HW115179   3.172   2.285   1.286
 4760SOL    HW215180   3.318   2.329   1.346
 4761SOL     OW15181   6.602   0.607   6.831
 4761SOL    HW115182   6.561   0.684   6.879
 4761SOL    HW215183   6.556   0.595   6.743
 4762SOL     OW15184   3.040   5.007   3.372
 4762SOL    HW115185   3.011   5.039   3.282
 4762SOL    HW215186   3.135   5.033   3.388
 4763SOL     OW15187   5.850   6.286   3.284
 4763SOL    HW115188   5.927   6.343   3.255
 4763SOL    HW215189   5.875   6.236   3.367
 4764SOL     OW15190   5.243   4.146   5.308
 4764SOL    HW115191   5.243   4.215   5.236
 4764SOL    HW215192   5.298   4.068   5.278
 4765SOL     OW15193   5.117   6.720   4.420
 4765SOL    HW115194   5.089   6.624   4.426
 4765SOL    HW215195   5.146   6.740   4.326
 4766SOL     OW15196   4.364   0.415   3.860
 4766SOL    HW115197   4.368   0.498   3.804
 4766SOL    HW215198   4.445   0.359   3.843
 4767SOL     OW15199   4.499   5.934   7.002
 4767SOL    HW115200   4.510   5.893   0.067
 4767SOL    HW215201   4.566   5.895   6.939
 4768SOL     OW15202   5.270   1.990   5.051
 4768SOL    HW115203   5.280   2.089   5.059
 4768SOL    HW215204   5.351   1.952   5.007
 4769SOL     OW15205   4.320   5.258   1.346
 4769SOL    HW115206   4.299   5.176   1.292
 4769SOL    HW215207   4.288   5.339   1.297
 4770SOL     OW15208   2.001   0.243   3.753
 4770SOL    HW115209   2.041   0.184   3.683
 4770SOL    HW215210   1.937   0.307   3.710
 4771SOL     OW15211   3.525   5.011   6.266
 4771SOL    HW115212   3.440   4.959   6.259
 4771SOL    HW215213   3.505   5.106   6.289
 4772SOL     OW15214   2.091   6.079   2.342
 4772SOL    HW115215   2.041   6.009   2.393
 4772SOL    HW215216   2.116   6.154   2.404
 4773SOL     OW15217   6.732   5.429   4.589
 4773SOL    HW115218   6.719   5.482   4.506
 4773SOL    HW215219   6.684   5.342   4.581
 4774SOL     OW15220   0.678   2.532   2.734
 4774SOL    HW115221   0.685   2.629   2.756
 4774SOL    HW215222   0.764   2.486   2.754
 4775SOL     OW15223   5.768   0.594   3.127
 4775SOL    HW115224   5.800   0.553   3.042
 4775SOL    HW215225   5.793   0.690   3.130
 4776SOL     OW15226   2.322   6.563   3.782
 4776SOL    HW115227   2.260   6.612   3.720
 4776SOL    HW215228   2.408   6.613   3.790
 4777SOL     OW15229   2.631   4.737   1.215
 4777SOL    HW115230   2.720   4.732   1.169
 4777SOL    HW215231   2.563   4.687   1.162
 4778SOL     OW15232   5.337   2.684   1.868
 4778SOL    HW115233   5.353   2.673   1.966
 4778SOL    HW215234   5.314   2.595   1.828
 4779SOL     OW15235   6.303   0.052   1.988
 4779SOL    HW115236   6.357   0.012   1.913
 4779SOL    HW215237   6.210   0.070   1.956
 4780SOL     OW15238   0.907   6.659   6.902
 4780SOL    HW115239   1.000   6.656   6.940
 4780SOL    HW215240   0.910   6.696   6.809
 4781SOL     OW15241   3.281   5.825   1.078
 4781SOL    HW115242   3.313   5.858   0.989
 4781SOL    HW215243   3.193   5.866   1.100
 4782SOL     OW15244   4.865   6.662   0.236
 4782SOL    HW115245   4.907   6.747   0.206
 4782SOL    HW215246   4.792   6.683   0.301
 4783SOL     OW15247   4.695   4.367   0.288
 4783SOL    HW115248   4.775   4.402   0.336
 4783SOL    HW215249   4.696   4.267   0.290
 4784SOL     OW15250   6.125   4.337   0.182
 4784SOL    HW115251   6.180   4.419   0.166
 4784SOL    HW215252   6.166   4.282   0.254
 4785SOL     OW15253   0.111   5.924   1.461
 4785SOL    HW115254   0.064   5.975   1.389
 4785SOL    HW215255   0.077   5.830   1.463
 4786SOL     OW15256   1.850   2.389   1.877
 4786SOL    HW115257   1.799   2.369   1.960
 4786SOL    HW215258   1.948   2.374   1.894
 4787SOL     OW15259   3.427   2.119   3.387
 4787SOL    HW115260   3.425   2.143   3.484
 4787SOL    HW215261   3.443   2.020   3.378
 4788SOL     OW15262   1.613   5.258   6.225
 4788SOL    HW115263   1.571   5.315   6.295
 4788SOL    HW215264   1.577   5.166   6.230
 4789SOL     OW15265   5.306   0.821   0.476
 4789SOL    HW115266   5.321   0.750   0.545
 4789SOL    HW215267   5.382   0.820   0.411
 4790SOL     OW15268   6.449   3.245   6.507
 4790SOL    HW115269   6.380   3.190   6.554
 4790SOL    HW215270   6.459   3.332   6.553
 4791SOL     OW15271   5.771   2.293   2.088
 4791SOL    HW115272   5.773   2.300   2.188
 4791SOL    HW215273   5.738   2.378   2.049
 4792SOL     OW15274   1.568   3.134   2.703
 4792SOL    HW115275   1.655   3.101   2.739
 4792SOL    HW215276   1.580   3.164   2.608
 4793SOL     OW15277   0.957   2.775   5.538
 4793SOL    HW115278   0.943   2.792   5.635
 4793SOL    HW215279   0.961   2.676   5.522
 4794SOL     OW15280   3.887   0.775   3.464
 4794SOL    HW115281   3.869   0.795   3.560
 4794SOL    HW215282   3.802   0.784   3.412
 4795SOL     OW15283   6.547   2.235   3.987
 4795SOL    HW115284   6.571   2.174   4.061
 4795SOL    HW215285   6.630   2.270   3.943
 4796SOL     OW15286   4.830   1.941   6.605
 4796SOL    HW115287   4.871   2.013   6.549
 4796SOL    HW215288   4.734   1.964   6.624
 4797SOL     OW15289   1.510   5.792   4.997
 4797SOL    HW115290   1.466   5.787   5.086
 4797SOL    HW215291   1.442   5.783   4.925
 4798SOL     OW15292   7.015   3.555   5.591
 4798SOL    HW115293   7.013   3.519   5.498
 4798SOL    HW215294   0.083   3.548   5.627
 4799SOL     OW15295   4.649   2.493   6.123
 4799SOL    HW115296   4.712   2.522   6.195
 4799SOL    HW215297   4.555   2.504   6.154
 4800SOL     OW15298   3.657   3.198   5.965
 4800SOL    HW115299   3.719   3.121   5.980
 4800SOL    HW215300   3.564   3.171   5.990
 4801SOL     OW15301   2.392   2.272   0.037
 4801SOL    HW115302   2.423   2.224   6.980
 4801SOL    HW215303   2.472   2.305   0.087
 4802SOL     OW15304   1.189   6.729   2.379
 4802SOL    HW115305   1.184   6.679   2.466
 4802SOL    HW215306   1.101   6.776   2.362
 4803SOL     OW15307   0.894   6.652   0.796
 4803SOL    HW115308   0.985   6.614   0.809
 4803SOL    HW215309   0.891   6.745   0.834
 4804SOL     OW15310   4.288   5.034   6.389
 4804SOL    HW115311   4.258   4.938   6.389
 4804SOL    HW215312   4.351   5.048   6.465
 4805SOL     OW15313   6.842   6.696   1.642
 4805SOL    HW115314   6.819   6.722   1.548
 4805SOL    HW215315   6.931   6.735   1.666
 4806SOL     OW15316   0.221   3.542   3.429
 4806SOL    HW115317   0.287   3.510   3.360
 4806SOL    HW215318   0.209   3.641   3.420
 4807SOL     OW15319   1.364   5.319   0.311
 4807SOL    HW115320   1.449   5.339   0.360
 4807SOL    HW215321   1.336   5.225   0.331
 4808SOL     OW15322   6.071   3.722   0.301
 4808SOL    HW115323   6.013   3.652   0.259
 4808SOL    HW215324   6.164   3.688   0.309
 4809SOL     OW15325   3.654   3.800   6.824
 4809SOL    HW115326   3.688   3.805   6.918
 4809SOL    HW215327   3.722   3.753   6.767
 4810SOL     OW15328   1.460   4.487   2.320
 4810SOL    HW115329   1.526   4.414   2.335
 4810SOL    HW215330   1.460   4.513   2.224
 4811SOL     OW15331   2.243   4.534   2.072
 4811SOL    HW115332   2.186   4.611   2.101
 4811SOL    HW215333   2.340   4.558   2.081
 4812SOL     OW15334   6.670   4.872   5.505
 4812SOL    HW115335   6.718   4.906   5.424
 4812SOL    HW215336   6.724   4.890   5.586
 4813SOL     OW15337   5.160   1.286   1.817
 4813SOL    HW115338   5.078   1.339   1.795
 4813SOL    HW215339   5.152   1.194   1.778
 4814SOL     OW15340   5.904   4.496   0.490
 4814SOL    HW115341   5.874   4.400   0.496
 4814SOL    HW215342   5.850   4.543   0.420
 4815SOL     OW15343   5.372   4.641   1.893
 4815SOL    HW115344   5.278   4.615   1.870
 4815SOL    HW215345   5.435   4.594   1.832
 4816SOL     OW15346   5.987   5.111   2.854
 4816SOL    HW115347   6.070   5.092   2.907
 4816SOL    HW215348   5.938   5.026   2.837
 4817SOL     OW15349   0.816   2.278   6.176
 4817SOL    HW115350   0.854   2.351   6.118
 4817SOL    HW215351   0.834   2.298   6.272
 4818SOL     OW15352   0.716   0.122   4.416
 4818SOL    HW115353   0.806   0.164   4.427
 4818SOL    HW215354   0.725   0.039   4.362
 4819SOL     OW15355   1.625   3.307   0.935
 4819SOL    HW115356   1.554   3.264   0.878
 4819SOL    HW215357   1.656   3.391   0.891
 4820SOL     OW15358   0.018   3.089   1.484
 4820SOL    HW115359   0.020   3.024   1.408
 4820SOL    HW215360   0.024   3.182   1.448
 4821SOL     OW15361   0.407   5.913   2.990
 4821SOL    HW115362   0.450   5.990   3.036
 4821SOL    HW215363   0.326   5.884   3.041
 4822SOL     OW15364   1.351   3.475   4.209
 4822SOL    HW115365   1.337   3.572   4.187
 4822SOL    HW215366   1.446   3.450   4.189
 4823SOL     OW15367   1.828   2.231   2.798
 4823SOL    HW115368   1.913   2.284   2.794
 4823SOL    HW215369   1.843   2.140   2.761
 4824SOL     OW15370   5.450   2.177   5.467
 4824SOL    HW115371   5.541   2.145   5.493
 4824SOL    HW215372   5.418   2.125   5.389
 4825SOL     OW15373   1.276   1.926   4.383
 4825SOL    HW115374   1.217   2.005   4.368
 4825SOL    HW215375   1.362   1.939   4.333
 4826SOL     OW15376   5.341   0.638   0.674
 4826SOL    HW115377   5.256   0.606   0.714
 4826SOL    HW215378   5.407   0.658   0.747
 4827SOL     OW15379   6.001   1.992   0.236
 4827SOL    HW115380   6.038   2.060   0.299
 4827SOL    HW215381   6.062   1.985   0.156
 4828SOL     OW15382   4.859   0.559   1.244
 4828SOL    HW115383   4.765   0.529   1.258
 4828SOL    HW215384   4.920   0.479   1.242
 4829SOL     OW15385   4.511   6.531   6.563
 4829SOL    HW115386   4.541   6.435   6.559
 4829SOL    HW215387   4.469   6.556   6.475
 4830SOL     OW15388   3.828   6.074   4.250
 4830SOL    HW115389   3.831   6.030   4.340
 4830SOL    HW215390   3.742   6.052   4.205
 4831SOL     OW15391   2.672   5.484   5.223
 4831SOL    HW115392   2.722   5.475   5.137
 4831SOL    HW215393   2.579   5.449   5.211
 4832SOL     OW15394   3.103   3.057   4.577
 4832SOL    HW115395   3.015   3.009   4.574
 4832SOL    HW215396   3.088   3.152   4.604
 4833SOL     OW15397   5.646   2.191   3.010
 4833SOL    HW115398   5.643   2.093   2.991
 4833SOL    HW215399   5.568   2.236   2.966
 4834SOL     OW15400   2.490   6.247   2.465
 4834SOL    HW115401   2.553   6.265   2.541
 4834SOL    HW215402   2.440   6.162   2.482
 4835SOL     OW15403   5.976   3.009   5.924
 4835SOL    HW115404   6.021   3.075   5.864
 4835SOL    HW215405   6.045   2.957   5.974
 4836SOL     OW15406   5.231   1.236   5.220
 4836SOL    HW115407   5.196   1.203   5.133
 4836SOL    HW215408   5.243   1.335   5.216
 4837SOL     OW15409   6.684   3.603   2.715
 4837SOL    HW115410   6.679   3.610   2.814
 4837SOL    HW215411   6.746   3.673   2.679
 4838SOL     OW15412   2.364   5.313   6.674
 4838SOL    HW115413   2.358   5.397   6.620
 4838SOL    HW215414   2.309   5.242   6.630
 4839SOL     OW15415   1.324   3.541   6.990
 4839SOL    HW115416   1.397   3.580   6.933
 4839SOL    HW215417   1.332   3.442   6.991
 4840SOL     OW15418   5.899   3.848   5.345
 4840SOL    HW115419   5.959   3.785   5.396
 4840SOL    HW215420   5.862   3.801   5.265
 4841SOL     OW15421   3.488   5.572   2.904
 4841SOL    HW115422   3.450   5.541   2.817
 4841SOL    HW215423   3.498   5.671   2.903
 4842SOL     OW15424   2.812   5.414   3.057
 4842SOL    HW115425   2.717   5.444   3.049
 4842SOL    HW215426   2.823   5.324   3.016
 4843SOL     OW15427   6.389   2.482   1.893
 4843SOL    HW115428   6.328   2.536   1.835
 4843SOL    HW215429   6.348   2.472   1.984
 4844SOL     OW15430   1.052   3.937   5.444
 4844SOL    HW115431   1.077   3.876   5.369
 4844SOL    HW215432   1.086   3.899   5.530
 4845SOL     OW15433   4.676   4.906   5.370
 4845SOL    HW115434   4.745   4.849   5.325
 4845SOL    HW215435   4.721   4.970   5.432
 4846SOL     OW15436   0.289   1.914   3.331
 4846SOL    HW115437   0.277   2.010   3.304
 4846SOL    HW215438   0.211   1.884   3.386
 4847SOL     OW15439   2.649   0.991   5.185
 4847SOL    HW115440   2.740   0.968   5.219
 4847SOL    HW215441   2.584   0.919   5.211
 4848SOL     OW15442   2.608   1.224   4.190
 4848SOL    HW115443   2.594   1.128   4.216
 4848SOL    HW215444   2.624   1.229   4.091
 4849SOL     OW15445   1.996   0.044   0.614
 4849SOL    HW115446   1.956   0.126   0.656
 4849SOL    HW215447   2.000   6.996   0.682
 4850SOL     OW15448   4.351   0.557   1.488
 4850SOL    HW115449   4.446   0.530   1.472
 4850SOL    HW215450   4.346   0.618   1.567
 4851SOL     OW15451   4.114   5.875   6.519
 4851SOL    HW115452   4.045   5.931   6.566
 4851SOL    HW215453   4.111   5.782   6.555
 4852SOL     OW15454   3.241   5.788   4.582
 4852SOL    HW115455   3.217   5.833   4.495
 4852SOL    HW215456   3.234   5.855   4.656
 4853SOL     OW15457   3.737   1.280   3.022
 4853SOL    HW115458   3.663   1.312   2.963
 4853SOL    HW215459   3.820   1.267   2.969
 4854SOL     OW15460   5.496   6.655   2.051
 4854SOL    HW115461   5.502   6.754   2.066
 4854SOL    HW215462   5.546   6.607   2.122
 4855SOL     OW15463   6.839   3.435   4.924
 4855SOL    HW115464   6.851   3.513   4.862
 4855SOL    HW215465   6.742   3.424   4.946
 4856SOL     OW15466   0.390   3.091   2.423
 4856SOL    HW115467   0.452   3.042   2.363
 4856SOL    HW215468   0.305   3.039   2.433
 4857SOL     OW15469   3.351   2.104   3.651
 4857SOL    HW115470   3.269   2.131   3.701
 4857SOL    HW215471   3.428   2.098   3.716
 4858SOL     OW15472   1.215   0.211   4.611
 4858SOL    HW115473   1.259   0.179   4.528
 4858SOL    HW215474   1.121   0.179   4.614
 4859SOL     OW15475   1.536   4.847   1.230
 4859SOL    HW115476   1.500   4.927   1.278
 4859SOL    HW215477   1.565   4.873   1.138
 4860SOL     OW15478   4.168   4.363   0.508
 4860SOL    HW115479   4.146   4.423   0.585
 4860SOL    HW215480   4.158   4.413   0.422
 4861SOL     OW15481   6.096   5.030   6.089
 4861SOL    HW115482   6.120   4.936   6.068
 4861SOL    HW215483   6.164   5.092   6.049
 4862SOL     OW15484   3.141   5.046   4.910
 4862SOL    HW115485   3.123   5.075   4.816
 4862SOL    HW215486   3.183   5.121   4.961
 4863SOL     OW15487   4.807   3.150   2.597
 4863SOL    HW115488   4.827   3.070   2.653
 4863SOL    HW215489   4.792   3.122   2.502
 4864SOL     OW15490   2.930   1.519   1.647
 4864SOL    HW115491   2.954   1.616   1.645
 4864SOL    HW215492   2.979   1.470   1.575
 4865SOL     OW15493   2.816   4.926   5.906
 4865SOL    HW115494   2.781   4.913   5.813
 4865SOL    HW215495   2.748   4.977   5.960
 4866SOL     OW15496   5.973   4.898   1.864
 4866SOL    HW115497   5.878   4.885   1.891
 4866SOL    HW215498   6.027   4.929   1.942
 4867SOL     OW15499   4.770   5.609   3.518
 4867SOL    HW115500   4.829   5.541   3.474
 4867SOL    HW215501   4.794   5.616   3.615
 4868SOL     OW15502   0.871   5.459   1.479
 4868SOL    HW115503   0.900   5.395   1.408
 4868SOL    HW215504   0.815   5.531   1.437
 4869SOL     OW15505   6.421   1.992   0.989
 4869SOL    HW115506   6.378   1.921   1.046
 4869SOL    HW215507   6.467   2.058   1.048
 4870SOL     OW15508   4.068   5.806   1.476
 4870SOL    HW115509   4.131   5.744   1.429
 4870SOL    HW215510   3.977   5.765   1.481
 4871SOL     OW15511   1.532   1.621   3.158
 4871SOL    HW115512   1.457   1.662   3.210
 4871SOL    HW215513   1.498   1.543   3.106
 4872SOL     OW15514   1.212   0.106   2.972
 4872SOL    HW115515   1.220   0.177   3.042
 4872SOL    HW215516   1.296   0.053   2.969
 4873SOL     OW15517   0.346   5.097   4.971
 4873SOL    HW115518   0.250   5.095   4.945
 4873SOL    HW215519   0.375   5.006   5.000
 4874SOL     OW15520   5.482   4.002   2.356
 4874SOL    HW115521   5.385   4.026   2.367
 4874SOL    HW215522   5.492   3.942   2.276
 4875SOL     OW15523   5.292   2.266   1.156
 4875SOL    HW115524   5.391   2.281   1.157
 4875SOL    HW215525   5.245   2.353   1.173
 4876SOL     OW15526   5.823   0.218   5.633
 4876SOL    HW115527   5.825   0.183   5.539
 4876SOL    HW215528   5.812   0.317   5.631
 4877SOL     OW15529   6.932   1.498   1.164
 4877SOL    HW115530   6.849   1.458   1.202
 4877SOL    HW215531   6.971   1.434   1.097
 4878SOL     OW15532   0.261   1.789   2.160
 4878SOL    HW115533   0.194   1.852   2.200
 4878SOL    HW215534   0.353   1.824   2.175
 4879SOL     OW15535   4.510   4.615   3.008
 4879SOL    HW115536   4.528   4.616   2.909
 4879SOL    HW215537   4.493   4.522   3.038
 4880SOL     OW15538   5.387   2.184   0.115
 4880SOL    HW115539   5.441   2.164   0.197
 4880SOL    HW215540   5.330   2.105   0.092
 4881SOL     OW15541   2.878   6.407   6.269
 4881SOL    HW115542   2.891   6.351   6.351
 4881SOL    HW215543   2.798   6.465   6.280
 4882SOL     OW15544   6.431   1.573   5.466
 4882SOL    HW115545   6.475   1.631   5.399
 4882SOL    HW215546   6.490   1.562   5.546
 4883SOL     OW15547   5.350   4.821   2.464
 4883SOL    HW115548   5.326   4.764   2.385
 4883SOL    HW215549   5.437   4.867   2.446
 4884SOL     OW15550   4.772   0.392   1.619
 4884SOL    HW115551   4.784   0.294   1.635
 4884SOL    HW215552   4.810   0.443   1.697
 4885SOL     OW15553   1.944   6.415   2.148
 4885SOL    HW115554   1.860   6.463   2.172
 4885SOL    HW215555   2.023   6.472   2.171
 4886SOL     OW15556   0.187   6.596   6.687
 4886SOL    HW115557   0.206   6.497   6.684
 4886SOL    HW215558   0.273   6.646   6.681
 4887SOL     OW15559   6.591   2.224   3.656
 4887SOL    HW115560   6.576   2.292   3.584
 4887SOL    HW215561   6.621   2.270   3.740
 4888SOL     OW15562   1.748   6.993   3.510
 4888SOL    HW115563   1.772   7.009   3.414
 4888SOL    HW215564   1.821   6.942   3.555
 4889SOL     OW15565   0.472   2.057   0.525
 4889SOL    HW115566   0.521   2.008   0.597
 4889SOL    HW215567   0.377   2.026   0.524
 4890SOL     OW15568   0.843   1.400   4.319
 4890SOL    HW115569   0.766   1.462   4.304
 4890SOL    HW215570   0.849   1.336   4.242
 4891SOL     OW15571   0.884   5.021   0.051
 4891SOL    HW115572   0.813   5.083   0.083
 4891SOL    HW215573   0.925   4.974   0.128
 4892SOL     OW15574   1.118   5.673   2.518
 4892SOL    HW115575   1.059   5.745   2.482
 4892SOL    HW215576   1.214   5.699   2.504
 4893SOL     OW15577   6.562   4.490   6.969
 4893SOL    HW115578   6.606   4.519   0.029
 4893SOL    HW215579   6.534   4.571   6.917
 4894SOL     OW15580   1.966   0.146   2.828
 4894SOL    HW115581   1.985   0.087   2.907
 4894SOL    HW215582   1.929   0.233   2.860
 4895SOL     OW15583   0.676   3.735   1.099
 4895SOL    HW115584   0.702   3.816   1.046
 4895SOL    HW215585   0.737   3.659   1.076
 4896SOL     OW15586   3.312   5.732   3.531
 4896SOL    HW115587   3.329   5.758   3.436
 4896SOL    HW215588   3.383   5.667   3.561
 4897SOL     OW15589   3.602   4.901   6.562
 4897SOL    HW115590   3.555   4.980   6.602
 4897SOL    HW215591   3.624   4.921   6.466
 4898SOL     OW15592   5.429   2.371   5.643
 4898SOL    HW115593   5.334   2.371   5.674
 4898SOL    HW215594   5.436   2.323   5.556
 4899SOL     OW15595   6.279   4.806   2.724
 4899SOL    HW115596   6.289   4.732   2.658
 4899SOL    HW215597   6.336   4.884   2.697
 4900SOL     OW15598   0.107   6.426   5.841
 4900SOL    HW115599   0.136   6.430   5.937
 4900SOL    HW215600   0.029   6.488   5.827
 4901SOL     OW15601   2.140   0.170   4.306
 4901SOL    HW115602   2.063   0.182   4.243
 4901SOL    HW215603   2.170   0.260   4.340
 4902SOL     OW15604   0.892   3.557   2.670
 4902SOL    HW115605   0.949   3.490   2.623
 4902SOL    HW215606   0.934   3.583   2.756
 4903SOL     OW15607   4.124   6.373   6.692
 4903SOL    HW115608   4.041   6.351   6.742
 4903SOL    HW215609   4.171   6.449   6.737
 4904SOL     OW15610   2.237   5.505   4.444
 4904SOL    HW115611   2.149   5.462   4.425
 4904SOL    HW215612   2.263   5.562   4.366
 4905SOL     OW15613   4.553   2.111   2.198
 4905SOL    HW115614   4.535   2.202   2.159
 4905SOL    HW215615   4.651   2.102   2.216
 4906SOL     OW15616   4.643   7.009   0.444
 4906SOL    HW115617   4.611   6.969   0.358
 4906SOL    HW215618   4.572   7.001   0.513
 4907SOL     OW15619   4.133   6.249   3.122
 4907SOL    HW115620   4.173   6.266   3.212
 4907SOL    HW215621   4.077   6.167   3.125
 4908SOL     OW15622   4.073   5.878   6.859
 4908SOL    HW115623   4.124   5.796   6.884
 4908SOL    HW215624   4.124   5.959   6.887
 4909SOL     OW15625   5.815   0.463   6.020
 4909SOL    HW115626   5.892   0.517   6.054
 4909SOL    HW215627   5.730   0.497   6.061
 4910SOL     OW15628   5.288   0.510   5.451
 4910SOL    HW115629   5.280   0.448   5.372
 4910SOL    HW215630   5.383   0.510   5.483
 4911SOL     OW15631   6.819   2.140   6.019
 4911SOL    HW115632   6.775   2.211   6.074
 4911SOL    HW215633   6.766   2.125   5.936
 4912SOL     OW15634   4.809   0.892   1.829
 4912SOL    HW115635   4.765   0.982   1.825
 4912SOL    HW215636   4.772   0.833   1.757
 4913SOL     OW15637   3.219   4.009   3.897
 4913SOL    HW115638   3.300   4.055   3.859
 4913SOL    HW215639   3.143   4.017   3.832
 4914SOL     OW15640   2.949   1.169   4.232
 4914SOL    HW115641   2.869   1.228   4.233
 4914SOL    HW215642   2.926   1.081   4.275
 4915SOL     OW15643   4.606   6.726   4.154
 4915SOL    HW115644   4.693   6.678   4.156
 4915SOL    HW215645   4.560   6.715   4.242
 4916SOL     OW15646   2.346   1.872   2.930
 4916SOL    HW115647   2.299   1.854   3.016
 4916SOL    HW215648   2.366   1.786   2.884
 4917SOL     OW15649   1.453   4.035   0.741
 4917SOL    HW115650   1.510   3.965   0.784
 4917SOL    HW215651   1.359   4.026   0.774
 4918SOL     OW15652   2.619   0.126   2.857
 4918SOL    HW115653   2.688   0.054   2.862
 4918SOL    HW215654   2.644   0.199   2.921
 4919SOL     OW15655   1.562   2.271   2.882
 4919SOL    HW115656   1.509   2.291   2.800
 4919SOL    HW215657   1.660   2.270   2.858
 4920SOL     OW15658   4.275   0.444   6.817
 4920SOL    HW115659   4.280   0.384   6.897
 4920SOL    HW215660   4.367   0.471   6.790
 4921SOL     OW15661   2.303   3.711   1.759
 4921SOL    HW115662   2.320   3.620   1.797
 4921SOL    HW215663   2.256   3.768   1.827
 4922SOL     OW15664   1.188   3.309   5.548
 4922SOL    HW115665   1.165   3.220   5.510
 4922SOL    HW215666   1.143   3.381   5.494
 4923SOL     OW15667   5.062   6.885   2.372
 4923SOL    HW115668   5.160   6.903   2.383
 4923SOL    HW215669   5.048   6.821   2.297
 4924SOL     OW15670   1.882   3.150   4.565
 4924SOL    HW115671   1.888   3.211   4.486
 4924SOL    HW215672   1.971   3.105   4.580
 4925SOL     OW15673   5.751   6.182   1.032
 4925SOL    HW115674   5.680   6.227   1.086
 4925SOL    HW215675   5.729   6.085   1.022
 4926SOL     OW15676   5.212   2.898   1.576
 4926SOL    HW115677   5.289   2.961   1.573
 4926SOL    HW215678   5.140   2.936   1.635
 4927SOL     OW15679   3.995   3.130   2.938
 4927SOL    HW115680   3.979   3.034   2.913
 4927SOL    HW215681   3.986   3.188   2.857
 4928SOL     OW15682   0.537   6.815   6.397
 4928SOL    HW115683   0.630   6.779   6.405
 4928SOL    HW215684   0.507   6.809   6.301
 4929SOL     OW15685   1.518   4.420   5.166
 4929SOL    HW115686   1.524   4.352   5.094
 4929SOL    HW215687   1.437   4.403   5.222
 4930SOL     OW15688   0.744   1.229   0.408
 4930SOL    HW115689   0.785   1.216   0.317
 4930SOL    HW215690   0.794   1.175   0.475
 4931SOL     OW15691   0.789   0.510   0.001
 4931SOL    HW115692   0.814   0.551   6.939
 4931SOL    HW215693   0.845   0.429   0.018
 4932SOL     OW15694   2.235   3.080   1.819
 4932SOL    HW115695   2.185   3.166   1.806
 4932SOL    HW215696   2.329   3.091   1.786
 4933SOL     OW15697   2.271   0.839   4.500
 4933SOL    HW115698   2.293   0.931   4.533
 4933SOL    HW215699   2.262   0.841   4.400
 4934SOL     OW15700   0.913   5.223   4.452
 4934SOL    HW115701   0.994   5.228   4.510
 4934SOL    HW215702   0.839   5.177   4.501
 4935SOL     OW15703   1.358   0.933   6.606
 4935SOL    HW115704   1.369   1.028   6.635
 4935SOL    HW215705   1.269   0.922   6.562
 4936SOL     OW15706   2.822   5.765   1.543
 4936SOL    HW115707   2.919   5.765   1.564
 4936SOL    HW215708   2.793   5.674   1.516
 4937SOL     OW15709   0.622   3.618   6.082
 4937SOL    HW115710   0.692   3.609   6.011
 4937SOL    HW215711   0.583   3.528   6.102
 4938SOL     OW15712   3.178   4.775   1.806
 4938SOL    HW115713   3.086   4.737   1.802
 4938SOL    HW215714   3.202   4.811   1.716
 4939SOL     OW15715   1.334   2.016   2.134
 4939SOL    HW115716   1.289   2.060   2.212
 4939SOL    HW215717   1.433   2.018   2.148
 4940SOL     OW15718   0.068   1.596   4.964
 4940SOL    HW115719   0.132   1.661   4.922
 4940SOL    HW215720   0.041   1.527   4.897
 4941SOL     OW15721   3.991   2.562   5.410
 4941SOL    HW115722   3.978   2.472   5.452
 4941SOL    HW215723   4.070   2.559   5.348
 4942SOL     OW15724   5.637   3.116   3.817
 4942SOL    HW115725   5.598   3.169   3.742
 4942SOL    HW215726   5.736   3.131   3.820
 4943SOL     OW15727   5.999   4.103   6.428
 4943SOL    HW115728   5.995   4.154   6.514
 4943SOL    HW215729   6.090   4.064   6.416
 4944SOL     OW15730   1.989   4.541   0.401
 4944SOL    HW115731   2.002   4.611   0.332
 4944SOL    HW215732   2.050   4.559   0.479
 4945SOL     OW15733   1.592   1.073   5.357
 4945SOL    HW115734   1.655   1.069   5.434
 4945SOL    HW215735   1.633   1.128   5.284
 4946SOL     OW15736   1.018   4.574   6.473
 4946SOL    HW115737   1.074   4.505   6.520
 4946SOL    HW215738   0.922   4.560   6.495
 4947SOL     OW15739   3.011   0.861   2.204
 4947SOL    HW115740   3.072   0.850   2.282
 4947SOL    HW215741   3.052   0.923   2.138
 4948SOL     OW15742   1.708   2.661   2.648
 4948SOL    HW115743   1.661   2.612   2.721
 4948SOL    HW215744   1.645   2.729   2.609
 4949SOL     OW15745   6.359   3.868   5.711
 4949SOL    HW115746   6.356   3.956   5.759
 4949SOL    HW215747   6.454   3.838   5.703
 4950SOL     OW15748   2.174   3.814   4.843
 4950SOL    HW115749   2.111   3.874   4.794
 4950SOL    HW215750   2.239   3.869   4.895
 4951SOL     OW15751   5.940   6.312   3.963
 4951SOL    HW115752   5.895   6.321   3.874
 4951SOL    HW215753   5.871   6.299   4.034
 4952SOL     OW15754   6.785   0.223   6.676
 4952SOL    HW115755   6.735   0.284   6.737
 4952SOL    HW215756   6.882   0.223   6.701
 4953SOL     OW15757   2.259   1.686   4.116
 4953SOL    HW115758   2.336   1.748   4.134
 4953SOL    HW215759   2.176   1.739   4.103
 4954SOL     OW15760   2.323   4.137   6.123
 4954SOL    HW115761   2.263   4.057   6.134
 4954SOL    HW215762   2.271   4.220   6.144
 4955SOL     OW15763   3.357   5.150   0.082
 4955SOL    HW115764   3.371   5.082   0.011
 4955SOL    HW215765   3.271   5.131   0.129
 4956SOL     OW15766   3.063   0.856   5.572
 4956SOL    HW115767   3.084   0.773   5.624
 4956SOL    HW215768   3.136   0.873   5.505
 4957SOL     OW15769   5.819   3.581   0.268
 4957SOL    HW115770   5.775   3.657   0.219
 4957SOL    HW215771   5.782   3.577   0.361
 4958SOL     OW15772   2.002   6.243   5.352
 4958SOL    HW115773   1.943   6.272   5.277
 4958SOL    HW215774   1.973   6.152   5.384
 4959SOL     OW15775   6.752   1.736   1.119
 4959SOL    HW115776   6.817   1.660   1.127
 4959SOL    HW215777   6.778   1.795   1.043
 4960SOL     OW15778   4.158   4.749   3.464
 4960SOL    HW115779   4.077   4.783   3.512
 4960SOL    HW215780   4.134   4.722   3.371
 4961SOL     OW15781   3.028   0.694   6.799
 4961SOL    HW115782   2.937   0.731   6.820
 4961SOL    HW215783   3.057   0.632   6.871
 4962SOL     OW15784   5.413   2.612   1.024
 4962SOL    HW115785   5.317   2.629   1.002
 4962SOL    HW215786   5.438   2.519   0.998
 4963SOL     OW15787   1.698   5.919   1.090
 4963SOL    HW115788   1.665   6.013   1.078
 4963SOL    HW215789   1.795   5.921   1.114
 4964SOL     OW15790   1.817   6.512   4.970
 4964SOL    HW115791   1.869   6.463   4.900
 4964SOL    HW215792   1.759   6.581   4.926
 4965SOL     OW15793   0.904   6.778   3.052
 4965SOL    HW115794   0.955   6.771   3.138
 4965SOL    HW215795   0.818   6.728   3.060
 4966SOL     OW15796   2.326   6.622   4.348
 4966SOL    HW115797   2.383   6.571   4.412
 4966SOL    HW215798   2.361   6.716   4.340
 4967SOL     OW15799   3.084   5.120   6.432
 4967SOL    HW115800   3.138   5.191   6.386
 4967SOL    HW215801   3.085   5.037   6.377
 4968SOL     OW15802   0.160   0.922   4.079
 4968SOL    HW115803   0.237   0.916   4.143
 4968SOL    HW215804   0.076   0.894   4.125
 4969SOL     OW15805   0.379   6.099   2.142
 4969SOL    HW115806   0.328   6.184   2.126
 4969SOL    HW215807   0.344   6.027   2.083
 4970SOL     OW15808   2.381   0.745   1.626
 4970SOL    HW115809   2.375   0.653   1.587
 4970SOL    HW215810   2.326   0.808   1.571
 4971SOL     OW15811   5.874   5.789   2.906
 4971SOL    HW115812   5.872   5.708   2.847
 4971SOL    HW215813   5.923   5.863   2.859
 4972SOL     OW15814   1.291   4.312   0.459
 4972SOL    HW115815   1.374   4.348   0.418
 4972SOL    HW215816   1.246   4.251   0.394
 4973SOL     OW15817   0.634   0.520   1.733
 4973SOL    HW115818   0.720   0.506   1.782
 4973SOL    HW215819   0.629   0.458   1.655
 4974SOL     OW15820   5.017   4.709   0.202
 4974SOL    HW115821   5.115   4.708   0.182
 4974SOL    HW215822   4.968   4.666   0.127
 4975SOL     OW15823   5.224   3.941   0.655
 4975SOL    HW115824   5.248   4.022   0.709
 4975SOL    HW215825   5.305   3.909   0.605
 4976SOL     OW15826   1.331   0.446   4.558
 4976SOL    HW115827   1.290   0.367   4.603
 4976SOL    HW215828   1.328   0.525   4.619
 4977SOL     OW15829   3.471   3.697   0.028
 4977SOL    HW115830   3.428   3.766   6.995
 4977SOL    HW215831   3.518   3.742   0.104
 4978SOL     OW15832   5.127   4.818   5.198
 4978SOL    HW115833   5.194   4.853   5.264
 4978SOL    HW215834   5.169   4.744   5.145
 4979SOL     OW15835   0.322   6.668   0.046
 4979SOL    HW115836   0.242   6.673   7.013
 4979SOL    HW215837   0.305   6.604   0.121
 4980SOL     OW15838   5.970   4.714   2.289
 4980SOL    HW115839   5.876   4.735   2.263
 4980SOL    HW215840   5.986   4.616   2.278
 4981SOL     OW15841   3.388   6.021   1.689
 4981SOL    HW115842   3.323   6.017   1.613
 4981SOL    HW215843   3.466   6.078   1.664
 4982SOL     OW15844   4.072   1.733   6.716
 4982SOL    HW115845   4.001   1.727   6.646
 4982SOL    HW215846   4.058   1.815   6.771
 4983SOL     OW15847   5.792   4.894   4.191
 4983SOL    HW115848   5.842   4.832   4.252
 4983SOL    HW215849   5.833   4.891   4.100
 4984SOL     OW15850   4.571   4.355   3.073
 4984SOL    HW115851   4.552   4.314   2.984
 4984SOL    HW215852   4.663   4.395   3.072
 4985SOL     OW15853   4.996   6.114   2.637
 4985SOL    HW115854   4.951   6.066   2.712
 4985SOL    HW215855   4.927   6.143   2.571
 4986SOL     OW15856   6.737   4.760   0.956
 4986SOL    HW115857   6.702   4.730   0.868
 4986SOL    HW215858   6.660   4.783   1.017
 4987SOL     OW15859   1.354   6.112   2.807
 4987SOL    HW115860   1.263   6.097   2.768
 4987SOL    HW215861   1.399   6.187   2.758
 4988SOL     OW15862   6.507   1.193   3.307
 4988SOL    HW115863   6.411   1.199   3.334
 4988SOL    HW215864   6.545   1.106   3.337
 4989SOL     OW15865   4.868   0.461   1.895
 4989SOL    HW115866   4.896   0.368   1.917
 4989SOL    HW215867   4.944   0.524   1.910
 4990SOL     OW15868   3.637   1.547   6.822
 4990SOL    HW115869   3.551   1.501   6.841
 4990SOL    HW215870   3.685   1.565   6.908
 4991SOL     OW15871   6.959   5.650   4.051
 4991SOL    HW115872   6.931   5.725   3.991
 4991SOL    HW215873   6.879   5.602   4.085
 4992SOL     OW15874   6.038   1.507   3.060
 4992SOL    HW115875   6.035   1.591   3.006
 4992SOL    HW215876   6.009   1.430   3.003
 4993SOL     OW15877   3.824   6.699   4.943
 4993SOL    HW115878   3.903   6.677   5.000
 4993SOL    HW215879   3.762   6.759   4.995
 4994SOL     OW15880   2.344   5.598   5.011
 4994SOL    HW115881   2.250   5.599   4.977
 4994SOL    HW215882   2.356   5.673   5.076
 4995SOL     OW15883   0.798   1.026   5.002
 4995SOL    HW115884   0.827   1.114   5.040
 4995SOL    HW215885   0.788   0.960   5.076
 4996SOL     OW15886   6.768   1.684   3.837
 4996SOL    HW115887   6.688   1.629   3.810
 4996SOL    HW215888   6.828   1.696   3.759
 4997SOL     OW15889   3.612   2.521   1.193
 4997SOL    HW115890   3.598   2.424   1.212
 4997SOL    HW215891   3.636   2.569   1.277
 4998SOL     OW15892   1.850   3.556   3.909
 4998SOL    HW115893   1.799   3.477   3.876
 4998SOL    HW215894   1.787   3.628   3.937
 4999SOL     OW15895   0.279   3.198   5.011
 4999SOL    HW115896   0.364   3.233   5.050
 4999SOL    HW215897   0.207   3.199   5.081
 5000SOL     OW15898   3.099   6.435   3.259
 5000SOL    HW115899   3.046   6.400   3.337
 5000SOL    HW215900   3.041   6.436   3.177
 5001SOL     OW15901   0.403   5.511   2.553
 5001SOL    HW115902   0.377   5.414   2.558
 5001SOL    HW215903   0.402   5.550   2.645
 5002SOL     OW15904   0.348   5.154   2.005
 5002SOL    HW115905   0.321   5.088   2.074
 5002SOL    HW215906   0.380   5.238   2.049
 5003SOL     OW15907   4.184   6.627   2.932
 5003SOL    HW115908   4.131   6.711   2.933
 5003SOL    HW215909   4.221   6.612   2.841
 5004SOL     OW15910   2.192   5.204   5.529
 5004SOL    HW115911   2.099   5.202   5.493
 5004SOL    HW215912   2.197   5.149   5.612
 5005SOL     OW15913   2.635   3.363   6.535
 5005SOL    HW115914   2.545   3.378   6.496
 5005SOL    HW215915   2.664   3.445   6.586
 5006SOL     OW15916   6.064   1.002   2.347
 5006SOL    HW115917   5.972   1.032   2.322
 5006SOL    HW215918   6.073   0.904   2.330
 5007SOL     OW15919   6.981   0.435   1.412
 5007SOL    HW115920   6.893   0.480   1.427
 5007SOL    HW215921   6.986   0.401   1.318
 5008SOL     OW15922   6.243   5.585   1.398
 5008SOL    HW115923   6.300   5.653   1.352
 5008SOL    HW215924   6.170   5.556   1.336
 5009SOL     OW15925   0.584   2.566   0.376
 5009SOL    HW115926   0.493   2.603   0.357
 5009SOL    HW215927   0.638   2.633   0.426
 5010SOL     OW15928   4.165   2.672   0.885
 5010SOL    HW115929   4.157   2.586   0.835
 5010SOL    HW215930   4.184   2.747   0.821
 5011SOL     OW15931   2.190   3.958   1.352
 5011SOL    HW115932   2.147   3.922   1.435
 5011SOL    HW215933   2.190   3.887   1.282
 5012SOL     OW15934   6.557   2.745   5.369
 5012SOL    HW115935   6.472   2.717   5.323
 5012SOL    HW215936   6.605   2.811   5.313
 5013SOL     OW15937   5.533   0.750   6.037
 5013SOL    HW115938   5.611   0.812   6.047
 5013SOL    HW215939   5.466   0.791   5.975
 5014SOL     OW15940   6.279   4.587   0.116
 5014SOL    HW115941   6.260   4.578   0.018
 5014SOL    HW215942   6.323   4.675   0.134
 5015SOL     OW15943   5.081   1.062   4.651
 5015SOL    HW115944   5.000   1.077   4.707
 5015SOL    HW215945   5.070   1.109   4.563
 5016SOL     OW15946   0.805   3.127   4.662
 5016SOL    HW115947   0.725   3.106   4.719
 5016SOL    HW215948   0.887   3.094   4.708
 5017SOL     OW15949   1.721   1.926   1.205
 5017SOL    HW115950   1.767   1.900   1.290
 5017SOL    HW215951   1.670   2.010   1.219
 5018SOL     OW15952   1.245   5.223   2.426
 5018SOL    HW115953   1.229   5.155   2.498
 5018SOL    HW215954   1.183   5.206   2.350
 5019SOL     OW15955   2.394   6.173   5.872
 5019SOL    HW115956   2.423   6.167   5.777
 5019SOL    HW215957   2.401   6.268   5.904
 5020SOL     OW15958   6.945   0.008   5.598
 5020SOL    HW115959   7.013   6.986   5.543
 5020SOL    HW215960   6.967   0.106   5.601
 5021SOL     OW15961   1.134   0.854   0.748
 5021SOL    HW115962   1.092   0.764   0.736
 5021SOL    HW215963   1.095   0.897   0.829
 5022SOL     OW15964   1.165   2.328   2.147
 5022SOL    HW115965   1.242   2.320   2.085
 5022SOL    HW215966   1.084   2.285   2.107
 5023SOL     OW15967   0.006   4.175   1.689
 5023SOL    HW115968   0.080   4.170   1.622
 5023SOL    HW215969   6.963   4.105   1.668
 5024SOL     OW15970   5.858   5.171   0.954
 5024SOL    HW115971   5.941   5.209   0.912
 5024SOL    HW215972   5.877   5.079   0.989
 5025SOL     OW15973   4.224   2.156   3.617
 5025SOL    HW115974   4.314   2.195   3.596
 5025SOL    HW215975   4.237   2.068   3.665
 5026SOL     OW15976   6.923   5.465   4.996
 5026SOL    HW115977   6.849   5.401   5.015
 5026SOL    HW215978   6.915   5.544   5.057
 5027SOL     OW15979   6.034   0.045   1.881
 5027SOL    HW115980   5.952   7.016   1.900
 5027SOL    HW215981   6.016   0.142   1.899
 5028SOL     OW15982   6.663   1.861   3.378
 5028SOL    HW115983   6.696   1.955   3.377
 5028SOL    HW215984   6.577   1.856   3.428
 5029SOL     OW15985   6.173   2.495   2.360
 5029SOL    HW115986   6.152   2.483   2.457
 5029SOL    HW215987   6.093   2.530   2.312
 5030SOL     OW15988   6.930   5.738   6.157
 5030SOL    HW115989   6.852   5.787   6.194
 5030SOL    HW215990   7.015   5.776   6.195
 5031SOL     OW15991   6.659   1.504   5.633
 5031SOL    HW115992   6.745   1.520   5.680
 5031SOL    HW215993   6.675   1.443   5.555
 5032SOL     OW15994   3.126   1.187   5.882
 5032SOL    HW115995   3.094   1.095   5.906
 5032SOL    HW215996   3.067   1.255   5.925
 5033SOL     OW15997   1.972   0.408   7.022
 5033SOL    HW115998   1.983   0.388   6.924
 5033SOL    HW215999   2.062   0.419   0.038
 5034SOL     OW16000   5.965   6.899   3.812
 5034SOL    HW116001   6.050   6.867   3.769
 5034SOL    HW216002   5.951   6.851   3.898
 5035SOL     OW16003   0.581   4.003   5.502
 5035SOL    HW116004   0.651   3.947   5.545
 5035SOL    HW216005   0.491   3.964   5.518
 5036SOL     OW16006   6.670   5.031   6.766
 5036SOL    HW116007   6.670   5.083   6.851
 5036SOL    HW216008   6.577   5.000   6.746
 5037SOL     OW16009   4.870   4.584   1.639
 5037SOL    HW116010   4.960   4.582   1.594
 5037SOL    HW216011   4.800   4.605   1.571
 5038SOL     OW16012   3.794   2.907   4.249
 5038SOL    HW116013   3.741   2.912   4.333
 5038SOL    HW216014   3.776   2.819   4.204
 5039SOL     OW16015   2.073   3.224   5.356
 5039SOL    HW116016   1.999   3.163   5.385
 5039SOL    HW216017   2.122   3.183   5.279
 5040SOL     OW16018   1.001   6.644   5.378
 5040SOL    HW116019   0.990   6.595   5.292
 5040SOL    HW216020   0.983   6.582   5.454
 5041SOL     OW16021   1.106   1.897   1.738
 5041SOL    HW116022   1.190   1.845   1.755
 5041SOL    HW216023   1.072   1.933   1.825
 5042SOL     OW16024   6.791   3.162   0.451
 5042SOL    HW116025   6.767   3.110   0.533
 5042SOL    HW216026   6.881   3.135   0.418
 5043SOL     OW16027   4.491   0.543   0.160
 5043SOL    HW116028   4.495   0.613   0.089
 5043SOL    HW216029   4.572   0.550   0.218
 5044SOL     OW16030   0.874   5.475   0.766
 5044SOL    HW116031   0.817   5.533   0.708
 5044SOL    HW216032   0.942   5.531   0.813
 5045SOL     OW16033   6.273   6.102   6.089
 5045SOL    HW116034   6.274   6.180   6.151
 5045SOL    HW216035   6.271   6.017   6.143
 5046SOL     OW16036   3.484   3.814   3.396
 5046SOL    HW116037   3.450   3.823   3.303
 5046SOL    HW216038   3.462   3.896   3.448
 5047SOL     OW16039   2.061   4.378   2.796
 5047SOL    HW116040   2.097   4.462   2.837
 5047SOL    HW216041   1.987   4.342   2.852
 5048SOL     OW16042   1.399   1.194   3.871
 5048SOL    HW116043   1.419   1.119   3.809
 5048SOL    HW216044   1.330   1.254   3.831
 5049SOL     OW16045   4.864   1.362   7.012
 5049SOL    HW116046   4.769   1.376   0.015
 5049SOL    HW216047   4.871   1.371   6.913
 5050SOL     OW16048   1.482   0.939   0.066
 5050SOL    HW116049   1.530   0.958   7.006
 5050SOL    HW216050   1.439   0.849   0.061
 5051SOL     OW16051   4.667   4.311   1.659
 5051SOL    HW116052   4.593   4.315   1.727
 5051SOL    HW216053   4.754   4.291   1.706
 5052SOL     OW16054   3.065   1.676   5.454
 5052SOL    HW116055   3.164   1.683   5.447
 5052SOL    HW216056   3.027   1.648   5.365
 5053SOL     OW16057   0.982   4.970   3.296
 5053SOL    HW116058   0.960   4.959   3.199
 5053SOL    HW216059   1.032   5.056   3.310
 5054SOL     OW16060   2.650   4.977   4.759
 5054SOL    HW116061   2.732   4.959   4.814
 5054SOL    HW216062   2.642   5.075   4.742
 5055SOL     OW16063   0.777   2.382   5.678
 5055SOL    HW116064   0.724   2.385   5.594
 5055SOL    HW216065   0.770   2.291   5.719
 5056SOL     OW16066   5.379   3.896   6.205
 5056SOL    HW116067   5.309   3.965   6.188
 5056SOL    HW216068   5.337   3.815   6.247
 5057SOL     OW16069   6.790   6.804   3.293
 5057SOL    HW116070   6.840   6.803   3.207
 5057SOL    HW216071   6.701   6.847   3.279
 5058SOL     OW16072   3.702   3.427   5.796
 5058SOL    HW116073   3.667   3.373   5.872
 5058SOL    HW216074   3.643   3.507   5.782
 5059SOL     OW16075   0.133   0.768   3.637
 5059SOL    HW116076   0.153   0.685   3.689
 5059SOL    HW216077   0.128   0.846   3.699
 5060SOL     OW16078   0.370   2.810   6.196
 5060SOL    HW116079   0.392   2.907   6.201
 5060SOL    HW216080   0.424   2.767   6.124
 5061SOL     OW16081   4.827   2.508   0.599
 5061SOL    HW116082   4.842   2.606   0.613
 5061SOL    HW216083   4.729   2.490   0.594
 5062SOL     OW16084   5.850   6.883   2.543
 5062SOL    HW116085   5.897   6.809   2.496
 5062SOL    HW216086   5.767   6.908   2.492
 5063SOL     OW16087   0.588   6.966   2.389
 5063SOL    HW116088   0.647   7.011   2.322
 5063SOL    HW216089   0.575   0.002   2.468
 5064SOL     OW16090   4.875   3.661   1.001
 5064SOL    HW116091   4.887   3.572   1.045
 5064SOL    HW216092   4.829   3.724   1.064
 5065SOL     OW16093   2.739   0.662   5.789
 5065SOL    HW116094   2.667   0.711   5.838
 5065SOL    HW216095   2.818   0.648   5.849
 5066SOL     OW16096   5.035   4.637   2.081
 5066SOL    HW116097   4.946   4.668   2.114
 5066SOL    HW216098   5.021   4.560   2.018
 5067SOL     OW16099   4.686   1.451   0.895
 5067SOL    HW116100   4.707   1.527   0.956
 5067SOL    HW216101   4.693   1.364   0.945
 5068SOL     OW16102   2.671   4.503   0.929
 5068SOL    HW116103   2.730   4.583   0.920
 5068SOL    HW216104   2.597   4.523   0.993
 5069SOL     OW16105   1.616   4.556   3.488
 5069SOL    HW116106   1.551   4.551   3.564
 5069SOL    HW216107   1.602   4.478   3.427
 5070SOL     OW16108   5.170   3.341   3.862
 5070SOL    HW116109   5.071   3.331   3.868
 5070SOL    HW216110   5.211   3.318   3.951
 5071SOL     OW16111   4.718   2.555   4.545
 5071SOL    HW116112   4.771   2.639   4.546
 5071SOL    HW216113   4.691   2.531   4.638
 5072SOL     OW16114   0.874   6.394   1.080
 5072SOL    HW116115   0.777   6.375   1.098
 5072SOL    HW216116   0.928   6.372   1.161
 5073SOL     OW16117   6.284   6.589   3.159
 5073SOL    HW116118   6.229   6.627   3.085
 5073SOL    HW216119   6.361   6.651   3.179
 5074SOL     OW16120   3.675   3.165   6.833
 5074SOL    HW116121   3.633   3.253   6.856
 5074SOL    HW216122   3.774   3.177   6.824
 5075SOL     OW16123   0.871   2.054   5.999
 5075SOL    HW116124   0.884   1.972   6.054
 5075SOL    HW216125   0.850   2.131   6.059
 5076SOL     OW16126   3.098   0.926   0.959
 5076SOL    HW116127   3.180   0.905   0.906
 5076SOL    HW216128   3.024   0.865   0.931
 5077SOL     OW16129   0.159   2.645   4.503
 5077SOL    HW116130   0.181   2.549   4.522
 5077SOL    HW216131   0.085   2.650   4.436
 5078SOL     OW16132   1.078   1.976   3.776
 5078SOL    HW116133   1.178   1.976   3.779
 5078SOL    HW216134   1.048   1.928   3.694
 5079SOL     OW16135   2.561   4.787   6.124
 5079SOL    HW116136   2.591   4.714   6.185
 5079SOL    HW216137   2.578   4.876   6.167
 5080SOL     OW16138   5.784   6.570   5.485
 5080SOL    HW116139   5.724   6.613   5.553
 5080SOL    HW216140   5.790   6.472   5.504
 5081SOL     OW16141   4.066   3.488   3.356
 5081SOL    HW116142   3.971   3.475   3.330
 5081SOL    HW216143   4.094   3.414   3.417
 5082SOL     OW16144   5.988   5.106   5.362
 5082SOL    HW116145   5.906   5.086   5.308
 5082SOL    HW216146   6.069   5.088   5.306
 5083SOL     OW16147   1.680   6.447   2.481
 5083SOL    HW116148   1.591   6.413   2.448
 5083SOL    HW216149   1.737   6.370   2.509
 5084SOL     OW16150   1.232   5.090   4.892
 5084SOL    HW116151   1.154   5.032   4.868
 5084SOL    HW216152   1.300   5.035   4.941
 5085SOL     OW16153   5.596   2.466   6.925
 5085SOL    HW116154   5.566   2.373   6.903
 5085SOL    HW216155   5.685   2.462   6.972
 5086SOL     OW16156   6.546   5.214   4.148
 5086SOL    HW116157   6.633   5.175   4.178
 5086SOL    HW216158   6.556   5.313   4.136
 5087SOL     OW16159   6.577   5.686   3.419
 5087SOL    HW116160   6.647   5.713   3.353
 5087SOL    HW216161   6.541   5.767   3.465
 5088SOL     OW16162   5.703   1.510   4.939
 5088SOL    HW116163   5.734   1.603   4.959
 5088SOL    HW216164   5.772   1.445   4.971
 5089SOL     OW16165   6.083   3.549   3.023
 5089SOL    HW116166   6.099   3.574   3.118
 5089SOL    HW216167   6.157   3.585   2.966
 5090SOL     OW16168   1.899   3.880   1.692
 5090SOL    HW116169   1.879   3.974   1.666
 5090SOL    HW216170   1.818   3.839   1.735
 5091SOL     OW16171   0.941   5.686   3.040
 5091SOL    HW116172   0.899   5.654   3.125
 5091SOL    HW216173   0.926   5.619   2.968
 5092SOL     OW16174   3.150   2.932   1.077
 5092SOL    HW116175   3.215   2.856   1.073
 5092SOL    HW216176   3.065   2.905   1.032
 5093SOL     OW16177   1.679   1.612   1.622
 5093SOL    HW116178   1.724   1.637   1.536
 5093SOL    HW216179   1.681   1.512   1.633
 5094SOL     OW16180   0.900   6.882   4.873
 5094SOL    HW116181   0.999   6.865   4.875
 5094SOL    HW216182   0.864   6.880   4.966
 5095SOL     OW16183   0.991   1.428   4.536
 5095SOL    HW116184   0.945   1.415   4.448
 5095SOL    HW216185   1.049   1.509   4.531
 5096SOL     OW16186   4.435   4.110   0.869
 5096SOL    HW116187   4.408   4.024   0.911
 5096SOL    HW216188   4.472   4.093   0.778
 5097SOL     OW16189   2.062   0.252   6.272
 5097SOL    HW116190   1.977   0.211   6.239
 5097SOL    HW216191   2.060   0.259   6.371
 5098SOL     OW16192   0.588   0.739   1.510
 5098SOL    HW116193   0.528   0.808   1.469
 5098SOL    HW216194   0.541   0.651   1.512
 5099SOL     OW16195   1.171   0.619   6.177
 5099SOL    HW116196   1.204   0.527   6.196
 5099SOL    HW216197   1.084   0.614   6.128
 5100SOL     OW16198   4.485   6.398   5.844
 5100SOL    HW116199   4.494   6.448   5.931
 5100SOL    HW216200   4.572   6.401   5.795
 5101SOL     OW16201   5.227   6.501   0.076
 5101SOL    HW116202   5.160   6.476   0.146
 5101SOL    HW216203   5.180   6.515   7.014
 5102SOL     OW16204   5.797   0.800   5.730
 5102SOL    HW116205   5.708   0.845   5.723
 5102SOL    HW216206   5.857   0.854   5.789
 5103SOL     OW16207   0.012   1.075   4.512
 5103SOL    HW116208   0.076   1.006   4.548
 5103SOL    HW216209   0.043   1.104   4.422
 5104SOL     OW16210   1.881   6.567   1.833
 5104SOL    HW116211   1.861   6.665   1.842
 5104SOL    HW216212   1.878   6.524   1.923
 5105SOL     OW16213   4.050   3.380   0.151
 5105SOL    HW116214   3.991   3.390   0.232
 5105SOL    HW216215   4.039   3.461   0.093
 5106SOL     OW16216   3.193   0.679   2.354
 5106SOL    HW116217   3.252   0.760   2.348
 5106SOL    HW216218   3.236   0.611   2.414
 5107SOL     OW16219   3.275   0.661   0.463
 5107SOL    HW116220   3.325   0.576   0.444
 5107SOL    HW216221   3.206   0.676   0.392
 5108SOL     OW16222   2.861   3.552   3.598
 5108SOL    HW116223   2.766   3.582   3.601
 5108SOL    HW216224   2.885   3.528   3.504
 5109SOL     OW16225   0.701   1.586   1.090
 5109SOL    HW116226   0.677   1.498   1.048
 5109SOL    HW216227   0.780   1.573   1.151
 5110SOL     OW16228   1.132   6.686   6.553
 5110SOL    HW116229   1.132   6.634   6.467
 5110SOL    HW216230   1.044   6.675   6.599
 5111SOL     OW16231   0.513   1.431   5.797
 5111SOL    HW116232   0.578   1.386   5.858
 5111SOL    HW216233   0.489   1.368   5.722
 5112SOL     OW16234   0.769   6.848   3.475
 5112SOL    HW116235   0.761   6.825   3.572
 5112SOL    HW216236   0.687   6.897   3.445
 5113SOL     OW16237   1.209   6.868   1.037
 5113SOL    HW116238   1.271   6.872   1.116
 5113SOL    HW216239   1.251   6.814   0.964
 5114SOL     OW16240   3.636   3.156   0.144
 5114SOL    HW116241   3.634   3.115   0.236
 5114SOL    HW216242   3.710   3.114   0.091
 5115SOL     OW16243   1.757   4.451   5.352
 5115SOL    HW116244   1.668   4.447   5.306
 5115SOL    HW216245   1.830   4.444   5.283
 5116SOL     OW16246   5.597   6.105   6.014
 5116SOL    HW116247   5.697   6.101   6.011
 5116SOL    HW216248   5.562   6.023   6.059
 5117SOL     OW16249   2.055   4.551   3.975
 5117SOL    HW116250   2.117   4.521   3.902
 5117SOL    HW216251   2.091   4.635   4.016
 5118SOL     OW16252   5.202   6.188   0.215
 5118SOL    HW116253   5.134   6.118   0.240
 5118SOL    HW216254   5.174   6.276   0.254
 5119SOL     OW16255   5.291   0.472   1.751
 5119SOL    HW116256   5.338   0.391   1.784
 5119SOL    HW216257   5.358   0.544   1.731
 5120SOL     OW16258   5.834   1.526   3.295
 5120SOL    HW116259   5.899   1.531   3.219
 5120SOL    HW216260   5.797   1.434   3.302
 5121SOL     OW16261   1.613   2.802   6.689
 5121SOL    HW116262   1.650   2.710   6.686
 5121SOL    HW216263   1.564   2.816   6.775
 5122SOL     OW16264   2.882   0.842   4.226
 5122SOL    HW116265   2.948   0.788   4.172
 5122SOL    HW216266   2.889   0.816   4.322
 5123SOL     OW16267   5.525   3.273   4.524
 5123SOL    HW116268   5.442   3.311   4.564
 5123SOL    HW216269   5.503   3.189   4.474
 5124SOL     OW16270   2.528   5.366   6.413
 5124SOL    HW116271   2.459   5.354   6.341
 5124SOL    HW216272   2.524   5.287   6.475
 5125SOL     OW16273   0.262   3.430   4.608
 5125SOL    HW116274   0.226   3.345   4.646
 5125SOL    HW216275   0.347   3.412   4.559
 5126SOL     OW16276   6.213   5.085   5.217
 5126SOL    HW116277   6.286   5.148   5.245
 5126SOL    HW216278   6.246   4.991   5.222
 5127SOL     OW16279   5.606   3.967   0.873
 5127SOL    HW116280   5.643   3.881   0.837
 5127SOL    HW216281   5.641   3.982   0.966
 5128SOL     OW16282   1.168   0.138   0.112
 5128SOL    HW116283   1.255   0.168   0.151
 5128SOL    HW216284   1.177   0.043   0.082
 5129SOL     OW16285   5.037   1.231   2.883
 5129SOL    HW116286   5.028   1.246   2.784
 5129SOL    HW216287   5.102   1.298   2.921
 5130SOL     OW16288   1.128   5.887   4.854
 5130SOL    HW116289   1.155   5.928   4.941
 5130SOL    HW216290   1.210   5.861   4.803
 5131SOL     OW16291   3.293   5.116   3.422
 5131SOL    HW116292   3.243   5.178   3.483
 5131SOL    HW216293   3.332   5.168   3.346
 5132SOL     OW16294   3.608   1.517   6.316
 5132SOL    HW116295   3.609   1.554   6.409
 5132SOL    HW216296   3.694   1.538   6.270
 5133SOL     OW16297   3.204   5.355   6.372
 5133SOL    HW116298   3.293   5.400   6.376
 5133SOL    HW216299   3.136   5.417   6.332
 5134SOL     OW16300   6.466   0.210   2.115
 5134SOL    HW116301   6.403   0.150   2.066
 5134SOL    HW216302   6.540   0.237   2.055
 5135SOL     OW16303   6.310   3.607   2.837
 5135SOL    HW116304   6.251   3.573   2.764
 5135SOL    HW216305   6.322   3.706   2.826
 5136SOL     OW16306   6.649   1.782   5.757
 5136SOL    HW116307   6.747   1.801   5.750
 5136SOL    HW216308   6.634   1.684   5.748
 5137SOL     OW16309   4.915   2.888   5.281
 5137SOL    HW116310   4.981   2.813   5.285
 5137SOL    HW216311   4.963   2.975   5.267
 5138SOL     OW16312   3.323   3.729   3.832
 5138SOL    HW116313   3.326   3.823   3.865
 5138SOL    HW216314   3.276   3.672   3.899
 5139SOL     OW16315   1.119   0.346   4.860
 5139SOL    HW116316   1.149   0.313   4.770
 5139SOL    HW216317   1.038   0.403   4.849
 5140SOL     OW16318   3.773   1.627   6.121
 5140SOL    HW116319   3.782   1.564   6.043
 5140SOL    HW216320   3.864   1.650   6.155
 5141SOL     OW16321   6.212   2.654   0.844
 5141SOL    HW116322   6.305   2.655   0.881
 5141SOL    HW216323   6.174   2.747   0.848
 5142SOL     OW16324   6.176   6.789   4.467
 5142SOL    HW116325   6.149   6.857   4.535
 5142SOL    HW216326   6.207   6.706   4.514
 5143SOL     OW16327   1.098   3.890   4.647
 5143SOL    HW116328   1.189   3.898   4.687
 5143SOL    HW216329   1.078   3.794   4.627
 5144SOL     OW16330   1.934   3.805   6.734
 5144SOL    HW116331   1.890   3.895   6.739
 5144SOL    HW216332   2.033   3.817   6.737
 5145SOL     OW16333   3.208   5.934   6.415
 5145SOL    HW116334   3.113   5.928   6.447
 5145SOL    HW216335   3.258   5.999   6.471
 5146SOL     OW16336   3.970   4.008   5.458
 5146SOL    HW116337   3.919   3.922   5.443
 5146SOL    HW216338   3.950   4.043   5.550
 5147SOL     OW16339   5.711   4.394   3.540
 5147SOL    HW116340   5.735   4.491   3.542
 5147SOL    HW216341   5.615   4.383   3.563
 5148SOL     OW16342   0.658   0.534   2.244
 5148SOL    HW116343   0.605   0.583   2.312
 5148SOL    HW216344   0.597   0.474   2.191
 5149SOL     OW16345   5.427   4.824   4.424
 5149SOL    HW116346   5.500   4.757   4.432
 5149SOL    HW216347   5.339   4.777   4.418
 5150SOL     OW16348   1.393   4.606   3.666
 5150SOL    HW116349   1.395   4.706   3.669
 5150SOL    HW216350   1.298   4.575   3.670
 5151SOL     OW16351   5.527   4.260   1.873
 5151SOL    HW116352   5.606   4.219   1.826
 5151SOL    HW216353   5.534   4.243   1.971
 5152SOL     OW16354   1.553   5.980   6.937
 5152SOL    HW116355   1.479   6.006   6.875
 5152SOL    HW216356   1.627   5.940   6.884
 5153SOL     OW16357   1.508   1.388   0.261
 5153SOL    HW116358   1.489   1.295   0.290
 5153SOL    HW216359   1.499   1.450   0.339
 5154SOL     OW16360   1.427   2.788   6.898
 5154SOL    HW116361   1.457   2.859   6.962
 5154SOL    HW216362   1.328   2.791   6.889
 5155SOL     OW16363   2.779   1.896   0.604
 5155SOL    HW116364   2.773   1.796   0.607
 5155SOL    HW216365   2.695   1.935   0.641
 5156SOL     OW16366   5.509   5.221   4.767
 5156SOL    HW116367   5.456   5.139   4.787
 5156SOL    HW216368   5.447   5.300   4.762
 5157SOL     OW16369   3.054   1.765   1.641
 5157SOL    HW116370   3.124   1.783   1.711
 5157SOL    HW216371   3.086   1.798   1.552
 5158SOL     OW16372   3.293   1.922   1.125
 5158SOL    HW116373   3.341   1.860   1.186
 5158SOL    HW216374   3.302   2.016   1.158
 5159SOL     OW16375   6.197   3.875   6.423
 5159SOL    HW116376   6.140   3.793   6.423
 5159SOL    HW216377   6.227   3.896   6.330
 5160SOL     OW16378   6.434   6.216   3.436
 5160SOL    HW116379   6.379   6.253   3.511
 5160SOL    HW216380   6.515   6.170   3.473
 5161SOL     OW16381   1.141   3.751   0.064
 5161SOL    HW116382   1.147   3.678   7.021
 5161SOL    HW216383   1.107   3.714   0.150
 5162SOL     OW16384   0.413   5.386   2.128
 5162SOL    HW116385   0.510   5.364   2.133
 5162SOL    HW216386   0.402   5.485   2.117
 5163SOL     OW16387   3.161   6.374   1.438
 5163SOL    HW116388   3.094   6.312   1.397
 5163SOL    HW216389   3.137   6.468   1.417
 5164SOL     OW16390   2.577   2.972   0.375
 5164SOL    HW116391   2.594   2.954   0.278
 5164SOL    HW216392   2.662   3.000   0.420
 5165SOL     OW16393   0.958   4.161   6.672
 5165SOL    HW116394   0.980   4.197   6.582
 5165SOL    HW216395   0.988   4.226   6.742
 5166SOL     OW16396   1.438   5.582   2.158
 5166SOL    HW116397   1.402   5.573   2.065
 5166SOL    HW216398   1.523   5.635   2.156
 5167SOL     OW16399   6.237   4.255   5.299
 5167SOL    HW116400   6.148   4.277   5.259
 5167SOL    HW216401   6.274   4.173   5.256
 5168SOL     OW16402   4.500   1.947   2.432
 5168SOL    HW116403   4.430   1.876   2.430
 5168SOL    HW216404   4.506   1.991   2.342
 5169SOL     OW16405   4.635   1.573   4.033
 5169SOL    HW116406   4.678   1.662   4.017
 5169SOL    HW216407   4.637   1.521   3.947
 5170SOL     OW16408   1.619   3.726   6.170
 5170SOL    HW116409   1.584   3.787   6.099
 5170SOL    HW216410   1.633   3.635   6.131
 5171SOL     OW16411   1.517   5.021   5.485
 5171SOL    HW116412   1.496   5.046   5.580
 5171SOL    HW216413   1.438   4.977   5.443
 5172SOL     OW16414   1.511   5.161   4.003
 5172SOL    HW116415   1.509   5.201   3.912
 5172SOL    HW216416   1.560   5.222   4.065
 5173SOL     OW16417   4.489   3.634   5.910
 5173SOL    HW116418   4.518   3.708   5.969
 5173SOL    HW216419   4.568   3.594   5.864
 5174SOL     OW16420   1.681   0.332   4.026
 5174SOL    HW116421   1.777   0.317   4.051
 5174SOL    HW216422   1.622   0.292   4.096
 5175SOL     OW16423   2.736   4.613   6.289
 5175SOL    HW116424   2.786   4.562   6.358
 5175SOL    HW216425   2.800   4.666   6.232
 5176SOL     OW16426   5.572   5.472   5.942
 5176SOL    HW116427   5.632   5.538   5.897
 5176SOL    HW216428   5.508   5.434   5.874
 5177SOL     OW16429   5.475   6.850   1.230
 5177SOL    HW116430   5.474   6.930   1.169
 5177SOL    HW216431   5.489   6.767   1.176
 5178SOL     OW16432   6.968   4.556   1.926
 5178SOL    HW116433   6.958   4.470   1.875
 5178SOL    HW216434   0.010   4.614   1.881
 5179SOL     OW16435   5.123   4.125   2.966
 5179SOL    HW116436   5.048   4.181   3.001
 5179SOL    HW216437   5.210   4.169   2.989
 5180SOL     OW16438   3.189   6.849   1.343
 5180SOL    HW116439   3.235   6.937   1.357
 5180SOL    HW216440   3.201   6.819   1.249
 5181SOL     OW16441   0.299   0.424   7.006
 5181SOL    HW116442   0.305   0.520   6.979
 5181SOL    HW216443   0.245   0.374   6.938
 5182SOL     OW16444   4.410   4.559   2.134
 5182SOL    HW116445   4.431   4.471   2.090
 5182SOL    HW216446   4.319   4.589   2.105
 5183SOL     OW16447   4.078   2.238   2.918
 5183SOL    HW116448   4.058   2.145   2.949
 5183SOL    HW216449   4.153   2.235   2.852
 5184SOL     OW16450   1.965   2.514   3.037
 5184SOL    HW116451   1.995   2.461   2.958
 5184SOL    HW216452   1.890   2.575   3.010
 5185SOL     OW16453   5.005   0.270   2.822
 5185SOL    HW116454   5.060   0.204   2.872
 5185SOL    HW216455   4.935   0.222   2.769
 5186SOL     OW16456   5.621   2.808   5.854
 5186SOL    HW116457   5.575   2.738   5.799
 5186SOL    HW216458   5.708   2.773   5.887
 5187SOL     OW16459   2.162   5.188   4.760
 5187SOL    HW116460   2.174   5.122   4.835
 5187SOL    HW216461   2.252   5.208   4.720
 5188SOL     OW16462   0.025   6.459   1.685
 5188SOL    HW116463   0.010   6.554   1.714
 5188SOL    HW216464   0.063   6.458   1.592
 5189SOL     OW16465   5.867   6.241   6.911
 5189SOL    HW116466   5.822   6.194   6.987
 5189SOL    HW216467   5.894   6.333   6.941
 5190SOL     OW16468   1.744   2.926   2.472
 5190SOL    HW116469   1.659   2.877   2.489
 5190SOL    HW216470   1.757   2.996   2.542
 5191SOL     OW16471   2.891   5.870   2.686
 5191SOL    HW116472   2.814   5.907   2.738
 5191SOL    HW216473   2.976   5.907   2.724
 5192SOL     OW16474   1.975   5.796   1.505
 5192SOL    HW116475   2.041   5.845   1.448
 5192SOL    HW216476   1.884   5.806   1.465
 5193SOL     OW16477   5.242   6.908   6.623
 5193SOL    HW116478   5.279   6.893   6.715
 5193SOL    HW216479   5.161   6.967   6.629
 5194SOL     OW16480   2.989   1.818   6.463
 5194SOL    HW116481   2.943   1.769   6.389
 5194SOL    HW216482   2.993   1.760   6.544
 5195SOL     OW16483   0.782   0.691   3.706
 5195SOL    HW116484   0.861   0.656   3.755
 5195SOL    HW216485   0.806   0.709   3.611
 5196SOL     OW16486   4.617   6.637   2.651
 5196SOL    HW116487   4.699   6.677   2.608
 5196SOL    HW216488   4.628   6.637   2.750
 5197SOL     OW16489   1.716   3.549   6.386
 5197SOL    HW116490   1.672   3.599   6.311
 5197SOL    HW216491   1.706   3.451   6.370
 5198SOL     OW16492   3.947   5.564   2.886
 5198SOL    HW116493   3.944   5.630   2.961
 5198SOL    HW216494   3.955   5.613   2.799
 5199SOL     OW16495   0.513   5.511   0.952
 5199SOL    HW116496   0.531   5.520   0.854
 5199SOL    HW216497   0.534   5.598   0.997
 5200SOL     OW16498   0.401   3.832   5.205
 5200SOL    HW116499   0.437   3.744   5.235
 5200SOL    HW216500   0.324   3.858   5.263
 5201SOL     OW16501   0.403   6.688   3.675
 5201SOL    HW116502   0.502   6.701   3.679
 5201SOL    HW216503   0.374   6.628   3.749
 5202SOL     OW16504   6.690   2.621   6.233
 5202SOL    HW116505   6.733   2.534   6.256
 5202SOL    HW216506   6.722   2.692   6.295
 5203SOL     OW16507   1.375   2.278   0.107
 5203SOL    HW116508   1.308   2.210   0.078
 5203SOL    HW216509   1.374   2.285   0.207
 5204SOL     OW16510   4.012   5.104   0.513
 5204SOL    HW116511   4.062   5.068   0.434
 5204SOL    HW216512   4.074   5.109   0.592
 5205SOL     OW16513   1.840   6.788   1.140
 5205SOL    HW116514   1.906   6.728   1.097
 5205SOL    HW216515   1.754   6.785   1.089
 5206SOL     OW16516   0.714   4.694   6.288
 5206SOL    HW116517   0.742   4.677   6.383
 5206SOL    HW216518   0.711   4.608   6.238
 5207SOL     OW16519   1.121   5.017   4.313
 5207SOL    HW116520   1.160   5.022   4.405
 5207SOL    HW216521   1.022   5.030   4.318
 5208SOL     OW16522   3.809   0.921   0.631
 5208SOL    HW116523   3.854   1.001   0.671
 5208SOL    HW216524   3.770   0.945   0.542
 5209SOL     OW16525   5.777   5.639   4.242
 5209SOL    HW116526   5.803   5.725   4.197
 5209SOL    HW216527   5.857   5.600   4.287
 5210SOL     OW16528   5.540   3.756   5.333
 5210SOL    HW116529   5.590   3.827   5.382
 5210SOL    HW216530   5.480   3.797   5.266
 5211SOL     OW16531   3.584   3.166   3.989
 5211SOL    HW116532   3.583   3.165   3.889
 5211SOL    HW216533   3.503   3.118   4.022
 5212SOL     OW16534   6.652   2.042   1.189
 5212SOL    HW116535   6.745   2.007   1.181
 5212SOL    HW216536   6.642   2.091   1.276
 5213SOL     OW16537   5.222   1.953   0.113
 5213SOL    HW116538   5.178   1.888   0.051
 5213SOL    HW216539   5.285   1.904   0.174
 5214SOL     OW16540   5.449   1.418   6.553
 5214SOL    HW116541   5.526   1.465   6.510
 5214SOL    HW216542   5.483   1.351   6.618
 5215SOL     OW16543   5.431   5.524   3.180
 5215SOL    HW116544   5.400   5.593   3.115
 5215SOL    HW216545   5.363   5.451   3.187
 5216SOL     OW16546   5.104   5.975   1.399
 5216SOL    HW116547   5.099   5.961   1.498
 5216SOL    HW216548   5.028   5.928   1.354
 5217SOL     OW16549   3.221   5.354   4.115
 5217SOL    HW116550   3.214   5.326   4.020
 5217SOL    HW216551   3.194   5.278   4.174
 5218SOL     OW16552   1.699   0.335   3.490
 5218SOL    HW116553   1.750   0.324   3.576
 5218SOL    HW216554   1.618   0.391   3.507
 5219SOL     OW16555   3.741   0.187   6.752
 5219SOL    HW116556   3.812   0.254   6.776
 5219SOL    HW216557   3.783   0.107   6.711
 5220SOL     OW16558   1.334   5.466   2.579
 5220SOL    HW116559   1.358   5.563   2.578
 5220SOL    HW216560   1.262   5.449   2.512
 5221SOL     OW16561   5.714   2.211   4.575
 5221SOL    HW116562   5.725   2.202   4.476
 5221SOL    HW216563   5.649   2.143   4.607
 5222SOL     OW16564   2.782   6.906   4.225
 5222SOL    HW116565   2.795   6.920   4.127
 5222SOL    HW216566   2.818   6.817   4.251
 5223SOL     OW16567   4.713   0.863   1.249
 5223SOL    HW116568   4.727   0.768   1.275
 5223SOL    HW216569   4.732   0.875   1.152
 5224SOL     OW16570   0.335   1.631   3.444
 5224SOL    HW116571   0.374   1.579   3.368
 5224SOL    HW216572   0.360   1.727   3.435
 5225SOL     OW16573   6.595   1.023   2.970
 5225SOL    HW116574   6.628   1.112   3.003
 5225SOL    HW216575   6.531   1.038   2.894
 5226SOL     OW16576   0.220   6.139   5.420
 5226SOL    HW116577   0.216   6.174   5.326
 5226SOL    HW216578   0.180   6.047   5.423
 5227SOL     OW16579   1.228   4.719   4.609
 5227SOL    HW116580   1.156   4.665   4.566
 5227SOL    HW216581   1.226   4.703   4.708
 5228SOL     OW16582   6.547   2.839   0.497
 5228SOL    HW116583   6.465   2.873   0.449
 5228SOL    HW216584   6.520   2.791   0.580
 5229SOL     OW16585   2.044   4.208   6.774
 5229SOL    HW116586   2.115   4.259   6.727
 5229SOL    HW216587   2.075   4.184   6.867
 5230SOL     OW16588   0.145   0.343   0.746
 5230SOL    HW116589   0.223   0.363   0.687
 5230SOL    HW216590   0.174   0.282   0.820
 5231SOL     OW16591   3.074   3.327   4.675
 5231SOL    HW116592   3.075   3.385   4.594
 5231SOL    HW216593   3.028   3.374   4.750
 5232SOL     OW16594   3.230   2.032   6.360
 5232SOL    HW116595   3.135   2.016   6.388
 5232SOL    HW216596   3.232   2.085   6.276
 5233SOL     OW16597   6.820   0.059   1.314
 5233SOL    HW116598   6.893   0.079   1.250
 5233SOL    HW216599   6.849   0.084   1.407
 5234SOL     OW16600   3.067   6.967   6.816
 5234SOL    HW116601   3.164   6.956   6.836
 5234SOL    HW216602   3.047   6.926   6.727
 5235SOL     OW16603   1.866   2.901   1.130
 5235SOL    HW116604   1.824   2.992   1.125
 5235SOL    HW216605   1.923   2.895   1.211
 5236SOL     OW16606   5.425   3.063   1.616
 5236SOL    HW116607   5.437   3.163   1.618
 5236SOL    HW216608   5.513   3.019   1.633
 5237SOL     OW16609   2.496   1.978   5.445
 5237SOL    HW116610   2.531   1.919   5.372
 5237SOL    HW216611   2.413   2.024   5.414
 5238SOL     OW16612   2.023   5.276   0.098
 5238SOL    HW116613   2.067   5.304   0.013
 5238SOL    HW216614   2.087   5.285   0.174
 5239SOL     OW16615   3.671   3.804   3.690
 5239SOL    HW116616   3.770   3.801   3.706
 5239SOL    HW216617   3.647   3.889   3.645
 5240SOL     OW16618   3.263   2.249   5.686
 5240SOL    HW116619   3.218   2.320   5.740
 5240SOL    HW216620   3.194   2.189   5.645
 5241SOL     OW16621   1.647   6.038   6.578
 5241SOL    HW116622   1.705   5.977   6.632
 5241SOL    HW216623   1.559   5.993   6.560
 5242SOL     OW16624   6.272   6.819   5.004
 5242SOL    HW116625   6.209   6.848   5.077
 5242SOL    HW216626   6.331   6.895   4.978
 5243SOL     OW16627   1.763   6.445   1.254
 5243SOL    HW116628   1.747   6.346   1.244
 5243SOL    HW216629   1.776   6.467   1.351
 5244SOL     OW16630   4.299   3.769   5.777
 5244SOL    HW116631   4.287   3.868   5.789
 5244SOL    HW216632   4.388   3.742   5.812
 5245SOL     OW16633   4.408   4.131   6.394
 5245SOL    HW116634   4.344   4.177   6.332
 5245SOL    HW216635   4.367   4.046   6.428
 5246SOL     OW16636   6.138   4.329   2.706
 5246SOL    HW116637   6.230   4.293   2.692
 5246SOL    HW216638   6.121   4.341   2.804
 5247SOL     OW16639   1.588   6.181   0.693
 5247SOL    HW116640   1.574   6.130   0.608
 5247SOL    HW216641   1.513   6.161   0.757
 5248SOL     OW16642   5.632   0.211   6.053
 5248SOL    HW116643   5.658   0.171   5.965
 5248SOL    HW216644   5.601   0.305   6.039
 5249SOL     OW16645   0.578   5.735   4.980
 5249SOL    HW116646   0.522   5.677   5.040
 5249SOL    HW216647   0.648   5.679   4.936
 5250SOL     OW16648   6.878   1.478   5.804
 5250SOL    HW116649   6.975   1.480   5.781
 5250SOL    HW216650   6.842   1.386   5.793
 5251SOL     OW16651   6.914   2.562   1.392
 5251SOL    HW116652   6.908   2.515   1.480
 5251SOL    HW216653   6.988   2.522   1.338
 5252SOL     OW16654   2.292   5.501   0.599
 5252SOL    HW116655   2.320   5.422   0.653
 5252SOL    HW216656   2.200   5.529   0.626
 5253SOL     OW16657   5.586   3.789   4.873
 5253SOL    HW116658   5.526   3.709   4.871
 5253SOL    HW216659   5.633   3.793   4.962
 5254SOL     OW16660   5.598   1.799   3.676
 5254SOL    HW116661   5.523   1.773   3.735
 5254SOL    HW216662   5.629   1.720   3.624
 5255SOL     OW16663   4.132   0.186   4.826
 5255SOL    HW116664   4.154   0.229   4.914
 5255SOL    HW216665   4.207   0.127   4.798
 5256SOL     OW16666   5.138   1.202   3.362
 5256SOL    HW116667   5.148   1.227   3.458
 5256SOL    HW216668   5.073   1.127   3.353
 5257SOL     OW16669   4.565   0.342   2.248
 5257SOL    HW116670   4.554   0.244   2.261
 5257SOL    HW216671   4.565   0.363   2.150
 5258SOL     OW16672   5.159   4.283   1.514
 5258SOL    HW116673   5.083   4.347   1.505
 5258SOL    HW216674   5.243   4.333   1.533
 5259SOL     OW16675   4.503   6.517   1.117
 5259SOL    HW116676   4.463   6.543   1.029
 5259SOL    HW216677   4.435   6.529   1.190
 5260SOL     OW16678   5.489   2.990   1.199
 5260SOL    HW116679   5.579   2.966   1.233
 5260SOL    HW216680   5.496   3.020   1.104
 5261SOL     OW16681   1.234   2.558   5.848
 5261SOL    HW116682   1.169   2.498   5.894
 5261SOL    HW216683   1.206   2.571   5.753
 5262SOL     OW16684   2.603   7.025   3.135
 5262SOL    HW116685   2.654   7.003   3.219
 5262SOL    HW216686   2.659   7.003   3.055
 5263SOL     OW16687   0.900   0.359   6.335
 5263SOL    HW116688   0.905   0.380   6.432
 5263SOL    HW216689   0.958   0.281   6.314
 5264SOL     OW16690   6.001   1.111   1.515
 5264SOL    HW116691   5.921   1.127   1.572
 5264SOL    HW216692   6.080   1.093   1.573
 5265SOL     OW16693   4.932   4.226   2.393
 5265SOL    HW116694   4.983   4.275   2.464
 5265SOL    HW216695   4.961   4.130   2.390
 5266SOL     OW16696   2.428   6.361   1.643
 5266SOL    HW116697   2.487   6.309   1.705
 5266SOL    HW216698   2.451   6.339   1.549
 5267SOL     OW16699   4.275   4.499   5.738
 5267SOL    HW116700   4.219   4.511   5.655
 5267SOL    HW216701   4.367   4.470   5.712
 5268SOL     OW16702   6.944   5.704   5.472
 5268SOL    HW116703   0.002   5.665   5.511
 5268SOL    HW216704   6.879   5.724   5.545
 5269SOL     OW16705   2.155   5.975   4.084
 5269SOL    HW116706   2.133   6.062   4.128
 5269SOL    HW216707   2.159   5.903   4.154
 5270SOL     OW16708   4.242   1.944   1.591
 5270SOL    HW116709   4.286   1.861   1.555
 5270SOL    HW216710   4.291   1.975   1.672
 5271SOL     OW16711   4.546   5.257   4.175
 5271SOL    HW116712   4.506   5.280   4.086
 5271SOL    HW216713   4.642   5.231   4.163
 5272SOL     OW16714   1.014   5.899   3.817
 5272SOL    HW116715   0.942   5.872   3.753
 5272SOL    HW216716   1.059   5.817   3.853
 5273SOL     OW16717   1.175   3.121   3.373
 5273SOL    HW116718   1.241   3.102   3.446
 5273SOL    HW216719   1.083   3.096   3.404
 5274SOL     OW16720   5.908   4.854   2.704
 5274SOL    HW116721   5.998   4.812   2.697
 5274SOL    HW216722   5.909   4.943   2.658
 5275SOL     OW16723   3.161   1.165   6.178
 5275SOL    HW116724   3.089   1.228   6.151
 5275SOL    HW216725   3.153   1.080   6.125
 5276SOL     OW16726   0.275   6.193   0.874
 5276SOL    HW116727   0.249   6.117   0.933
 5276SOL    HW216728   0.307   6.157   0.786
 5277SOL     OW16729   1.531   2.620   2.901
 5277SOL    HW116730   1.611   2.655   2.948
 5277SOL    HW216731   1.489   2.548   2.956
 5278SOL     OW16732   5.295   0.114   5.571
 5278SOL    HW116733   5.370   0.055   5.600
 5278SOL    HW216734   5.214   0.058   5.551
 5279SOL     OW16735   1.792   6.477   6.980
 5279SOL    HW116736   1.697   6.453   6.961
 5279SOL    HW216737   1.851   6.440   6.908
 5280SOL     OW16738   3.593   5.752   5.605
 5280SOL    HW116739   3.654   5.676   5.628
 5280SOL    HW216740   3.523   5.721   5.542
 5281SOL     OW16741   1.642   1.632   3.954
 5281SOL    HW116742   1.644   1.708   3.890
 5281SOL    HW216743   1.628   1.546   3.904
 5282SOL     OW16744   1.690   0.190   1.977
 5282SOL    HW116745   1.649   0.123   2.040
 5282SOL    HW216746   1.712   0.145   1.890
 5283SOL     OW16747   1.644   0.935   3.067
 5283SOL    HW116748   1.724   0.979   3.027
 5283SOL    HW216749   1.565   0.950   3.009
 5284SOL     OW16750   4.690   2.694   3.356
 5284SOL    HW116751   4.593   2.678   3.374
 5284SOL    HW216752   4.725   2.763   3.420
 5285SOL     OW16753   0.908   3.609   4.167
 5285SOL    HW116754   0.952   3.559   4.092
 5285SOL    HW216755   0.811   3.582   4.173
 5286SOL     OW16756   6.509   3.376   0.817
 5286SOL    HW116757   6.495   3.380   0.916
 5286SOL    HW216758   6.426   3.342   0.773
 5287SOL     OW16759   2.867   5.597   1.192
 5287SOL    HW116760   2.797   5.570   1.258
 5287SOL    HW216761   2.957   5.569   1.225
 5288SOL     OW16762   3.559   0.105   2.735
 5288SOL    HW116763   3.613   0.023   2.754
 5288SOL    HW216764   3.501   0.125   2.813
 5289SOL     OW16765   2.585   5.430   5.947
 5289SOL    HW116766   2.527   5.355   5.915
 5289SOL    HW216767   2.586   5.503   5.878
 5290SOL     OW16768   1.530   3.543   5.825
 5290SOL    HW116769   1.431   3.560   5.828
 5290SOL    HW216770   1.555   3.505   5.736
 5291SOL     OW16771   3.166   4.430   6.322
 5291SOL    HW116772   3.138   4.370   6.248
 5291SOL    HW216773   3.183   4.522   6.287
 5292SOL     OW16774   5.879   4.874   5.902
 5292SOL    HW116775   5.931   4.943   5.851
 5292SOL    HW216776   5.790   4.912   5.927
 5293SOL     OW16777   2.273   6.964   4.850
 5293SOL    HW116778   2.327   6.889   4.886
 5293SOL    HW216779   2.317   0.026   4.873
 5294SOL     OW16780   4.629   1.933   5.333
 5294SOL    HW116781   4.714   1.880   5.331
 5294SOL    HW216782   4.648   2.027   5.306
 5295SOL     OW16783   3.798   1.033   3.107
 5295SOL    HW116784   3.783   1.120   3.061
 5295SOL    HW216785   3.842   1.049   3.195
 5296SOL     OW16786   3.089   4.090   0.095
 5296SOL    HW116787   3.103   4.104   7.022
 5296SOL    HW216788   3.109   3.995   0.118
 5297SOL     OW16789   1.456   3.867   0.388
 5297SOL    HW116790   1.549   3.863   0.424
 5297SOL    HW216791   1.429   3.776   0.356
 5298SOL     OW16792   1.554   5.976   0.175
 5298SOL    HW116793   1.644   5.945   0.206
 5298SOL    HW216794   1.553   5.980   0.075
 5299SOL     OW16795   2.522   2.742   0.556
 5299SOL    HW116796   2.539   2.839   0.541
 5299SOL    HW216797   2.501   2.726   0.652
 5300SOL     OW16798   0.513   5.785   1.037
 5300SOL    HW116799   0.562   5.809   1.120
 5300SOL    HW216800   0.542   5.846   0.963
 5301SOL     OW16801   4.454   1.547   6.202
 5301SOL    HW116802   4.430   1.622   6.141
 5301SOL    HW216803   4.427   1.460   6.161
 5302SOL     OW16804   5.882   5.596   3.403
 5302SOL    HW116805   5.819   5.615   3.478
 5302SOL    HW216806   5.882   5.672   3.338
 5303SOL     OW16807   0.283   5.320   4.698
 5303SOL    HW116808   0.236   5.258   4.760
 5303SOL    HW216809   0.319   5.398   4.749
 5304SOL     OW16810   5.764   0.424   0.324
 5304SOL    HW116811   5.729   0.357   0.390
 5304SOL    HW216812   5.737   0.516   0.354
 5305SOL     OW16813   0.730   4.959   3.075
 5305SOL    HW116814   0.824   4.994   3.073
 5305SOL    HW216815   0.721   4.892   3.148
 5306SOL     OW16816   0.820   4.703   5.277
 5306SOL    HW116817   0.799   4.608   5.252
 5306SOL    HW216818   0.820   4.759   5.194
 5307SOL     OW16819   3.487   1.330   0.319
 5307SOL    HW116820   3.542   1.414   0.320
 5307SOL    HW216821   3.504   1.281   0.233
 5308SOL     OW16822   1.308   4.643   2.526
 5308SOL    HW116823   1.375   4.660   2.599
 5308SOL    HW216824   1.353   4.594   2.451
 5309SOL     OW16825   3.927   5.058   1.903
 5309SOL    HW116826   3.932   5.008   1.817
 5309SOL    HW216827   3.878   5.003   1.971
 5310SOL     OW16828   5.857   3.616   1.987
 5310SOL    HW116829   5.917   3.538   2.007
 5310SOL    HW216830   5.762   3.590   2.005
 5311SOL     OW16831   6.646   6.693   0.117
 5311SOL    HW116832   6.627   6.785   0.082
 5311SOL    HW216833   6.638   6.626   0.043
 5312SOL     OW16834   1.028   5.571   1.661
 5312SOL    HW116835   0.967   5.612   1.729
 5312SOL    HW216836   0.975   5.519   1.594
 5313SOL     OW16837   1.346   2.677   6.075
 5313SOL    HW116838   1.260   2.677   6.126
 5313SOL    HW216839   1.333   2.629   5.988
 5314SOL     OW16840   4.137   6.566   0.363
 5314SOL    HW116841   4.151   6.529   0.455
 5314SOL    HW216842   4.039   6.567   0.343
 5315SOL     OW16843   5.081   3.576   2.061
 5315SOL    HW116844   5.121   3.646   2.120
 5315SOL    HW216845   5.011   3.526   2.112
 5316SOL     OW16846   1.036   3.403   5.207
 5316SOL    HW116847   1.017   3.464   5.284
 5316SOL    HW216848   1.037   3.309   5.240
 5317SOL     OW16849   5.995   1.609   5.065
 5317SOL    HW116850   5.959   1.542   5.130
 5317SOL    HW216851   6.095   1.613   5.074
 5318SOL     OW16852   0.723   2.507   0.658
 5318SOL    HW116853   0.796   2.559   0.702
 5318SOL    HW216854   0.725   2.522   0.559
 5319SOL     OW16855   4.671   5.908   0.434
 5319SOL    HW116856   4.704   5.979   0.372
 5319SOL    HW216857   4.693   5.933   0.529
 5320SOL     OW16858   4.318   4.650   0.693
 5320SOL    HW116859   4.301   4.656   0.595
 5320SOL    HW216860   4.246   4.698   0.743
 5321SOL     OW16861   2.153   4.891   4.459
 5321SOL    HW116862   2.248   4.861   4.460
 5321SOL    HW216863   2.093   4.816   4.487
 5322SOL     OW16864   5.613   5.962   6.926
 5322SOL    HW116865   5.665   6.030   6.873
 5322SOL    HW216866   5.515   5.978   6.912
 5323SOL     OW16867   4.026   1.467   6.259
 5323SOL    HW116868   4.071   1.401   6.199
 5323SOL    HW216869   4.095   1.523   6.304
 5324SOL     OW16870   3.244   2.410   0.855
 5324SOL    HW116871   3.268   2.349   0.930
 5324SOL    HW216872   3.327   2.456   0.822
 5325SOL     OW16873   4.417   0.345   4.391
 5325SOL    HW116874   4.321   0.340   4.419
 5325SOL    HW216875   4.474   0.357   4.472
 5326SOL     OW16876   6.559   5.191   3.137
 5326SOL    HW116877   6.593   5.170   3.045
 5326SOL    HW216878   6.479   5.250   3.130
 5327SOL     OW16879   5.664   2.580   5.465
 5327SOL    HW116880   5.576   2.575   5.512
 5327SOL    HW216881   5.698   2.674   5.468
 5328SOL     OW16882   3.672   3.158   5.407
 5328SOL    HW116883   3.587   3.157   5.459
 5328SOL    HW216884   3.742   3.108   5.458
 5329SOL     OW16885   0.198   4.254   6.300
 5329SOL    HW116886   0.229   4.207   6.217
 5329SOL    HW216887   0.223   4.198   6.380
 5330SOL     OW16888   4.261   3.960   6.717
 5330SOL    HW116889   4.253   3.959   6.617
 5330SOL    HW216890   4.198   4.028   6.754
 5331SOL     OW16891   5.627   1.593   6.725
 5331SOL    HW116892   5.657   1.578   6.631
 5331SOL    HW216893   5.655   1.515   6.781
 5332SOL     OW16894   0.691   2.983   1.278
 5332SOL    HW116895   0.594   3.008   1.281
 5332SOL    HW216896   0.747   3.064   1.298
 5333SOL     OW16897   0.900   0.602   2.996
 5333SOL    HW116898   0.862   0.666   3.063
 5333SOL    HW216899   0.899   0.644   2.905
 5334SOL     OW16900   3.325   6.853   4.009
 5334SOL    HW116901   3.241   6.822   4.054
 5334SOL    HW216902   3.399   6.855   4.076
 5335SOL     OW16903   6.937   6.164   0.918
 5335SOL    HW116904   6.989   6.248   0.904
 5335SOL    HW216905   6.985   6.105   0.984
 5336SOL     OW16906   1.588   3.360   3.114
 5336SOL    HW116907   1.592   3.459   3.126
 5336SOL    HW216908   1.526   3.320   3.182
 5337SOL     OW16909   4.979   4.209   0.991
 5337SOL    HW116910   4.924   4.225   1.073
 5337SOL    HW216911   4.948   4.125   0.946
 5338SOL     OW16912   5.683   1.638   0.319
 5338SOL    HW116913   5.769   1.651   0.368
 5338SOL    HW216914   5.689   1.684   0.230
 5339SOL     OW16915   6.948   2.189   4.045
 5339SOL    HW116916   6.913   2.225   4.132
 5339SOL    HW216917   6.919   2.094   4.034
 5340SOL     OW16918   4.613   4.076   1.070
 5340SOL    HW116919   4.568   4.115   0.990
 5340SOL    HW216920   4.648   3.985   1.048
 5341SOL     OW16921   3.467   2.603   6.264
 5341SOL    HW116922   3.372   2.608   6.294
 5341SOL    HW216923   3.469   2.588   6.165
 5342SOL     OW16924   3.475   6.725   4.226
 5342SOL    HW116925   3.561   6.726   4.277
 5342SOL    HW216926   3.402   6.689   4.285
 5343SOL     OW16927   3.884   3.958   4.239
 5343SOL    HW116928   3.892   4.033   4.304
 5343SOL    HW216929   3.795   3.914   4.250
 5344SOL     OW16930   2.147   2.962   2.852
 5344SOL    HW116931   2.064   2.926   2.809
 5344SOL    HW216932   2.224   2.901   2.832
 5345SOL     OW16933   4.070   6.347   1.240
 5345SOL    HW116934   4.068   6.262   1.186
 5345SOL    HW216935   3.984   6.396   1.227
 5346SOL     OW16936   3.193   6.044   4.110
 5346SOL    HW116937   3.265   6.024   4.043
 5346SOL    HW216938   3.109   6.069   4.062
 5347SOL     OW16939   0.884   2.745   2.052
 5347SOL    HW116940   0.870   2.682   2.128
 5347SOL    HW216941   0.975   2.787   2.060
 5348SOL     OW16942   6.953   2.551   1.026
 5348SOL    HW116943   0.023   2.523   1.034
 5348SOL    HW216944   6.894   2.470   1.030
 5349SOL     OW16945   1.416   2.572   0.298
 5349SOL    HW116946   1.376   2.485   0.329
 5349SOL    HW216947   1.450   2.562   0.205
 5350SOL     OW16948   2.079   0.151   5.387
 5350SOL    HW116949   2.067   0.175   5.290
 5350SOL    HW216950   2.161   0.195   5.423
 5351SOL     OW16951   5.972   5.895   2.069
 5351SOL    HW116952   5.880   5.872   2.036
 5351SOL    HW216953   6.037   5.825   2.040
 5352SOL     OW16954   2.065   5.331   3.299
 5352SOL    HW116955   2.123   5.349   3.219
 5352SOL    HW216956   2.012   5.413   3.321
 5353SOL     OW16957   3.919   5.248   3.625
 5353SOL    HW116958   3.970   5.217   3.706
 5353SOL    HW216959   3.863   5.172   3.591
 5354SOL     OW16960   2.562   5.499   1.800
 5354SOL    HW116961   2.518   5.576   1.752
 5354SOL    HW216962   2.516   5.414   1.776
 5355SOL     OW16963   5.409   3.275   3.346
 5355SOL    HW116964   5.359   3.189   3.356
 5355SOL    HW216965   5.473   3.286   3.423
 5356SOL     OW16966   5.578   4.524   1.760
 5356SOL    HW116967   5.602   4.428   1.774
 5356SOL    HW216968   5.634   4.581   1.820
 5357SOL     OW16969   4.303   6.165   0.121
 5357SOL    HW116970   4.286   6.118   0.034
 5357SOL    HW216971   4.361   6.107   0.179
 5358SOL     OW16972   4.372   1.357   0.143
 5358SOL    HW116973   4.302   1.386   0.078
 5358SOL    HW216974   4.367   1.415   0.225
 5359SOL     OW16975   1.715   2.158   6.755
 5359SOL    HW116976   1.688   2.157   6.659
 5359SOL    HW216977   1.782   2.085   6.771
 5360SOL     OW16978   4.487   6.405   5.399
 5360SOL    HW116979   4.562   6.387   5.335
 5360SOL    HW216980   4.400   6.406   5.349
 5361SOL     OW16981   2.429   0.721   5.137
 5361SOL    HW116982   2.377   0.682   5.213
 5361SOL    HW216983   2.400   0.816   5.122
 5362SOL     OW16984   5.611   5.097   3.684
 5362SOL    HW116985   5.682   5.093   3.754
 5362SOL    HW216986   5.652   5.077   3.595
 5363SOL     OW16987   0.314   6.965   6.469
 5363SOL    HW116988   0.398   6.910   6.467
 5363SOL    HW216989   0.270   6.955   6.558
 5364SOL     OW16990   6.427   5.862   2.167
 5364SOL    HW116991   6.387   5.799   2.102
 5364SOL    HW216992   6.426   5.955   2.129
 5365SOL     OW16993   3.587   3.446   6.891
 5365SOL    HW116994   3.581   3.427   6.989
 5365SOL    HW216995   3.559   3.540   6.873
 5366SOL     OW16996   5.227   5.775   1.751
 5366SOL    HW116997   5.300   5.786   1.684
 5366SOL    HW216998   5.139   5.797   1.709
 5367SOL     OW16999   0.541   5.952   0.517
 5367SOL    HW117000   0.569   5.925   0.425
 5367SOL    HW217001   0.620   5.951   0.578
 5368SOL     OW17002   5.488   0.542   2.940
 5368SOL    HW117003   5.576   0.572   2.976
 5368SOL    HW217004   5.432   0.622   2.920
 5369SOL     OW17005   2.945   0.013   2.140
 5369SOL    HW117006   2.890   0.023   2.222
 5369SOL    HW217007   2.917   0.080   2.072
 5370SOL     OW17008   4.235   2.883   1.512
 5370SOL    HW117009   4.190   2.795   1.524
 5370SOL    HW217010   4.282   2.908   1.597
 5371SOL     OW17011   1.568   4.017   4.591
 5371SOL    HW117012   1.555   3.920   4.609
 5371SOL    HW217013   1.598   4.030   4.497
 5372SOL     OW17014   2.384   5.590   3.344
 5372SOL    HW117015   2.318   5.663   3.330
 5372SOL    HW217016   2.358   5.535   3.423
 5373SOL     OW17017   3.580   6.051   4.147
 5373SOL    HW117018   3.603   6.094   4.059
 5373SOL    HW217019   3.521   5.972   4.132
 5374SOL     OW17020   0.985   3.752   6.629
 5374SOL    HW117021   1.029   3.662   6.618
 5374SOL    HW217022   1.005   3.787   6.721
 5375SOL     OW17023   1.949   5.048   4.701
 5375SOL    HW117024   2.031   5.103   4.721
 5375SOL    HW217025   1.969   4.951   4.718
 5376SOL     OW17026   1.726   3.476   0.723
 5376SOL    HW117027   1.660   3.524   0.665
 5376SOL    HW217028   1.769   3.402   0.671
 5377SOL     OW17029   0.477   0.279   1.899
 5377SOL    HW117030   0.418   0.355   1.926
 5377SOL    HW217031   0.437   0.193   1.931
 5378SOL     OW17032   0.108   0.240   2.172
 5378SOL    HW117033   0.057   0.247   2.258
 5378SOL    HW217034   0.196   0.197   2.188
 5379SOL     OW17035   1.992   5.379   5.153
 5379SOL    HW117036   1.934   5.367   5.073
 5379SOL    HW217037   2.010   5.477   5.166
 5380SOL     OW17038   2.125   1.912   3.163
 5380SOL    HW117039   2.068   1.904   3.081
 5380SOL    HW217040   2.113   2.002   3.203
 5381SOL     OW17041   6.163   4.159   1.243
 5381SOL    HW117042   6.243   4.162   1.183
 5381SOL    HW217043   6.094   4.225   1.211
 5382SOL     OW17044   3.395   0.519   2.014
 5382SOL    HW117045   3.421   0.611   2.044
 5382SOL    HW217046   3.333   0.478   2.081
 5383SOL     OW17047   2.310   2.645   5.380
 5383SOL    HW117048   2.370   2.718   5.349
 5383SOL    HW217049   2.217   2.662   5.347
 5384SOL     OW17050   5.876   0.199   4.657
 5384SOL    HW117051   5.791   0.172   4.612
 5384SOL    HW217052   5.869   0.180   4.755
 5385SOL     OW17053   2.880   3.473   3.988
 5385SOL    HW117054   2.888   3.469   4.087
 5385SOL    HW217055   2.970   3.492   3.948
 5386SOL     OW17056   5.005   0.234   4.463
 5386SOL    HW117057   5.058   0.149   4.467
 5386SOL    HW217058   5.039   0.298   4.531
 5387SOL     OW17059   2.748   6.307   3.899
 5387SOL    HW117060   2.660   6.344   3.927
 5387SOL    HW217061   2.789   6.257   3.975
 5388SOL     OW17062   6.748   0.061   4.230
 5388SOL    HW117063   6.678   0.017   4.173
 5388SOL    HW217064   6.838   0.026   4.203
 5389SOL     OW17065   4.573   0.883   1.698
 5389SOL    HW117066   4.630   0.831   1.635
 5389SOL    HW217067   4.587   0.981   1.683
 5390SOL     OW17068   4.847   4.320   3.371
 5390SOL    HW117069   4.927   4.359   3.325
 5390SOL    HW217070   4.816   4.239   3.322
 5391SOL     OW17071   1.772   2.125   1.409
 5391SOL    HW117072   1.851   2.074   1.445
 5391SOL    HW217073   1.804   2.201   1.352
 5392SOL     OW17074   5.525   3.321   1.580
 5392SOL    HW117075   5.608   3.354   1.626
 5392SOL    HW217076   5.457   3.394   1.576
 5393SOL     OW17077   5.402   6.769   6.411
 5393SOL    HW117078   5.438   6.679   6.436
 5393SOL    HW217079   5.345   6.804   6.486
 5394SOL     OW17080   6.766   4.505   6.599
 5394SOL    HW117081   6.704   4.434   6.567
 5394SOL    HW217082   6.798   4.559   6.521
 5395SOL     OW17083   4.376   0.570   1.962
 5395SOL    HW117084   4.375   0.655   1.910
 5395SOL    HW217085   4.464   0.523   1.949
 5396SOL     OW17086   4.847   4.450   2.835
 5396SOL    HW117087   4.830   4.519   2.906
 5396SOL    HW217088   4.763   4.435   2.783
 5397SOL     OW17089   6.751   2.767   1.727
 5397SOL    HW117090   6.777   2.809   1.814
 5397SOL    HW217091   6.708   2.678   1.744
 5398SOL     OW17092   3.354   2.056   2.750
 5398SOL    HW117093   3.312   1.975   2.707
 5398SOL    HW217094   3.429   2.088   2.693
 5399SOL     OW17095   2.376   5.372   0.130
 5399SOL    HW117096   2.332   5.320   0.203
 5399SOL    HW217097   2.434   5.443   0.170
 5400SOL     OW17098   2.150   4.096   0.851
 5400SOL    HW117099   2.180   4.004   0.829
 5400SOL    HW217100   2.092   4.132   0.778
 5401SOL     OW17101   5.663   3.582   1.567
 5401SOL    HW117102   5.748   3.588   1.515
 5401SOL    HW217103   5.585   3.576   1.504
 5402SOL     OW17104   1.993   4.728   1.856
 5402SOL    HW117105   2.079   4.710   1.808
 5402SOL    HW217106   1.919   4.737   1.790
 5403SOL     OW17107   6.177   2.499   6.229
 5403SOL    HW117108   6.116   2.548   6.292
 5403SOL    HW217109   6.263   2.477   6.277
 5404SOL     OW17110   0.873   0.980   2.916
 5404SOL    HW117111   0.803   1.011   2.980
 5404SOL    HW217112   0.894   1.053   2.851
 5405SOL     OW17113   6.296   6.088   0.101
 5405SOL    HW117114   6.386   6.102   0.142
 5405SOL    HW217115   6.279   5.990   0.091
 5406SOL     OW17116   2.599   0.445   0.050
 5406SOL    HW117117   2.607   0.530   0.101
 5406SOL    HW217118   2.609   0.463   6.977
 5407SOL     OW17119   4.122   3.047   1.320
 5407SOL    HW117120   4.154   3.008   1.234
 5407SOL    HW217121   4.160   2.996   1.397
 5408SOL     OW17122   3.288   1.270   6.404
 5408SOL    HW117123   3.227   1.346   6.427
 5408SOL    HW217124   3.263   1.234   6.314
 5409SOL     OW17125   6.245   1.302   3.911
 5409SOL    HW117126   6.154   1.330   3.940
 5409SOL    HW217127   6.238   1.231   3.841
 5410SOL     OW17128   1.844   2.924   1.595
 5410SOL    HW117129   1.903   2.992   1.551
 5410SOL    HW217130   1.850   2.838   1.545
 5411SOL     OW17131   6.474   5.287   5.596
 5411SOL    HW117132   6.555   5.232   5.575
 5411SOL    HW217133   6.478   5.316   5.691
 5412SOL     OW17134   4.000   0.594   6.925
 5412SOL    HW117135   4.037   0.522   6.866
 5412SOL    HW217136   4.063   0.672   6.925
 5413SOL     OW17137   1.970   0.849   1.332
 5413SOL    HW117138   2.022   0.764   1.331
 5413SOL    HW217139   1.873   0.829   1.344
 5414SOL     OW17140   5.889   2.827   4.732
 5414SOL    HW117141   5.963   2.892   4.752
 5414SOL    HW217142   5.805   2.876   4.710
 5415SOL     OW17143   1.562   6.007   1.328
 5415SOL    HW117144   1.492   5.976   1.263
 5415SOL    HW217145   1.536   5.980   1.420
 5416SOL     OW17146   4.652   4.406   6.141
 5416SOL    HW117147   4.700   4.487   6.108
 5416SOL    HW217148   4.558   4.430   6.164
 5417SOL     OW17149   3.900   6.557   5.632
 5417SOL    HW117150   3.968   6.586   5.565
 5417SOL    HW217151   3.853   6.475   5.599
 5418SOL     OW17152   4.183   6.664   4.483
 5418SOL    HW117153   4.097   6.666   4.433
 5418SOL    HW217154   4.205   6.570   4.509
 5419SOL     OW17155   3.135   5.091   0.215
 5419SOL    HW117156   3.132   5.004   0.265
 5419SOL    HW217157   3.060   5.150   0.246
 5420SOL     OW17158   1.129   2.071   1.961
 5420SOL    HW117159   1.160   2.134   1.890
 5420SOL    HW217160   1.206   2.046   2.020
 5421SOL     OW17161   2.136   3.453   2.583
 5421SOL    HW117162   2.181   3.503   2.509
 5421SOL    HW217163   2.041   3.481   2.589
 5422SOL     OW17164   0.650   5.597   6.931
 5422SOL    HW117165   0.564   5.639   6.904
 5422SOL    HW217166   0.677   5.529   6.863
 5423SOL     OW17167   5.592   2.720   0.190
 5423SOL    HW117168   5.691   2.734   0.184
 5423SOL    HW217169   5.550   2.736   0.100
 5424SOL     OW17170   4.834   3.131   4.095
 5424SOL    HW117171   4.825   3.121   4.194
 5424SOL    HW217172   4.770   3.068   4.050
 5425SOL     OW17173   4.346   1.325   4.189
 5425SOL    HW117174   4.440   1.293   4.206
 5425SOL    HW217175   4.347   1.424   4.175
 5426SOL     OW17176   6.362   5.081   3.913
 5426SOL    HW117177   6.346   5.033   3.999
 5426SOL    HW217178   6.344   5.179   3.925
 5427SOL     OW17179   5.059   4.959   0.316
 5427SOL    HW117180   5.043   4.867   0.280
 5427SOL    HW217181   5.017   5.027   0.256
 5428SOL     OW17182   0.135   0.223   1.892
 5428SOL    HW117183   0.133   0.294   1.822
 5428SOL    HW217184   0.113   0.263   1.981
 5429SOL     OW17185   1.046   1.934   5.782
 5429SOL    HW117186   1.129   1.935   5.836
 5429SOL    HW217187   0.971   1.976   5.833
 5430SOL     OW17188   0.949   3.362   5.915
 5430SOL    HW117189   0.869   3.310   5.885
 5430SOL    HW217190   1.033   3.315   5.886
 5431SOL     OW17191   3.668   5.595   0.098
 5431SOL    HW117192   3.637   5.679   0.142
 5431SOL    HW217193   3.601   5.566   0.029
 5432SOL     OW17194   4.878   6.668   6.407
 5432SOL    HW117195   4.917   6.728   6.338
 5432SOL    HW217196   4.863   6.577   6.368
 5433SOL     OW17197   0.922   1.696   4.096
 5433SOL    HW117198   0.838   1.694   4.150
 5433SOL    HW217199   0.990   1.636   4.138
 5434SOL     OW17200   3.876   1.115   4.741
 5434SOL    HW117201   3.889   1.200   4.690
 5434SOL    HW217202   3.790   1.120   4.791
 5435SOL     OW17203   5.436   1.008   1.686
 5435SOL    HW117204   5.503   0.962   1.628
 5435SOL    HW217205   5.420   1.101   1.652
 5436SOL     OW17206   4.974   3.604   3.958
 5436SOL    HW117207   5.069   3.607   3.928
 5436SOL    HW217208   4.939   3.697   3.967
 5437SOL     OW17209   2.849   4.977   6.364
 5437SOL    HW117210   2.827   5.054   6.303
 5437SOL    HW217211   2.893   5.012   6.447
 5438SOL     OW17212   5.825   4.075   2.973
 5438SOL    HW117213   5.903   4.011   2.978
 5438SOL    HW217214   5.857   4.167   2.994
 5439SOL     OW17215   1.086   2.566   1.035
 5439SOL    HW117216   1.169   2.618   1.055
 5439SOL    HW217217   1.109   2.470   1.023
 5440SOL     OW17218   0.561   0.864   1.941
 5440SOL    HW117219   0.636   0.825   1.994
 5440SOL    HW217220   0.570   0.835   1.845
 5441SOL     OW17221   4.878   2.364   2.992
 5441SOL    HW117222   4.863   2.291   2.926
 5441SOL    HW217223   4.930   2.438   2.949
 5442SOL     OW17224   3.380   6.134   3.502
 5442SOL    HW117225   3.296   6.083   3.524
 5442SOL    HW217226   3.366   6.185   3.417
 5443SOL     OW17227   2.760   0.794   3.670
 5443SOL    HW117228   2.738   0.800   3.767
 5443SOL    HW217229   2.858   0.812   3.657
 5444SOL     OW17230   1.639   0.777   4.154
 5444SOL    HW117231   1.613   0.787   4.250
 5444SOL    HW217232   1.700   0.698   4.144
 5445SOL     OW17233   5.570   4.162   4.346
 5445SOL    HW117234   5.582   4.123   4.255
 5445SOL    HW217235   5.482   4.133   4.384
 5446SOL     OW17236   6.492   4.945   5.112
 5446SOL    HW117237   6.507   4.954   5.210
 5446SOL    HW217238   6.453   4.855   5.093
 5447SOL     OW17239   2.414   1.414   6.851
 5447SOL    HW117240   2.374   1.325   6.870
 5447SOL    HW217241   2.366   1.484   6.905
 5448SOL     OW17242   5.211   3.179   4.620
 5448SOL    HW117243   5.111   3.186   4.621
 5448SOL    HW217244   5.243   3.165   4.526
 5449SOL     OW17245   1.672   2.534   6.670
 5449SOL    HW117246   1.658   2.485   6.584
 5449SOL    HW217247   1.738   2.484   6.726
 5450SOL     OW17248   1.715   0.655   2.222
 5450SOL    HW117249   1.801   0.698   2.250
 5450SOL    HW217250   1.700   0.670   2.125
 5451SOL     OW17251   1.197   6.019   3.645
 5451SOL    HW117252   1.271   6.054   3.704
 5451SOL    HW217253   1.117   5.999   3.701
 5452SOL     OW17254   2.292   4.148   0.226
 5452SOL    HW117255   2.343   4.072   0.267
 5452SOL    HW217256   2.253   4.204   0.299
 5453SOL     OW17257   5.074   4.125   2.003
 5453SOL    HW117258   5.137   4.067   2.055
 5453SOL    HW217259   5.096   4.119   1.905
 5454SOL     OW17260   0.271   3.714   6.271
 5454SOL    HW117261   0.320   3.747   6.189
 5454SOL    HW217262   0.217   3.789   6.309
 5455SOL     OW17263   6.444   2.868   0.756
 5455SOL    HW117264   6.356   2.910   0.780
 5455SOL    HW217265   6.510   2.940   0.734
 5456SOL     OW17266   2.988   0.207   6.816
 5456SOL    HW117267   2.994   0.110   6.839
 5456SOL    HW217268   2.892   0.232   6.804
 5457SOL     OW17269   6.273   2.541   6.703
 5457SOL    HW117270   6.367   2.529   6.670
 5457SOL    HW217271   6.256   2.637   6.723
 5458SOL     OW17272   1.147   4.552   0.436
 5458SOL    HW117273   1.201   4.629   0.469
 5458SOL    HW217274   1.201   4.468   0.443
 5459SOL     OW17275   1.770   3.969   0.180
 5459SOL    HW117276   1.734   3.928   0.096
 5459SOL    HW217277   1.693   3.995   0.239
 5460SOL     OW17278   3.697   0.780   3.174
 5460SOL    HW117279   3.659   0.744   3.089
 5460SOL    HW217280   3.736   0.871   3.158
 5461SOL     OW17281   5.800   0.506   5.699
 5461SOL    HW117282   5.852   0.458   5.769
 5461SOL    HW217283   5.802   0.604   5.716
 5462SOL     OW17284   0.682   6.938   6.923
 5462SOL    HW117285   0.678   6.841   6.900
 5462SOL    HW217286   0.589   6.973   6.934
 5463SOL     OW17287   6.696   2.349   0.582
 5463SOL    HW117288   6.778   2.404   0.569
 5463SOL    HW217289   6.714   2.275   0.646
 5464SOL     OW17290   1.208   1.553   3.987
 5464SOL    HW117291   1.291   1.605   4.006
 5464SOL    HW217292   1.183   1.498   4.066
 5465SOL     OW17293   3.432   6.584   3.623
 5465SOL    HW117294   3.427   6.662   3.686
 5465SOL    HW217295   3.360   6.519   3.647
 5466SOL     OW17296   5.333   3.233   5.209
 5466SOL    HW117297   5.404   3.215   5.140
 5466SOL    HW217298   5.369   3.213   5.300
 5467SOL     OW17299   5.226   2.761   3.085
 5467SOL    HW117300   5.268   2.833   3.030
 5467SOL    HW217301   5.181   2.800   3.165
 5468SOL     OW17302   5.983   2.385   4.644
 5468SOL    HW117303   5.932   2.320   4.588
 5468SOL    HW217304   6.079   2.358   4.647
 5469SOL     OW17305   3.942   6.173   6.327
 5469SOL    HW117306   3.868   6.155   6.262
 5469SOL    HW217307   3.919   6.130   6.415
 5470SOL     OW17308   3.130   6.028   2.815
 5470SOL    HW117309   3.089   6.118   2.795
 5470SOL    HW217310   3.213   6.041   2.869
 5471SOL     OW17311   4.997   0.104   2.499
 5471SOL    HW117312   5.082   0.154   2.515
 5471SOL    HW217313   5.016   0.021   2.446
 5472SOL     OW17314   4.764   3.469   6.027
 5472SOL    HW117315   4.795   3.387   5.979
 5472SOL    HW217316   4.710   3.443   6.107
 5473SOL     OW17317   0.172   3.356   2.425
 5473SOL    HW117318   0.247   3.419   2.448
 5473SOL    HW217319   0.194   3.310   2.339
 5474SOL     OW17320   1.501   5.061   4.749
 5474SOL    HW117321   1.583   5.004   4.752
 5474SOL    HW217322   1.429   5.020   4.805
 5475SOL     OW17323   2.469   3.106   1.667
 5475SOL    HW117324   2.460   3.206   1.666
 5475SOL    HW217325   2.564   3.081   1.682
 5476SOL     OW17326   1.771   4.276   5.746
 5476SOL    HW117327   1.802   4.368   5.721
 5476SOL    HW217328   1.805   4.210   5.679
 5477SOL     OW17329   2.636   4.715   3.294
 5477SOL    HW117330   2.724   4.728   3.249
 5477SOL    HW217331   2.577   4.793   3.275
 5478SOL     OW17332   3.658   5.267   4.773
 5478SOL    HW117333   3.584   5.273   4.841
 5478SOL    HW217334   3.674   5.171   4.750
 5479SOL     OW17335   4.887   1.422   6.745
 5479SOL    HW117336   4.802   1.419   6.693
 5479SOL    HW217337   4.951   1.355   6.709
 5480SOL     OW17338   6.369   4.504   3.095
 5480SOL    HW117339   6.346   4.601   3.085
 5480SOL    HW217340   6.371   4.480   3.192
 5481SOL     OW17341   4.239   1.555   4.437
 5481SOL    HW117342   4.279   1.597   4.355
 5481SOL    HW217343   4.278   1.599   4.518
 5482SOL     OW17344   3.596   4.528   1.482
 5482SOL    HW117345   3.649   4.608   1.511
 5482SOL    HW217346   3.521   4.513   1.547
 5483SOL     OW17347   0.299   2.037   5.609
 5483SOL    HW117348   0.385   1.986   5.612
 5483SOL    HW217349   0.285   2.074   5.517
 5484SOL     OW17350   4.201   1.263   4.483
 5484SOL    HW117351   4.245   1.229   4.400
 5484SOL    HW217352   4.229   1.358   4.499
 5485SOL     OW17353   4.888   0.297   5.633
 5485SOL    HW117354   4.811   0.243   5.600
 5485SOL    HW217355   4.936   0.247   5.705
 5486SOL     OW17356   2.291   5.964   5.415
 5486SOL    HW117357   2.325   5.872   5.396
 5486SOL    HW217358   2.200   5.974   5.374
 5487SOL     OW17359   4.015   2.992   6.697
 5487SOL    HW117360   3.969   3.076   6.669
 5487SOL    HW217361   4.108   3.014   6.728
 5488SOL     OW17362   5.761   0.102   1.141
 5488SOL    HW117363   5.785   0.090   1.238
 5488SOL    HW217364   5.818   0.173   1.101
 5489SOL     OW17365   0.335   3.874   1.476
 5489SOL    HW117366   0.411   3.818   1.441
 5489SOL    HW217367   0.320   3.951   1.414
 5490SOL     OW17368   2.848   0.463   2.794
 5490SOL    HW117369   2.868   0.388   2.731
 5490SOL    HW217370   2.831   0.547   2.742
 5491SOL     OW17371   0.844   2.606   0.264
 5491SOL    HW117372   0.747   2.603   0.288
 5491SOL    HW217373   0.856   2.660   0.181
 5492SOL     OW17374   0.659   3.189   6.963
 5492SOL    HW117375   0.676   3.278   6.920
 5492SOL    HW217376   0.572   3.153   6.931
 5493SOL     OW17377   3.960   3.457   3.800
 5493SOL    HW117378   4.012   3.372   3.796
 5493SOL    HW217379   3.872   3.441   3.846
 5494SOL     OW17380   6.795   3.599   5.385
 5494SOL    HW117381   6.766   3.597   5.481
 5494SOL    HW217382   6.847   3.516   5.364
 5495SOL     OW17383   5.893   0.643   1.423
 5495SOL    HW117384   5.914   0.546   1.431
 5495SOL    HW217385   5.857   0.662   1.332
 5496SOL     OW17386   4.415   0.752   3.845
 5496SOL    HW117387   4.320   0.731   3.822
 5496SOL    HW217388   4.422   0.775   3.942
 5497SOL     OW17389   0.968   1.291   5.093
 5497SOL    HW117390   1.050   1.338   5.062
 5497SOL    HW217391   0.988   1.242   5.178
 5498SOL     OW17392   0.226   4.975   2.148
 5498SOL    HW117393   0.228   4.876   2.161
 5498SOL    HW217394   0.141   5.001   2.102
 5499SOL     OW17395   0.712   0.591   4.261
 5499SOL    HW117396   0.690   0.494   4.262
 5499SOL    HW217397   0.712   0.625   4.167
 5500SOL     OW17398   0.667   1.131   6.471
 5500SOL    HW117399   0.716   1.055   6.430
 5500SOL    HW217400   0.571   1.130   6.441
 5501SOL     OW17401   3.828   2.146   0.726
 5501SOL    HW117402   3.765   2.190   0.662
 5501SOL    HW217403   3.782   2.069   0.769
 5502SOL     OW17404   5.377   3.521   6.299
 5502SOL    HW117405   5.379   3.461   6.379
 5502SOL    HW217406   5.470   3.546   6.273
 5503SOL     OW17407   6.957   4.240   0.420
 5503SOL    HW117408   6.989   4.179   0.492
 5503SOL    HW217409   6.871   4.282   0.448
 5504SOL     OW17410   4.817   1.203   5.199
 5504SOL    HW117411   4.826   1.106   5.220
 5504SOL    HW217412   4.853   1.221   5.108
 5505SOL     OW17413   2.143   4.941   3.104
 5505SOL    HW117414   2.202   4.870   3.065
 5505SOL    HW217415   2.173   4.962   3.197
 5506SOL     OW17416   0.289   3.336   0.702
 5506SOL    HW117417   0.237   3.369   0.623
 5506SOL    HW217418   0.227   3.291   0.767
 5507SOL     OW17419   3.374   0.801   5.150
 5507SOL    HW117420   3.340   0.876   5.093
 5507SOL    HW217421   3.440   0.747   5.099
 5508SOL     OW17422   1.103   0.636   0.255
 5508SOL    HW117423   1.066   0.576   0.326
 5508SOL    HW217424   1.132   0.581   0.177
 5509SOL     OW17425   1.191   6.080   0.537
 5509SOL    HW117426   1.139   6.162   0.562
 5509SOL    HW217427   1.144   5.999   0.571
 5510SOL     OW17428   4.533   5.329   6.694
 5510SOL    HW117429   4.622   5.371   6.675
 5510SOL    HW217430   4.460   5.391   6.666
 5511SOL     OW17431   1.562   0.872   5.063
 5511SOL    HW117432   1.493   0.856   5.134
 5511SOL    HW217433   1.553   0.965   5.029
 5512SOL     OW17434   3.688   1.397   0.725
 5512SOL    HW117435   3.712   1.429   0.633
 5512SOL    HW217436   3.655   1.473   0.780
 5513SOL     OW17437   3.454   5.334   6.184
 5513SOL    HW117438   3.371   5.290   6.150
 5513SOL    HW217439   3.482   5.406   6.120
 5514SOL     OW17440   3.379   0.604   4.784
 5514SOL    HW117441   3.444   0.571   4.715
 5514SOL    HW217442   3.425   0.610   4.873
 5515SOL     OW17443   1.466   5.568   1.861
 5515SOL    HW117444   1.530   5.643   1.844
 5515SOL    HW217445   1.511   5.481   1.840
 5516SOL     OW17446   2.175   2.687   4.466
 5516SOL    HW117447   2.201   2.766   4.411
 5516SOL    HW217448   2.215   2.604   4.427
 5517SOL     OW17449   2.063   3.652   1.862
 5517SOL    HW117450   2.083   3.747   1.884
 5517SOL    HW217451   2.103   3.593   1.932
 5518SOL     OW17452   6.090   4.905   5.591
 5518SOL    HW117453   6.078   4.936   5.496
 5518SOL    HW217454   6.061   4.977   5.653
 5519SOL     OW17455   5.855   3.201   3.248
 5519SOL    HW117456   5.794   3.267   3.206
 5519SOL    HW217457   5.833   3.191   3.345
 5520SOL     OW17458   5.314   6.939   2.551
 5520SOL    HW117459   5.400   6.901   2.585
 5520SOL    HW217460   5.237   6.882   2.581
 5521SOL     OW17461   5.867   6.035   1.640
 5521SOL    HW117462   5.780   6.000   1.674
 5521SOL    HW217463   5.851   6.112   1.578
 5522SOL     OW17464   6.432   5.407   1.263
 5522SOL    HW117465   6.426   5.430   1.166
 5522SOL    HW217466   6.364   5.461   1.314
 5523SOL     OW17467   4.498   0.971   2.012
 5523SOL    HW117468   4.574   0.919   1.975
 5523SOL    HW217469   4.530   1.033   2.084
 5524SOL     OW17470   3.427   0.115   4.904
 5524SOL    HW117471   3.493   0.178   4.863
 5524SOL    HW217472   3.342   0.116   4.852
 5525SOL     OW17473   0.941   2.265   0.235
 5525SOL    HW117474   0.920   2.266   0.137
 5525SOL    HW217475   0.994   2.347   0.258
 5526SOL     OW17476   5.156   4.841   3.069
 5526SOL    HW117477   5.067   4.886   3.060
 5526SOL    HW217478   5.193   4.822   2.978
 5527SOL     OW17479   4.914   3.775   3.238
 5527SOL    HW117480   4.957   3.750   3.325
 5527SOL    HW217481   4.984   3.810   3.175
 5528SOL     OW17482   2.163   0.647   0.882
 5528SOL    HW117483   2.083   0.691   0.923
 5528SOL    HW217484   2.140   0.554   0.855
 5529SOL     OW17485   3.211   6.966   4.314
 5529SOL    HW117486   3.155   6.987   4.234
 5529SOL    HW217487   3.300   7.010   4.305
 5530SOL     OW17488   5.895   2.144   1.548
 5530SOL    HW117489   5.917   2.113   1.640
 5530SOL    HW217490   5.813   2.096   1.515
 5531SOL     OW17491   3.963   3.581   1.462
 5531SOL    HW117492   3.902   3.504   1.479
 5531SOL    HW217493   4.050   3.566   1.510
 5532SOL     OW17494   1.437   3.155   0.768
 5532SOL    HW117495   1.444   3.070   0.821
 5532SOL    HW217496   1.396   3.226   0.824
 5533SOL     OW17497   5.166   1.280   3.630
 5533SOL    HW117498   5.256   1.303   3.667
 5533SOL    HW217499   5.102   1.355   3.647
 5534SOL     OW17500   1.223   1.140   6.414
 5534SOL    HW117501   1.283   1.156   6.336
 5534SOL    HW217502   1.182   1.049   6.406
 5535SOL     OW17503   0.900   1.168   2.688
 5535SOL    HW117504   0.834   1.228   2.733
 5535SOL    HW217505   0.851   1.098   2.636
 5536SOL     OW17506   4.217   0.594   4.397
 5536SOL    HW117507   4.139   0.635   4.350
 5536SOL    HW217508   4.202   0.496   4.408
 5537SOL     OW17509   3.956   1.183   2.608
 5537SOL    HW117510   3.953   1.198   2.707
 5537SOL    HW217511   3.865   1.158   2.575
 5538SOL     OW17512   3.719   6.173   5.020
 5538SOL    HW117513   3.672   6.116   4.952
 5538SOL    HW217514   3.675   6.262   5.025
 5539SOL     OW17515   1.586   3.763   1.874
 5539SOL    HW117516   1.566   3.687   1.812
 5539SOL    HW217517   1.563   3.850   1.829
 5540SOL     OW17518   4.956   4.534   4.305
 5540SOL    HW117519   4.857   4.522   4.318
 5540SOL    HW217520   4.972   4.597   4.229
 5541SOL     OW17521   5.284   0.449   6.827
 5541SOL    HW117522   5.219   0.510   6.873
 5541SOL    HW217523   5.367   0.501   6.803
 5542SOL     OW17524   4.260   3.200   6.254
 5542SOL    HW117525   4.291   3.246   6.170
 5542SOL    HW217526   4.195   3.258   6.302
 5543SOL     OW17527   5.534   3.778   6.629
 5543SOL    HW117528   5.454   3.788   6.688
 5543SOL    HW217529   5.505   3.746   6.539
 5544SOL     OW17530   5.180   7.023   6.237
 5544SOL    HW117531   5.229   0.056   6.301
 5544SOL    HW217532   5.190   0.033   6.144
 5545SOL     OW17533   3.997   1.683   2.720
 5545SOL    HW117534   3.998   1.673   2.820
 5545SOL    HW217535   4.084   1.721   2.689
 5546SOL     OW17536   1.339   5.581   5.451
 5546SOL    HW117537   1.269   5.549   5.515
 5546SOL    HW217538   1.300   5.588   5.359
 5547SOL     OW17539   2.729   6.121   4.863
 5547SOL    HW117540   2.727   6.063   4.944
 5547SOL    HW217541   2.657   6.094   4.800
 5548SOL     OW17542   6.467   3.696   6.039
 5548SOL    HW117543   6.534   3.756   5.996
 5548SOL    HW217544   6.443   3.622   5.976
 5549SOL     OW17545   3.748   4.701   0.094
 5549SOL    HW117546   3.765   4.763   0.172
 5549SOL    HW217547   3.707   4.616   0.128
 5550SOL     OW17548   2.392   5.453   2.091
 5550SOL    HW117549   2.356   5.436   2.183
 5550SOL    HW217550   2.476   5.507   2.097
 5551SOL     OW17551   1.392   0.491   2.937
 5551SOL    HW117552   1.474   0.545   2.957
 5551SOL    HW217553   1.312   0.534   2.979
 5552SOL     OW17554   0.135   1.760   0.418
 5552SOL    HW117555   0.132   1.829   0.346
 5552SOL    HW217556   0.219   1.706   0.410
 5553SOL     OW17557   4.309   6.760   6.917
 5553SOL    HW117558   4.397   6.789   6.955
 5553SOL    HW217559   4.313   6.758   6.818
 5554SOL     OW17560   2.961   2.525   5.675
 5554SOL    HW117561   3.052   2.503   5.640
 5554SOL    HW217562   2.893   2.470   5.626
 5555SOL     OW17563   0.426   5.956   3.614
 5555SOL    HW117564   0.420   5.867   3.659
 5555SOL    HW217565   0.450   6.026   3.682
 5556SOL     OW17566   0.816   2.376   4.852
 5556SOL    HW117567   0.907   2.340   4.875
 5556SOL    HW217568   0.792   2.349   4.759
 5557SOL     OW17569   2.634   5.589   4.050
 5557SOL    HW117570   2.704   5.518   4.041
 5557SOL    HW217571   2.548   5.556   4.012
 5558SOL     OW17572   5.112   2.729   4.938
 5558SOL    HW117573   5.020   2.728   4.900
 5558SOL    HW217574   5.109   2.704   5.034
 5559SOL     OW17575   2.363   0.244   1.044
 5559SOL    HW117576   2.452   0.219   1.082
 5559SOL    HW217577   2.364   0.233   0.945
 5560SOL     OW17578   0.149   0.446   2.900
 5560SOL    HW117579   0.097   0.375   2.853
 5560SOL    HW217580   0.184   0.511   2.833
 5561SOL     OW17581   1.515   3.265   3.664
 5561SOL    HW117582   1.469   3.251   3.752
 5561SOL    HW217583   1.452   3.241   3.590
 5562SOL     OW17584   1.881   2.789   6.060
 5562SOL    HW117585   1.819   2.765   6.135
 5562SOL    HW217586   1.852   2.744   5.976
 5563SOL     OW17587   4.582   6.206   2.110
 5563SOL    HW117588   4.601   6.252   2.023
 5563SOL    HW217589   4.656   6.225   2.175
 5564SOL     OW17590   5.164   3.657   1.775
 5564SOL    HW117591   5.112   3.622   1.853
 5564SOL    HW217592   5.103   3.667   1.697
 5565SOL     OW17593   4.361   2.488   5.523
 5565SOL    HW117594   4.449   2.448   5.546
 5565SOL    HW217595   4.314   2.517   5.606
 5566SOL     OW17596   1.456   5.629   0.766
 5566SOL    HW117597   1.492   5.556   0.825
 5566SOL    HW217598   1.482   5.718   0.803
 5567SOL     OW17599   1.949   5.555   1.324
 5567SOL    HW117600   1.927   5.647   1.357
 5567SOL    HW217601   1.896   5.487   1.375
 5568SOL     OW17602   4.449   1.788   1.021
 5568SOL    HW117603   4.382   1.809   1.092
 5568SOL    HW217604   4.537   1.827   1.045
 5569SOL     OW17605   3.883   1.250   1.686
 5569SOL    HW117606   3.949   1.247   1.610
 5569SOL    HW217607   3.916   1.191   1.760
 5570SOL     OW17608   5.929   4.784   5.190
 5570SOL    HW117609   5.959   4.770   5.096
 5570SOL    HW217610   6.002   4.755   5.253
 5571SOL     OW17611   0.310   5.799   0.564
 5571SOL    HW117612   0.279   5.783   0.471
 5571SOL    HW217613   0.386   5.865   0.564
 5572SOL     OW17614   4.254   2.138   6.438
 5572SOL    HW117615   4.156   2.160   6.433
 5572SOL    HW217616   4.296   2.192   6.511
 5573SOL     OW17617   1.244   4.005   0.525
 5573SOL    HW117618   1.205   3.996   0.616
 5573SOL    HW217619   1.320   3.941   0.514
 5574SOL     OW17620   0.553   6.880   4.924
 5574SOL    HW117621   0.628   6.871   4.989
 5574SOL    HW217622   0.585   6.854   4.832
 5575SOL     OW17623   1.657   0.670   0.837
 5575SOL    HW117624   1.699   0.613   0.766
 5575SOL    HW217625   1.588   0.730   0.795
 5576SOL     OW17626   5.969   5.676   0.630
 5576SOL    HW117627   6.036   5.653   0.560
 5576SOL    HW217628   5.903   5.602   0.640
 5577SOL     OW17629   2.138   3.352   5.584
 5577SOL    HW117630   2.102   3.301   5.506
 5577SOL    HW217631   2.235   3.330   5.595
 5578SOL     OW17632   3.835   2.176   0.158
 5578SOL    HW117633   3.835   2.087   0.113
 5578SOL    HW217634   3.747   2.220   0.146
 5579SOL     OW17635   4.941   3.584   0.031
 5579SOL    HW117636   4.908   3.501   0.076
 5579SOL    HW217637   5.032   3.606   0.065
 5580SOL     OW17638   4.977   1.559   0.443
 5580SOL    HW117639   5.021   1.607   0.519
 5580SOL    HW217640   4.910   1.494   0.478
 5581SOL     OW17641   2.113   0.535   6.624
 5581SOL    HW117642   2.212   0.529   6.616
 5581SOL    HW217643   2.082   0.481   6.702
 5582SOL     OW17644   3.200   3.597   4.071
 5582SOL    HW117645   3.241   3.542   4.144
 5582SOL    HW217646   3.165   3.683   4.109
 5583SOL     OW17647   3.193   6.950   2.083
 5583SOL    HW117648   3.101   6.987   2.100
 5583SOL    HW217649   3.200   6.920   1.988
 5584SOL     OW17650   5.832   4.076   3.297
 5584SOL    HW117651   5.842   4.073   3.197
 5584SOL    HW217652   5.853   4.168   3.330
 5585SOL     OW17653   6.519   0.691   3.528
 5585SOL    HW117654   6.581   0.624   3.488
 5585SOL    HW217655   6.569   0.777   3.543
 5586SOL     OW17656   2.390   1.787   6.086
 5586SOL    HW117657   2.304   1.824   6.122
 5586SOL    HW217658   2.461   1.857   6.090
 5587SOL     OW17659   4.018   0.695   3.193
 5587SOL    HW117660   3.970   0.756   3.256
 5587SOL    HW217661   3.992   0.600   3.212
 5588SOL     OW17662   2.262   0.218   5.043
 5588SOL    HW117663   2.353   0.239   5.006
 5588SOL    HW217664   2.272   0.165   5.127
 5589SOL     OW17665   4.904   2.596   6.257
 5589SOL    HW117666   4.916   2.616   6.160
 5589SOL    HW217667   4.990   2.608   6.305
 5590SOL     OW17668   6.370   6.355   4.544
 5590SOL    HW117669   6.382   6.256   4.543
 5590SOL    HW217670   6.424   6.397   4.471
 5591SOL     OW17671   5.899   0.864   0.144
 5591SOL    HW117672   5.955   0.839   0.066
 5591SOL    HW217673   5.820   0.917   0.113
 5592SOL     OW17674   1.364   4.340   2.587
 5592SOL    HW117675   1.397   4.430   2.558
 5592SOL    HW217676   1.266   4.333   2.569
 5593SOL     OW17677   0.944   2.862   5.811
 5593SOL    HW117678   0.858   2.901   5.842
 5593SOL    HW217679   1.020   2.920   5.841
 5594SOL     OW17680   2.302   0.002   0.100
 5594SOL    HW117681   2.329   0.093   0.133
 5594SOL    HW217682   2.365   6.999   0.028
 5595SOL     OW17683   6.616   1.117   5.539
 5595SOL    HW117684   6.657   1.157   5.621
 5595SOL    HW217685   6.522   1.089   5.559
 5596SOL     OW17686   5.164   0.494   2.215
 5596SOL    HW117687   5.075   0.528   2.246
 5596SOL    HW217688   5.222   0.474   2.295
 5597SOL     OW17689   5.816   1.177   6.442
 5597SOL    HW117690   5.871   1.261   6.442
 5597SOL    HW217691   5.836   1.125   6.525
 5598SOL     OW17692   5.313   1.670   4.056
 5598SOL    HW117693   5.284   1.601   3.989
 5598SOL    HW217694   5.404   1.648   4.089
 5599SOL     OW17695   5.097   3.862   1.540
 5599SOL    HW117696   5.061   3.829   1.453
 5599SOL    HW217697   5.022   3.886   1.601
 5600SOL     OW17698   1.740   0.676   2.836
 5600SOL    HW117699   1.674   0.701   2.906
 5600SOL    HW217700   1.777   0.759   2.793
 5601SOL     OW17701   5.270   2.958   5.696
 5601SOL    HW117702   5.341   2.992   5.759
 5601SOL    HW217703   5.204   3.031   5.679
 5602SOL     OW17704   0.719   2.375   3.578
 5602SOL    HW117705   0.793   2.319   3.615
 5602SOL    HW217706   0.754   2.468   3.561
 5603SOL     OW17707   4.423   2.482   4.902
 5603SOL    HW117708   4.396   2.484   4.806
 5603SOL    HW217709   4.343   2.463   4.959
 5604SOL     OW17710   1.060   0.035   4.188
 5604SOL    HW117711   1.033   0.111   4.248
 5604SOL    HW217712   1.076   0.069   4.096
 5605SOL     OW17713   1.968   6.859   4.368
 5605SOL    HW117714   1.893   6.895   4.311
 5605SOL    HW217715   1.970   6.760   4.361
 5606SOL     OW17716   4.645   1.865   0.733
 5606SOL    HW117717   4.745   1.868   0.735
 5606SOL    HW217718   4.614   1.796   0.667
 5607SOL     OW17719   6.133   2.431   2.640
 5607SOL    HW117720   6.086   2.403   2.724
 5607SOL    HW217721   6.182   2.516   2.656
 5608SOL     OW17722   5.548   1.102   3.702
 5608SOL    HW117723   5.499   1.016   3.708
 5608SOL    HW217724   5.576   1.131   3.794
 5609SOL     OW17725   5.674   6.557   1.214
 5609SOL    HW117726   5.586   6.597   1.190
 5609SOL    HW217727   5.740   6.630   1.232
 5610SOL     OW17728   5.636   4.418   6.933
 5610SOL    HW117729   5.621   4.497   6.993
 5610SOL    HW217730   5.576   4.343   6.961
 5611SOL     OW17731   0.497   5.143   1.582
 5611SOL    HW117732   0.475   5.237   1.555
 5611SOL    HW217733   0.452   5.079   1.520
 5612SOL     OW17734   3.000   1.245   0.641
 5612SOL    HW117735   3.096   1.218   0.634
 5612SOL    HW217736   2.950   1.177   0.695
 5613SOL     OW17737   0.105   5.225   4.885
 5613SOL    HW117738   0.020   5.174   4.875
 5613SOL    HW217739   0.088   5.308   4.937
 5614SOL     OW17740   5.782   1.900   4.716
 5614SOL    HW117741   5.709   1.958   4.750
 5614SOL    HW217742   5.846   1.878   4.790
 5615SOL     OW17743   6.725   2.337   2.261
 5615SOL    HW117744   6.689   2.429   2.275
 5615SOL    HW217745   6.722   2.287   2.348
 5616SOL     OW17746   1.809   3.159   3.414
 5616SOL    HW117747   1.841   3.123   3.502
 5616SOL    HW217748   1.822   3.258   3.412
 5617SOL     OW17749   2.212   5.421   5.884
 5617SOL    HW117750   2.123   5.396   5.846
 5617SOL    HW217751   2.282   5.359   5.848
 5618SOL     OW17752   6.903   5.438   4.326
 5618SOL    HW117753   6.849   5.521   4.328
 5618SOL    HW217754   7.000   5.461   4.341
 5619SOL     OW17755   3.503   3.532   4.365
 5619SOL    HW117756   3.471   3.627   4.365
 5619SOL    HW217757   3.572   3.520   4.437
 5620SOL     OW17758   4.195   4.440   5.399
 5620SOL    HW117759   4.225   4.420   5.305
 5620SOL    HW217760   4.134   4.367   5.430
 5621SOL     OW17761   1.636   2.730   4.864
 5621SOL    HW117762   1.560   2.748   4.801
 5621SOL    HW217763   1.678   2.642   4.841
 5622SOL     OW17764   4.483   5.394   4.830
 5622SOL    HW117765   4.552   5.426   4.765
 5622SOL    HW217766   4.492   5.295   4.843
 5623SOL     OW17767   4.382   6.139   4.130
 5623SOL    HW117768   4.295   6.179   4.101
 5623SOL    HW217769   4.367   6.046   4.164
 5624SOL     OW17770   0.011   5.737   4.300
 5624SOL    HW117771   0.007   5.688   4.213
 5624SOL    HW217772   6.962   5.805   4.303
 5625SOL     OW17773   1.366   5.766   4.769
 5625SOL    HW117774   1.436   5.801   4.707
 5625SOL    HW217775   1.295   5.719   4.717
 5626SOL     OW17776   2.085   3.843   4.117
 5626SOL    HW117777   2.106   3.754   4.076
 5626SOL    HW217778   2.115   3.845   4.212
 5627SOL     OW17779   1.536   5.751   0.504
 5627SOL    HW117780   1.493   5.726   0.590
 5627SOL    HW217781   1.597   5.829   0.518
 5628SOL     OW17782   2.884   2.786   0.612
 5628SOL    HW117783   2.853   2.709   0.556
 5628SOL    HW217784   2.981   2.774   0.633
 5629SOL     OW17785   4.785   3.810   1.234
 5629SOL    HW117786   4.787   3.890   1.293
 5629SOL    HW217787   4.736   3.735   1.279
 5630SOL     OW17788   1.415   4.003   6.564
 5630SOL    HW117789   1.469   3.927   6.601
 5630SOL    HW217790   1.363   3.971   6.484
 5631SOL     OW17791   4.370   0.732   2.205
 5631SOL    HW117792   4.360   0.642   2.162
 5631SOL    HW217793   4.394   0.799   2.135
 5632SOL     OW17794   6.083   0.548   6.027
 5632SOL    HW117795   6.112   0.452   6.029
 5632SOL    HW217796   6.098   0.585   5.936
 5633SOL     OW17797   0.566   4.625   5.507
 5633SOL    HW117798   0.616   4.686   5.569
 5633SOL    HW217799   0.616   4.539   5.498
 5634SOL     OW17800   2.678   6.107   6.207
 5634SOL    HW117801   2.773   6.077   6.202
 5634SOL    HW217802   2.656   6.129   6.302
 5635SOL     OW17803   2.853   6.983   6.408
 5635SOL    HW117804   2.822   6.993   6.503
 5635SOL    HW217805   2.878   6.888   6.392
 5636SOL     OW17806   6.643   0.844   5.445
 5636SOL    HW117807   6.640   0.942   5.427
 5636SOL    HW217808   6.553   0.804   5.426
 5637SOL     OW17809   4.923   6.145   4.650
 5637SOL    HW117810   4.909   6.078   4.722
 5637SOL    HW217811   4.983   6.107   4.579
 5638SOL     OW17812   5.341   6.009   1.262
 5638SOL    HW117813   5.417   6.058   1.302
 5638SOL    HW217814   5.268   5.998   1.330
 5639SOL     OW17815   1.398   0.224   1.493
 5639SOL    HW117816   1.432   0.288   1.424
 5639SOL    HW217817   1.322   0.171   1.455
 5640SOL     OW17818   2.484   5.925   3.173
 5640SOL    HW117819   2.411   5.984   3.139
 5640SOL    HW217820   2.461   5.893   3.265
 5641SOL     OW17821   1.557   5.389   4.762
 5641SOL    HW117822   1.458   5.380   4.773
 5641SOL    HW217823   1.597   5.300   4.742
 5642SOL     OW17824   1.198   5.041   6.185
 5642SOL    HW117825   1.111   5.006   6.150
 5642SOL    HW217826   1.180   5.117   6.248
 5643SOL     OW17827   3.778   2.075   4.460
 5643SOL    HW117828   3.755   2.067   4.363
 5643SOL    HW217829   3.874   2.100   4.470
 5644SOL     OW17830   5.286   1.609   4.975
 5644SOL    HW117831   5.198   1.649   4.948
 5644SOL    HW217832   5.306   1.530   4.917
 5645SOL     OW17833   5.052   5.289   2.161
 5645SOL    HW117834   5.089   5.197   2.145
 5645SOL    HW217835   4.952   5.287   2.154
 5646SOL     OW17836   0.146   5.904   3.766
 5646SOL    HW117837   0.059   5.886   3.719
 5646SOL    HW217838   0.167   6.001   3.761
 5647SOL     OW17839   6.645   5.705   6.898
 5647SOL    HW117840   6.645   5.797   6.858
 5647SOL    HW217841   6.608   5.709   6.991
 5648SOL     OW17842   2.038   1.689   2.826
 5648SOL    HW117843   2.081   1.748   2.757
 5648SOL    HW217844   1.983   1.744   2.888
 5649SOL     OW17845   1.859   0.452   4.703
 5649SOL    HW117846   1.856   0.550   4.686
 5649SOL    HW217847   1.927   0.409   4.643
 5650SOL     OW17848   0.111   4.931   1.103
 5650SOL    HW117849   0.079   4.945   1.009
 5650SOL    HW217850   0.035   4.941   1.166
 5651SOL     OW17851   0.149   1.696   1.776
 5651SOL    HW117852   0.228   1.638   1.755
 5651SOL    HW217853   0.172   1.758   1.850
 5652SOL     OW17854   5.431   5.797   1.568
 5652SOL    HW117855   5.369   5.871   1.544
 5652SOL    HW217856   5.433   5.729   1.495
 5653SOL     OW17857   6.612   6.017   5.775
 5653SOL    HW117858   6.537   6.048   5.716
 5653SOL    HW217859   6.637   6.091   5.838
 5654SOL     OW17860   0.417   0.376   6.076
 5654SOL    HW117861   0.403   0.442   6.150
 5654SOL    HW217862   0.345   0.389   6.007
 5655SOL     OW17863   1.359   3.561   3.718
 5655SOL    HW117864   1.278   3.594   3.766
 5655SOL    HW217865   1.421   3.516   3.782
 5656SOL     OW17866   2.840   4.101   0.719
 5656SOL    HW117867   2.878   4.097   0.811
 5656SOL    HW217868   2.880   4.028   0.663
 5657SOL     OW17869   4.703   6.829   1.364
 5657SOL    HW117870   4.603   6.825   1.365
 5657SOL    HW217871   4.733   6.912   1.410
 5658SOL     OW17872   2.949   6.808   5.445
 5658SOL    HW117873   2.971   6.775   5.354
 5658SOL    HW217874   2.973   6.739   5.513
 5659SOL     OW17875   3.109   3.080   2.881
 5659SOL    HW117876   3.052   3.149   2.836
 5659SOL    HW217877   3.080   3.069   2.976
 5660SOL     OW17878   5.428   0.284   0.400
 5660SOL    HW117879   5.391   0.241   0.317
 5660SOL    HW217880   5.519   0.249   0.418
 5661SOL     OW17881   6.983   6.398   5.088
 5661SOL    HW117882   6.952   6.309   5.121
 5661SOL    HW217883   6.978   6.465   5.162
 5662SOL     OW17884   2.315   4.455   3.793
 5662SOL    HW117885   2.404   4.472   3.751
 5662SOL    HW217886   2.288   4.360   3.779
 5663SOL     OW17887   1.149   4.122   0.283
 5663SOL    HW117888   1.182   4.070   0.362
 5663SOL    HW217889   1.069   4.077   0.243
 5664SOL     OW17890   0.074   4.941   3.259
 5664SOL    HW117891   0.054   4.850   3.224
 5664SOL    HW217892   0.170   4.947   3.286
 5665SOL     OW17893   1.713   2.410   6.424
 5665SOL    HW117894   1.811   2.415   6.405
 5665SOL    HW217895   1.662   2.435   6.341
 5666SOL     OW17896   4.376   5.714   0.909
 5666SOL    HW117897   4.325   5.691   0.826
 5666SOL    HW217898   4.393   5.631   0.961
 5667SOL     OW17899   0.350   4.990   3.314
 5667SOL    HW117900   0.336   4.898   3.349
 5667SOL    HW217901   0.436   5.027   3.351
 5668SOL     OW17902   4.770   1.341   6.514
 5668SOL    HW117903   4.730   1.416   6.462
 5668SOL    HW217904   4.851   1.307   6.467
 5669SOL     OW17905   0.230   5.160   5.624
 5669SOL    HW117906   0.223   5.107   5.539
 5669SOL    HW217907   0.164   5.236   5.622
 5670SOL     OW17908   0.529   3.218   3.371
 5670SOL    HW117909   0.474   3.231   3.453
 5670SOL    HW217910   0.535   3.303   3.320
 5671SOL     OW17911   2.285   6.414   6.106
 5671SOL    HW117912   2.295   6.430   6.008
 5671SOL    HW217913   2.187   6.409   6.129
 5672SOL     OW17914   4.921   3.669   6.128
 5672SOL    HW117915   4.855   3.713   6.189
 5672SOL    HW217916   4.880   3.586   6.090
 5673SOL     OW17917   0.425   0.476   2.628
 5673SOL    HW117918   0.407   0.514   2.719
 5673SOL    HW217919   0.339   0.447   2.586
 5674SOL     OW17920   0.361   3.694   1.717
 5674SOL    HW117921   0.331   3.774   1.666
 5674SOL    HW217922   0.435   3.720   1.780
 5675SOL     OW17923   4.361   2.771   5.364
 5675SOL    HW117924   4.418   2.768   5.446
 5675SOL    HW217925   4.266   2.790   5.391
 5676SOL     OW17926   1.764   0.626   1.226
 5676SOL    HW117927   1.763   0.637   1.326
 5676SOL    HW217928   1.680   0.582   1.197
 5677SOL     OW17929   6.750   2.128   3.392
 5677SOL    HW117930   6.840   2.164   3.416
 5677SOL    HW217931   6.681   2.200   3.399
 5678SOL     OW17932   3.591   6.277   2.892
 5678SOL    HW117933   3.645   6.357   2.866
 5678SOL    HW217934   3.633   6.194   2.856
 5679SOL     OW17935   1.178   6.947   4.792
 5679SOL    HW117936   1.193   6.849   4.803
 5679SOL    HW217937   1.168   6.968   4.695
 5680SOL     OW17938   1.851   5.502   6.912
 5680SOL    HW117939   1.936   5.537   6.871
 5680SOL    HW217940   1.775   5.519   6.850
 5681SOL     OW17941   0.631   2.930   6.614
 5681SOL    HW117942   0.663   2.937   6.520
 5681SOL    HW217943   0.698   2.879   6.668
 5682SOL     OW17944   1.582   3.114   5.571
 5682SOL    HW117945   1.661   3.158   5.614
 5682SOL    HW217946   1.613   3.043   5.508
 5683SOL     OW17947   3.812   2.351   6.376
 5683SOL    HW117948   3.874   2.419   6.415
 5683SOL    HW217949   3.815   2.357   6.276
 5684SOL     OW17950   3.953   3.125   4.337
 5684SOL    HW117951   3.868   3.139   4.389
 5684SOL    HW217952   3.941   3.050   4.273
 5685SOL     OW17953   0.697   4.893   2.153
 5685SOL    HW117954   0.627   4.936   2.211
 5685SOL    HW217955   0.676   4.796   2.141
 5686SOL     OW17956   3.650   6.961   0.502
 5686SOL    HW117957   3.620   6.869   0.528
 5686SOL    HW217958   3.582   7.003   0.442
 5687SOL     OW17959   6.380   4.057   4.616
 5687SOL    HW117960   6.470   4.054   4.660
 5687SOL    HW217961   6.389   4.095   4.524
 5688SOL     OW17962   6.250   1.978   0.747
 5688SOL    HW117963   6.302   1.939   0.670
 5688SOL    HW217964   6.308   1.979   0.829
 5689SOL     OW17965   4.405   1.434   0.469
 5689SOL    HW117966   4.429   1.459   0.563
 5689SOL    HW217967   4.349   1.506   0.428
 5690SOL     OW17968   3.549   6.084   0.629
 5690SOL    HW117969   3.462   6.042   0.603
 5690SOL    HW217970   3.591   6.127   0.549
 5691SOL     OW17971   2.820   6.093   2.262
 5691SOL    HW117972   2.744   6.029   2.247
 5691SOL    HW217973   2.785   6.186   2.267
 5692SOL     OW17974   6.438   2.037   6.359
 5692SOL    HW117975   6.367   2.087   6.408
 5692SOL    HW217976   6.528   2.066   6.392
 5693SOL     OW17977   5.047   2.787   2.169
 5693SOL    HW117978   5.060   2.778   2.267
 5693SOL    HW217979   4.951   2.811   2.150
 5694SOL     OW17980   0.411   1.106   3.426
 5694SOL    HW117981   0.489   1.137   3.372
 5694SOL    HW217982   0.326   1.133   3.380
 5695SOL     OW17983   1.037   2.507   3.559
 5695SOL    HW117984   1.099   2.544   3.629
 5695SOL    HW217985   1.063   2.413   3.537
 5696SOL     OW17986   3.214   1.077   4.531
 5696SOL    HW117987   3.238   1.174   4.524
 5696SOL    HW217988   3.287   1.022   4.491
 5697SOL     OW17989   6.773   2.320   1.080
 5697SOL    HW117990   6.832   2.243   1.105
 5697SOL    HW217991   6.737   2.362   1.164
 5698SOL     OW17992   0.198   2.199   2.123
 5698SOL    HW117993   0.150   2.287   2.121
 5698SOL    HW217994   0.296   2.214   2.135
 5699SOL     OW17995   6.199   1.746   3.707
 5699SOL    HW117996   6.144   1.705   3.779
 5699SOL    HW217997   6.279   1.791   3.747
 5700SOL     OW17998   0.449   6.482   4.502
 5700SOL    HW117999   0.479   6.440   4.587
 5700SOL    HW218000   0.528   6.508   4.447
 5701SOL     OW18001   0.432   5.640   3.382
 5701SOL    HW118002   0.502   5.605   3.319
 5701SOL    HW218003   0.412   5.736   3.359
 5702SOL     OW18004   1.788   0.154   6.193
 5702SOL    HW118005   1.796   0.186   6.099
 5702SOL    HW218006   1.707   0.096   6.202
 5703SOL     OW18007   4.841   5.254   6.840
 5703SOL    HW118008   4.821   5.167   6.794
 5703SOL    HW218009   4.932   5.250   6.880
 5704SOL     OW18010   4.268   5.644   3.046
 5704SOL    HW118011   4.321   5.610   2.968
 5704SOL    HW218012   4.219   5.727   3.019
 5705SOL     OW18013   6.261   1.025   0.837
 5705SOL    HW118014   6.349   0.992   0.872
 5705SOL    HW218015   6.218   1.084   0.906
 5706SOL     OW18016   1.594   1.599   0.082
 5706SOL    HW118017   1.553   1.530   0.142
 5706SOL    HW218018   1.533   1.679   0.076
 5707SOL     OW18019   1.143   6.960   6.587
 5707SOL    HW118020   1.155   6.860   6.586
 5707SOL    HW218021   1.048   6.982   6.568
 5708SOL     OW18022   5.497   6.938   2.115
 5708SOL    HW118023   5.583   6.963   2.070
 5708SOL    HW218024   5.481   6.999   2.192
 5709SOL     OW18025   0.488   6.414   3.054
 5709SOL    HW118026   0.474   6.364   3.139
 5709SOL    HW218027   0.583   6.444   3.047
 5710SOL     OW18028   2.655   3.695   5.850
 5710SOL    HW118029   2.742   3.648   5.862
 5710SOL    HW218030   2.665   3.767   5.782
 5711SOL     OW18031   4.745   0.661   4.115
 5711SOL    HW118032   4.699   0.572   4.119
 5711SOL    HW218033   4.782   0.684   4.205
 5712SOL     OW18034   0.400   0.201   5.643
 5712SOL    HW118035   0.492   0.238   5.648
 5712SOL    HW218036   0.363   0.189   5.735
 5713SOL     OW18037   0.521   2.281   1.546
 5713SOL    HW118038   0.621   2.276   1.540
 5713SOL    HW218039   0.483   2.189   1.546
 5714SOL     OW18040   1.541   6.517   6.802
 5714SOL    HW118041   1.622   6.557   6.759
 5714SOL    HW218042   1.545   6.418   6.794
 5715SOL     OW18043   1.081   6.185   3.370
 5715SOL    HW118044   0.996   6.189   3.317
 5715SOL    HW218045   1.093   6.093   3.407
 5716SOL     OW18046   1.323   4.056   5.640
 5716SOL    HW118047   1.331   4.044   5.541
 5716SOL    HW218048   1.414   4.057   5.681
 5717SOL     OW18049   1.705   4.918   0.327
 5717SOL    HW118050   1.716   4.903   0.425
 5717SOL    HW218051   1.720   5.015   0.306
 5718SOL     OW18052   1.559   4.518   0.054
 5718SOL    HW118053   1.578   4.550   6.986
 5718SOL    HW218054   1.461   4.499   0.063
 5719SOL     OW18055   2.944   0.921   5.846
 5719SOL    HW118056   2.847   0.941   5.863
 5719SOL    HW218057   2.966   0.941   5.751
 5720SOL     OW18058   0.633   5.159   4.925
 5720SOL    HW118059   0.667   5.068   4.902
 5720SOL    HW218060   0.548   5.151   4.977
 5721SOL     OW18061   0.885   3.351   0.198
 5721SOL    HW118062   0.912   3.381   0.106
 5721SOL    HW218063   0.868   3.253   0.198
 5722SOL     OW18064   5.354   0.812   5.411
 5722SOL    HW118065   5.382   0.830   5.505
 5722SOL    HW218066   5.326   0.716   5.403
 5723SOL     OW18067   4.584   4.820   0.863
 5723SOL    HW118068   4.580   4.822   0.763
 5723SOL    HW218069   4.543   4.903   0.900
 5724SOL     OW18070   4.015   2.471   5.878
 5724SOL    HW118071   4.100   2.497   5.831
 5724SOL    HW218072   3.951   2.548   5.876
 5725SOL     OW18073   5.134   5.684   3.266
 5725SOL    HW118074   5.049   5.720   3.227
 5725SOL    HW218075   5.185   5.759   3.308
 5726SOL     OW18076   6.650   3.748   4.739
 5726SOL    HW118077   6.552   3.738   4.717
 5726SOL    HW218078   6.700   3.670   4.702
 5727SOL     OW18079   5.677   3.392   3.122
 5727SOL    HW118080   5.579   3.408   3.130
 5727SOL    HW218081   5.699   3.368   3.028
 5728SOL     OW18082   5.621   1.131   6.247
 5728SOL    HW118083   5.666   1.128   6.336
 5728SOL    HW218084   5.688   1.150   6.175
 5729SOL     OW18085   0.691   1.474   0.691
 5729SOL    HW118086   0.755   1.528   0.747
 5729SOL    HW218087   0.623   1.431   0.750
 5730SOL     OW18088   3.749   5.543   5.711
 5730SOL    HW118089   3.733   5.475   5.640
 5730SOL    HW218090   3.800   5.501   5.786
 5731SOL     OW18091   1.289   6.541   3.927
 5731SOL    HW118092   1.363   6.497   3.877
 5731SOL    HW218093   1.208   6.548   3.868
 5732SOL     OW18094   6.014   5.075   4.227
 5732SOL    HW118095   6.010   5.056   4.129
 5732SOL    HW218096   5.931   5.125   4.254
 5733SOL     OW18097   3.545   0.857   6.493
 5733SOL    HW118098   3.492   0.792   6.437
 5733SOL    HW218099   3.637   0.821   6.507
 5734SOL     OW18100   1.211   0.164   5.265
 5734SOL    HW118101   1.151   0.160   5.185
 5734SOL    HW218102   1.186   0.091   5.329
 5735SOL     OW18103   3.813   1.285   2.131
 5735SOL    HW118104   3.897   1.339   2.136
 5735SOL    HW218105   3.784   1.260   2.223
 5736SOL     OW18106   5.486   4.579   6.175
 5736SOL    HW118107   5.410   4.513   6.175
 5736SOL    HW218108   5.550   4.556   6.102
 5737SOL     OW18109   4.995   6.333   1.034
 5737SOL    HW118110   5.080   6.284   1.055
 5737SOL    HW218111   4.971   6.393   1.111
 5738SOL     OW18112   3.563   1.316   6.569
 5738SOL    HW118113   3.515   1.351   6.649
 5738SOL    HW218114   3.593   1.392   6.511
 5739SOL     OW18115   1.624   6.796   5.670
 5739SOL    HW118116   1.697   6.737   5.636
 5739SOL    HW218117   1.620   6.789   5.770
 5740SOL     OW18118   4.829   3.566   0.741
 5740SOL    HW118119   4.856   3.649   0.789
 5740SOL    HW218120   4.822   3.491   0.806
 5741SOL     OW18121   0.660   4.071   3.579
 5741SOL    HW118122   0.575   4.113   3.546
 5741SOL    HW218123   0.701   4.017   3.506
 5742SOL     OW18124   4.041   6.905   3.841
 5742SOL    HW118125   3.971   6.970   3.810
 5742SOL    HW218126   4.094   6.946   3.916
 5743SOL     OW18127   3.524   4.660   5.997
 5743SOL    HW118128   3.604   4.622   5.950
 5743SOL    HW218129   3.537   4.652   6.096
 5744SOL     OW18130   6.385   0.864   3.050
 5744SOL    HW118131   6.322   0.925   3.099
 5744SOL    HW218132   6.468   0.914   3.026
 5745SOL     OW18133   2.503   1.801   3.502
 5745SOL    HW118134   2.478   1.745   3.581
 5745SOL    HW218135   2.429   1.798   3.434
 5746SOL     OW18136   4.024   0.228   3.689
 5746SOL    HW118137   4.121   0.213   3.670
 5746SOL    HW218138   3.994   0.312   3.642
 5747SOL     OW18139   0.874   6.120   2.136
 5747SOL    HW118140   0.894   6.104   2.233
 5747SOL    HW218141   0.918   6.050   2.080
 5748SOL     OW18142   0.699   6.853   0.620
 5748SOL    HW118143   0.734   6.774   0.670
 5748SOL    HW218144   0.643   6.822   0.543
 5749SOL     OW18145   2.027   6.662   5.025
 5749SOL    HW118146   1.954   6.595   5.039
 5749SOL    HW218147   2.015   6.707   4.937
 5750SOL     OW18148   6.594   4.627   5.410
 5750SOL    HW118149   6.616   4.703   5.471
 5750SOL    HW218150   6.677   4.595   5.365
 5751SOL     OW18151   1.464   3.571   4.815
 5751SOL    HW118152   1.449   3.670   4.810
 5751SOL    HW218153   1.544   3.546   4.760
 5752SOL     OW18154   5.900   0.072   1.366
 5752SOL    HW118155   5.922   0.027   1.452
 5752SOL    HW218156   5.983   0.111   1.326
 5753SOL     OW18157   3.165   3.996   4.935
 5753SOL    HW118158   3.097   3.928   4.962
 5753SOL    HW218159   3.144   4.029   4.843
 5754SOL     OW18160   1.541   5.912   2.291
 5754SOL    HW118161   1.605   5.986   2.272
 5754SOL    HW218162   1.458   5.950   2.333
 5755SOL     OW18163   1.499   2.022   6.015
 5755SOL    HW118164   1.445   2.106   6.015
 5755SOL    HW218165   1.538   2.007   6.106
 5756SOL     OW18166   6.917   0.357   2.553
 5756SOL    HW118167   6.864   0.306   2.621
 5756SOL    HW218168   6.949   0.443   2.593
 5757SOL     OW18169   0.567   5.579   4.168
 5757SOL    HW118170   0.558   5.671   4.205
 5757SOL    HW218171   0.518   5.515   4.227
 5758SOL     OW18172   2.057   0.104   3.525
 5758SOL    HW118173   2.087   0.185   3.474
 5758SOL    HW218174   2.062   0.024   3.465
 5759SOL     OW18175   4.722   0.043   1.989
 5759SOL    HW118176   4.761   6.976   1.987
 5759SOL    HW218177   4.662   0.053   2.069
 5760SOL     OW18178   6.764   3.087   2.123
 5760SOL    HW118179   6.830   3.102   2.049
 5760SOL    HW218180   6.716   3.173   2.142
 5761SOL     OW18181   5.162   5.996   4.816
 5761SOL    HW118182   5.196   6.067   4.878
 5761SOL    HW218183   5.083   5.951   4.857
 5762SOL     OW18184   4.496   4.518   0.436
 5762SOL    HW118185   4.561   4.474   0.375
 5762SOL    HW218186   4.403   4.502   0.403
 5763SOL     OW18187   5.444   6.274   0.464
 5763SOL    HW118188   5.476   6.214   0.390
 5763SOL    HW218189   5.510   6.348   0.478
 5764SOL     OW18190   4.224   5.688   3.496
 5764SOL    HW118191   4.275   5.637   3.565
 5764SOL    HW218192   4.129   5.697   3.524
 5765SOL     OW18193   6.559   3.872   0.590
 5765SOL    HW118194   6.658   3.862   0.581
 5765SOL    HW218195   6.538   3.935   0.665
 5766SOL     OW18196   2.173   2.173   4.613
 5766SOL    HW118197   2.177   2.213   4.521
 5766SOL    HW218198   2.188   2.245   4.681
 5767SOL     OW18199   2.726   0.176   6.723
 5767SOL    HW118200   2.723   0.078   6.705
 5767SOL    HW218201   2.654   0.199   6.789
 5768SOL     OW18202   6.928   6.713   3.503
 5768SOL    HW118203   6.889   6.747   3.417
 5768SOL    HW218204   6.909   6.616   3.512
 5769SOL     OW18205   2.938   5.329   5.187
 5769SOL    HW118206   2.888   5.304   5.270
 5769SOL    HW218207   2.877   5.375   5.123
 5770SOL     OW18208   0.245   6.301   6.897
 5770SOL    HW118209   0.188   6.263   6.825
 5770SOL    HW218210   0.187   6.331   6.973
 5771SOL     OW18211   1.927   0.333   4.170
 5771SOL    HW118212   1.979   0.418   4.184
 5771SOL    HW218213   1.851   0.330   4.234
 5772SOL     OW18214   4.384   1.332   1.260
 5772SOL    HW118215   4.405   1.246   1.214
 5772SOL    HW218216   4.448   1.347   1.335
 5773SOL     OW18217   4.027   0.417   2.539
 5773SOL    HW118218   3.970   0.398   2.619
 5773SOL    HW218219   3.970   0.453   2.465
 5774SOL     OW18220   1.787   0.648   4.382
 5774SOL    HW118221   1.821   0.656   4.476
 5774SOL    HW218222   1.852   0.692   4.319
 5775SOL     OW18223   1.011   6.349   2.886
 5775SOL    HW118224   1.067   6.431   2.897
 5775SOL    HW218225   1.052   6.273   2.936
 5776SOL     OW18226   1.305   0.322   3.186
 5776SOL    HW118227   1.359   0.406   3.186
 5776SOL    HW218228   1.364   0.243   3.202
 5777SOL     OW18229   1.069   0.327   3.654
 5777SOL    HW118230   1.079   0.422   3.625
 5777SOL    HW218231   1.138   0.270   3.609
 5778SOL     OW18232   1.863   0.649   0.215
 5778SOL    HW118233   1.808   0.573   0.247
 5778SOL    HW218234   1.838   0.671   0.121
 5779SOL     OW18235   4.455   2.357   0.399
 5779SOL    HW118236   4.528   2.394   0.457
 5779SOL    HW218237   4.386   2.428   0.383
 5780SOL     OW18238   5.093   6.463   4.412
 5780SOL    HW118239   5.077   6.418   4.324
 5780SOL    HW218240   5.176   6.427   4.454
 5781SOL     OW18241   6.230   4.389   4.547
 5781SOL    HW118242   6.307   4.404   4.610
 5781SOL    HW218243   6.157   4.454   4.569
 5782SOL     OW18244   1.497   1.638   0.443
 5782SOL    HW118245   1.427   1.689   0.393
 5782SOL    HW218246   1.464   1.617   0.535
 5783SOL     OW18247   0.866   0.593   2.490
 5783SOL    HW118248   0.907   0.507   2.459
 5783SOL    HW218249   0.912   0.669   2.446
 5784SOL     OW18250   0.911   6.360   5.981
 5784SOL    HW118251   0.872   6.430   6.041
 5784SOL    HW218252   0.855   6.351   5.899
 5785SOL     OW18253   1.564   2.012   0.153
 5785SOL    HW118254   1.558   2.001   0.252
 5785SOL    HW218255   1.503   2.086   0.124
 5786SOL     OW18256   6.682   4.696   0.562
 5786SOL    HW118257   6.654   4.616   0.615
 5786SOL    HW218258   6.628   4.702   0.478
 5787SOL     OW18259   2.120   2.459   5.155
 5787SOL    HW118260   2.145   2.539   5.100
 5787SOL    HW218261   2.068   2.394   5.098
 5788SOL     OW18262   3.098   1.516   2.389
 5788SOL    HW118263   3.117   1.612   2.370
 5788SOL    HW218264   3.105   1.463   2.304
 5789SOL     OW18265   3.485   4.493   6.767
 5789SOL    HW118266   3.403   4.491   6.709
 5789SOL    HW218267   3.508   4.588   6.789
 5790SOL     OW18268   1.798   3.832   4.132
 5790SOL    HW118269   1.760   3.763   4.194
 5790SOL    HW218270   1.898   3.829   4.135
 5791SOL     OW18271   4.120   0.490   1.948
 5791SOL    HW118272   4.213   0.524   1.957
 5791SOL    HW218273   4.071   0.542   1.878
 5792SOL     OW18274   6.727   2.566   2.551
 5792SOL    HW118275   6.720   2.578   2.452
 5792SOL    HW218276   6.804   2.619   2.586
 5793SOL     OW18277   5.636   0.554   3.709
 5793SOL    HW118278   5.616   0.579   3.804
 5793SOL    HW218279   5.615   0.632   3.650
 5794SOL     OW18280   3.885   2.354   0.877
 5794SOL    HW118281   3.796   2.389   0.907
 5794SOL    HW218282   3.872   2.270   0.825
 5795SOL     OW18283   6.437   5.644   6.450
 5795SOL    HW118284   6.473   5.650   6.543
 5795SOL    HW218285   6.365   5.575   6.446
 5796SOL     OW18286   3.777   0.671   6.719
 5796SOL    HW118287   3.780   0.768   6.694
 5796SOL    HW218288   3.850   0.651   6.784
 5797SOL     OW18289   4.590   1.646   5.288
 5797SOL    HW118290   4.521   1.714   5.263
 5797SOL    HW218291   4.600   1.644   5.387
 5798SOL     OW18292   0.722   4.870   4.886
 5798SOL    HW118293   0.762   4.779   4.887
 5798SOL    HW218294   0.625   4.864   4.863
 5799SOL     OW18295   5.433   1.558   3.445
 5799SOL    HW118296   5.406   1.533   3.352
 5799SOL    HW218297   5.433   1.476   3.503
 5800SOL     OW18298   5.790   6.324   0.716
 5800SOL    HW118299   5.860   6.347   0.648
 5800SOL    HW218300   5.835   6.286   0.797
 5801SOL     OW18301   1.370   2.290   4.263
 5801SOL    HW118302   1.372   2.279   4.164
 5801SOL    HW218303   1.463   2.278   4.300
 5802SOL     OW18304   0.849   4.578   0.909
 5802SOL    HW118305   0.881   4.561   0.816
 5802SOL    HW218306   0.751   4.597   0.908
 5803SOL     OW18307   1.381   4.507   2.057
 5803SOL    HW118308   1.299   4.492   2.001
 5803SOL    HW218309   1.450   4.438   2.034
 5804SOL     OW18310   0.031   5.130   4.065
 5804SOL    HW118311   7.015   5.158   3.979
 5804SOL    HW218312   0.124   5.096   4.049
 5805SOL     OW18313   2.670   3.319   5.988
 5805SOL    HW118314   2.638   3.396   6.044
 5805SOL    HW218315   2.743   3.271   6.036
 5806SOL     OW18316   6.778   6.300   5.669
 5806SOL    HW118317   6.753   6.394   5.644
 5806SOL    HW218318   6.870   6.280   5.634
 5807SOL     OW18319   0.990   3.988   2.058
 5807SOL    HW118320   0.969   3.991   2.156
 5807SOL    HW218321   1.083   3.955   2.045
 5808SOL     OW18322   6.005   4.306   3.939
 5808SOL    HW118323   6.068   4.252   3.995
 5808SOL    HW218324   5.962   4.376   3.996
 5809SOL     OW18325   0.076   2.029   4.718
 5809SOL    HW118326   7.016   2.056   4.763
 5809SOL    HW218327   0.077   2.063   4.624
 5810SOL     OW18328   3.738   1.377   4.020
 5810SOL    HW118329   3.816   1.432   3.988
 5810SOL    HW218330   3.654   1.431   4.012
 5811SOL     OW18331   2.840   0.107   5.647
 5811SOL    HW118332   2.907   0.123   5.574
 5811SOL    HW218333   2.854   0.015   5.685
 5812SOL     OW18334   6.010   1.216   4.136
 5812SOL    HW118335   6.099   1.174   4.118
 5812SOL    HW218336   6.021   1.291   4.202
 5813SOL     OW18337   1.615   1.408   0.722
 5813SOL    HW118338   1.549   1.433   0.652
 5813SOL    HW218339   1.617   1.478   0.794
 5814SOL     OW18340   6.511   4.773   1.116
 5814SOL    HW118341   6.437   4.725   1.070
 5814SOL    HW218342   6.502   4.761   1.215
 5815SOL     OW18343   4.528   2.528   3.959
 5815SOL    HW118344   4.488   2.460   3.897
 5815SOL    HW218345   4.576   2.481   4.033
 5816SOL     OW18346   4.788   5.811   0.122
 5816SOL    HW118347   4.733   5.766   0.193
 5816SOL    HW218348   4.751   5.790   0.032
 5817SOL     OW18349   5.522   3.221   5.741
 5817SOL    HW118350   5.487   3.144   5.794
 5817SOL    HW218351   5.618   3.205   5.719
 5818SOL     OW18352   6.478   6.044   4.773
 5818SOL    HW118353   6.566   5.996   4.766
 5818SOL    HW218354   6.439   6.056   4.682
 5819SOL     OW18355   4.424   6.611   6.312
 5819SOL    HW118356   4.339   6.658   6.289
 5819SOL    HW218357   4.411   6.512   6.303
 5820SOL     OW18358   4.561   5.965   3.912
 5820SOL    HW118359   4.497   5.925   3.846
 5820SOL    HW218360   4.529   5.946   4.005
 5821SOL     OW18361   0.335   0.126   2.718
 5821SOL    HW118362   0.286   0.157   2.799
 5821SOL    HW218363   0.304   0.034   2.693
 5822SOL     OW18364   0.259   2.647   2.526
 5822SOL    HW118365   0.357   2.660   2.513
 5822SOL    HW218366   0.241   2.621   2.621
 5823SOL     OW18367   0.661   1.204   5.979
 5823SOL    HW118368   0.710   1.171   6.060
 5823SOL    HW218369   0.725   1.211   5.902
 5824SOL     OW18370   6.534   5.263   2.481
 5824SOL    HW118371   6.520   5.344   2.537
 5824SOL    HW218372   6.535   5.289   2.384
 5825SOL     OW18373   2.517   2.363   5.413
 5825SOL    HW118374   2.428   2.405   5.430
 5825SOL    HW218375   2.540   2.372   5.316
 5826SOL     OW18376   6.880   5.151   5.118
 5826SOL    HW118377   6.893   5.113   5.026
 5826SOL    HW218378   6.968   5.181   5.154
 5827SOL     OW18379   2.049   4.775   4.750
 5827SOL    HW118380   2.048   4.725   4.664
 5827SOL    HW218381   2.128   4.747   4.804
 5828SOL     OW18382   6.800   2.979   1.506
 5828SOL    HW118383   6.890   3.019   1.522
 5828SOL    HW218384   6.770   2.931   1.589
 5829SOL     OW18385   2.397   1.502   2.917
 5829SOL    HW118386   2.468   1.433   2.899
 5829SOL    HW218387   2.380   1.555   2.834
 5830SOL     OW18388   4.677   0.101   5.572
 5830SOL    HW118389   4.588   0.121   5.531
 5830SOL    HW218390   4.663   0.068   5.665
 5831SOL     OW18391   6.995   0.344   4.167
 5831SOL    HW118392   6.900   0.346   4.138
 5831SOL    HW218393   7.018   0.251   4.197
 5832SOL     OW18394   3.884   4.393   6.005
 5832SOL    HW118395   3.881   4.492   6.021
 5832SOL    HW218396   3.798   4.363   5.964
 5833SOL     OW18397   4.145   3.294   5.094
 5833SOL    HW118398   4.100   3.245   5.020
 5833SOL    HW218399   4.206   3.364   5.056
 5834SOL     OW18400   6.160   3.019   0.526
 5834SOL    HW118401   6.239   2.971   0.487
 5834SOL    HW218402   6.120   2.962   0.598
 5835SOL     OW18403   5.099   3.529   3.475
 5835SOL    HW118404   5.154   3.460   3.521
 5835SOL    HW218405   5.037   3.571   3.540
 5836SOL     OW18406   2.792   6.538   2.685
 5836SOL    HW118407   2.730   6.577   2.754
 5836SOL    HW218408   2.747   6.540   2.596
 5837SOL     OW18409   4.381   5.152   5.846
 5837SOL    HW118410   4.435   5.095   5.909
 5837SOL    HW218411   4.430   5.162   5.760
 5838SOL     OW18412   2.869   1.408   5.848
 5838SOL    HW118413   2.783   1.379   5.806
 5838SOL    HW218414   2.912   1.478   5.791
 5839SOL     OW18415   0.024   2.036   2.896
 5839SOL    HW118416   0.008   2.015   2.800
 5839SOL    HW218417   0.113   1.999   2.924
 5840SOL     OW18418   0.929   5.396   6.712
 5840SOL    HW118419   0.831   5.407   6.693
 5840SOL    HW218420   0.944   5.308   6.758
 5841SOL     OW18421   5.064   1.475   2.608
 5841SOL    HW118422   5.108   1.545   2.664
 5841SOL    HW218423   5.029   1.517   2.524
 5842SOL     OW18424   4.701   3.027   1.335
 5842SOL    HW118425   4.793   3.067   1.331
 5842SOL    HW218426   4.705   2.939   1.382
 5843SOL     OW18427   2.177   3.792   2.172
 5843SOL    HW118428   2.211   3.698   2.179
 5843SOL    HW218429   2.157   3.827   2.263
 5844SOL     OW18430   1.046   7.022   5.688
 5844SOL    HW118431   0.958   6.986   5.720
 5844SOL    HW218432   1.060   6.997   5.593
 5845SOL     OW18433   0.881   0.259   2.617
 5845SOL    HW118434   0.958   0.295   2.669
 5845SOL    HW218435   0.800   0.315   2.636
 5846SOL     OW18436   6.548   3.104   3.617
 5846SOL    HW118437   6.622   3.150   3.666
 5846SOL    HW218438   6.521   3.022   3.668
 5847SOL     OW18439   1.624   1.839   1.728
 5847SOL    HW118440   1.683   1.858   1.806
 5847SOL    HW218441   1.655   1.756   1.682
 5848SOL     OW18442   2.504   5.147   3.094
 5848SOL    HW118443   2.436   5.144   3.022
 5848SOL    HW218444   2.518   5.242   3.123
 5849SOL     OW18445   0.076   0.298   6.880
 5849SOL    HW118446   0.014   0.253   6.944
 5849SOL    HW218447   0.027   0.369   6.830
 5850SOL     OW18448   0.471   3.866   2.080
 5850SOL    HW118449   0.534   3.829   2.011
 5850SOL    HW218450   0.377   3.854   2.049
 5851SOL     OW18451   4.984   2.969   2.924
 5851SOL    HW118452   5.069   2.925   2.895
 5851SOL    HW218453   4.986   3.066   2.900
 5852SOL     OW18454   4.886   6.552   3.066
 5852SOL    HW118455   4.828   6.472   3.083
 5852SOL    HW218456   4.872   6.619   3.138
 5853SOL     OW18457   3.436   5.530   4.187
 5853SOL    HW118458   3.360   5.473   4.156
 5853SOL    HW218459   3.522   5.479   4.176
 5854SOL     OW18460   5.767   4.709   5.541
 5854SOL    HW118461   5.681   4.692   5.589
 5854SOL    HW218462   5.844   4.684   5.599
 5855SOL     OW18463   0.357   0.477   5.236
 5855SOL    HW118464   0.390   0.398   5.288
 5855SOL    HW218465   0.383   0.561   5.283
 5856SOL     OW18466   1.903   6.053   3.943
 5856SOL    HW118467   1.866   6.014   3.858
 5856SOL    HW218468   2.003   6.054   3.937
 5857SOL     OW18469   6.129   2.860   5.636
 5857SOL    HW118470   6.216   2.849   5.684
 5857SOL    HW218471   6.077   2.774   5.642
 5858SOL     OW18472   2.581   2.422   2.180
 5858SOL    HW118473   2.543   2.378   2.261
 5858SOL    HW218474   2.588   2.355   2.106
 5859SOL     OW18475   5.173   6.752   1.516
 5859SOL    HW118476   5.108   6.781   1.447
 5859SOL    HW218477   5.146   6.788   1.605
 5860SOL     OW18478   1.772   3.408   2.017
 5860SOL    HW118479   1.783   3.505   1.998
 5860SOL    HW218480   1.862   3.364   2.020
 5861SOL     OW18481   4.787   1.863   4.705
 5861SOL    HW118482   4.797   1.764   4.694
 5861SOL    HW218483   4.808   1.889   4.799
 5862SOL     OW18484   4.812   4.993   3.254
 5862SOL    HW118485   4.776   5.084   3.239
 5862SOL    HW218486   4.902   4.999   3.298
 5863SOL     OW18487   2.940   0.980   4.535
 5863SOL    HW118488   2.960   0.890   4.497
 5863SOL    HW218489   3.025   1.030   4.553
 5864SOL     OW18490   4.142   3.629   1.914
 5864SOL    HW118491   4.135   3.573   1.832
 5864SOL    HW218492   4.152   3.570   1.994
 5865SOL     OW18493   6.008   0.142   5.036
 5865SOL    HW118494   6.064   0.217   5.000
 5865SOL    HW218495   6.039   0.118   5.128
 5866SOL     OW18496   4.477   5.521   0.078
 5866SOL    HW118497   4.498   5.595   0.142
 5866SOL    HW218498   4.561   5.487   0.037
 5867SOL     OW18499   0.231   3.910   0.909
 5867SOL    HW118500   0.264   3.827   0.954
 5867SOL    HW218501   0.303   3.979   0.912
 5868SOL     OW18502   0.294   0.898   5.559
 5868SOL    HW118503   0.298   0.987   5.605
 5868SOL    HW218504   0.293   0.911   5.460
 5869SOL     OW18505   2.837   5.678   3.158
 5869SOL    HW118506   2.854   5.583   3.129
 5869SOL    HW218507   2.779   5.677   3.239
 5870SOL     OW18508   5.122   6.025   4.523
 5870SOL    HW118509   5.137   6.004   4.619
 5870SOL    HW218510   5.209   6.029   4.475
 5871SOL     OW18511   3.857   2.934   0.100
 5871SOL    HW118512   3.891   2.895   0.015
 5871SOL    HW218513   3.791   2.871   0.141
 5872SOL     OW18514   4.112   5.462   6.820
 5872SOL    HW118515   4.025   5.459   6.869
 5872SOL    HW218516   4.178   5.514   6.873
 5873SOL     OW18517   2.294   2.711   1.025
 5873SOL    HW118518   2.326   2.732   1.117
 5873SOL    HW218519   2.197   2.684   1.028
 5874SOL     OW18520   2.829   3.227   1.143
 5874SOL    HW118521   2.797   3.321   1.154
 5874SOL    HW218522   2.788   3.169   1.214
 5875SOL     OW18523   3.209   0.807   1.223
 5875SOL    HW118524   3.170   0.834   1.135
 5875SOL    HW218525   3.211   0.886   1.284
 5876SOL     OW18526   2.486   3.231   0.182
 5876SOL    HW118527   2.520   3.138   0.168
 5876SOL    HW218528   2.424   3.233   0.260
 5877SOL     OW18529   0.118   6.849   1.064
 5877SOL    HW118530   0.191   6.787   1.095
 5877SOL    HW218531   0.106   6.839   0.965
 5878SOL     OW18532   5.031   5.140   3.012
 5878SOL    HW118533   5.001   5.233   3.031
 5878SOL    HW218534   4.964   5.095   2.953
 5879SOL     OW18535   2.725   3.871   6.425
 5879SOL    HW118536   2.628   3.858   6.407
 5879SOL    HW218537   2.758   3.951   6.375
 5880SOL     OW18538   4.755   4.240   6.668
 5880SOL    HW118539   4.766   4.144   6.643
 5880SOL    HW218540   4.832   4.293   6.633
 5881SOL     OW18541   1.346   0.264   1.959
 5881SOL    HW118542   1.425   0.312   1.920
 5881SOL    HW218543   1.376   0.210   2.037
 5882SOL     OW18544   1.165   6.376   5.857
 5882SOL    HW118545   1.076   6.375   5.901
 5882SOL    HW218546   1.171   6.300   5.791
 5883SOL     OW18547   0.416   1.411   0.843
 5883SOL    HW118548   0.332   1.393   0.894
 5883SOL    HW218549   0.414   1.362   0.756
 5884SOL     OW18550   5.663   1.156   5.018
 5884SOL    HW118551   5.726   1.094   5.064
 5884SOL    HW218552   5.573   1.114   5.012
 5885SOL     OW18553   0.953   5.798   1.372
 5885SOL    HW118554   0.989   5.704   1.376
 5885SOL    HW218555   0.925   5.827   1.464
 5886SOL     OW18556   0.941   3.367   3.551
 5886SOL    HW118557   0.895   3.306   3.485
 5886SOL    HW218558   0.895   3.456   3.551
 5887SOL     OW18559   2.680   2.252   1.957
 5887SOL    HW118560   2.677   2.176   1.892
 5887SOL    HW218561   2.775   2.274   1.979
 5888SOL     OW18562   2.401   6.807   1.171
 5888SOL    HW118563   2.475   6.779   1.110
 5888SOL    HW218564   2.328   6.850   1.118
 5889SOL     OW18565   6.701   1.159   0.597
 5889SOL    HW118566   6.718   1.253   0.568
 5889SOL    HW218567   6.751   1.140   0.682
 5890SOL     OW18568   1.619   6.712   2.616
 5890SOL    HW118569   1.650   6.639   2.554
 5890SOL    HW218570   1.573   6.783   2.563
 5891SOL     OW18571   2.007   4.049   0.295
 5891SOL    HW118572   2.058   3.963   0.305
 5891SOL    HW218573   1.925   4.033   0.241
 5892SOL     OW18574   0.169   5.016   1.777
 5892SOL    HW118575   0.121   5.092   1.822
 5892SOL    HW218576   0.268   5.030   1.785
 5893SOL     OW18577   1.796   4.766   1.691
 5893SOL    HW118578   1.811   4.860   1.660
 5893SOL    HW218579   1.801   4.704   1.612
 5894SOL     OW18580   0.587   5.543   5.282
 5894SOL    HW118581   0.637   5.627   5.261
 5894SOL    HW218582   0.561   5.497   5.196
 5895SOL     OW18583   6.406   4.078   3.641
 5895SOL    HW118584   6.319   4.110   3.603
 5895SOL    HW218585   6.389   4.028   3.725
 5896SOL     OW18586   5.197   1.462   1.043
 5896SOL    HW118587   5.135   1.535   1.070
 5896SOL    HW218588   5.147   1.395   0.988
 5897SOL     OW18589   3.596   1.052   1.682
 5897SOL    HW118590   3.502   1.020   1.687
 5897SOL    HW218591   3.621   1.068   1.586
 5898SOL     OW18592   2.564   1.642   5.520
 5898SOL    HW118593   2.623   1.626   5.600
 5898SOL    HW218594   2.495   1.709   5.543
 5899SOL     OW18595   6.822   5.490   6.166
 5899SOL    HW118596   6.874   5.575   6.166
 5899SOL    HW218597   6.789   5.471   6.258
 5900SOL     OW18598   7.006   5.462   3.200
 5900SOL    HW118599   6.968   5.370   3.205
 5900SOL    HW218600   0.066   5.466   3.252
 5901SOL     OW18601   2.031   1.189   0.627
 5901SOL    HW118602   1.961   1.117   0.629
 5901SOL    HW218603   1.987   1.279   0.628
 5902SOL     OW18604   5.695   3.160   5.307
 5902SOL    HW118605   5.787   3.142   5.342
 5902SOL    HW218606   5.659   3.078   5.263
 5903SOL     OW18607   4.991   2.998   6.825
 5903SOL    HW118608   5.086   3.019   6.803
 5903SOL    HW218609   4.989   2.936   6.904
 5904SOL     OW18610   1.208   4.281   0.897
 5904SOL    HW118611   1.221   4.321   0.988
 5904SOL    HW218612   1.273   4.323   0.833
 5905SOL     OW18613   5.888   1.139   3.700
 5905SOL    HW118614   5.808   1.170   3.752
 5905SOL    HW218615   5.879   1.042   3.680
 5906SOL     OW18616   4.956   1.840   5.332
 5906SOL    HW118617   4.910   1.766   5.283
 5906SOL    HW218618   4.906   1.860   5.416
 5907SOL     OW18619   1.600   0.012   0.410
 5907SOL    HW118620   1.615   6.988   0.325
 5907SOL    HW218621   1.666   0.087   0.418
 5908SOL     OW18622   5.254   3.885   0.018
 5908SOL    HW118623   5.289   3.791   0.018
 5908SOL    HW218624   5.155   3.884   0.025
 5909SOL     OW18625   0.565   4.948   6.208
 5909SOL    HW118626   0.497   4.908   6.269
 5909SOL    HW218627   0.633   4.878   6.184
 5910SOL     OW18628   0.984   4.642   6.933
 5910SOL    HW118629   0.999   4.658   0.005
 5910SOL    HW218630   1.055   4.689   6.880
 5911SOL     OW18631   0.468   5.875   6.021
 5911SOL    HW118632   0.528   5.814   6.073
 5911SOL    HW218633   0.393   5.822   5.982
 5912SOL     OW18634   6.173   3.338   6.313
 5912SOL    HW118635   6.117   3.347   6.231
 5912SOL    HW218636   6.128   3.276   6.378
 5913SOL     OW18637   2.057   2.816   5.679
 5913SOL    HW118638   1.960   2.819   5.654
 5913SOL    HW218639   2.082   2.723   5.705
 5914SOL     OW18640   2.854   5.317   6.981
 5914SOL    HW118641   2.884   5.407   7.013
 5914SOL    HW218642   2.869   5.249   0.028
 5915SOL     OW18643   5.590   3.550   1.843
 5915SOL    HW118644   5.619   3.580   1.752
 5915SOL    HW218645   5.519   3.612   1.877
 5916SOL     OW18646   4.407   0.479   5.630
 5916SOL    HW118647   4.495   0.441   5.658
 5916SOL    HW218648   4.385   0.557   5.688
 5917SOL     OW18649   3.660   3.603   3.371
 5917SOL    HW118650   3.603   3.523   3.352
 5917SOL    HW218651   3.602   3.677   3.406
 5918SOL     OW18652   2.161   3.547   4.741
 5918SOL    HW118653   2.214   3.477   4.789
 5918SOL    HW218654   2.170   3.635   4.788
 5919SOL     OW18655   3.117   2.273   6.724
 5919SOL    HW118656   3.184   2.317   6.664
 5919SOL    HW218657   3.027   2.312   6.707
 5920SOL     OW18658   3.696   6.711   6.952
 5920SOL    HW118659   3.784   6.748   6.922
 5920SOL    HW218660   3.684   6.729   0.024
 5921SOL     OW18661   3.737   5.323   5.544
 5921SOL    HW118662   3.816   5.302   5.486
 5921SOL    HW218663   3.696   5.238   5.577
 5922SOL     OW18664   6.307   5.114   3.650
 5922SOL    HW118665   6.301   5.212   3.629
 5922SOL    HW218666   6.327   5.102   3.748
 5923SOL     OW18667   6.367   1.352   2.496
 5923SOL    HW118668   6.307   1.335   2.574
 5923SOL    HW218669   6.319   1.408   2.428
 5924SOL     OW18670   5.799   3.082   5.021
 5924SOL    HW118671   5.892   3.073   5.056
 5924SOL    HW218672   5.736   3.031   5.080
 5925SOL     OW18673   4.449   6.677   3.036
 5925SOL    HW118674   4.478   6.756   3.091
 5925SOL    HW218675   4.350   6.678   3.028
 5926SOL     OW18676   3.224   5.139   1.970
 5926SOL    HW118677   3.271   5.055   1.998
 5926SOL    HW218678   3.215   5.200   2.048
 5927SOL     OW18679   2.102   4.452   2.313
 5927SOL    HW118680   2.152   4.418   2.233
 5927SOL    HW218681   2.083   4.376   2.375
 5928SOL     OW18682   3.276   0.462   2.497
 5928SOL    HW118683   3.370   0.440   2.522
 5928SOL    HW218684   3.253   0.416   2.411
 5929SOL     OW18685   0.736   6.301   5.749
 5929SOL    HW118686   0.677   6.250   5.686
 5929SOL    HW218687   0.680   6.363   5.804
 5930SOL     OW18688   6.499   1.533   3.508
 5930SOL    HW118689   6.482   1.629   3.487
 5930SOL    HW218690   6.567   1.496   3.444
 5931SOL     OW18691   5.642   4.850   2.637
 5931SOL    HW118692   5.597   4.761   2.635
 5931SOL    HW218693   5.727   4.843   2.691
 5932SOL     OW18694   2.857   6.097   1.013
 5932SOL    HW118695   2.807   6.075   0.929
 5932SOL    HW218696   2.826   6.185   1.049
 5933SOL     OW18697   6.759   4.798   2.518
 5933SOL    HW118698   6.711   4.881   2.489
 5933SOL    HW218699   6.693   4.726   2.535
 5934SOL     OW18700   3.438   4.092   3.772
 5934SOL    HW118701   3.414   4.077   3.676
 5934SOL    HW218702   3.535   4.114   3.779
 5935SOL     OW18703   4.078   3.580   4.499
 5935SOL    HW118704   4.088   3.488   4.461
 5935SOL    HW218705   4.066   3.573   4.598
 5936SOL     OW18706   4.655   3.551   6.551
 5936SOL    HW118707   4.613   3.478   6.605
 5936SOL    HW218708   4.709   3.610   6.612
 5937SOL     OW18709   0.511   4.429   1.956
 5937SOL    HW118710   0.471   4.438   1.865
 5937SOL    HW218711   0.479   4.345   1.999
 5938SOL     OW18712   1.233   5.170   4.118
 5938SOL    HW118713   1.204   5.124   4.202
 5938SOL    HW218714   1.321   5.133   4.088
 5939SOL     OW18715   3.145   0.265   3.097
 5939SOL    HW118716   3.203   0.227   3.169
 5939SOL    HW218717   3.064   0.307   3.139
 5940SOL     OW18718   4.221   6.750   2.521
 5940SOL    HW118719   4.268   6.776   2.437
 5940SOL    HW218720   4.135   6.802   2.528
 5941SOL     OW18721   6.166   4.079   1.988
 5941SOL    HW118722   6.070   4.088   2.015
 5941SOL    HW218723   6.200   3.989   2.013
 5942SOL     OW18724   4.857   2.413   0.302
 5942SOL    HW118725   4.865   2.506   0.338
 5942SOL    HW218726   4.945   2.384   0.265
 5943SOL     OW18727   3.395   5.405   0.141
 5943SOL    HW118728   3.390   5.307   0.123
 5943SOL    HW218729   3.389   5.455   0.055
 5944SOL     OW18730   5.281   1.566   1.652
 5944SOL    HW118731   5.239   1.536   1.738
 5944SOL    HW218732   5.349   1.637   1.672
 5945SOL     OW18733   0.088   5.377   5.598
 5945SOL    HW118734   0.131   5.467   5.599
 5945SOL    HW218735   0.030   5.369   5.517
 5946SOL     OW18736   3.368   3.141   5.642
 5946SOL    HW118737   3.395   3.143   5.738
 5946SOL    HW218738   3.358   3.046   5.612
 5947SOL     OW18739   3.837   3.434   1.827
 5947SOL    HW118740   3.741   3.415   1.804
 5947SOL    HW218741   3.896   3.372   1.776
 5948SOL     OW18742   4.157   5.292   3.237
 5948SOL    HW118743   4.245   5.335   3.261
 5948SOL    HW218744   4.136   5.310   3.141
 5949SOL     OW18745   3.880   4.010   0.996
 5949SOL    HW118746   3.787   3.991   0.965
 5949SOL    HW218747   3.943   3.947   0.951
 5950SOL     OW18748   5.133   3.054   5.267
 5950SOL    HW118749   5.198   3.115   5.221
 5950SOL    HW218750   5.176   2.964   5.281
 5951SOL     OW18751   0.670   6.293   5.272
 5951SOL    HW118752   0.640   6.358   5.341
 5951SOL    HW218753   0.593   6.235   5.245
 5952SOL     OW18754   6.242   6.357   3.927
 5952SOL    HW118755   6.147   6.363   3.955
 5952SOL    HW218756   6.248   6.341   3.829
 5953SOL     OW18757   6.782   2.678   5.792
 5953SOL    HW118758   6.726   2.723   5.722
 5953SOL    HW218759   6.821   2.747   5.853
 5954SOL     OW18760   6.830   4.606   5.286
 5954SOL    HW118761   6.848   4.702   5.267
 5954SOL    HW218762   6.859   4.585   5.379
 5955SOL     OW18763   6.053   6.010   2.522
 5955SOL    HW118764   6.066   6.015   2.621
 5955SOL    HW218765   6.020   5.920   2.497
 5956SOL     OW18766   3.032   1.943   0.679
 5956SOL    HW118767   3.104   1.890   0.634
 5956SOL    HW218768   2.943   1.903   0.658
 5957SOL     OW18769   4.588   0.288   5.907
 5957SOL    HW118770   4.647   0.353   5.956
 5957SOL    HW218771   4.631   0.198   5.908
 5958SOL     OW18772   5.678   6.757   3.082
 5958SOL    HW118773   5.611   6.820   3.042
 5958SOL    HW218774   5.763   6.762   3.029
 5959SOL     OW18775   3.321   1.586   5.799
 5959SOL    HW118776   3.412   1.603   5.762
 5959SOL    HW218777   3.263   1.666   5.783
 5960SOL     OW18778   3.496   6.786   4.686
 5960SOL    HW118779   3.399   6.806   4.698
 5960SOL    HW218780   3.505   6.704   4.629
 5961SOL     OW18781   4.631   1.156   3.966
 5961SOL    HW118782   4.621   1.181   4.063
 5961SOL    HW218783   4.655   1.060   3.959
 5962SOL     OW18784   5.076   5.982   2.164
 5962SOL    HW118785   5.086   6.029   2.077
 5962SOL    HW218786   5.002   5.914   2.157
 5963SOL     OW18787   3.675   2.902   4.832
 5963SOL    HW118788   3.595   2.961   4.838
 5963SOL    HW218789   3.646   2.808   4.816
 5964SOL     OW18790   0.182   5.282   6.125
 5964SOL    HW118791   0.222   5.350   6.062
 5964SOL    HW218792   0.242   5.202   6.130
 5965SOL     OW18793   2.008   1.935   5.813
 5965SOL    HW118794   1.942   2.009   5.825
 5965SOL    HW218795   1.985   1.859   5.874
 5966SOL     OW18796   3.142   5.318   6.012
 5966SOL    HW118797   3.106   5.386   5.947
 5966SOL    HW218798   3.210   5.261   5.966
 5967SOL     OW18799   4.030   6.198   1.918
 5967SOL    HW118800   4.115   6.183   1.968
 5967SOL    HW218801   3.993   6.110   1.888
 5968SOL     OW18802   5.643   1.696   3.180
 5968SOL    HW118803   5.683   1.608   3.204
 5968SOL    HW218804   5.687   1.732   3.098
 5969SOL     OW18805   6.731   1.950   5.278
 5969SOL    HW118806   6.831   1.950   5.287
 5969SOL    HW218807   6.698   2.044   5.269
 5970SOL     OW18808   0.441   4.766   2.377
 5970SOL    HW118809   0.350   4.766   2.336
 5970SOL    HW218810   0.456   4.681   2.428
 5971SOL     OW18811   2.450   0.536   2.910
 5971SOL    HW118812   2.381   0.465   2.894
 5971SOL    HW218813   2.421   0.621   2.865
 5972SOL     OW18814   4.404   6.324   0.444
 5972SOL    HW118815   4.452   6.355   0.362
 5972SOL    HW218816   4.471   6.303   0.516
 5973SOL     OW18817   1.840   5.060   2.687
 5973SOL    HW118818   1.778   5.085   2.762
 5973SOL    HW218819   1.858   4.962   2.691
 5974SOL     OW18820   5.496   4.092   6.393
 5974SOL    HW118821   5.585   4.060   6.427
 5974SOL    HW218822   5.444   4.015   6.357
 5975SOL     OW18823   3.653   2.478   0.944
 5975SOL    HW118824   3.637   2.501   1.040
 5975SOL    HW218825   3.603   2.542   0.885
 5976SOL     OW18826   2.717   3.570   5.348
 5976SOL    HW118827   2.656   3.510   5.399
 5976SOL    HW218828   2.683   3.664   5.351
 5977SOL     OW18829   1.920   4.723   1.424
 5977SOL    HW118830   2.018   4.729   1.441
 5977SOL    HW218831   1.903   4.665   1.344
 5978SOL     OW18832   5.491   5.136   3.253
 5978SOL    HW118833   5.551   5.205   3.292
 5978SOL    HW218834   5.407   5.179   3.221
 5979SOL     OW18835   6.728   0.786   2.723
 5979SOL    HW118836   6.730   0.785   2.623
 5979SOL    HW218837   6.647   0.739   2.756
 5980SOL     OW18838   3.755   3.660   6.617
 5980SOL    HW118839   3.768   3.704   6.528
 5980SOL    HW218840   3.666   3.614   6.618
 5981SOL     OW18841   6.347   1.672   1.996
 5981SOL    HW118842   6.404   1.636   1.923
 5981SOL    HW218843   6.362   1.620   2.080
 5982SOL     OW18844   6.012   2.154   6.989
 5982SOL    HW118845   5.920   2.119   6.970
 5982SOL    HW218846   6.028   2.237   6.936
 5983SOL     OW18847   2.739   1.623   4.454
 5983SOL    HW118848   2.831   1.658   4.472
 5983SOL    HW218849   2.672   1.672   4.510
 5984SOL     OW18850   0.272   6.975   4.690
 5984SOL    HW118851   0.353   6.943   4.640
 5984SOL    HW218852   0.237   0.033   4.647
 5985SOL     OW18853   5.352   3.068   4.360
 5985SOL    HW118854   5.429   3.075   4.296
 5985SOL    HW218855   5.289   2.997   4.330
 5986SOL     OW18856   2.910   3.544   4.264
 5986SOL    HW118857   2.943   3.479   4.333
 5986SOL    HW218858   2.879   3.627   4.310
 5987SOL     OW18859   4.465   1.631   4.921
 5987SOL    HW118860   4.511   1.720   4.921
 5987SOL    HW218861   4.391   1.632   4.987
 5988SOL     OW18862   4.428   5.673   4.834
 5988SOL    HW118863   4.365   5.722   4.774
 5988SOL    HW218864   4.424   5.576   4.813
 5989SOL     OW18865   2.747   5.931   6.635
 5989SOL    HW118866   2.771   5.835   6.647
 5989SOL    HW218867   2.660   5.939   6.587
 5990SOL     OW18868   4.162   4.071   0.801
 5990SOL    HW118869   4.259   4.063   0.824
 5990SOL    HW218870   4.137   4.000   0.735
 5991SOL     OW18871   4.550   4.771   5.157
 5991SOL    HW118872   4.585   4.816   5.238
 5991SOL    HW218873   4.477   4.827   5.116
 5992SOL     OW18874   3.789   0.666   3.951
 5992SOL    HW118875   3.809   0.668   4.049
 5992SOL    HW218876   3.845   0.597   3.907
 5993SOL     OW18877   4.005   6.911   5.783
 5993SOL    HW118878   4.061   6.829   5.771
 5993SOL    HW218879   3.930   6.892   5.846
 5994SOL     OW18880   6.085   2.129   2.356
 5994SOL    HW118881   6.174   2.103   2.318
 5994SOL    HW218882   6.075   2.228   2.352
 5995SOL     OW18883   6.432   4.979   1.844
 5995SOL    HW118884   6.404   4.922   1.921
 5995SOL    HW218885   6.352   5.003   1.789
 5996SOL     OW18886   0.717   5.174   0.194
 5996SOL    HW118887   0.808   5.206   0.220
 5996SOL    HW218888   0.670   5.246   0.143
 5997SOL     OW18889   0.740   6.545   2.708
 5997SOL    HW118890   0.675   6.620   2.695
 5997SOL    HW218891   0.709   6.465   2.657
 5998SOL     OW18892   5.668   3.292   2.232
 5998SOL    HW118893   5.704   3.286   2.139
 5998SOL    HW218894   5.613   3.211   2.252
 5999SOL     OW18895   0.994   2.375   2.481
 5999SOL    HW118896   0.971   2.285   2.444
 5999SOL    HW218897   0.970   2.378   2.578
 6000SOL     OW18898   4.238   5.830   1.757
 6000SOL    HW118899   4.231   5.867   1.665
 6000SOL    HW218900   4.149   5.836   1.803
 6001SOL     OW18901   0.629   4.102   6.101
 6001SOL    HW118902   0.611   4.196   6.073
 6001SOL    HW218903   0.658   4.101   6.196
 6002SOL     OW18904   0.365   6.601   1.462
 6002SOL    HW118905   0.422   6.592   1.380
 6002SOL    HW218906   0.295   6.530   1.461
 6003SOL     OW18907   6.298   2.340   4.630
 6003SOL    HW118908   6.391   2.373   4.610
 6003SOL    HW218909   6.302   2.244   4.657
 6004SOL     OW18910   0.451   4.428   3.409
 6004SOL    HW118911   0.390   4.424   3.329
 6004SOL    HW218912   0.479   4.336   3.434
 6005SOL     OW18913   3.836   5.294   4.341
 6005SOL    HW118914   3.904   5.348   4.291
 6005SOL    HW218915   3.866   5.283   4.436
 6006SOL     OW18916   4.236   6.492   6.915
 6006SOL    HW118917   4.160   6.467   6.974
 6006SOL    HW218918   4.248   6.591   6.916
 6007SOL     OW18919   4.804   3.095   3.707
 6007SOL    HW118920   4.836   3.178   3.753
 6007SOL    HW218921   4.757   3.036   3.773
 6008SOL     OW18922   2.334   5.664   6.337
 6008SOL    HW118923   2.417   5.719   6.350
 6008SOL    HW218924   2.343   5.611   6.252
 6009SOL     OW18925   3.207   1.355   4.545
 6009SOL    HW118926   3.175   1.375   4.453
 6009SOL    HW218927   3.285   1.414   4.567
 6010SOL     OW18928   2.115   4.367   1.894
 6010SOL    HW118929   2.141   4.442   1.955
 6010SOL    HW218930   2.177   4.366   1.815
 6011SOL     OW18931   5.118   2.539   2.128
 6011SOL    HW118932   5.057   2.493   2.194
 6011SOL    HW218933   5.096   2.637   2.126
 6012SOL     OW18934   6.617   1.820   0.643
 6012SOL    HW118935   6.623   1.874   0.726
 6012SOL    HW218936   6.521   1.811   0.615
 6013SOL     OW18937   4.997   1.503   3.027
 6013SOL    HW118938   4.995   1.600   3.004
 6013SOL    HW218939   4.946   1.452   2.957
 6014SOL     OW18940   4.444   1.441   0.774
 6014SOL    HW118941   4.543   1.449   0.786
 6014SOL    HW218942   4.398   1.457   0.861
 6015SOL     OW18943   5.703   2.276   5.708
 6015SOL    HW118944   5.604   2.287   5.712
 6015SOL    HW218945   5.747   2.357   5.747
 6016SOL     OW18946   0.272   1.466   6.946
 6016SOL    HW118947   0.328   1.462   0.003
 6016SOL    HW218948   0.331   1.473   6.866
 6017SOL     OW18949   6.369   5.060   2.667
 6017SOL    HW118950   6.285   5.116   2.665
 6017SOL    HW218951   6.428   5.087   2.591
 6018SOL     OW18952   3.637   2.622   0.010
 6018SOL    HW118953   3.540   2.603   7.020
 6018SOL    HW218954   3.648   2.671   0.096
 6019SOL     OW18955   5.055   1.835   3.882
 6019SOL    HW118956   5.134   1.821   3.823
 6019SOL    HW218957   5.083   1.880   3.967
 6020SOL     OW18958   1.346   6.053   2.489
 6020SOL    HW118959   1.402   6.039   2.570
 6020SOL    HW218960   1.252   6.074   2.516
 6021SOL     OW18961   4.031   6.912   2.588
 6021SOL    HW118962   3.965   6.942   2.519
 6021SOL    HW218963   4.088   6.990   2.614
 6022SOL     OW18964   4.343   0.514   4.681
 6022SOL    HW118965   4.293   0.525   4.595
 6022SOL    HW218966   4.287   0.548   4.757
 6023SOL     OW18967   6.001   1.743   2.915
 6023SOL    HW118968   5.902   1.744   2.900
 6023SOL    HW218969   6.029   1.826   2.963
 6024SOL     OW18970   0.527   4.624   3.083
 6024SOL    HW118971   0.442   4.611   3.134
 6024SOL    HW218972   0.530   4.560   3.006
 6025SOL     OW18973   4.022   0.320   2.143
 6025SOL    HW118974   3.934   0.361   2.164
 6025SOL    HW218975   4.082   0.388   2.101
 6026SOL     OW18976   0.335   4.252   4.532
 6026SOL    HW118977   0.432   4.227   4.532
 6026SOL    HW218978   0.281   4.173   4.559
 6027SOL     OW18979   2.132   4.021   5.460
 6027SOL    HW118980   2.203   4.059   5.519
 6027SOL    HW218981   2.106   4.089   5.391
 6028SOL     OW18982   0.999   3.850   6.885
 6028SOL    HW118983   1.035   3.808   6.968
 6028SOL    HW218984   0.913   3.896   6.905
 6029SOL     OW18985   2.293   6.637   6.565
 6029SOL    HW118986   2.213   6.576   6.567
 6029SOL    HW218987   2.301   6.678   6.475
 6030SOL     OW18988   2.517   0.281   3.213
 6030SOL    HW118989   2.530   0.191   3.171
 6030SOL    HW218990   2.569   0.349   3.161
 6031SOL     OW18991   4.153   5.292   4.208
 6031SOL    HW118992   4.125   5.196   4.216
 6031SOL    HW218993   4.193   5.307   4.117
 6032SOL     OW18994   1.905   3.563   2.900
 6032SOL    HW118995   1.874   3.650   2.860
 6032SOL    HW218996   2.000   3.573   2.930
 6033SOL     OW18997   2.322   2.706   2.751
 6033SOL    HW118998   2.283   2.663   2.832
 6033SOL    HW218999   2.288   2.659   2.669
 6034SOL     OW19000   2.071   5.584   4.914
 6034SOL    HW119001   2.006   5.509   4.922
 6034SOL    HW219002   2.084   5.606   4.817
 6035SOL     OW19003   6.405   1.886   3.823
 6035SOL    HW119004   6.492   1.933   3.809
 6035SOL    HW219005   6.410   1.828   3.904
 6036SOL     OW19006   0.504   7.004   4.138
 6036SOL    HW119007   0.453   7.004   4.052
 6036SOL    HW219008   0.467   0.048   4.199
 6037SOL     OW19009   4.728   5.404   5.997
 6037SOL    HW119010   4.692   5.495   5.978
 6037SOL    HW219011   4.663   5.353   6.054
 6038SOL     OW19012   1.012   3.254   6.324
 6038SOL    HW119013   1.086   3.261   6.391
 6038SOL    HW219014   1.032   3.179   6.260
 6039SOL     OW19015   3.304   2.914   3.312
 6039SOL    HW119016   3.276   2.844   3.246
 6039SOL    HW219017   3.399   2.899   3.339
 6040SOL     OW19018   0.417   1.926   6.279
 6040SOL    HW119019   0.400   2.011   6.328
 6040SOL    HW219020   0.341   1.863   6.293
 6041SOL     OW19021   2.319   1.555   6.311
 6041SOL    HW119022   2.226   1.525   6.334
 6041SOL    HW219023   2.317   1.650   6.282
 6042SOL     OW19024   5.669   5.216   2.055
 6042SOL    HW119025   5.583   5.229   2.103
 6042SOL    HW219026   5.705   5.304   2.024
 6043SOL     OW19027   1.094   5.482   4.937
 6043SOL    HW119028   1.066   5.404   4.993
 6043SOL    HW219029   1.029   5.494   4.862
 6044SOL     OW19030   1.058   2.298   1.230
 6044SOL    HW119031   1.056   2.225   1.299
 6044SOL    HW219032   1.000   2.374   1.260
 6045SOL     OW19033   5.946   5.696   1.103
 6045SOL    HW119034   5.890   5.739   1.174
 6045SOL    HW219035   5.888   5.636   1.047
 6046SOL     OW19036   2.593   2.434   0.898
 6046SOL    HW119037   2.582   2.407   0.994
 6046SOL    HW219038   2.504   2.430   0.852
 6047SOL     OW19039   6.441   1.799   3.149
 6047SOL    HW119040   6.341   1.791   3.145
 6047SOL    HW219041   6.468   1.836   3.237
 6048SOL     OW19042   4.555   6.634   3.362
 6048SOL    HW119043   4.528   6.555   3.307
 6048SOL    HW219044   4.482   6.703   3.358
 6049SOL     OW19045   5.245   3.828   6.479
 6049SOL    HW119046   5.234   3.773   6.396
 6049SOL    HW219047   5.217   3.922   6.461
 6050SOL     OW19048   3.937   3.714   5.803
 6050SOL    HW119049   3.939   3.708   5.703
 6050SOL    HW219050   3.908   3.805   5.831
 6051SOL     OW19051   2.662   2.271   3.860
 6051SOL    HW119052   2.757   2.258   3.890
 6051SOL    HW219053   2.655   2.249   3.763
 6052SOL     OW19054   6.696   6.437   0.259
 6052SOL    HW119055   6.771   6.488   0.300
 6052SOL    HW219056   6.609   6.483   0.280
 6053SOL     OW19057   4.027   0.413   6.514
 6053SOL    HW119058   3.966   0.363   6.453
 6053SOL    HW219059   4.024   0.372   6.605
 6054SOL     OW19060   1.961   4.363   0.653
 6054SOL    HW119061   2.019   4.314   0.588
 6054SOL    HW219062   1.897   4.299   0.695
 6055SOL     OW19063   6.361   1.105   6.330
 6055SOL    HW119064   6.360   1.162   6.413
 6055SOL    HW219065   6.453   1.106   6.291
 6056SOL     OW19066   5.150   2.338   4.753
 6056SOL    HW119067   5.247   2.360   4.763
 6056SOL    HW219068   5.122   2.276   4.827
 6057SOL     OW19069   4.908   2.277   4.522
 6057SOL    HW119070   4.817   2.295   4.484
 6057SOL    HW219071   4.947   2.363   4.556
 6058SOL     OW19072   5.326   2.597   2.793
 6058SOL    HW119073   5.355   2.536   2.719
 6058SOL    HW219074   5.406   2.623   2.847
 6059SOL     OW19075   4.611   5.084   5.688
 6059SOL    HW119076   4.696   5.124   5.723
 6059SOL    HW219077   4.612   5.087   5.588
 6060SOL     OW19078   3.122   3.954   5.660
 6060SOL    HW119079   3.035   3.974   5.614
 6060SOL    HW219080   3.190   4.023   5.636
 6061SOL     OW19081   3.527   2.560   0.414
 6061SOL    HW119082   3.453   2.604   0.361
 6061SOL    HW219083   3.606   2.621   0.417
 6062SOL     OW19084   2.401   1.107   4.543
 6062SOL    HW119085   2.492   1.078   4.512
 6062SOL    HW219086   2.411   1.169   4.622
 6063SOL     OW19087   4.173   1.667   6.420
 6063SOL    HW119088   4.250   1.613   6.454
 6063SOL    HW219089   4.094   1.653   6.481
 6064SOL     OW19090   2.498   5.617   2.868
 6064SOL    HW119091   2.559   5.685   2.908
 6064SOL    HW219092   2.477   5.547   2.936
 6065SOL     OW19093   5.729   6.945   1.895
 6065SOL    HW119094   5.784   6.915   1.973
 6065SOL    HW219095   5.695   6.865   1.845
 6066SOL     OW19096   4.056   1.549   0.274
 6066SOL    HW119097   4.028   1.489   0.349
 6066SOL    HW219098   4.050   1.499   0.188
 6067SOL     OW19099   5.968   1.795   6.491
 6067SOL    HW119100   6.039   1.864   6.502
 6067SOL    HW219101   5.884   1.838   6.458
 6068SOL     OW19102   5.993   3.540   4.461
 6068SOL    HW119103   6.017   3.477   4.535
 6068SOL    HW219104   5.897   3.528   4.437
 6069SOL     OW19105   0.320   3.349   5.848
 6069SOL    HW119106   0.296   3.288   5.923
 6069SOL    HW219107   0.274   3.436   5.860
 6070SOL     OW19108   2.969   1.621   5.726
 6070SOL    HW119109   2.959   1.633   5.627
 6070SOL    HW219110   3.009   1.704   5.765
 6071SOL     OW19111   4.702   5.914   5.334
 6071SOL    HW119112   4.642   5.927   5.255
 6071SOL    HW219113   4.672   5.973   5.409
 6072SOL     OW19114   0.979   0.972   2.126
 6072SOL    HW119115   0.988   0.996   2.029
 6072SOL    HW219116   0.971   1.056   2.180
 6073SOL     OW19117   6.473   3.616   0.477
 6073SOL    HW119118   6.532   3.545   0.438
 6073SOL    HW219119   6.528   3.678   0.534
 6074SOL     OW19120   1.047   6.889   4.503
 6074SOL    HW119121   0.974   6.821   4.491
 6074SOL    HW219122   1.130   6.857   4.458
 6075SOL     OW19123   6.923   2.202   6.378
 6075SOL    HW119124   6.997   2.268   6.365
 6075SOL    HW219125   6.959   2.122   6.428
 6076SOL     OW19126   2.306   0.027   5.209
 6076SOL    HW119127   2.238   6.982   5.229
 6076SOL    HW219128   2.391   7.009   5.178
 6077SOL     OW19129   4.845   5.620   2.181
 6077SOL    HW119130   4.893   5.572   2.108
 6077SOL    HW219131   4.851   5.567   2.266
 6078SOL     OW19132   3.843   4.870   2.348
 6078SOL    HW119133   3.824   4.943   2.413
 6078SOL    HW219134   3.882   4.792   2.396
 6079SOL     OW19135   3.002   3.430   6.491
 6079SOL    HW119136   2.971   3.341   6.522
 6079SOL    HW219137   2.924   3.492   6.481
 6080SOL     OW19138   0.565   1.605   2.144
 6080SOL    HW119139   0.493   1.584   2.078
 6080SOL    HW219140   0.529   1.667   2.214
 6081SOL     OW19141   6.907   3.645   4.716
 6081SOL    HW119142   7.002   3.633   4.745
 6081SOL    HW219143   6.902   3.719   4.649
 6082SOL     OW19144   3.926   1.099   3.325
 6082SOL    HW119145   3.924   1.199   3.315
 6082SOL    HW219146   3.972   1.075   3.411
 6083SOL     OW19147   1.038   5.671   6.287
 6083SOL    HW119148   1.035   5.649   6.190
 6083SOL    HW219149   1.100   5.747   6.302
 6084SOL     OW19150   0.135   5.433   4.032
 6084SOL    HW119151   0.088   5.347   4.050
 6084SOL    HW219152   0.073   5.510   4.048
 6085SOL     OW19153   6.821   4.222   0.028
 6085SOL    HW119154   6.823   4.122   0.034
 6085SOL    HW219155   6.912   4.256   0.001
 6086SOL     OW19156   3.469   1.838   5.201
 6086SOL    HW119157   3.517   1.759   5.239
 6086SOL    HW219158   3.468   1.832   5.101
 6087SOL     OW19159   5.442   6.833   0.408
 6087SOL    HW119160   5.424   6.922   0.450
 6087SOL    HW219161   5.518   6.841   0.344
 6088SOL     OW19162   0.049   6.336   4.202
 6088SOL    HW119163   0.145   6.347   4.175
 6088SOL    HW219164   0.029   6.395   4.279
 6089SOL     OW19165   6.992   3.992   1.316
 6089SOL    HW119166   6.969   4.088   1.330
 6089SOL    HW219167   0.066   3.983   1.305
 6090SOL     OW19168   1.202   6.114   6.263
 6090SOL    HW119169   1.263   6.107   6.184
 6090SOL    HW219170   1.110   6.140   6.233
 6091SOL     OW19171   1.028   1.540   2.475
 6091SOL    HW119172   1.044   1.463   2.412
 6091SOL    HW219173   1.116   1.572   2.511
 6092SOL     OW19174   2.847   0.704   3.264
 6092SOL    HW119175   2.882   0.634   3.326
 6092SOL    HW219176   2.920   0.734   3.203
 6093SOL     OW19177   1.370   2.792   2.783
 6093SOL    HW119178   1.441   2.731   2.818
 6093SOL    HW219179   1.365   2.874   2.841
 6094SOL     OW19180   2.669   1.108   1.237
 6094SOL    HW119181   2.739   1.037   1.244
 6094SOL    HW219182   2.585   1.075   1.279
 6095SOL     OW19183   4.758   2.466   0.031
 6095SOL    HW119184   4.659   2.473   0.021
 6095SOL    HW219185   4.781   2.438   0.124
 6096SOL     OW19186   5.998   0.751   4.182
 6096SOL    HW119187   5.958   0.680   4.241
 6096SOL    HW219188   5.975   0.731   4.086
 6097SOL     OW19189   1.923   0.152   2.410
 6097SOL    HW119190   1.998   0.123   2.469
 6097SOL    HW219191   1.954   0.227   2.352
 6098SOL     OW19192   1.626   2.081   5.526
 6098SOL    HW119193   1.623   2.177   5.497
 6098SOL    HW219194   1.582   2.072   5.615
 6099SOL     OW19195   6.013   5.962   5.784
 6099SOL    HW119196   5.971   5.901   5.717
 6099SOL    HW219197   6.091   6.009   5.742
 6100SOL     OW19198   5.880   2.824   6.328
 6100SOL    HW119199   5.932   2.738   6.326
 6100SOL    HW219200   5.942   2.900   6.312
 6101SOL     OW19201   6.414   1.951   5.732
 6101SOL    HW119202   6.342   1.903   5.682
 6101SOL    HW219203   6.493   1.891   5.743
 6102SOL     OW19204   3.865   0.939   4.322
 6102SOL    HW119205   3.829   0.979   4.238
 6102SOL    HW219206   3.960   0.966   4.335
 6103SOL     OW19207   6.855   1.267   4.054
 6103SOL    HW119208   6.823   1.172   4.057
 6103SOL    HW219209   6.944   1.274   4.099
 6104SOL     OW19210   6.441   1.747   6.453
 6104SOL    HW119211   6.433   1.823   6.389
 6104SOL    HW219212   6.397   1.666   6.415
 6105SOL     OW19213   3.123   6.170   5.920
 6105SOL    HW119214   3.175   6.121   5.849
 6105SOL    HW219215   3.033   6.195   5.884
 6106SOL     OW19216   2.051   4.909   6.553
 6106SOL    HW119217   2.129   4.853   6.527
 6106SOL    HW219218   1.967   4.855   6.548
 6107SOL     OW19219   2.621   5.220   4.364
 6107SOL    HW119220   2.556   5.147   4.388
 6107SOL    HW219221   2.594   5.305   4.409
 6108SOL     OW19222   0.864   2.104   3.465
 6108SOL    HW119223   0.895   2.125   3.372
 6108SOL    HW219224   0.764   2.104   3.466
 6109SOL     OW19225   4.941   2.915   0.078
 6109SOL    HW119226   4.848   2.881   0.068
 6109SOL    HW219227   4.940   3.008   0.113
 6110SOL     OW19228   2.871   2.905   6.871
 6110SOL    HW119229   2.782   2.861   6.857
 6110SOL    HW219230   2.911   2.873   6.957
 6111SOL     OW19231   1.425   4.941   2.535
 6111SOL    HW119232   1.346   4.956   2.475
 6111SOL    HW219233   1.508   4.933   2.480
 6112SOL     OW19234   2.600   2.046   3.194
 6112SOL    HW119235   2.515   2.053   3.247
 6112SOL    HW219236   2.634   2.138   3.174
 6113SOL     OW19237   0.185   1.088   6.487
 6113SOL    HW119238   0.123   1.163   6.466
 6113SOL    HW219239   0.135   1.001   6.483
 6114SOL     OW19240   4.893   5.137   1.222
 6114SOL    HW119241   4.933   5.048   1.241
 6114SOL    HW219242   4.797   5.138   1.252
 6115SOL     OW19243   5.355   5.749   3.001
 6115SOL    HW119244   5.256   5.763   3.001
 6115SOL    HW219245   5.390   5.758   2.908
 6116SOL     OW19246   2.456   1.325   1.369
 6116SOL    HW119247   2.529   1.374   1.416
 6116SOL    HW219248   2.409   1.387   1.306
 6117SOL     OW19249   0.107   0.063   5.203
 6117SOL    HW119250   0.185   0.048   5.142
 6117SOL    HW219251   0.104   0.160   5.229
 6118SOL     OW19252   0.127   1.844   1.479
 6118SOL    HW119253   0.161   1.814   1.568
 6118SOL    HW219254   0.186   1.918   1.445
 6119SOL     OW19255   6.957   4.313   4.267
 6119SOL    HW119256   0.002   4.241   4.265
 6119SOL    HW219257   6.998   4.400   4.241
 6120SOL     OW19258   3.138   6.962   3.611
 6120SOL    HW119259   3.067   0.001   3.583
 6120SOL    HW219260   3.099   6.892   3.670
 6121SOL     OW19261   6.754   2.532   4.794
 6121SOL    HW119262   6.693   2.533   4.873
 6121SOL    HW219263   6.731   2.607   4.732
 6122SOL     OW19264   3.464   6.574   1.901
 6122SOL    HW119265   3.390   6.533   1.954
 6122SOL    HW219266   3.438   6.577   1.804
 6123SOL     OW19267   6.757   0.617   1.429
 6123SOL    HW119268   6.672   0.573   1.400
 6123SOL    HW219269   6.737   0.710   1.462
 6124SOL     OW19270   3.066   6.723   5.198
 6124SOL    HW119271   3.076   6.662   5.120
 6124SOL    HW219272   3.109   6.811   5.177
 6125SOL     OW19273   2.435   5.460   1.479
 6125SOL    HW119274   2.357   5.456   1.416
 6125SOL    HW219275   2.410   5.516   1.558
 6126SOL     OW19276   5.158   5.890   3.899
 6126SOL    HW119277   5.254   5.901   3.926
 6126SOL    HW219278   5.108   5.974   3.920
 6127SOL     OW19279   2.378   6.884   1.428
 6127SOL    HW119280   2.310   6.817   1.458
 6127SOL    HW219281   2.387   6.882   1.329
 6128SOL     OW19282   6.393   3.030   0.354
 6128SOL    HW119283   6.353   3.119   0.337
 6128SOL    HW219284   6.477   3.021   0.301
 6129SOL     OW19285   6.316   4.231   3.166
 6129SOL    HW119286   6.414   4.242   3.149
 6129SOL    HW219287   6.291   4.281   3.250
 6130SOL     OW19288   6.513   2.960   4.609
 6130SOL    HW119289   6.519   3.030   4.680
 6130SOL    HW219290   6.589   2.896   4.618
 6131SOL     OW19291   6.899   1.723   5.484
 6131SOL    HW119292   6.813   1.677   5.509
 6131SOL    HW219293   6.975   1.679   5.531
 6132SOL     OW19294   3.731   0.869   0.995
 6132SOL    HW119295   3.777   0.954   0.969
 6132SOL    HW219296   3.730   0.806   0.916
 6133SOL     OW19297   0.403   2.510   2.916
 6133SOL    HW119298   0.369   2.594   2.874
 6133SOL    HW219299   0.432   2.446   2.845
 6134SOL     OW19300   4.486   3.373   6.669
 6134SOL    HW119301   4.515   3.277   6.679
 6134SOL    HW219302   4.389   3.381   6.689
 6135SOL     OW19303   6.005   0.267   2.247
 6135SOL    HW119304   6.091   0.263   2.299
 6135SOL    HW219305   5.952   0.184   2.263
 6136SOL     OW19306   0.508   1.634   2.754
 6136SOL    HW119307   0.539   1.711   2.698
 6136SOL    HW219308   0.458   1.669   2.833
 6137SOL     OW19309   4.039   0.775   5.502
 6137SOL    HW119310   4.134   0.806   5.488
 6137SOL    HW219311   4.028   0.747   5.597
 6138SOL     OW19312   3.769   6.909   2.443
 6138SOL    HW119313   3.684   6.948   2.409
 6138SOL    HW219314   3.759   6.810   2.451
 6139SOL     OW19315   2.323   2.894   4.369
 6139SOL    HW119316   2.422   2.903   4.381
 6139SOL    HW219317   2.301   2.902   4.272
 6140SOL     OW19318   0.422   6.490   1.712
 6140SOL    HW119319   0.385   6.555   1.778
 6140SOL    HW219320   0.439   6.536   1.625
 6141SOL     OW19321   5.767   6.115   4.979
 6141SOL    HW119322   5.668   6.105   4.989
 6141SOL    HW219323   5.803   6.041   4.922
 6142SOL     OW19324   0.019   5.101   0.562
 6142SOL    HW119325   6.986   5.024   0.537
 6142SOL    HW219326   0.012   5.172   0.493
 6143SOL     OW19327   5.889   4.524   6.818
 6143SOL    HW119328   5.805   4.472   6.830
 6143SOL    HW219329   5.883   4.581   6.737
 6144SOL     OW19330   6.443   4.884   2.408
 6144SOL    HW119331   6.510   4.956   2.392
 6144SOL    HW219332   6.373   4.887   2.336
 6145SOL     OW19333   4.940   6.167   3.688
 6145SOL    HW119334   4.967   6.210   3.602
 6145SOL    HW219335   4.841   6.154   3.689
 6146SOL     OW19336   4.651   1.023   3.621
 6146SOL    HW119337   4.670   0.924   3.623
 6146SOL    HW219338   4.690   1.066   3.702
 6147SOL     OW19339   1.637   4.636   3.045
 6147SOL    HW119340   1.708   4.631   3.115
 6147SOL    HW219341   1.614   4.732   3.028
 6148SOL     OW19342   6.996   0.100   4.510
 6148SOL    HW119343   6.947   0.068   4.591
 6148SOL    HW219344   6.931   0.141   4.446
 6149SOL     OW19345   3.546   5.080   3.049
 6149SOL    HW119346   3.624   5.020   3.068
 6149SOL    HW219347   3.464   5.024   3.037
 6150SOL     OW19348   4.246   4.961   6.776
 6150SOL    HW119349   4.187   5.037   6.804
 6150SOL    HW219350   4.314   4.994   6.711
 6151SOL     OW19351   6.845   3.827   4.500
 6151SOL    HW119352   6.813   3.914   4.540
 6151SOL    HW219353   6.889   3.845   4.412
 6152SOL     OW19354   4.876   4.623   5.556
 6152SOL    HW119355   4.825   4.708   5.572
 6152SOL    HW219356   4.884   4.573   5.643
 6153SOL     OW19357   4.684   3.773   1.779
 6153SOL    HW119358   4.637   3.685   1.768
 6153SOL    HW219359   4.621   3.848   1.756
 6154SOL     OW19360   5.109   1.359   2.190
 6154SOL    HW119361   5.016   1.321   2.188
 6154SOL    HW219362   5.104   1.456   2.165
 6155SOL     OW19363   1.544   2.927   3.899
 6155SOL    HW119364   1.523   2.865   3.823
 6155SOL    HW219365   1.642   2.944   3.903
 6156SOL     OW19366   4.752   5.036   2.315
 6156SOL    HW119367   4.659   5.005   2.295
 6156SOL    HW219368   4.794   4.975   2.383
 6157SOL     OW19369   1.382   1.824   3.749
 6157SOL    HW119370   1.425   1.831   3.660
 6157SOL    HW219371   1.364   1.916   3.785
 6158SOL     OW19372   5.064   0.744   6.709
 6158SOL    HW119373   5.112   0.699   6.633
 6158SOL    HW219374   5.118   0.735   6.793
 6159SOL     OW19375   4.600   1.456   0.033
 6159SOL    HW119376   4.587   1.535   0.093
 6159SOL    HW219377   4.529   1.388   0.052
 6160SOL     OW19378   5.903   5.967   0.732
 6160SOL    HW119379   5.946   5.877   0.739
 6160SOL    HW219380   5.945   6.029   0.798
 6161SOL     OW19381   6.071   2.290   6.097
 6161SOL    HW119382   5.980   2.323   6.074
 6161SOL    HW219383   6.117   2.357   6.156
 6162SOL     OW19384   0.937   5.466   4.697
 6162SOL    HW119385   0.939   5.370   4.671
 6162SOL    HW219386   1.024   5.509   4.675
 6163SOL     OW19387   5.459   5.604   1.163
 6163SOL    HW119388   5.426   5.662   1.089
 6163SOL    HW219389   5.381   5.563   1.210
 6164SOL     OW19390   1.565   3.036   1.549
 6164SOL    HW119391   1.485   2.990   1.587
 6164SOL    HW219392   1.645   2.975   1.557
 6165SOL     OW19393   3.706   6.063   6.940
 6165SOL    HW119394   3.611   6.064   6.909
 6165SOL    HW219395   3.748   5.977   6.914
 6166SOL     OW19396   3.517   1.111   5.400
 6166SOL    HW119397   3.585   1.185   5.399
 6166SOL    HW219398   3.430   1.146   5.366
 6167SOL     OW19399   0.522   5.027   2.330
 6167SOL    HW119400   0.495   5.094   2.399
 6167SOL    HW219401   0.489   4.936   2.356
 6168SOL     OW19402   0.056   3.855   0.692
 6168SOL    HW119403   0.075   3.896   0.781
 6168SOL    HW219404   0.135   3.804   0.660
 6169SOL     OW19405   1.255   3.046   1.945
 6169SOL    HW119406   1.173   3.101   1.932
 6169SOL    HW219407   1.325   3.102   1.990
 6170SOL     OW19408   0.295   3.048   5.481
 6170SOL    HW119409   0.324   2.954   5.500
 6170SOL    HW219410   0.329   3.109   5.552
 6171SOL     OW19411   0.401   1.661   0.701
 6171SOL    HW119412   0.332   1.729   0.726
 6171SOL    HW219413   0.406   1.591   0.772
 6172SOL     OW19414   0.535   2.727   2.502
 6172SOL    HW119415   0.623   2.689   2.532
 6172SOL    HW219416   0.551   2.807   2.445
 6173SOL     OW19417   6.896   5.507   2.961
 6173SOL    HW119418   6.930   5.582   2.904
 6173SOL    HW219419   6.940   5.510   3.050
 6174SOL     OW19420   4.456   5.041   3.589
 6174SOL    HW119421   4.514   4.984   3.647
 6174SOL    HW219422   4.470   5.016   3.493
 6175SOL     OW19423   3.437   0.876   4.637
 6175SOL    HW119424   3.520   0.911   4.680
 6175SOL    HW219425   3.380   0.832   4.706
 6176SOL     OW19426   4.721   3.427   5.358
 6176SOL    HW119427   4.709   3.446   5.260
 6176SOL    HW219428   4.726   3.328   5.372
 6177SOL     OW19429   5.049   1.974   1.993
 6177SOL    HW119430   5.134   1.955   1.944
 6177SOL    HW219431   5.033   2.073   1.994
 6178SOL     OW19432   4.870   3.815   1.998
 6178SOL    HW119433   4.805   3.822   1.923
 6178SOL    HW219434   4.949   3.761   1.969
 6179SOL     OW19435   6.592   4.500   1.598
 6179SOL    HW119436   6.519   4.565   1.618
 6179SOL    HW219437   6.681   4.544   1.610
 6180SOL     OW19438   3.212   4.757   0.758
 6180SOL    HW119439   3.243   4.792   0.670
 6180SOL    HW219440   3.256   4.669   0.777
 6181SOL     OW19441   4.855   5.854   6.186
 6181SOL    HW119442   4.947   5.825   6.210
 6181SOL    HW219443   4.858   5.939   6.134
 6182SOL     OW19444   4.367   2.242   0.123
 6182SOL    HW119445   4.412   2.279   0.205
 6182SOL    HW219446   4.430   2.178   0.078
 6183SOL     OW19447   1.593   2.092   1.630
 6183SOL    HW119448   1.646   2.095   1.546
 6183SOL    HW219449   1.615   2.009   1.681
 6184SOL     OW19450   2.956   0.587   6.291
 6184SOL    HW119451   2.986   0.622   6.379
 6184SOL    HW219452   2.859   0.609   6.278
 6185SOL     OW19453   2.677   4.155   5.760
 6185SOL    HW119454   2.749   4.099   5.802
 6185SOL    HW219455   2.594   4.149   5.814
 6186SOL     OW19456   6.900   1.994   2.259
 6186SOL    HW119457   6.806   2.019   2.235
 6186SOL    HW219458   6.898   1.931   2.337
 6187SOL     OW19459   4.760   2.784   5.095
 6187SOL    HW119460   4.831   2.818   5.156
 6187SOL    HW219461   4.779   2.815   5.001
 6188SOL     OW19462   1.645   1.484   5.565
 6188SOL    HW119463   1.594   1.543   5.503
 6188SOL    HW219464   1.735   1.464   5.526
 6189SOL     OW19465   3.728   5.476   2.643
 6189SOL    HW119466   3.667   5.407   2.681
 6189SOL    HW219467   3.819   5.465   2.683
 6190SOL     OW19468   6.337   3.535   5.853
 6190SOL    HW119469   6.377   3.528   5.762
 6190SOL    HW219470   6.258   3.596   5.851
 6191SOL     OW19471   2.259   3.017   5.568
 6191SOL    HW119472   2.232   3.112   5.548
 6191SOL    HW219473   2.182   2.968   5.608
 6192SOL     OW19474   2.309   2.067   6.183
 6192SOL    HW119475   2.390   2.080   6.126
 6192SOL    HW219476   2.287   2.153   6.229
 6193SOL     OW19477   4.851   5.499   0.452
 6193SOL    HW119478   4.879   5.413   0.494
 6193SOL    HW219479   4.923   5.568   0.464
 6194SOL     OW19480   6.730   0.731   6.443
 6194SOL    HW119481   6.715   0.818   6.489
 6194SOL    HW219482   6.642   0.689   6.423
 6195SOL     OW19483   5.365   6.469   4.539
 6195SOL    HW119484   5.355   6.559   4.581
 6195SOL    HW219485   5.427   6.477   4.460
 6196SOL     OW19486   5.416   4.418   3.294
 6196SOL    HW119487   5.494   4.435   3.233
 6196SOL    HW219488   5.339   4.477   3.267
 6197SOL     OW19489   2.360   5.145   2.868
 6197SOL    HW119490   2.273   5.098   2.878
 6197SOL    HW219491   2.347   5.231   2.819
 6198SOL     OW19492   5.953   6.190   6.659
 6198SOL    HW119493   5.874   6.185   6.598
 6198SOL    HW219494   5.922   6.194   6.754
 6199SOL     OW19495   0.417   0.729   0.568
 6199SOL    HW119496   0.391   0.824   0.550
 6199SOL    HW219497   0.415   0.678   0.482
 6200SOL     OW19498   1.167   1.137   2.678
 6200SOL    HW119499   1.223   1.182   2.747
 6200SOL    HW219500   1.077   1.181   2.675
 6201SOL     OW19501   0.792   4.572   4.294
 6201SOL    HW119502   0.880   4.591   4.338
 6201SOL    HW219503   0.799   4.593   4.196
 6202SOL     OW19504   6.112   1.945   3.120
 6202SOL    HW119505   6.151   2.022   3.171
 6202SOL    HW219506   6.068   1.882   3.184
 6203SOL     OW19507   6.034   5.349   2.058
 6203SOL    HW119508   5.998   5.277   1.999
 6203SOL    HW219509   6.085   5.307   2.134
 6204SOL     OW19510   1.235   6.288   4.813
 6204SOL    HW119511   1.273   6.200   4.785
 6204SOL    HW219512   1.280   6.319   4.896
 6205SOL     OW19513   4.795   5.206   2.099
 6205SOL    HW119514   4.794   5.162   2.189
 6205SOL    HW219515   4.792   5.137   2.027
 6206SOL     OW19516   4.511   1.838   3.653
 6206SOL    HW119517   4.425   1.871   3.692
 6206SOL    HW219518   4.586   1.893   3.688
 6207SOL     OW19519   1.639   6.218   4.027
 6207SOL    HW119520   1.582   6.144   4.062
 6207SOL    HW219521   1.727   6.181   3.997
 6208SOL     OW19522   3.597   2.417   6.070
 6208SOL    HW119523   3.695   2.402   6.076
 6208SOL    HW219524   3.551   2.370   6.146
 6209SOL     OW19525   3.113   4.366   1.214
 6209SOL    HW119526   3.126   4.460   1.246
 6209SOL    HW219527   3.022   4.357   1.174
 6210SOL     OW19528   5.107   3.876   3.074
 6210SOL    HW119529   5.118   3.969   3.042
 6210SOL    HW219530   5.196   3.831   3.077
 6211SOL     OW19531   4.437   5.488   5.879
 6211SOL    HW119532   4.366   5.497   5.808
 6211SOL    HW219533   4.467   5.393   5.883
 6212SOL     OW19534   2.534   4.572   4.374
 6212SOL    HW119535   2.478   4.518   4.310
 6212SOL    HW219536   2.521   4.538   4.467
 6213SOL     OW19537   5.128   6.636   0.735
 6213SOL    HW119538   5.199   6.703   0.760
 6213SOL    HW219539   5.090   6.660   0.646
 6214SOL     OW19540   5.356   5.573   5.674
 6214SOL    HW119541   5.386   5.656   5.722
 6214SOL    HW219542   5.334   5.596   5.579
 6215SOL     OW19543   5.185   3.162   6.551
 6215SOL    HW119544   5.095   3.203   6.536
 6215SOL    HW219545   5.176   3.063   6.558
 6216SOL     OW19546   6.109   2.749   3.262
 6216SOL    HW119547   6.059   2.833   3.283
 6216SOL    HW219548   6.169   2.763   3.183
 6217SOL     OW19549   0.604   4.621   2.135
 6217SOL    HW119550   0.604   4.622   2.235
 6217SOL    HW219551   0.552   4.541   2.103
 6218SOL     OW19552   5.005   5.992   0.235
 6218SOL    HW119553   4.931   6.043   0.279
 6218SOL    HW219554   4.966   5.919   0.179
 6219SOL     OW19555   1.836   0.952   5.138
 6219SOL    HW119556   1.745   0.909   5.143
 6219SOL    HW219557   1.827   1.050   5.152
 6220SOL     OW19558   3.475   0.542   0.201
 6220SOL    HW119559   3.536   0.490   0.141
 6220SOL    HW219560   3.519   0.553   0.291
 6221SOL     OW19561   6.409   6.141   6.487
 6221SOL    HW119562   6.410   6.220   6.548
 6221SOL    HW219563   6.482   6.152   6.419
 6222SOL     OW19564   5.794   1.376   2.215
 6222SOL    HW119565   5.844   1.431   2.148
 6222SOL    HW219566   5.834   1.284   2.219
 6223SOL     OW19567   0.752   5.368   4.058
 6223SOL    HW119568   0.665   5.411   4.033
 6223SOL    HW219569   0.748   5.336   4.152
 6224SOL     OW19570   4.098   0.849   6.171
 6224SOL    HW119571   4.133   0.777   6.231
 6224SOL    HW219572   4.106   0.820   6.076
 6225SOL     OW19573   3.906   1.347   6.474
 6225SOL    HW119574   3.924   1.400   6.391
 6225SOL    HW219575   3.845   1.271   6.452
 6226SOL     OW19576   1.529   1.472   3.594
 6226SOL    HW119577   1.553   1.409   3.668
 6226SOL    HW219578   1.446   1.522   3.619
 6227SOL     OW19579   3.082   4.582   5.420
 6227SOL    HW119580   3.016   4.556   5.350
 6227SOL    HW219581   3.158   4.632   5.378
 6228SOL     OW19582   1.180   2.907   3.868
 6228SOL    HW119583   1.232   2.828   3.837
 6228SOL    HW219584   1.103   2.922   3.806
 6229SOL     OW19585   7.007   3.082   4.651
 6229SOL    HW119586   6.942   3.090   4.727
 6229SOL    HW219587   0.073   3.111   4.681
 6230SOL     OW19588   0.399   1.421   2.916
 6230SOL    HW119589   0.404   1.510   2.869
 6230SOL    HW219590   0.391   1.348   2.848
 6231SOL     OW19591   5.482   4.244   0.046
 6231SOL    HW119592   5.547   4.263   0.120
 6231SOL    HW219593   5.493   4.150   0.015
 6232SOL     OW19594   6.150   0.736   0.598
 6232SOL    HW119595   6.102   0.725   0.511
 6232SOL    HW219596   6.249   0.733   0.581
 6233SOL     OW19597   0.187   3.424   2.037
 6233SOL    HW119598   0.215   3.430   1.941
 6233SOL    HW219599   0.220   3.337   2.076
 6234SOL     OW19600   0.194   0.230   4.593
 6234SOL    HW119601   0.115   0.179   4.559
 6234SOL    HW219602   0.224   0.296   4.524
 6235SOL     OW19603   0.089   0.505   2.037
 6235SOL    HW119604   0.098   0.432   2.104
 6235SOL    HW219605   0.141   0.584   2.066
 6236SOL     OW19606   0.588   3.788   0.490
 6236SOL    HW119607   0.545   3.700   0.470
 6236SOL    HW219608   0.525   3.862   0.466
 6237SOL     OW19609   3.587   6.678   0.507
 6237SOL    HW119610   3.534   6.679   0.593
 6237SOL    HW219611   3.642   6.594   0.503
 6238SOL     OW19612   3.122   6.513   3.631
 6238SOL    HW119613   3.106   6.608   3.605
 6238SOL    HW219614   3.064   6.453   3.576
 6239SOL     OW19615   3.457   0.106   2.009
 6239SOL    HW119616   3.467   0.190   2.063
 6239SOL    HW219617   3.373   0.059   2.037
 6240SOL     OW19618   2.842   3.990   5.243
 6240SOL    HW119619   2.940   3.983   5.226
 6240SOL    HW219620   2.817   4.086   5.258
 6241SOL     OW19621   3.691   6.990   3.993
 6241SOL    HW119622   3.740   7.011   3.908
 6241SOL    HW219623   3.747   7.017   4.071
 6242SOL     OW19624   2.161   2.111   2.841
 6242SOL    HW119625   2.238   2.119   2.778
 6242SOL    HW219626   2.174   2.032   2.901
 6243SOL     OW19627   6.581   0.672   5.706
 6243SOL    HW119628   6.575   0.678   5.606
 6243SOL    HW219629   6.644   0.599   5.731
 6244SOL     OW19630   4.742   4.132   2.617
 6244SOL    HW119631   4.821   4.076   2.593
 6244SOL    HW219632   4.680   4.138   2.538
 6245SOL     OW19633   0.792   4.665   2.412
 6245SOL    HW119634   0.714   4.616   2.453
 6245SOL    HW219635   0.790   4.760   2.443
 6246SOL     OW19636   1.462   6.927   4.810
 6246SOL    HW119637   1.489   6.879   4.727
 6246SOL    HW219638   1.373   6.972   4.795
 6247SOL     OW19639   0.421   5.202   3.754
 6247SOL    HW119640   0.454   5.182   3.846
 6247SOL    HW219641   0.485   5.264   3.708
 6248SOL     OW19642   4.251   3.148   6.785
 6248SOL    HW119643   4.188   3.213   6.828
 6248SOL    HW219644   4.316   3.115   6.854
 6249SOL     OW19645   6.928   2.519   1.691
 6249SOL    HW119646   6.902   2.615   1.706
 6249SOL    HW219647   6.893   2.463   1.766
 6250SOL     OW19648   0.109   0.096   0.640
 6250SOL    HW119649   0.107   0.191   0.670
 6250SOL    HW219650   0.103   0.092   0.540
 6251SOL     OW19651   3.335   6.784   5.035
 6251SOL    HW119652   3.301   6.854   5.097
 6251SOL    HW219653   3.303   6.804   4.942
 6252SOL     OW19654   2.800   4.937   6.791
 6252SOL    HW119655   2.819   4.842   6.814
 6252SOL    HW219656   2.701   4.953   6.795
 6253SOL     OW19657   3.018   4.874   4.609
 6253SOL    HW119658   2.941   4.896   4.549
 6253SOL    HW219659   2.984   4.822   4.688
 6254SOL     OW19660   0.686   5.652   0.604
 6254SOL    HW119661   0.730   5.676   0.518
 6254SOL    HW219662   0.587   5.669   0.597
 6255SOL     OW19663   1.856   2.289   0.937
 6255SOL    HW119664   1.788   2.258   0.870
 6255SOL    HW219665   1.908   2.366   0.898
 6256SOL     OW19666   4.744   5.770   2.513
 6256SOL    HW119667   4.741   5.677   2.475
 6256SOL    HW219668   4.696   5.832   2.452
 6257SOL     OW19669   4.350   3.648   0.568
 6257SOL    HW119670   4.288   3.720   0.536
 6257SOL    HW219671   4.298   3.581   0.620
 6258SOL     OW19672   4.020   6.927   6.104
 6258SOL    HW119673   3.935   6.910   6.054
 6258SOL    HW219674   4.085   6.854   6.084
 6259SOL     OW19675   1.704   0.339   5.820
 6259SOL    HW119676   1.624   0.287   5.790
 6259SOL    HW219677   1.733   0.401   5.746
 6260SOL     OW19678   1.635   0.726   0.412
 6260SOL    HW119679   1.619   0.658   0.341
 6260SOL    HW219680   1.700   0.795   0.379
 6261SOL     OW19681   5.053   0.185   1.589
 6261SOL    HW119682   5.089   0.127   1.662
 6261SOL    HW219683   5.066   0.281   1.613
 6262SOL     OW19684   6.418   6.122   2.755
 6262SOL    HW119685   6.489   6.118   2.826
 6262SOL    HW219686   6.389   6.029   2.732
 6263SOL     OW19687   6.986   6.544   4.372
 6263SOL    HW119688   6.938   6.631   4.363
 6263SOL    HW219689   0.052   6.559   4.411
 6264SOL     OW19690   0.805   6.954   1.109
 6264SOL    HW119691   0.827   6.867   1.153
 6264SOL    HW219692   0.725   6.995   1.152
 6265SOL     OW19693   3.636   3.255   0.802
 6265SOL    HW119694   3.686   3.299   0.877
 6265SOL    HW219695   3.652   3.157   0.805
 6266SOL     OW19696   3.292   6.244   3.171
 6266SOL    HW119697   3.263   6.333   3.204
 6266SOL    HW219698   3.229   6.174   3.204
 6267SOL     OW19699   1.312   6.251   5.233
 6267SOL    HW119700   1.293   6.347   5.255
 6267SOL    HW219701   1.316   6.198   5.318
 6268SOL     OW19702   3.786   0.585   1.948
 6268SOL    HW119703   3.784   0.510   2.013
 6268SOL    HW219704   3.740   0.557   1.863
 6269SOL     OW19705   5.554   6.178   1.435
 6269SOL    HW119706   5.643   6.168   1.480
 6269SOL    HW219707   5.568   6.202   1.339
 6270SOL     OW19708   1.036   6.337   0.197
 6270SOL    HW119709   0.987   6.370   0.116
 6270SOL    HW219710   1.099   6.407   0.229
 6271SOL     OW19711   5.648   2.839   6.691
 6271SOL    HW119712   5.638   2.747   6.653
 6271SOL    HW219713   5.561   2.888   6.682
 6272SOL     OW19714   6.990   0.495   6.657
 6272SOL    HW119715   6.918   0.476   6.590
 6272SOL    HW219716   0.040   0.544   6.612
 6273SOL     OW19717   0.199   6.550   2.522
 6273SOL    HW119718   0.273   6.617   2.512
 6273SOL    HW219719   0.154   6.537   2.434
 6274SOL     OW19720   3.088   6.491   5.047
 6274SOL    HW119721   3.021   6.419   5.068
 6274SOL    HW219722   3.179   6.450   5.044
 6275SOL     OW19723   2.603   6.385   0.501
 6275SOL    HW119724   2.515   6.429   0.485
 6275SOL    HW219725   2.675   6.434   0.450
 6276SOL     OW19726   3.216   5.506   3.188
 6276SOL    HW119727   3.161   5.423   3.181
 6276SOL    HW219728   3.307   5.489   3.149
 6277SOL     OW19729   4.806   1.769   1.654
 6277SOL    HW119730   4.808   1.789   1.752
 6277SOL    HW219731   4.899   1.778   1.617
 6278SOL     OW19732   3.261   6.907   5.906
 6278SOL    HW119733   3.208   6.991   5.890
 6278SOL    HW219734   3.342   6.907   5.847
 6279SOL     OW19735   3.052   5.358   0.897
 6279SOL    HW119736   3.114   5.392   0.968
 6279SOL    HW219737   3.079   5.266   0.870
 6280SOL     OW19738   6.290   2.039   6.923
 6280SOL    HW119739   6.197   2.041   6.959
 6280SOL    HW219740   6.355   2.059   6.996
 6281SOL     OW19741   6.064   4.193   4.413
 6281SOL    HW119742   6.088   4.174   4.318
 6281SOL    HW219743   6.139   4.244   4.457
 6282SOL     OW19744   6.882   3.838   5.902
 6282SOL    HW119745   6.906   3.754   5.950
 6282SOL    HW219746   6.791   3.828   5.861
 6283SOL     OW19747   0.747   5.772   5.313
 6283SOL    HW119748   0.800   5.807   5.391
 6283SOL    HW219749   0.799   5.787   5.229
 6284SOL     OW19750   1.624   4.681   6.839
 6284SOL    HW119751   1.670   4.769   6.823
 6284SOL    HW219752   1.543   4.675   6.780
 6285SOL     OW19753   1.796   3.788   3.367
 6285SOL    HW119754   1.809   3.762   3.463
 6285SOL    HW219755   1.871   3.753   3.312
 6286SOL     OW19756   0.541   3.542   4.869
 6286SOL    HW119757   0.562   3.479   4.944
 6286SOL    HW219758   0.473   3.500   4.808
 6287SOL     OW19759   4.101   4.683   5.266
 6287SOL    HW119760   4.148   4.595   5.252
 6287SOL    HW219761   4.150   4.736   5.335
 6288SOL     OW19762   4.076   3.307   6.888
 6288SOL    HW119763   4.071   3.321   6.987
 6288SOL    HW219764   4.014   3.370   6.842
 6289SOL     OW19765   2.408   4.195   6.801
 6289SOL    HW119766   2.487   4.171   6.745
 6289SOL    HW219767   2.399   4.295   6.805
 6290SOL     OW19768   6.055   5.283   6.238
 6290SOL    HW119769   6.031   5.365   6.290
 6290SOL    HW219770   5.984   5.265   6.170
 6291SOL     OW19771   3.349   3.154   3.230
 6291SOL    HW119772   3.424   3.138   3.166
 6291SOL    HW219773   3.310   3.066   3.259
 6292SOL     OW19774   1.904   2.166   4.610
 6292SOL    HW119775   1.877   2.134   4.519
 6292SOL    HW219776   1.988   2.119   4.638
 6293SOL     OW19777   4.724   1.403   0.604
 6293SOL    HW119778   4.715   1.404   0.704
 6293SOL    HW219779   4.689   1.317   0.569
 6294SOL     OW19780   3.793   0.821   3.723
 6294SOL    HW119781   3.780   0.758   3.800
 6294SOL    HW219782   3.811   0.913   3.757
 6295SOL     OW19783   5.181   5.163   4.773
 6295SOL    HW119784   5.212   5.196   4.684
 6295SOL    HW219785   5.202   5.065   4.781
 6296SOL     OW19786   0.585   3.367   5.994
 6296SOL    HW119787   0.519   3.327   5.930
 6296SOL    HW219788   0.642   3.294   6.033
 6297SOL     OW19789   6.173   0.210   4.588
 6297SOL    HW119790   6.082   0.240   4.616
 6297SOL    HW219791   6.191   0.120   4.627
 6298SOL     OW19792   5.516   3.985   7.001
 6298SOL    HW119793   5.426   3.944   7.015
 6298SOL    HW219794   5.554   3.953   6.914
 6299SOL     OW19795   5.030   2.568   2.657
 6299SOL    HW119796   4.989   2.561   2.566
 6299SOL    HW219797   5.087   2.651   2.661
 6300SOL     OW19798   4.146   1.071   6.689
 6300SOL    HW119799   4.144   0.981   6.645
 6300SOL    HW219800   4.223   1.123   6.654
 6301SOL     OW19801   3.217   6.590   6.695
 6301SOL    HW119802   3.282   6.611   6.768
 6301SOL    HW219803   3.124   6.600   6.730
 6302SOL     OW19804   2.353   1.773   5.676
 6302SOL    HW119805   2.347   1.853   5.737
 6302SOL    HW219806   2.373   1.691   5.730
 6303SOL     OW19807   1.260   6.601   5.627
 6303SOL    HW119808   1.332   6.535   5.649
 6303SOL    HW219809   1.299   6.679   5.579
 6304SOL     OW19810   4.157   0.769   3.484
 6304SOL    HW119811   4.061   0.761   3.458
 6304SOL    HW219812   4.213   0.780   3.401
 6305SOL     OW19813   6.649   5.559   5.736
 6305SOL    HW119814   6.563   5.589   5.695
 6305SOL    HW219815   6.649   5.580   5.834
 6306SOL     OW19816   0.583   3.863   4.015
 6306SOL    HW119817   0.659   3.827   3.962
 6306SOL    HW219818   0.582   3.820   4.106
 6307SOL     OW19819   3.952   3.939   3.695
 6307SOL    HW119820   3.955   3.945   3.795
 6307SOL    HW219821   4.009   3.863   3.665
 6308SOL     OW19822   0.305   2.346   5.605
 6308SOL    HW119823   0.223   2.322   5.656
 6308SOL    HW219824   0.294   2.438   5.566
 6309SOL     OW19825   0.817   6.763   4.423
 6309SOL    HW119826   0.813   6.835   4.353
 6309SOL    HW219827   0.749   6.693   4.403
 6310SOL     OW19828   1.605   6.725   3.269
 6310SOL    HW119829   1.646   6.787   3.201
 6310SOL    HW219830   1.513   6.699   3.239
 6311SOL     OW19831   5.265   1.105   6.505
 6311SOL    HW119832   5.329   1.066   6.572
 6311SOL    HW219833   5.310   1.110   6.416
 6312SOL     OW19834   2.976   6.723   6.328
 6312SOL    HW119835   2.973   6.645   6.265
 6312SOL    HW219836   3.047   6.787   6.298
 6313SOL     OW19837   5.286   6.215   3.222
 6313SOL    HW119838   5.310   6.119   3.205
 6313SOL    HW219839   5.269   6.261   3.134
 6314SOL     OW19840   2.979   0.078   1.469
 6314SOL    HW119841   3.002   0.171   1.498
 6314SOL    HW219842   3.056   0.017   1.490
 6315SOL     OW19843   1.784   2.596   4.400
 6315SOL    HW119844   1.807   2.665   4.469
 6315SOL    HW219845   1.685   2.585   4.395
 6316SOL     OW19846   4.432   1.825   5.686
 6316SOL    HW119847   4.473   1.917   5.682
 6316SOL    HW219848   4.382   1.808   5.602
 6317SOL     OW19849   5.108   4.338   2.576
 6317SOL    HW119850   5.134   4.434   2.563
 6317SOL    HW219851   5.126   4.312   2.671
 6318SOL     OW19852   6.606   0.012   6.716
 6318SOL    HW119853   6.623   6.955   6.662
 6318SOL    HW219854   6.669   0.085   6.689
 6319SOL     OW19855   5.675   2.586   4.942
 6319SOL    HW119856   5.666   2.494   4.903
 6319SOL    HW219857   5.763   2.594   4.989
 6320SOL     OW19858   0.831   1.043   3.632
 6320SOL    HW119859   0.801   0.985   3.708
 6320SOL    HW219860   0.757   1.052   3.566
 6321SOL     OW19861   5.304   2.562   0.679
 6321SOL    HW119862   5.369   2.517   0.741
 6321SOL    HW219863   5.211   2.535   0.704
 6322SOL     OW19864   2.288   1.092   0.550
 6322SOL    HW119865   2.216   1.158   0.573
 6322SOL    HW219866   2.344   1.075   0.631
 6323SOL     OW19867   2.657   2.870   1.211
 6323SOL    HW119868   2.746   2.852   1.252
 6323SOL    HW219869   2.650   2.823   1.123
 6324SOL     OW19870   4.638   1.148   0.995
 6324SOL    HW119871   4.685   1.064   0.967
 6324SOL    HW219872   4.545   1.147   0.960
 6325SOL     OW19873   1.598   2.565   2.339
 6325SOL    HW119874   1.611   2.660   2.310
 6325SOL    HW219875   1.687   2.521   2.353
 6326SOL     OW19876   4.630   4.774   5.775
 6326SOL    HW119877   4.550   4.830   5.753
 6326SOL    HW219878   4.710   4.811   5.727
 6327SOL     OW19879   0.489   1.993   3.681
 6327SOL    HW119880   0.466   2.091   3.675
 6327SOL    HW219881   0.549   1.977   3.759
 6328SOL     OW19882   4.941   3.905   5.959
 6328SOL    HW119883   4.951   3.826   6.020
 6328SOL    HW219884   4.847   3.907   5.923
 6329SOL     OW19885   1.267   2.953   4.910
 6329SOL    HW119886   1.334   2.878   4.918
 6329SOL    HW219887   1.228   2.972   5.001
 6330SOL     OW19888   5.941   0.752   3.406
 6330SOL    HW119889   5.963   0.657   3.428
 6330SOL    HW219890   6.025   0.806   3.402
 6331SOL     OW19891   6.312   3.158   4.478
 6331SOL    HW119892   6.343   3.063   4.471
 6331SOL    HW219893   6.356   3.202   4.556
 6332SOL     OW19894   1.845   1.710   1.398
 6332SOL    HW119895   1.927   1.749   1.439
 6332SOL    HW219896   1.865   1.681   1.304
 6333SOL     OW19897   4.895   6.991   0.512
 6333SOL    HW119898   4.943   0.018   0.441
 6333SOL    HW219899   4.796   7.003   0.500
 6334SOL     OW19900   2.602   1.634   1.838
 6334SOL    HW119901   2.669   1.698   1.801
 6334SOL    HW219902   2.650   1.558   1.883
 6335SOL     OW19903   5.339   0.838   1.022
 6335SOL    HW119904   5.272   0.769   1.049
 6335SOL    HW219905   5.347   0.906   1.095
 6336SOL     OW19906   6.901   4.490   6.059
 6336SOL    HW119907   6.867   4.584   6.063
 6336SOL    HW219908   6.969   4.482   5.986
 6337SOL     OW19909   4.166   5.781   5.074
 6337SOL    HW119910   4.250   5.739   5.040
 6337SOL    HW219911   4.095   5.774   5.005
 6338SOL     OW19912   3.127   2.114   4.190
 6338SOL    HW119913   3.226   2.112   4.181
 6338SOL    HW219914   3.086   2.145   4.104
 6339SOL     OW19915   0.601   3.565   2.658
 6339SOL    HW119916   0.546   3.649   2.661
 6339SOL    HW219917   0.695   3.588   2.634
 6340SOL     OW19918   2.475   3.878   1.284
 6340SOL    HW119919   2.402   3.944   1.300
 6340SOL    HW219920   2.506   3.841   1.372
 6341SOL     OW19921   1.181   3.886   3.667
 6341SOL    HW119922   1.100   3.843   3.707
 6341SOL    HW219923   1.196   3.975   3.709
 6342SOL     OW19924   2.257   0.939   1.455
 6342SOL    HW119925   2.271   0.986   1.368
 6342SOL    HW219926   2.241   1.007   1.527
 6343SOL     OW19927   3.744   6.331   7.021
 6343SOL    HW119928   3.701   6.241   0.001
 6343SOL    HW219929   3.674   6.402   0.000
 6344SOL     OW19930   5.873   2.891   4.127
 6344SOL    HW119931   5.864   2.792   4.129
 6344SOL    HW219932   5.937   2.921   4.198
 6345SOL     OW19933   5.059   3.320   1.936
 6345SOL    HW119934   5.004   3.306   1.854
 6345SOL    HW219935   5.036   3.408   1.978
 6346SOL     OW19936   7.025   4.013   5.721
 6346SOL    HW119937   6.962   3.951   5.767
 6346SOL    HW219938   7.009   4.010   5.622
 6347SOL     OW19939   2.776   2.312   2.441
 6347SOL    HW119940   2.724   2.227   2.447
 6347SOL    HW219941   2.767   2.351   2.349
 6348SOL     OW19942   0.270   1.837   5.899
 6348SOL    HW119943   0.241   1.804   5.989
 6348SOL    HW219944   0.367   1.813   5.885
 6349SOL     OW19945   1.349   0.192   0.305
 6349SOL    HW119946   1.267   0.209   0.359
 6349SOL    HW219947   1.420   0.153   0.364
 6350SOL     OW19948   1.101   4.972   2.654
 6350SOL    HW119949   1.193   4.932   2.651
 6350SOL    HW219950   1.041   4.912   2.707
 6351SOL     OW19951   6.631   3.821   3.333
 6351SOL    HW119952   6.650   3.727   3.306
 6351SOL    HW219953   6.541   3.825   3.377
 6352SOL     OW19954   2.593   0.653   4.195
 6352SOL    HW119955   2.585   0.704   4.280
 6352SOL    HW219956   2.503   0.620   4.167
 6353SOL     OW19957   2.541   5.132   0.067
 6353SOL    HW119958   2.539   5.039   0.103
 6353SOL    HW219959   2.450   5.173   0.074
 6354SOL     OW19960   4.703   5.284   2.956
 6354SOL    HW119961   4.690   5.270   3.054
 6354SOL    HW219962   4.676   5.201   2.906
 6355SOL     OW19963   2.388   4.887   0.636
 6355SOL    HW119964   2.428   4.861   0.724
 6355SOL    HW219965   2.447   4.954   0.591
 6356SOL     OW19966   5.181   4.796   6.804
 6356SOL    HW119967   5.117   4.743   6.861
 6356SOL    HW219968   5.256   4.829   6.861
 6357SOL     OW19969   5.511   2.040   1.265
 6357SOL    HW119970   5.434   2.017   1.206
 6357SOL    HW219971   5.596   2.013   1.221
 6358SOL     OW19972   0.676   1.521   6.733
 6358SOL    HW119973   0.629   1.567   6.658
 6358SOL    HW219974   0.622   1.443   6.764
 6359SOL     OW19975   6.248   6.755   0.909
 6359SOL    HW119976   6.177   6.696   0.870
 6359SOL    HW219977   6.334   6.704   0.915
 6360SOL     OW19978   6.926   2.651   3.847
 6360SOL    HW119979   6.939   2.588   3.771
 6360SOL    HW219980   6.836   2.695   3.838
 6361SOL     OW19981   0.249   0.714   0.188
 6361SOL    HW119982   0.183   0.790   0.190
 6361SOL    HW219983   0.340   0.750   0.169
 6362SOL     OW19984   1.098   5.921   6.410
 6362SOL    HW119985   1.147   5.983   6.349
 6362SOL    HW219986   1.021   5.969   6.452
 6363SOL     OW19987   2.735   5.230   3.674
 6363SOL    HW119988   2.766   5.295   3.606
 6363SOL    HW219989   2.813   5.179   3.710
 6364SOL     OW19990   2.152   2.343   4.820
 6364SOL    HW119991   2.075   2.334   4.883
 6364SOL    HW219992   2.236   2.357   4.873
 6365SOL     OW19993   6.053   5.574   4.639
 6365SOL    HW119994   5.984   5.643   4.658
 6365SOL    HW219995   6.046   5.500   4.706
 6366SOL     OW19996   5.899   6.609   4.651
 6366SOL    HW119997   5.843   6.554   4.713
 6366SOL    HW219998   5.982   6.639   4.699
 6367SOL     OW19999   2.999   1.855   2.790
 6367SOL    HW120000   2.919   1.798   2.777
 6367SOL    HW220001   2.973   1.952   2.787
 6368SOL     OW20002   4.672   4.279   4.071
 6368SOL    HW120003   4.586   4.227   4.071
 6368SOL    HW220004   4.721   4.263   4.156
 6369SOL     OW20005   2.655   6.140   5.688
 6369SOL    HW120006   2.658   6.050   5.732
 6369SOL    HW220007   2.573   6.146   5.631
 6370SOL     OW20008   5.311   3.943   3.397
 6370SOL    HW120009   5.285   3.855   3.358
 6370SOL    HW220010   5.410   3.956   3.385
 6371SOL     OW20011   5.404   3.750   1.876
 6371SOL    HW120012   5.323   3.702   1.844
 6371SOL    HW220013   5.420   3.831   1.820
 6372SOL     OW20014   0.337   1.288   2.661
 6372SOL    HW120015   0.375   1.196   2.658
 6372SOL    HW220016   0.356   1.334   2.574
 6373SOL     OW20017   5.601   4.208   1.270
 6373SOL    HW120018   5.523   4.267   1.253
 6373SOL    HW220019   5.569   4.119   1.304
 6374SOL     OW20020   4.672   3.172   0.292
 6374SOL    HW120021   4.588   3.119   0.300
 6374SOL    HW220022   4.687   3.198   0.197
 6375SOL     OW20023   0.292   2.517   2.260
 6375SOL    HW120024   0.379   2.471   2.243
 6375SOL    HW220025   0.297   2.567   2.347
 6376SOL     OW20026   4.733   0.531   5.632
 6376SOL    HW120027   4.737   0.595   5.709
 6376SOL    HW220028   4.801   0.458   5.645
 6377SOL     OW20029   7.002   0.600   6.920
 6377SOL    HW120030   6.987   0.604   6.821
 6377SOL    HW220031   0.073   0.619   6.941
 6378SOL     OW20032   4.955   5.673   2.702
 6378SOL    HW120033   4.939   5.576   2.721
 6378SOL    HW220034   4.904   5.700   2.621
 6379SOL     OW20035   1.835   5.527   6.035
 6379SOL    HW120036   1.806   5.528   6.131
 6379SOL    HW220037   1.843   5.621   6.001
 6380SOL     OW20038   0.564   3.298   4.994
 6380SOL    HW120039   0.585   3.265   5.086
 6380SOL    HW220040   0.587   3.229   4.927
 6381SOL     OW20041   3.927   3.072   0.572
 6381SOL    HW120042   3.872   3.107   0.496
 6381SOL    HW220043   3.995   3.008   0.537
 6382SOL     OW20044   2.827   1.987   1.144
 6382SOL    HW120045   2.860   2.022   1.232
 6382SOL    HW220046   2.901   1.988   1.077
 6383SOL     OW20047   1.880   2.858   2.764
 6383SOL    HW120048   1.830   2.941   2.789
 6383SOL    HW220049   1.826   2.806   2.698
 6384SOL     OW20050   6.003   2.583   2.170
 6384SOL    HW120051   5.920   2.555   2.123
 6384SOL    HW220052   6.063   2.632   2.106
 6385SOL     OW20053   6.853   3.829   0.943
 6385SOL    HW120054   6.889   3.921   0.961
 6385SOL    HW220055   6.801   3.829   0.857
 6386SOL     OW20056   2.009   3.794   0.584
 6386SOL    HW120057   2.081   3.796   0.653
 6386SOL    HW220058   1.920   3.807   0.628
 6387SOL     OW20059   5.999   1.135   0.140
 6387SOL    HW120060   5.902   1.122   0.119
 6387SOL    HW220061   6.041   1.047   0.161
 6388SOL     OW20062   6.587   5.101   2.846
 6388SOL    HW120063   6.501   5.106   2.795
 6388SOL    HW220064   6.658   5.059   2.788
 6389SOL     OW20065   1.688   6.984   0.141
 6389SOL    HW120066   1.754   0.031   0.162
 6389SOL    HW220067   1.675   6.979   0.042
 6390SOL     OW20068   6.072   0.767   0.328
 6390SOL    HW120069   6.170   0.785   0.330
 6390SOL    HW220070   6.030   0.820   0.255
 6391SOL     OW20071   0.971   1.069   5.722
 6391SOL    HW120072   1.067   1.067   5.695
 6391SOL    HW220073   0.937   1.163   5.714
 6392SOL     OW20074   3.439   5.770   3.282
 6392SOL    HW120075   3.457   5.672   3.284
 6392SOL    HW220076   3.502   5.817   3.344
 6393SOL     OW20077   5.644   6.748   1.760
 6393SOL    HW120078   5.628   6.650   1.752
 6393SOL    HW220079   5.640   6.790   1.669
 6394SOL     OW20080   0.983   5.006   0.819
 6394SOL    HW120081   0.929   4.991   0.736
 6394SOL    HW220082   1.031   5.093   0.812
 6395SOL     OW20083   0.312   4.040   2.690
 6395SOL    HW120084   0.289   4.010   2.597
 6395SOL    HW220085   0.301   3.963   2.753
 6396SOL     OW20086   6.654   3.233   6.808
 6396SOL    HW120087   6.575   3.229   6.869
 6396SOL    HW220088   6.657   3.322   6.763
 6397SOL     OW20089   6.411   2.494   3.031
 6397SOL    HW120090   6.481   2.488   2.959
 6397SOL    HW220091   6.407   2.406   3.080
 6398SOL     OW20092   1.341   6.200   1.399
 6398SOL    HW120093   1.426   6.151   1.379
 6398SOL    HW220094   1.273   6.136   1.433
 6399SOL     OW20095   2.152   0.098   6.734
 6399SOL    HW120096   2.215   0.034   6.690
 6399SOL    HW220097   2.110   0.054   6.813
 6400SOL     OW20098   1.533   6.042   3.356
 6400SOL    HW120099   1.612   6.073   3.303
 6400SOL    HW220100   1.467   6.116   3.364
 6401SOL     OW20101   4.343   4.868   2.834
 6401SOL    HW120102   4.354   4.930   2.913
 6401SOL    HW220103   4.417   4.801   2.834
 6402SOL     OW20104   1.503   4.204   3.785
 6402SOL    HW120105   1.472   4.272   3.851
 6402SOL    HW220106   1.569   4.143   3.829
 6403SOL     OW20107   5.611   6.460   5.094
 6403SOL    HW120108   5.622   6.527   5.167
 6403SOL    HW220109   5.517   6.465   5.058
 6404SOL     OW20110   4.079   0.944   2.527
 6404SOL    HW120111   4.098   0.889   2.608
 6404SOL    HW220112   4.027   1.025   2.554
 6405SOL     OW20113   5.315   1.415   3.236
 6405SOL    HW120114   5.321   1.416   3.136
 6405SOL    HW220115   5.264   1.334   3.266
 6406SOL     OW20116   0.794   2.672   3.032
 6406SOL    HW120117   0.883   2.716   3.027
 6406SOL    HW220118   0.722   2.740   3.015
 6407SOL     OW20119   2.019   6.338   3.541
 6407SOL    HW120120   2.022   6.356   3.443
 6407SOL    HW220121   2.075   6.258   3.563
 6408SOL     OW20122   6.842   0.728   1.101
 6408SOL    HW120123   6.898   0.802   1.139
 6408SOL    HW220124   6.826   0.745   1.004
 6409SOL     OW20125   6.375   4.897   4.130
 6409SOL    HW120126   6.454   4.836   4.124
 6409SOL    HW220127   6.295   4.845   4.160
 6410SOL     OW20128   2.525   1.321   5.557
 6410SOL    HW120129   2.489   1.234   5.588
 6410SOL    HW220130   2.540   1.381   5.636
 6411SOL     OW20131   0.098   3.018   1.746
 6411SOL    HW120132   0.064   3.054   1.658
 6411SOL    HW220133   0.195   2.996   1.737
 6412SOL     OW20134   3.358   0.657   6.849
 6412SOL    HW120135   3.418   0.607   6.786
 6412SOL    HW220136   3.310   0.593   6.908
 6413SOL     OW20137   4.215   4.991   4.474
 6413SOL    HW120138   4.178   4.997   4.382
 6413SOL    HW220139   4.246   5.081   4.504
 6414SOL     OW20140   0.861   7.008   0.083
 6414SOL    HW120141   0.787   6.976   0.023
 6414SOL    HW220142   0.858   6.957   0.169
 6415SOL     OW20143   1.465   3.669   2.895
 6415SOL    HW120144   1.452   3.738   2.824
 6415SOL    HW220145   1.383   3.612   2.902
 6416SOL     OW20146   3.110   0.101   6.324
 6416SOL    HW120147   3.147   0.023   6.273
 6416SOL    HW220148   3.021   0.076   6.363
 6417SOL     OW20149   4.907   1.839   0.899
 6417SOL    HW120150   4.937   1.902   0.828
 6417SOL    HW220151   4.917   1.883   0.989
 6418SOL     OW20152   4.461   4.529   1.806
 6418SOL    HW120153   4.383   4.580   1.841
 6418SOL    HW220154   4.480   4.452   1.868
 6419SOL     OW20155   1.124   6.299   6.650
 6419SOL    HW120156   1.065   6.234   6.697
 6419SOL    HW220157   1.165   6.361   6.716
 6420SOL     OW20158   1.384   3.200   3.929
 6420SOL    HW120159   1.329   3.221   4.010
 6420SOL    HW220160   1.430   3.113   3.942
 6421SOL     OW20161   5.482   0.161   1.391
 6421SOL    HW120162   5.561   0.208   1.350
 6421SOL    HW220163   5.499   0.146   1.488
 6422SOL     OW20164   0.202   2.571   5.484
 6422SOL    HW120165   0.136   2.586   5.557
 6422SOL    HW220166   0.156   2.530   5.405
 6423SOL     OW20167   2.909   5.774   4.435
 6423SOL    HW120168   2.987   5.719   4.405
 6423SOL    HW220169   2.937   5.832   4.512
 6424SOL     OW20170   0.624   3.056   4.861
 6424SOL    HW120171   0.534   3.013   4.862
 6424SOL    HW220172   0.695   2.987   4.874
 6425SOL     OW20173   6.889   5.650   2.646
 6425SOL    HW120174   6.801   5.606   2.632
 6425SOL    HW220175   6.961   5.597   2.601
 6426SOL     OW20176   4.562   4.648   4.810
 6426SOL    HW120177   4.528   4.726   4.756
 6426SOL    HW220178   4.486   4.609   4.862
 6427SOL     OW20179   3.202   3.473   2.968
 6427SOL    HW120180   3.119   3.433   3.007
 6427SOL    HW220181   3.207   3.451   2.871
 6428SOL     OW20182   4.776   2.238   0.714
 6428SOL    HW120183   4.835   2.157   0.710
 6428SOL    HW220184   4.808   2.306   0.648
 6429SOL     OW20185   2.089   0.892   5.037
 6429SOL    HW120186   1.993   0.885   5.064
 6429SOL    HW220187   2.107   0.828   4.963
 6430SOL     OW20188   0.082   0.651   5.201
 6430SOL    HW120189   0.048   0.562   5.172
 6430SOL    HW220190   0.139   0.640   5.282
 6431SOL     OW20191   4.908   5.801   3.145
 6431SOL    HW120192   4.848   5.729   3.113
 6431SOL    HW220193   4.854   5.875   3.185
 6432SOL     OW20194   3.506   3.924   6.605
 6432SOL    HW120195   3.485   3.843   6.550
 6432SOL    HW220196   3.564   3.896   6.682
 6433SOL     OW20197   2.972   5.558   0.017
 6433SOL    HW120198   3.012   5.576   0.107
 6433SOL    HW220199   3.005   5.626   6.976
 6434SOL     OW20200   2.997   6.051   6.582
 6434SOL    HW120201   2.982   6.143   6.547
 6434SOL    HW220202   2.910   6.013   6.615
 6435SOL     OW20203   5.690   0.257   0.531
 6435SOL    HW120204   5.637   0.259   0.616
 6435SOL    HW220205   5.782   0.223   0.551
 6436SOL     OW20206   0.911   4.191   3.475
 6436SOL    HW120207   0.980   4.135   3.430
 6436SOL    HW220208   0.855   4.134   3.535
 6437SOL     OW20209   0.739   1.413   5.260
 6437SOL    HW120210   0.783   1.500   5.281
 6437SOL    HW220211   0.742   1.396   5.162
 6438SOL     OW20212   0.418   5.548   6.700
 6438SOL    HW120213   0.419   5.534   6.601
 6438SOL    HW220214   0.488   5.491   6.743
 6439SOL     OW20215   6.546   0.982   3.894
 6439SOL    HW120216   6.626   0.948   3.944
 6439SOL    HW220217   6.552   1.082   3.885
 6440SOL     OW20218   2.422   0.491   6.598
 6440SOL    HW120219   2.509   0.443   6.592
 6440SOL    HW220220   2.406   0.522   6.691
 6441SOL     OW20221   0.235   0.854   3.405
 6441SOL    HW120222   0.168   0.795   3.451
 6441SOL    HW220223   0.312   0.871   3.466
 6442SOL     OW20224   2.442   2.045   4.802
 6442SOL    HW120225   2.400   2.019   4.714
 6442SOL    HW220226   2.446   2.144   4.809
 6443SOL     OW20227   3.731   1.992   0.458
 6443SOL    HW120228   3.727   2.092   0.455
 6443SOL    HW220229   3.819   1.962   0.422
 6444SOL     OW20230   0.026   2.726   5.630
 6444SOL    HW120231   0.033   2.819   5.595
 6444SOL    HW220232   6.992   2.672   5.569
 6445SOL     OW20233   3.434   3.389   3.319
 6445SOL    HW120234   3.419   3.298   3.281
 6445SOL    HW220235   3.451   3.382   3.417
 6446SOL     OW20236   2.091   1.948   6.221
 6446SOL    HW120237   2.171   2.005   6.203
 6446SOL    HW220238   2.118   1.867   6.273
 6447SOL     OW20239   6.423   4.390   1.177
 6447SOL    HW120240   6.370   4.471   1.151
 6447SOL    HW220241   6.407   4.370   1.274
 6448SOL     OW20242   4.676   5.470   1.731
 6448SOL    HW120243   4.623   5.422   1.802
 6448SOL    HW220244   4.753   5.517   1.774
 6449SOL     OW20245   2.424   5.783   1.377
 6449SOL    HW120246   2.444   5.874   1.414
 6449SOL    HW220247   2.415   5.718   1.453
 6450SOL     OW20248   0.503   3.965   1.029
 6450SOL    HW120249   0.557   3.976   0.946
 6450SOL    HW220250   0.468   3.871   1.034
 6451SOL     OW20251   3.513   1.898   6.941
 6451SOL    HW120252   3.524   1.994   6.968
 6451SOL    HW220253   3.566   1.880   6.859
 6452SOL     OW20254   5.259   3.610   2.722
 6452SOL    HW120255   5.205   3.694   2.721
 6452SOL    HW220256   5.200   3.532   2.700
 6453SOL     OW20257   3.561   7.013   1.066
 6453SOL    HW120258   3.646   7.013   1.013
 6453SOL    HW220259   3.567   0.058   1.137
 6454SOL     OW20260   6.686   1.992   2.808
 6454SOL    HW120261   6.707   1.911   2.754
 6454SOL    HW220262   6.739   2.070   2.774
 6455SOL     OW20263   6.709   4.548   3.089
 6455SOL    HW120264   6.671   4.568   2.999
 6455SOL    HW220265   6.679   4.618   3.154
 6456SOL     OW20266   0.653   1.294   2.570
 6456SOL    HW120267   0.709   1.339   2.500
 6456SOL    HW220268   0.563   1.337   2.573
 6457SOL     OW20269   5.080   6.824   1.769
 6457SOL    HW120270   4.989   6.797   1.800
 6457SOL    HW220271   5.105   6.912   1.809
 6458SOL     OW20272   1.299   5.029   4.570
 6458SOL    HW120273   1.379   5.055   4.624
 6458SOL    HW220274   1.254   4.950   4.612
 6459SOL     OW20275   5.641   2.964   3.255
 6459SOL    HW120276   5.705   2.891   3.280
 6459SOL    HW220277   5.569   2.970   3.324
 6460SOL     OW20278   6.696   5.473   5.181
 6460SOL    HW120279   6.613   5.473   5.124
 6460SOL    HW220280   6.671   5.489   5.276
 6461SOL     OW20281   3.298   4.491   0.822
 6461SOL    HW120282   3.257   4.411   0.778
 6461SOL    HW220283   3.312   4.473   0.919
 6462SOL     OW20284   1.872   3.632   4.526
 6462SOL    HW120285   1.885   3.731   4.521
 6462SOL    HW220286   1.960   3.586   4.520
 6463SOL     OW20287   5.075   0.516   0.824
 6463SOL    HW120288   5.052   0.489   0.731
 6463SOL    HW220289   5.016   0.469   0.889
 6464SOL     OW20290   1.114   6.482   4.687
 6464SOL    HW120291   1.151   6.396   4.723
 6464SOL    HW220292   1.146   6.494   4.593
 6465SOL     OW20293   5.725   2.551   2.013
 6465SOL    HW120294   5.713   2.574   1.916
 6465SOL    HW220295   5.642   2.573   2.063
 6466SOL     OW20296   6.716   2.738   6.524
 6466SOL    HW120297   6.783   2.761   6.594
 6466SOL    HW220298   6.685   2.821   6.478
 6467SOL     OW20299   3.373   0.881   0.868
 6467SOL    HW120300   3.401   0.910   0.960
 6467SOL    HW220301   3.446   0.901   0.803
 6468SOL     OW20302   4.160   6.238   0.587
 6468SOL    HW120303   4.131   6.331   0.608
 6468SOL    HW220304   4.223   6.240   0.509
 6469SOL     OW20305   2.933   2.183   3.961
 6469SOL    HW120306   2.969   2.146   3.875
 6469SOL    HW220307   2.849   2.136   3.986
 6470SOL     OW20308   6.719   2.696   0.359
 6470SOL    HW120309   6.661   2.615   0.350
 6470SOL    HW220310   6.666   2.770   0.401
 6471SOL     OW20311   0.585   6.615   5.197
 6471SOL    HW120312   0.630   6.575   5.277
 6471SOL    HW220313   0.488   6.590   5.197
 6472SOL     OW20314   6.731   6.473   2.442
 6472SOL    HW120315   6.786   6.444   2.364
 6472SOL    HW220316   6.742   6.407   2.517
 6473SOL     OW20317   1.874   1.455   4.385
 6473SOL    HW120318   1.820   1.484   4.306
 6473SOL    HW220319   1.971   1.465   4.363
 6474SOL     OW20320   4.291   5.100   5.357
 6474SOL    HW120321   4.356   5.135   5.290
 6474SOL    HW220322   4.306   5.146   5.445
 6475SOL     OW20323   5.688   5.303   3.382
 6475SOL    HW120324   5.738   5.347   3.308
 6475SOL    HW220325   5.736   5.219   3.410
 6476SOL     OW20326   3.862   2.183   6.819
 6476SOL    HW120327   3.915   2.251   6.870
 6476SOL    HW220328   3.791   2.229   6.765
 6477SOL     OW20329   0.146   6.038   1.043
 6477SOL    HW120330   0.099   6.067   1.127
 6477SOL    HW220331   0.173   5.943   1.052
 6478SOL     OW20332   2.591   5.803   1.731
 6478SOL    HW120333   2.680   5.806   1.685
 6478SOL    HW220334   2.600   5.750   1.816
 6479SOL     OW20335   3.436   5.926   4.434
 6479SOL    HW120336   3.387   5.881   4.509
 6479SOL    HW220337   3.372   5.983   4.382
 6480SOL     OW20338   2.344   0.802   6.757
 6480SOL    HW120339   2.403   0.883   6.765
 6480SOL    HW220340   2.303   0.800   6.666
 6481SOL     OW20341   2.951   2.251   1.664
 6481SOL    HW120342   2.941   2.278   1.760
 6481SOL    HW220343   3.003   2.321   1.615
 6482SOL     OW20344   6.951   2.452   5.834
 6482SOL    HW120345   7.017   2.482   5.903
 6482SOL    HW220346   6.913   2.533   5.788
 6483SOL     OW20347   1.326   5.600   4.226
 6483SOL    HW120348   1.414   5.646   4.238
 6483SOL    HW220349   1.318   5.567   4.132
 6484SOL     OW20350   3.008   1.534   2.839
 6484SOL    HW120351   3.038   1.477   2.914
 6484SOL    HW220352   2.927   1.586   2.867
 6485SOL     OW20353   2.300   6.623   5.151
 6485SOL    HW120354   2.373   6.689   5.133
 6485SOL    HW220355   2.214   6.657   5.112
 6486SOL     OW20356   0.961   4.800   2.821
 6486SOL    HW120357   0.865   4.776   2.835
 6486SOL    HW220358   0.996   4.846   2.903
 6487SOL     OW20359   1.130   5.264   4.610
 6487SOL    HW120360   1.203   5.196   4.615
 6487SOL    HW220361   1.160   5.343   4.556
 6488SOL     OW20362   4.613   5.474   4.590
 6488SOL    HW120363   4.666   5.558   4.601
 6488SOL    HW220364   4.670   5.404   4.547
 6489SOL     OW20365   3.557   3.048   6.305
 6489SOL    HW120366   3.621   3.032   6.230
 6489SOL    HW220367   3.466   3.066   6.269
 6490SOL     OW20368   1.676   1.753   6.828
 6490SOL    HW120369   1.740   1.829   6.842
 6490SOL    HW220370   1.613   1.749   6.905
 6491SOL     OW20371   2.177   6.916   0.934
 6491SOL    HW120372   2.108   6.962   0.990
 6491SOL    HW220373   2.135   6.880   0.851
 6492SOL     OW20374   3.643   4.169   4.053
 6492SOL    HW120375   3.650   4.217   3.965
 6492SOL    HW220376   3.710   4.095   4.056
 6493SOL     OW20377   1.390   4.423   6.397
 6493SOL    HW120378   1.472   4.369   6.416
 6493SOL    HW220379   1.392   4.455   6.302
 6494SOL     OW20380   5.760   6.462   2.439
 6494SOL    HW120381   5.714   6.392   2.385
 6494SOL    HW220382   5.824   6.418   2.502
 6495SOL     OW20383   6.504   0.099   4.631
 6495SOL    HW120384   6.505   0.158   4.551
 6495SOL    HW220385   6.489   0.153   4.713
 6496SOL     OW20386   4.754   6.456   1.744
 6496SOL    HW120387   4.804   6.410   1.671
 6496SOL    HW220388   4.699   6.390   1.795
 6497SOL     OW20389   0.412   1.723   1.212
 6497SOL    HW120390   0.495   1.740   1.159
 6497SOL    HW220391   0.335   1.709   1.149
 6498SOL     OW20392   1.056   4.549   4.409
 6498SOL    HW120393   1.022   4.519   4.498
 6498SOL    HW220394   1.079   4.469   4.354
 6499SOL     OW20395   5.360   4.027   4.047
 6499SOL    HW120396   5.340   3.978   3.963
 6499SOL    HW220397   5.316   4.117   4.045
 6500SOL     OW20398   0.601   3.697   2.317
 6500SOL    HW120399   0.675   3.650   2.270
 6500SOL    HW220400   0.527   3.716   2.252
 6501SOL     OW20401   0.189   1.846   0.826
 6501SOL    HW120402   0.112   1.841   0.761
 6501SOL    HW220403   0.168   1.913   0.897
 6502SOL     OW20404   6.378   3.749   1.437
 6502SOL    HW120405   6.357   3.719   1.344
 6502SOL    HW220406   6.340   3.840   1.452
 6503SOL     OW20407   6.515   2.406   5.936
 6503SOL    HW120408   6.445   2.473   5.957
 6503SOL    HW220409   6.574   2.440   5.863
 6504SOL     OW20410   5.149   6.561   6.327
 6504SOL    HW120411   5.119   6.606   6.412
 6504SOL    HW220412   5.155   6.629   6.254
 6505SOL     OW20413   5.734   6.277   0.347
 6505SOL    HW120414   5.794   6.326   0.410
 6505SOL    HW220415   5.696   6.196   0.392
 6506SOL     OW20416   0.065   3.563   3.721
 6506SOL    HW120417   7.018   3.625   3.752
 6506SOL    HW220418   0.128   3.613   3.662
 6507SOL     OW20419   3.437   5.491   6.429
 6507SOL    HW120420   3.511   5.464   6.368
 6507SOL    HW220421   3.391   5.572   6.392
 6508SOL     OW20422   1.454   6.420   2.184
 6508SOL    HW120423   1.403   6.487   2.130
 6508SOL    HW220424   1.551   6.444   2.185
 6509SOL     OW20425   3.885   1.335   5.014
 6509SOL    HW120426   3.895   1.387   5.099
 6509SOL    HW220427   3.961   1.271   5.004
 6510SOL     OW20428   4.324   6.125   5.786
 6510SOL    HW120429   4.312   6.137   5.885
 6510SOL    HW220430   4.394   6.188   5.753
 6511SOL     OW20431   3.888   1.090   5.696
 6511SOL    HW120432   3.977   1.093   5.742
 6511SOL    HW220433   3.882   1.006   5.642
 6512SOL     OW20434   2.776   0.102   2.364
 6512SOL    HW120435   2.694   0.058   2.329
 6512SOL    HW220436   2.814   0.048   2.440
 6513SOL     OW20437   2.565   5.541   4.500
 6513SOL    HW120438   2.497   5.599   4.545
 6513SOL    HW220439   2.608   5.592   4.426
 6514SOL     OW20440   6.184   0.541   5.723
 6514SOL    HW120441   6.245   0.462   5.730
 6514SOL    HW220442   6.118   0.525   5.649
 6515SOL     OW20443   2.136   4.661   2.489
 6515SOL    HW120444   2.108   4.584   2.432
 6515SOL    HW220445   2.101   4.746   2.449
 6516SOL     OW20446   6.924   3.168   1.901
 6516SOL    HW120447   6.908   3.266   1.888
 6516SOL    HW220448   6.999   3.138   1.842
 6517SOL     OW20449   6.716   1.882   0.895
 6517SOL    HW120450   6.750   1.976   0.882
 6517SOL    HW220451   6.624   1.885   0.933
 6518SOL     OW20452   6.801   1.035   2.067
 6518SOL    HW120453   6.836   1.068   2.155
 6518SOL    HW220454   6.875   1.038   1.999
 6519SOL     OW20455   0.640   0.773   2.907
 6519SOL    HW120456   0.670   0.761   3.002
 6519SOL    HW220457   0.616   0.869   2.892
 6520SOL     OW20458   0.169   6.023   6.760
 6520SOL    HW120459   0.262   6.059   6.761
 6520SOL    HW220460   0.167   5.935   6.712
 6521SOL     OW20461   1.720   3.013   3.206
 6521SOL    HW120462   1.758   3.076   3.274
 6521SOL    HW220463   1.622   3.032   3.194
 6522SOL     OW20464   2.912   4.276   5.651
 6522SOL    HW120465   2.831   4.332   5.669
 6522SOL    HW220466   2.883   4.183   5.627
 6523SOL     OW20467   5.356   0.185   0.166
 6523SOL    HW120468   5.331   0.090   0.153
 6523SOL    HW220469   5.395   0.221   0.081
 6524SOL     OW20470   2.685   2.516   1.803
 6524SOL    HW120471   2.769   2.476   1.841
 6524SOL    HW220472   2.605   2.471   1.843
 6525SOL     OW20473   1.753   5.160   3.765
 6525SOL    HW120474   1.802   5.170   3.679
 6525SOL    HW220475   1.655   5.161   3.749
 6526SOL     OW20476   0.015   0.073   1.129
 6526SOL    HW120477   0.066   0.094   1.212
 6526SOL    HW220478   0.052   7.014   1.088
 6527SOL     OW20479   0.320   2.538   0.578
 6527SOL    HW120480   0.379   2.513   0.655
 6527SOL    HW220481   0.316   2.462   0.513
 6528SOL     OW20482   6.489   1.569   6.216
 6528SOL    HW120483   6.439   1.619   6.144
 6528SOL    HW220484   6.509   1.476   6.184
 6529SOL     OW20485   0.478   0.675   2.392
 6529SOL    HW120486   0.464   0.770   2.364
 6529SOL    HW220487   0.392   0.624   2.381
 6530SOL     OW20488   0.466   2.227   2.123
 6530SOL    HW120489   0.497   2.305   2.177
 6530SOL    HW220490   0.496   2.237   2.029
 6531SOL     OW20491   4.071   3.406   5.583
 6531SOL    HW120492   4.055   3.365   5.494
 6531SOL    HW220493   4.145   3.473   5.577
 6532SOL     OW20494   1.650   1.187   0.482
 6532SOL    HW120495   1.700   1.107   0.517
 6532SOL    HW220496   1.710   1.267   0.486
 6533SOL     OW20497   4.578   5.678   0.294
 6533SOL    HW120498   4.614   5.753   0.350
 6533SOL    HW220499   4.510   5.628   0.346
 6534SOL     OW20500   5.091   5.062   1.843
 6534SOL    HW120501   5.159   5.090   1.910
 6534SOL    HW220502   5.088   4.962   1.838
 6535SOL     OW20503   5.822   3.986   4.717
 6535SOL    HW120504   5.801   4.083   4.732
 6535SOL    HW220505   5.841   3.972   4.620
 6536SOL     OW20506   0.519   2.225   4.797
 6536SOL    HW120507   0.584   2.198   4.726
 6536SOL    HW220508   0.563   2.289   4.860
 6537SOL     OW20509   6.401   4.503   4.722
 6537SOL    HW120510   6.429   4.592   4.684
 6537SOL    HW220511   6.413   4.504   4.821
 6538SOL     OW20512   2.063   3.535   5.793
 6538SOL    HW120513   2.051   3.630   5.762
 6538SOL    HW220514   2.078   3.477   5.713
 6539SOL     OW20515   5.463   0.814   6.878
 6539SOL    HW120516   5.462   0.879   6.803
 6539SOL    HW220517   5.447   0.862   6.964
 6540SOL     OW20518   3.075   2.723   6.057
 6540SOL    HW120519   3.126   2.764   5.981
 6540SOL    HW220520   3.011   2.655   6.021
 6541SOL     OW20521   5.575   2.396   5.957
 6541SOL    HW120522   5.480   2.421   5.934
 6541SOL    HW220523   5.576   2.346   6.043
 6542SOL     OW20524   1.081   3.608   4.645
 6542SOL    HW120525   1.170   3.589   4.605
 6542SOL    HW220526   1.085   3.591   4.744
 6543SOL     OW20527   3.642   2.366   5.297
 6543SOL    HW120528   3.545   2.346   5.310
 6543SOL    HW220529   3.654   2.464   5.280
 6544SOL     OW20530   0.249   6.798   2.145
 6544SOL    HW120531   0.346   6.785   2.165
 6544SOL    HW220532   0.199   6.817   2.229
 6545SOL     OW20533   4.130   0.147   0.891
 6545SOL    HW120534   4.128   0.163   0.793
 6545SOL    HW220535   4.224   0.157   0.925
 6546SOL     OW20536   4.302   4.499   6.568
 6546SOL    HW120537   4.372   4.442   6.610
 6546SOL    HW220538   4.291   4.584   6.620
 6547SOL     OW20539   4.996   0.146   5.812
 6547SOL    HW120540   5.055   0.071   5.779
 6547SOL    HW220541   5.012   0.161   5.909
 6548SOL     OW20542   0.853   2.679   6.223
 6548SOL    HW120543   0.937   2.710   6.267
 6548SOL    HW220544   0.792   2.640   6.292
 6549SOL     OW20545   4.946   0.210   2.058
 6549SOL    HW120546   4.870   0.150   2.031
 6549SOL    HW220547   4.925   0.253   2.146
 6550SOL     OW20548   6.957   0.195   3.709
 6550SOL    HW120549   6.865   0.160   3.691
 6550SOL    HW220550   6.966   0.286   3.668
 6551SOL     OW20551   2.773   3.451   1.724
 6551SOL    HW120552   2.759   3.429   1.627
 6551SOL    HW220553   2.691   3.428   1.775
 6552SOL     OW20554   2.161   6.634   0.747
 6552SOL    HW120555   2.258   6.659   0.754
 6552SOL    HW220556   2.152   6.550   0.692
 6553SOL     OW20557   0.545   1.241   3.097
 6553SOL    HW120558   0.535   1.332   3.057
 6553SOL    HW220559   0.551   1.173   3.024
 6554SOL     OW20560   2.619   1.283   5.282
 6554SOL    HW120561   2.597   1.291   5.379
 6554SOL    HW220562   2.659   1.193   5.265
 6555SOL     OW20563   6.124   2.151   4.004
 6555SOL    HW120564   6.065   2.118   3.931
 6555SOL    HW220565   6.070   2.166   4.087
 6556SOL     OW20566   6.423   3.145   2.496
 6556SOL    HW120567   6.499   3.107   2.549
 6556SOL    HW220568   6.363   3.196   2.557
 6557SOL     OW20569   2.042   0.394   2.274
 6557SOL    HW120570   2.052   0.436   2.365
 6557SOL    HW220571   1.951   0.413   2.239
 6558SOL     OW20572   5.794   5.185   7.023
 6558SOL    HW120573   5.695   5.171   0.001
 6558SOL    HW220574   5.831   5.145   6.939
 6559SOL     OW20575   6.695   3.666   6.540
 6559SOL    HW120576   6.692   3.754   6.586
 6559SOL    HW220577   6.655   3.674   6.449
 6560SOL     OW20578   3.923   4.655   0.529
 6560SOL    HW120579   3.962   4.703   0.608
 6560SOL    HW220580   3.915   4.719   0.453
 6561SOL     OW20581   4.005   4.818   0.733
 6561SOL    HW120582   4.061   4.899   0.714
 6561SOL    HW220583   3.925   4.845   0.786
 6562SOL     OW20584   5.665   2.787   1.443
 6562SOL    HW120585   5.655   2.688   1.441
 6562SOL    HW220586   5.614   2.825   1.520
 6563SOL     OW20587   4.758   0.450   6.102
 6563SOL    HW120588   4.729   0.536   6.145
 6563SOL    HW220589   4.790   0.386   6.173
 6564SOL     OW20590   6.330   3.949   1.769
 6564SOL    HW120591   6.272   3.927   1.847
 6564SOL    HW220592   6.412   3.892   1.771
 6565SOL     OW20593   5.946   6.810   2.985
 6565SOL    HW120594   5.965   6.831   3.081
 6565SOL    HW220595   5.992   6.725   2.960
 6566SOL     OW20596   3.036   5.492   2.358
 6566SOL    HW120597   3.056   5.400   2.393
 6566SOL    HW220598   3.017   5.487   2.260
 6567SOL     OW20599   3.962   0.661   1.703
 6567SOL    HW120600   3.962   0.751   1.748
 6567SOL    HW220601   3.878   0.612   1.727
 6568SOL     OW20602   4.708   1.557   2.581
 6568SOL    HW120603   4.638   1.490   2.555
 6568SOL    HW220604   4.740   1.538   2.673
 6569SOL     OW20605   0.681   2.924   6.315
 6569SOL    HW120606   0.691   3.023   6.301
 6569SOL    HW220607   0.715   2.876   6.235
 6570SOL     OW20608   4.125   0.807   2.774
 6570SOL    HW120609   4.199   0.759   2.822
 6570SOL    HW220610   4.056   0.836   2.840
 6571SOL     OW20611   2.526   4.966   3.312
 6571SOL    HW120612   2.430   4.945   3.326
 6571SOL    HW220613   2.537   5.023   3.231
 6572SOL     OW20614   0.813   4.024   4.302
 6572SOL    HW120615   0.774   4.061   4.386
 6572SOL    HW220616   0.902   3.983   4.322
 6573SOL     OW20617   1.437   1.325   3.327
 6573SOL    HW120618   1.461   1.338   3.424
 6573SOL    HW220619   1.430   1.228   3.307
 6574SOL     OW20620   2.611   6.890   3.583
 6574SOL    HW120621   2.657   6.876   3.495
 6574SOL    HW220622   2.669   6.945   3.643
 6575SOL     OW20623   0.353   6.881   2.997
 6575SOL    HW120624   0.442   6.917   3.024
 6575SOL    HW220625   0.366   6.802   2.936
 6576SOL     OW20626   3.439   4.970   0.292
 6576SOL    HW120627   3.539   4.983   0.294
 6576SOL    HW220628   3.401   5.018   0.213
 6577SOL     OW20629   1.750   2.323   3.136
 6577SOL    HW120630   1.805   2.374   3.201
 6577SOL    HW220631   1.810   2.282   3.067
 6578SOL     OW20632   1.038   6.281   1.821
 6578SOL    HW120633   1.119   6.319   1.865
 6578SOL    HW220634   1.064   6.201   1.766
 6579SOL     OW20635   0.249   1.911   4.127
 6579SOL    HW120636   0.184   1.839   4.106
 6579SOL    HW220637   0.279   1.902   4.222
 6580SOL     OW20638   1.052   1.007   0.942
 6580SOL    HW120639   0.955   1.011   0.964
 6580SOL    HW220640   1.081   1.095   0.901
 6581SOL     OW20641   1.165   1.220   0.467
 6581SOL    HW120642   1.173   1.239   0.369
 6581SOL    HW220643   1.247   1.173   0.498
 6582SOL     OW20644   6.980   0.708   2.376
 6582SOL    HW120645   6.906   0.696   2.310
 6582SOL    HW220646   7.019   0.800   2.366
 6583SOL     OW20647   5.199   6.456   5.198
 6583SOL    HW120648   5.233   6.387   5.262
 6583SOL    HW220649   5.276   6.508   5.161
 6584SOL     OW20650   3.503   2.589   0.728
 6584SOL    HW120651   3.535   2.582   0.634
 6584SOL    HW220652   3.466   2.681   0.743
 6585SOL     OW20653   0.072   6.513   0.139
 6585SOL    HW120654   0.023   6.521   0.226
 6585SOL    HW220655   0.027   6.446   0.081
 6586SOL     OW20656   6.392   2.031   6.102
 6586SOL    HW120657   6.469   1.983   6.059
 6586SOL    HW220658   6.410   2.042   6.200
 6587SOL     OW20659   1.318   4.823   5.933
 6587SOL    HW120660   1.221   4.810   5.914
 6587SOL    HW220661   1.343   4.777   6.018
 6588SOL     OW20662   0.931   3.281   0.847
 6588SOL    HW120663   0.913   3.198   0.901
 6588SOL    HW220664   0.878   3.278   0.763
 6589SOL     OW20665   5.249   1.101   2.107
 6589SOL    HW120666   5.198   1.042   2.044
 6589SOL    HW220667   5.208   1.192   2.107
 6590SOL     OW20668   0.445   7.003   5.196
 6590SOL    HW120669   0.499   0.041   5.140
 6590SOL    HW220670   0.397   6.938   5.137
 6591SOL     OW20671   5.131   5.352   4.103
 6591SOL    HW120672   5.123   5.412   4.182
 6591SOL    HW220673   5.040   5.322   4.075
 6592SOL     OW20674   5.171   0.452   3.134
 6592SOL    HW120675   5.144   0.378   3.195
 6592SOL    HW220676   5.180   0.537   3.187
 6593SOL     OW20677   3.012   2.222   2.331
 6593SOL    HW120678   2.942   2.266   2.387
 6593SOL    HW220679   3.000   2.249   2.235
 6594SOL     OW20680   3.565   1.713   5.621
 6594SOL    HW120681   3.658   1.716   5.657
 6594SOL    HW220682   3.552   1.629   5.569
 6595SOL     OW20683   1.589   3.108   4.951
 6595SOL    HW120684   1.628   3.075   5.037
 6595SOL    HW220685   1.498   3.145   4.968
 6596SOL     OW20686   4.187   5.906   2.987
 6596SOL    HW120687   4.126   5.984   3.003
 6596SOL    HW220688   4.258   5.933   2.922
 6597SOL     OW20689   1.299   5.171   1.723
 6597SOL    HW120690   1.260   5.096   1.777
 6597SOL    HW220691   1.264   5.259   1.757
 6598SOL     OW20692   1.972   4.439   3.106
 6598SOL    HW120693   2.011   4.348   3.087
 6598SOL    HW220694   2.014   4.476   3.189
 6599SOL     OW20695   5.347   6.019   6.897
 6599SOL    HW120696   5.321   6.114   6.915
 6599SOL    HW220697   5.314   5.992   6.807
 6600SOL     OW20698   4.563   0.113   4.975
 6600SOL    HW120699   4.495   0.075   4.912
 6600SOL    HW220700   4.550   0.212   4.981
 6601SOL     OW20701   0.568   2.616   3.250
 6601SOL    HW120702   0.606   2.639   3.339
 6601SOL    HW220703   0.641   2.610   3.183
 6602SOL     OW20704   2.643   0.145   1.348
 6602SOL    HW120705   2.716   0.081   1.370
 6602SOL    HW220706   2.647   0.169   1.251
 6603SOL     OW20707   0.729   3.151   3.797
 6603SOL    HW120708   0.793   3.081   3.768
 6603SOL    HW220709   0.636   3.126   3.769
 6604SOL     OW20710   2.095   0.115   1.083
 6604SOL    HW120711   2.020   0.179   1.069
 6604SOL    HW220712   2.181   0.158   1.056
 6605SOL     OW20713   5.619   5.879   1.772
 6605SOL    HW120714   5.592   5.974   1.788
 6605SOL    HW220715   5.549   5.833   1.719
 6606SOL     OW20716   0.041   4.042   3.183
 6606SOL    HW120717   0.135   4.057   3.213
 6606SOL    HW220718   0.034   3.951   3.142
 6607SOL     OW20719   6.592   4.792   3.736
 6607SOL    HW120720   6.670   4.731   3.745
 6607SOL    HW220721   6.589   4.854   3.815
 6608SOL     OW20722   6.758   0.537   0.675
 6608SOL    HW120723   6.812   0.518   0.593
 6608SOL    HW220724   6.668   0.494   0.666
 6609SOL     OW20725   5.067   1.113   6.245
 6609SOL    HW120726   5.161   1.110   6.279
 6609SOL    HW220727   5.007   1.064   6.310
 6610SOL     OW20728   2.731   5.795   0.142
 6610SOL    HW120729   2.721   5.704   0.102
 6610SOL    HW220730   2.706   5.791   0.239
 6611SOL     OW20731   4.951   2.699   3.729
 6611SOL    HW120732   4.851   2.692   3.736
 6611SOL    HW220733   4.991   2.609   3.746
 6612SOL     OW20734   6.662   2.199   6.433
 6612SOL    HW120735   6.752   2.170   6.401
 6612SOL    HW220736   6.617   2.253   6.361
 6613SOL     OW20737   5.843   0.005   6.431
 6613SOL    HW120738   5.813   6.941   6.398
 6613SOL    HW220739   5.904   0.047   6.364
 6614SOL     OW20740   4.798   6.928   1.027
 6614SOL    HW120741   4.791   6.881   0.939
 6614SOL    HW220742   4.893   6.953   1.045
 6615SOL     OW20743   2.219   5.575   0.310
 6615SOL    HW120744   2.124   5.606   0.313
 6615SOL    HW220745   2.244   5.536   0.399
 6616SOL     OW20746   4.546   6.632   5.569
 6616SOL    HW120747   4.521   6.693   5.494
 6616SOL    HW220748   4.490   6.549   5.564
 6617SOL     OW20749   4.106   6.794   3.571
 6617SOL    HW120750   4.130   6.820   3.665
 6617SOL    HW220751   4.070   6.874   3.523
 6618SOL     OW20752   0.541   1.053   2.886
 6618SOL    HW120753   0.553   1.068   2.788
 6618SOL    HW220754   0.450   1.015   2.903
 6619SOL     OW20755   4.912   6.743   3.971
 6619SOL    HW120756   4.880   6.695   4.053
 6619SOL    HW220757   4.878   6.837   3.972
 6620SOL     OW20758   2.067   3.363   3.592
 6620SOL    HW120759   2.083   3.296   3.519
 6620SOL    HW220760   2.101   3.326   3.679
 6621SOL     OW20761   3.827   3.026   5.015
 6621SOL    HW120762   3.774   2.978   4.945
 6621SOL    HW220763   3.896   3.082   4.971
 6622SOL     OW20764   6.052   5.818   1.655
 6622SOL    HW120765   5.980   5.887   1.658
 6622SOL    HW220766   6.141   5.863   1.654
 6623SOL     OW20767   4.031   4.222   5.284
 6623SOL    HW120768   4.004   4.168   5.364
 6623SOL    HW220769   3.950   4.262   5.242
 6624SOL     OW20770   0.628   3.430   5.679
 6624SOL    HW120771   0.681   3.364   5.733
 6624SOL    HW220772   0.593   3.502   5.739
 6625SOL     OW20773   6.040   1.857   5.290
 6625SOL    HW120774   6.007   1.775   5.336
 6625SOL    HW220775   5.968   1.894   5.231
 6626SOL     OW20776   3.591   0.046   5.717
 6626SOL    HW120777   3.584   6.972   5.708
 6626SOL    HW220778   3.645   0.083   5.642
 6627SOL     OW20779   1.661   6.511   4.002
 6627SOL    HW120780   1.692   6.419   4.027
 6627SOL    HW220781   1.705   6.578   4.062
 6628SOL     OW20782   5.354   5.149   3.616
 6628SOL    HW120783   5.305   5.182   3.698
 6628SOL    HW220784   5.453   5.158   3.631
 6629SOL     OW20785   4.452   5.055   6.608
 6629SOL    HW120786   4.493   5.142   6.635
 6629SOL    HW220787   4.523   4.995   6.572
 6630SOL     OW20788   3.769   1.716   1.587
 6630SOL    HW120789   3.680   1.760   1.571
 6630SOL    HW220790   3.756   1.617   1.595
 6631SOL     OW20791   2.019   5.070   4.288
 6631SOL    HW120792   2.046   5.011   4.364
 6631SOL    HW220793   1.944   5.028   4.238
 6632SOL     OW20794   1.477   1.110   0.770
 6632SOL    HW120795   1.421   1.069   0.699
 6632SOL    HW220796   1.549   1.165   0.728
 6633SOL     OW20797   3.138   4.653   6.168
 6633SOL    HW120798   3.046   4.690   6.157
 6633SOL    HW220799   3.174   4.625   6.078
 6634SOL     OW20800   4.669   2.213   5.249
 6634SOL    HW120801   4.700   2.199   5.155
 6634SOL    HW220802   4.581   2.261   5.249
 6635SOL     OW20803   4.796   4.042   3.281
 6635SOL    HW120804   4.830   3.950   3.261
 6635SOL    HW220805   4.701   4.049   3.250
 6636SOL     OW20806   3.122   1.060   2.044
 6636SOL    HW120807   3.192   1.111   2.094
 6636SOL    HW220808   3.042   1.118   2.030
 6637SOL     OW20809   2.646   0.213   0.185
 6637SOL    HW120810   2.624   0.293   0.128
 6637SOL    HW220811   2.563   0.183   0.233
 6638SOL     OW20812   3.471   3.460   3.064
 6638SOL    HW120813   3.479   3.422   3.157
 6638SOL    HW220814   3.379   3.442   3.029
 6639SOL     OW20815   3.910   3.241   6.616
 6639SOL    HW120816   3.931   3.330   6.657
 6639SOL    HW220817   3.844   3.253   6.542
 6640SOL     OW20818   6.755   2.386   5.592
 6640SOL    HW120819   6.811   2.406   5.673
 6640SOL    HW220820   6.713   2.296   5.602
 6641SOL     OW20821   3.573   1.852   0.271
 6641SOL    HW120822   3.476   1.876   0.280
 6641SOL    HW220823   3.625   1.892   0.346
 6642SOL     OW20824   2.491   5.117   6.531
 6642SOL    HW120825   2.400   5.084   6.554
 6642SOL    HW220826   2.552   5.106   6.610
 6643SOL     OW20827   6.469   6.655   0.791
 6643SOL    HW120828   6.496   6.580   0.852
 6643SOL    HW220829   6.472   6.623   0.696
 6644SOL     OW20830   1.692   6.288   3.642
 6644SOL    HW120831   1.737   6.335   3.717
 6644SOL    HW220832   1.743   6.304   3.557
 6645SOL     OW20833   5.465   2.931   0.576
 6645SOL    HW120834   5.478   2.928   0.477
 6645SOL    HW220835   5.513   3.011   0.613
 6646SOL     OW20836   4.611   0.544   6.453
 6646SOL    HW120837   4.549   0.604   6.402
 6646SOL    HW220838   4.560   0.465   6.486
 6647SOL     OW20839   4.368   6.665   0.902
 6647SOL    HW120840   4.326   6.736   0.844
 6647SOL    HW220841   4.397   6.589   0.844
 6648SOL     OW20842   3.665   5.862   4.591
 6648SOL    HW120843   3.667   5.764   4.570
 6648SOL    HW220844   3.584   5.903   4.549
 6649SOL     OW20845   6.052   3.150   6.464
 6649SOL    HW120846   5.953   3.165   6.458
 6649SOL    HW220847   6.074   3.113   6.555
 6650SOL     OW20848   3.779   1.589   4.800
 6650SOL    HW120849   3.730   1.600   4.714
 6650SOL    HW220850   3.825   1.500   4.801
 6651SOL     OW20851   1.423   1.812   7.023
 6651SOL    HW120852   1.419   1.847   6.930
 6651SOL    HW220853   1.440   1.888   0.061
 6652SOL     OW20854   0.731   4.478   6.793
 6652SOL    HW120855   0.716   4.526   6.880
 6652SOL    HW220856   0.824   4.494   6.761
 6653SOL     OW20857   4.838   3.187   1.091
 6653SOL    HW120858   4.742   3.164   1.079
 6653SOL    HW220859   4.889   3.104   1.114
 6654SOL     OW20860   0.322   5.018   2.651
 6654SOL    HW120861   0.262   5.054   2.722
 6654SOL    HW220862   0.413   5.002   2.689
 6655SOL     OW20863   0.311   5.971   1.925
 6655SOL    HW120864   0.390   5.946   1.870
 6655SOL    HW220865   0.275   6.059   1.895
 6656SOL     OW20866   4.836   1.877   2.782
 6656SOL    HW120867   4.768   1.857   2.852
 6656SOL    HW220868   4.804   1.843   2.693
 6657SOL     OW20869   6.141   2.794   4.518
 6657SOL    HW120870   6.089   2.842   4.448
 6657SOL    HW220871   6.153   2.854   4.598
 6658SOL     OW20872   6.586   0.220   5.408
 6658SOL    HW120873   6.494   0.255   5.388
 6658SOL    HW220874   6.590   0.122   5.389
 6659SOL     OW20875   1.246   4.053   1.919
 6659SOL    HW120876   1.318   4.058   1.849
 6659SOL    HW220877   1.192   4.136   1.917
 6660SOL     OW20878   1.815   5.033   1.656
 6660SOL    HW120879   1.737   5.075   1.701
 6660SOL    HW220880   1.811   5.052   1.557
 6661SOL     OW20881   3.178   0.917   4.756
 6661SOL    HW120882   3.093   0.878   4.721
 6661SOL    HW220883   3.212   0.985   4.691
 6662SOL     OW20884   2.223   0.464   1.132
 6662SOL    HW120885   2.277   0.385   1.104
 6662SOL    HW220886   2.234   0.538   1.066
 6663SOL     OW20887   1.079   6.072   5.441
 6663SOL    HW120888   1.039   6.112   5.358
 6663SOL    HW220889   1.179   6.071   5.432
 6664SOL     OW20890   2.262   0.499   1.424
 6664SOL    HW120891   2.244   0.478   1.328
 6664SOL    HW220892   2.194   0.453   1.482
 6665SOL     OW20893   1.854   6.423   5.852
 6665SOL    HW120894   1.915   6.469   5.917
 6665SOL    HW220895   1.877   6.326   5.849
 6666SOL     OW20896   6.469   5.504   5.023
 6666SOL    HW120897   6.524   5.516   4.940
 6666SOL    HW220898   6.375   5.482   4.998
 6667SOL     OW20899   6.934   6.634   5.854
 6667SOL    HW120900   6.865   6.635   5.926
 6667SOL    HW220901   6.935   6.722   5.807
 6668SOL     OW20902   6.990   6.133   1.299
 6668SOL    HW120903   6.990   6.201   1.372
 6668SOL    HW220904   6.896   6.110   1.274
 6669SOL     OW20905   3.972   2.168   1.389
 6669SOL    HW120906   3.938   2.083   1.430
 6669SOL    HW220907   4.067   2.183   1.416
 6670SOL     OW20908   3.152   0.993   6.756
 6670SOL    HW120909   3.143   0.896   6.781
 6670SOL    HW220910   3.089   1.014   6.681
 6671SOL     OW20911   5.611   6.790   0.810
 6671SOL    HW120912   5.691   6.801   0.868
 6671SOL    HW220913   5.625   6.714   0.747
 6672SOL     OW20914   1.394   2.231   0.399
 6672SOL    HW120915   1.462   2.159   0.404
 6672SOL    HW220916   1.319   2.210   0.462
 6673SOL     OW20917   4.855   3.978   3.607
 6673SOL    HW120918   4.812   4.068   3.610
 6673SOL    HW220919   4.788   3.911   3.575
 6674SOL     OW20920   0.137   3.011   6.988
 6674SOL    HW120921   0.162   2.941   6.922
 6674SOL    HW220922   0.172   3.100   6.958
 6675SOL     OW20923   5.288   2.400   0.422
 6675SOL    HW120924   5.352   2.427   0.350
 6675SOL    HW220925   5.304   2.455   0.503
 6676SOL     OW20926   1.003   3.654   2.918
 6676SOL    HW120927   0.994   3.647   3.017
 6676SOL    HW220928   1.045   3.741   2.894
 6677SOL     OW20929   0.761   0.920   6.332
 6677SOL    HW120930   0.806   0.980   6.265
 6677SOL    HW220931   0.697   0.860   6.285
 6678SOL     OW20932   1.938   4.466   0.948
 6678SOL    HW120933   1.999   4.442   1.023
 6678SOL    HW220934   1.992   4.494   0.868
 6679SOL     OW20935   4.051   0.841   3.947
 6679SOL    HW120936   4.111   0.797   3.880
 6679SOL    HW220937   4.005   0.919   3.904
 6680SOL     OW20938   4.590   6.088   6.347
 6680SOL    HW120939   4.661   6.140   6.396
 6680SOL    HW220940   4.586   5.995   6.383
 6681SOL     OW20941   4.890   5.566   1.430
 6681SOL    HW120942   4.959   5.511   1.478
 6681SOL    HW220943   4.806   5.513   1.420
 6682SOL     OW20944   2.164   4.596   6.656
 6682SOL    HW120945   2.171   4.598   6.557
 6682SOL    HW220946   2.207   4.678   6.694
 6683SOL     OW20947   5.870   3.134   6.137
 6683SOL    HW120948   5.883   3.078   6.055
 6683SOL    HW220949   5.933   3.211   6.136
 6684SOL     OW20950   3.466   6.798   2.185
 6684SOL    HW120951   3.551   6.836   2.146
 6684SOL    HW220952   3.390   6.858   2.163
 6685SOL     OW20953   4.677   2.638   6.747
 6685SOL    HW120954   4.639   2.626   6.655
 6685SOL    HW220955   4.703   2.549   6.784
 6686SOL     OW20956   6.038   6.210   3.564
 6686SOL    HW120957   6.067   6.126   3.519
 6686SOL    HW220958   5.942   6.202   3.590
 6687SOL     OW20959   0.674   2.896   2.043
 6687SOL    HW120960   0.703   2.991   2.054
 6687SOL    HW220961   0.753   2.840   2.016
 6688SOL     OW20962   4.078   4.336   0.849
 6688SOL    HW120963   4.102   4.240   0.835
 6688SOL    HW220964   4.123   4.369   0.932
 6689SOL     OW20965   4.264   3.329   6.018
 6689SOL    HW120966   4.322   3.332   5.937
 6689SOL    HW220967   4.196   3.402   6.013
 6690SOL     OW20968   1.347   6.188   0.133
 6690SOL    HW120969   1.353   6.255   0.207
 6690SOL    HW220970   1.432   6.135   0.129
 6691SOL     OW20971   1.475   0.383   2.587
 6691SOL    HW120972   1.381   0.398   2.616
 6691SOL    HW220973   1.512   0.468   2.548
 6692SOL     OW20974   4.088   3.901   1.895
 6692SOL    HW120975   4.103   3.803   1.911
 6692SOL    HW220976   4.104   3.951   1.980
 6693SOL     OW20977   4.523   1.889   4.903
 6693SOL    HW120978   4.482   1.967   4.857
 6693SOL    HW220979   4.488   1.882   4.996
 6694SOL     OW20980   4.533   6.015   1.226
 6694SOL    HW120981   4.575   5.998   1.316
 6694SOL    HW220982   4.471   6.093   1.233
 6695SOL     OW20983   2.827   1.923   6.860
 6695SOL    HW120984   2.892   1.972   6.802
 6695SOL    HW220985   2.754   1.883   6.803
 6696SOL     OW20986   4.063   3.616   3.095
 6696SOL    HW120987   4.121   3.598   3.174
 6696SOL    HW220988   3.967   3.615   3.123
 6697SOL     OW20989   4.778   2.414   3.253
 6697SOL    HW120990   4.792   2.500   3.302
 6697SOL    HW220991   4.821   2.419   3.163
 6698SOL     OW20992   3.276   3.519   1.291
 6698SOL    HW120993   3.339   3.504   1.367
 6698SOL    HW220994   3.232   3.433   1.266
 6699SOL     OW20995   2.239   6.535   5.459
 6699SOL    HW120996   2.307   6.550   5.387
 6699SOL    HW220997   2.279   6.557   5.548
 6700SOL     OW20998   5.775   0.875   1.066
 6700SOL    HW120999   5.746   0.792   1.114
 6700SOL    HW221000   5.703   0.944   1.071
 6701SOL     OW21001   5.610   6.315   2.003
 6701SOL    HW121002   5.517   6.351   2.006
 6701SOL    HW221003   5.671   6.384   1.964
 6702SOL     OW21004   1.807   2.651   1.759
 6702SOL    HW121005   1.811   2.568   1.813
 6702SOL    HW221006   1.862   2.722   1.802
 6703SOL     OW21007   0.944   1.199   6.843
 6703SOL    HW121008   0.990   1.288   6.839
 6703SOL    HW221009   0.992   1.139   6.906
 6704SOL     OW21010   4.095   2.139   4.497
 6704SOL    HW121011   4.068   2.195   4.575
 6704SOL    HW221012   4.116   2.046   4.528
 6705SOL     OW21013   6.063   2.431   1.086
 6705SOL    HW121014   6.079   2.520   1.129
 6705SOL    HW221015   6.115   2.425   1.001
 6706SOL     OW21016   2.115   6.184   0.746
 6706SOL    HW121017   2.020   6.204   0.724
 6706SOL    HW221018   2.129   6.188   0.845
 6707SOL     OW21019   5.708   0.208   2.993
 6707SOL    HW121020   5.655   0.248   3.068
 6707SOL    HW221021   5.693   0.261   2.910
 6708SOL     OW21022   5.634   5.397   1.113
 6708SOL    HW121023   5.565   5.466   1.133
 6708SOL    HW221024   5.725   5.437   1.123
 6709SOL     OW21025   0.624   4.950   2.649
 6709SOL    HW121026   0.637   4.880   2.718
 6709SOL    HW221027   0.678   4.928   2.568
 6710SOL     OW21028   4.179   1.292   0.608
 6710SOL    HW121029   4.247   1.336   0.550
 6710SOL    HW221030   4.097   1.273   0.555
 6711SOL     OW21031   5.071   6.609   5.701
 6711SOL    HW121032   4.990   6.657   5.668
 6711SOL    HW221033   5.078   6.618   5.800
 6712SOL     OW21034   6.080   3.265   1.356
 6712SOL    HW121035   6.048   3.318   1.434
 6712SOL    HW221036   6.085   3.169   1.381
 6713SOL     OW21037   1.121   1.297   3.398
 6713SOL    HW121038   1.179   1.216   3.398
 6713SOL    HW221039   1.179   1.378   3.410
 6714SOL     OW21040   5.786   1.172   0.547
 6714SOL    HW121041   5.846   1.247   0.517
 6714SOL    HW221042   5.694   1.208   0.562
 6715SOL     OW21043   1.482   0.629   1.343
 6715SOL    HW121044   1.420   0.628   1.421
 6715SOL    HW221045   1.432   0.602   1.260
 6716SOL     OW21046   6.562   5.745   2.494
 6716SOL    HW121047   6.639   5.757   2.431
 6716SOL    HW221048   6.571   5.657   2.541
 6717SOL     OW21049   2.549   2.278   6.287
 6717SOL    HW121050   2.603   2.244   6.363
 6717SOL    HW221051   2.608   2.289   6.207
 6718SOL     OW21052   3.681   0.674   1.187
 6718SOL    HW121053   3.756   0.616   1.218
 6718SOL    HW221054   3.713   0.737   1.116
 6719SOL     OW21055   2.288   6.655   0.221
 6719SOL    HW121056   2.193   6.678   0.201
 6719SOL    HW221057   2.300   6.556   0.210
 6720SOL     OW21058   2.566   1.444   4.669
 6720SOL    HW121059   2.656   1.473   4.702
 6720SOL    HW221060   2.535   1.365   4.722
 6721SOL     OW21061   6.661   6.762   0.465
 6721SOL    HW121062   6.688   6.850   0.504
 6721SOL    HW221063   6.610   6.778   0.380
 6722SOL     OW21064   0.038   2.355   0.452
 6722SOL    HW121065   6.992   2.426   0.447
 6722SOL    HW221066   0.073   2.349   0.545
 6723SOL     OW21067   1.581   7.014   6.167
 6723SOL    HW121068   1.551   6.959   6.090
 6723SOL    HW221069   1.509   0.054   6.192
 6724SOL     OW21070   2.305   2.351   6.258
 6724SOL    HW121071   2.397   2.327   6.285
 6724SOL    HW221072   2.272   2.428   6.313
 6725SOL     OW21073   6.794   2.781   2.204
 6725SOL    HW121074   6.714   2.721   2.211
 6725SOL    HW221075   6.785   2.856   2.270
 6726SOL     OW21076   0.433   2.118   4.380
 6726SOL    HW121077   0.353   2.061   4.398
 6726SOL    HW221078   0.497   2.070   4.320
 6727SOL     OW21079   0.335   4.149   5.931
 6727SOL    HW121080   0.272   4.181   5.860
 6727SOL    HW221081   0.390   4.226   5.964
 6728SOL     OW21082   3.376   1.422   3.204
 6728SOL    HW121083   3.386   1.423   3.304
 6728SOL    HW221084   3.388   1.328   3.170
 6729SOL     OW21085   6.831   1.862   0.475
 6729SOL    HW121086   6.745   1.871   0.526
 6729SOL    HW221087   6.835   1.934   0.405
 6730SOL     OW21088   1.841   6.997   0.919
 6730SOL    HW121089   1.756   6.960   0.957
 6730SOL    HW221090   1.900   6.921   0.890
 6731SOL     OW21091   1.699   6.739   0.702
 6731SOL    HW121092   1.685   6.666   0.768
 6731SOL    HW221093   1.669   6.708   0.611
 6732SOL     OW21094   5.014   4.428   4.615
 6732SOL    HW121095   4.943   4.363   4.642
 6732SOL    HW221096   5.001   4.454   4.520
 6733SOL     OW21097   4.306   5.500   6.120
 6733SOL    HW121098   4.221   5.553   6.112
 6733SOL    HW221099   4.356   5.504   6.034
 6734SOL     OW21100   5.229   2.216   5.959
 6734SOL    HW121101   5.146   2.175   5.998
 6734SOL    HW221102   5.299   2.145   5.947
 6735SOL     OW21103   5.513   3.400   4.169
 6735SOL    HW121104   5.487   3.477   4.227
 6735SOL    HW221105   5.552   3.434   4.083
 6736SOL     OW21106   3.448   3.715   6.404
 6736SOL    HW121107   3.496   3.671   6.328
 6736SOL    HW221108   3.359   3.749   6.373
 6737SOL     OW21109   1.313   3.211   1.202
 6737SOL    HW121110   1.236   3.242   1.147
 6737SOL    HW221111   1.280   3.159   1.280
 6738SOL     OW21112   1.541   5.574   3.999
 6738SOL    HW121113   1.542   5.659   3.946
 6738SOL    HW221114   1.459   5.522   3.978
 6739SOL     OW21115   6.557   6.006   3.554
 6739SOL    HW121116   6.648   6.017   3.594
 6739SOL    HW221117   6.493   5.978   3.624
 6740SOL     OW21118   6.751   0.314   5.218
 6740SOL    HW121119   6.751   0.235   5.156
 6740SOL    HW221120   6.713   0.287   5.306
 6741SOL     OW21121   3.331   2.045   5.878
 6741SOL    HW121122   3.295   2.075   5.966
 6741SOL    HW221123   3.313   2.116   5.809
 6742SOL     OW21124   5.712   5.575   3.845
 6742SOL    HW121125   5.709   5.502   3.778
 6742SOL    HW221126   5.622   5.587   3.886
 6743SOL     OW21127   3.708   3.963   6.420
 6743SOL    HW121128   3.625   3.956   6.476
 6743SOL    HW221129   3.715   3.884   6.360
 6744SOL     OW21130   0.596   6.471   5.927
 6744SOL    HW121131   0.621   6.493   6.021
 6744SOL    HW221132   0.526   6.535   5.895
 6745SOL     OW21133   6.716   6.294   3.627
 6745SOL    HW121134   6.773   6.232   3.681
 6745SOL    HW221135   6.632   6.315   3.678
 6746SOL     OW21136   1.467   0.534   3.290
 6746SOL    HW121137   1.418   0.610   3.332
 6746SOL    HW221138   1.510   0.478   3.361
 6747SOL     OW21139   6.246   0.288   0.168
 6747SOL    HW121140   6.288   0.340   0.094
 6747SOL    HW221141   6.217   0.350   0.240
 6748SOL     OW21142   2.977   1.841   3.472
 6748SOL    HW121143   2.968   1.813   3.376
 6748SOL    HW221144   2.998   1.938   3.477
 6749SOL     OW21145   3.688   4.426   1.120
 6749SOL    HW121146   3.742   4.377   1.052
 6749SOL    HW221147   3.731   4.418   1.210
 6750SOL     OW21148   3.201   1.776   4.387
 6750SOL    HW121149   3.277   1.743   4.332
 6750SOL    HW221150   3.223   1.767   4.484
 6751SOL     OW21151   4.954   0.759   3.333
 6751SOL    HW121152   5.006   0.736   3.416
 6751SOL    HW221153   4.999   0.718   3.253
 6752SOL     OW21154   1.975   0.260   3.132
 6752SOL    HW121155   1.876   0.271   3.136
 6752SOL    HW221156   2.018   0.315   3.204
 6753SOL     OW21157   3.154   1.782   6.133
 6753SOL    HW121158   3.187   1.710   6.072
 6753SOL    HW221159   3.227   1.808   6.196
 6754SOL     OW21160   6.515   1.251   0.789
 6754SOL    HW121161   6.551   1.331   0.837
 6754SOL    HW221162   6.581   1.222   0.719
 6755SOL     OW21163   4.312   3.841   0.955
 6755SOL    HW121164   4.268   3.786   0.883
 6755SOL    HW221165   4.244   3.863   1.025
 6756SOL     OW21166   3.777   0.125   5.524
 6756SOL    HW121167   3.868   0.141   5.561
 6756SOL    HW221168   3.784   0.104   5.426
 6757SOL     OW21169   3.588   2.277   0.750
 6757SOL    HW121170   3.571   2.191   0.799
 6757SOL    HW221171   3.617   2.347   0.814
 6758SOL     OW21172   6.237   2.989   1.708
 6758SOL    HW121173   6.295   2.978   1.628
 6758SOL    HW221174   6.292   3.024   1.784
 6759SOL     OW21175   6.996   3.313   2.602
 6759SOL    HW121176   0.052   3.317   2.545
 6759SOL    HW221177   6.914   3.310   2.544
 6760SOL     OW21178   6.249   3.779   2.323
 6760SOL    HW121179   6.278   3.684   2.327
 6760SOL    HW221180   6.191   3.799   2.402
 6761SOL     OW21181   5.674   3.108   4.775
 6761SOL    HW121182   5.731   3.087   4.854
 6761SOL    HW221183   5.673   3.206   4.759
 6762SOL     OW21184   0.940   4.878   4.536
 6762SOL    HW121185   0.974   4.796   4.491
 6762SOL    HW221186   0.848   4.899   4.502
 6763SOL     OW21187   5.031   5.512   4.340
 6763SOL    HW121188   5.095   5.554   4.405
 6763SOL    HW221189   5.014   5.576   4.265
 6764SOL     OW21190   2.279   5.104   1.745
 6764SOL    HW121191   2.340   5.154   1.805
 6764SOL    HW221192   2.199   5.072   1.797
 6765SOL     OW21193   5.616   4.561   2.663
 6765SOL    HW121194   5.575   4.479   2.623
 6765SOL    HW221195   5.660   4.538   2.749
 6766SOL     OW21196   5.316   6.525   5.599
 6766SOL    HW121197   5.289   6.442   5.549
 6766SOL    HW221198   5.235   6.566   5.641
 6767SOL     OW21199   3.256   0.312   1.202
 6767SOL    HW121200   3.345   0.343   1.167
 6767SOL    HW221201   3.189   0.385   1.190
 6768SOL     OW21202   1.968   0.849   5.384
 6768SOL    HW121203   2.033   0.773   5.381
 6768SOL    HW221204   1.949   0.879   5.291
 6769SOL     OW21205   3.218   1.798   0.537
 6769SOL    HW121206   3.161   1.717   0.549
 6769SOL    HW221207   3.296   1.794   0.599
 6770SOL     OW21208   0.318   1.363   1.912
 6770SOL    HW121209   0.219   1.351   1.919
 6770SOL    HW221210   0.362   1.274   1.907
 6771SOL     OW21211   4.779   2.348   3.531
 6771SOL    HW121212   4.872   2.366   3.564
 6771SOL    HW221213   4.777   2.357   3.432
 6772SOL     OW21214   3.428   1.677   3.149
 6772SOL    HW121215   3.421   1.674   3.049
 6772SOL    HW221216   3.416   1.585   3.185
 6773SOL     OW21217   0.071   5.291   1.856
 6773SOL    HW121218   7.017   5.237   1.829
 6773SOL    HW221219   0.048   5.345   1.938
 6774SOL     OW21220   0.276   2.109   5.342
 6774SOL    HW121221   0.292   2.187   5.281
 6774SOL    HW221222   0.336   2.034   5.316
 6775SOL     OW21223   2.440   2.818   1.627
 6775SOL    HW121224   2.460   2.773   1.714
 6775SOL    HW221225   2.473   2.912   1.629
 6776SOL     OW21226   3.920   4.704   6.930
 6776SOL    HW121227   3.977   4.623   6.942
 6776SOL    HW221228   3.852   4.708   7.003
 6777SOL     OW21229   4.149   3.698   6.876
 6777SOL    HW121230   4.133   3.638   6.798
 6777SOL    HW221231   4.234   3.749   6.861
 6778SOL     OW21232   6.114   4.880   2.112
 6778SOL    HW121233   6.069   4.830   2.186
 6778SOL    HW221234   6.203   4.913   2.143
 6779SOL     OW21235   6.604   4.977   6.098
 6779SOL    HW121236   6.663   4.947   6.174
 6779SOL    HW221237   6.527   5.028   6.135
 6780SOL     OW21238   1.209   2.607   1.774
 6780SOL    HW121239   1.267   2.556   1.709
 6780SOL    HW221240   1.259   2.620   1.860
 6781SOL     OW21241   6.534   0.418   5.041
 6781SOL    HW121242   6.612   0.479   5.057
 6781SOL    HW221243   6.509   0.372   5.127
 6782SOL     OW21244   7.011   0.197   3.278
 6782SOL    HW121245   0.073   0.210   3.232
 6782SOL    HW221246   7.020   0.129   3.350
 6783SOL     OW21247   6.345   1.164   5.644
 6783SOL    HW121248   6.317   1.210   5.560
 6783SOL    HW221249   6.399   1.227   5.700
 6784SOL     OW21250   2.386   4.230   0.790
 6784SOL    HW121251   2.436   4.165   0.733
 6784SOL    HW221252   2.297   4.191   0.814
 6785SOL     OW21253   5.183   5.263   3.434
 6785SOL    HW121254   5.254   5.228   3.496
 6785SOL    HW221255   5.147   5.349   3.470
 6786SOL     OW21256   1.518   1.992   0.416
 6786SOL    HW121257   1.606   1.967   0.457
 6786SOL    HW221258   1.443   1.958   0.473
 6787SOL     OW21259   1.847   2.313   1.210
 6787SOL    HW121260   1.836   2.413   1.207
 6787SOL    HW221261   1.863   2.279   1.118
 6788SOL     OW21262   2.056   3.537   1.480
 6788SOL    HW121263   2.101   3.620   1.514
 6788SOL    HW221264   1.986   3.562   1.413
 6789SOL     OW21265   6.660   6.085   2.950
 6789SOL    HW121266   6.677   6.184   2.955
 6789SOL    HW221267   6.739   6.040   2.910
 6790SOL     OW21268   1.038   4.168   1.201
 6790SOL    HW121269   1.012   4.226   1.279
 6790SOL    HW221270   0.956   4.130   1.159
 6791SOL     OW21271   4.155   2.624   1.585
 6791SOL    HW121272   4.092   2.573   1.526
 6791SOL    HW221273   4.173   2.571   1.668
 6792SOL     OW21274   6.319   5.913   5.210
 6792SOL    HW121275   6.408   5.899   5.254
 6792SOL    HW221276   6.247   5.911   5.279
 6793SOL     OW21277   0.995   1.482   0.708
 6793SOL    HW121278   0.942   1.401   0.734
 6793SOL    HW221279   0.980   1.501   0.611
 6794SOL     OW21280   5.155   1.446   6.544
 6794SOL    HW121281   5.255   1.441   6.554
 6794SOL    HW221282   5.115   1.360   6.577
 6795SOL     OW21283   2.519   6.340   1.396
 6795SOL    HW121284   2.481   6.418   1.346
 6795SOL    HW221285   2.507   6.256   1.341
 6796SOL     OW21286   6.368   1.014   1.954
 6796SOL    HW121287   6.357   0.938   2.018
 6796SOL    HW221288   6.461   1.013   1.918
 6797SOL     OW21289   5.462   3.154   1.944
 6797SOL    HW121290   5.395   3.092   1.986
 6797SOL    HW221291   5.414   3.221   1.887
 6798SOL     OW21292   5.156   6.747   2.664
 6798SOL    HW121293   5.060   6.743   2.637
 6798SOL    HW221294   5.164   6.722   2.760
 6799SOL     OW21295   6.558   6.482   1.013
 6799SOL    HW121296   6.615   6.402   1.034
 6799SOL    HW221297   6.476   6.480   1.069
 6800SOL     OW21298   2.323   3.657   1.209
 6800SOL    HW121299   2.257   3.688   1.141
 6800SOL    HW221300   2.373   3.735   1.245
 6801SOL     OW21301   0.715   0.389   2.911
 6801SOL    HW121302   0.782   0.450   2.955
 6801SOL    HW221303   0.695   0.423   2.819
 6802SOL     OW21304   3.309   5.992   0.575
 6802SOL    HW121305   3.301   5.896   0.550
 6802SOL    HW221306   3.249   6.047   0.518
 6803SOL     OW21307   5.031   2.803   6.072
 6803SOL    HW121308   5.130   2.792   6.069
 6803SOL    HW221309   4.991   2.763   5.989
 6804SOL     OW21310   3.538   5.321   3.834
 6804SOL    HW121311   3.582   5.362   3.914
 6804SOL    HW221312   3.606   5.276   3.777
 6805SOL     OW21313   5.841   5.011   6.177
 6805SOL    HW121314   5.926   5.020   6.125
 6805SOL    HW221315   5.764   5.002   6.114
 6806SOL     OW21316   5.930   0.293   3.541
 6806SOL    HW121317   5.881   0.244   3.614
 6806SOL    HW221318   5.962   0.228   3.473
 6807SOL     OW21319   3.203   2.885   0.164
 6807SOL    HW121320   3.285   2.890   0.108
 6807SOL    HW221321   3.142   2.961   0.141
 6808SOL     OW21322   0.431   1.894   5.231
 6808SOL    HW121323   0.436   1.794   5.225
 6808SOL    HW221324   0.430   1.933   5.139
 6809SOL     OW21325   0.975   2.967   1.448
 6809SOL    HW121326   0.958   2.872   1.420
 6809SOL    HW221327   1.072   2.988   1.439
 6810SOL     OW21328   1.905   0.266   1.547
 6810SOL    HW121329   1.993   0.231   1.513
 6810SOL    HW221330   1.836   0.256   1.476
 6811SOL     OW21331   5.079   4.196   0.565
 6811SOL    HW121332   5.076   4.198   0.465
 6811SOL    HW221333   5.034   4.113   0.598
 6812SOL     OW21334   3.058   3.136   3.188
 6812SOL    HW121335   3.000   3.153   3.267
 6812SOL    HW221336   3.141   3.192   3.195
 6813SOL     OW21337   4.863   2.173   2.806
 6813SOL    HW121338   4.879   2.076   2.792
 6813SOL    HW221339   4.887   2.223   2.722
 6814SOL     OW21340   3.468   1.924   6.603
 6814SOL    HW121341   3.396   1.964   6.659
 6814SOL    HW221342   3.465   1.963   6.511
 6815SOL     OW21343   2.899   6.635   1.519
 6815SOL    HW121344   2.996   6.655   1.535
 6815SOL    HW221345   2.845   6.717   1.539
 6816SOL     OW21346   0.433   0.017   6.893
 6816SOL    HW121347   0.437   0.116   6.878
 6816SOL    HW221348   0.357   7.004   6.840
 6817SOL     OW21349   1.386   2.237   4.008
 6817SOL    HW121350   1.359   2.151   3.965
 6817SOL    HW221351   1.479   2.260   3.981
 6818SOL     OW21352   3.015   5.072   1.750
 6818SOL    HW121353   3.091   5.117   1.796
 6818SOL    HW221354   3.050   5.002   1.688
 6819SOL     OW21355   5.486   0.850   4.451
 6819SOL    HW121356   5.414   0.784   4.471
 6819SOL    HW221357   5.459   0.940   4.484
 6820SOL     OW21358   1.591   5.685   3.175
 6820SOL    HW121359   1.600   5.713   3.270
 6820SOL    HW221360   1.498   5.651   3.159
 6821SOL     OW21361   3.413   0.982   4.315
 6821SOL    HW121362   3.472   0.904   4.338
 6821SOL    HW221363   3.463   1.067   4.332
 6822SOL     OW21364   5.310   2.295   6.731
 6822SOL    HW121365   5.392   2.250   6.766
 6822SOL    HW221366   5.239   2.296   6.801
 6823SOL     OW21367   3.312   3.417   4.211
 6823SOL    HW121368   3.377   3.458   4.275
 6823SOL    HW221369   3.359   3.388   4.129
 6824SOL     OW21370   1.163   2.663   6.379
 6824SOL    HW121371   1.241   2.679   6.439
 6824SOL    HW221372   1.118   2.578   6.405
 6825SOL     OW21373   4.743   7.005   2.521
 6825SOL    HW121374   4.681   7.017   2.598
 6825SOL    HW221375   4.813   0.051   2.522
 6826SOL     OW21376   1.958   3.885   2.376
 6826SOL    HW121377   1.937   3.796   2.338
 6826SOL    HW221378   1.895   3.953   2.339
 6827SOL     OW21379   4.549   5.721   6.592
 6827SOL    HW121380   4.489   5.643   6.606
 6827SOL    HW221381   4.556   5.740   6.494
 6828SOL     OW21382   2.591   2.364   1.597
 6828SOL    HW121383   2.562   2.278   1.638
 6828SOL    HW221384   2.642   2.418   1.664
 6829SOL     OW21385   4.288   6.497   4.236
 6829SOL    HW121386   4.236   6.557   4.175
 6829SOL    HW221387   4.384   6.498   4.209
 6830SOL     OW21388   5.327   1.315   3.932
 6830SOL    HW121389   5.286   1.391   3.882
 6830SOL    HW221390   5.262   1.281   4.000
 6831SOL     OW21391   1.399   0.362   6.784
 6831SOL    HW121392   1.451   0.420   6.847
 6831SOL    HW221393   1.430   0.379   6.690
 6832SOL     OW21394   2.203   3.843   1.033
 6832SOL    HW121395   2.246   3.844   0.943
 6832SOL    HW221396   2.115   3.891   1.028
 6833SOL     OW21397   3.992   3.894   6.220
 6833SOL    HW121398   4.023   3.960   6.288
 6833SOL    HW221399   3.992   3.937   6.129
 6834SOL     OW21400   5.489   6.662   1.019
 6834SOL    HW121401   5.501   6.739   0.956
 6834SOL    HW221402   5.493   6.576   0.968
 6835SOL     OW21403   3.602   0.521   4.621
 6835SOL    HW121404   3.691   0.561   4.643
 6835SOL    HW221405   3.608   0.469   4.536
 6836SOL     OW21406   2.961   5.277   0.312
 6836SOL    HW121407   3.031   5.345   0.289
 6836SOL    HW221408   2.871   5.314   0.288
 6837SOL     OW21409   1.957   1.768   2.335
 6837SOL    HW121410   1.900   1.745   2.414
 6837SOL    HW221411   1.905   1.828   2.274
 6838SOL     OW21412   2.676   6.305   0.767
 6838SOL    HW121413   2.652   6.348   0.680
 6838SOL    HW221414   2.718   6.216   0.751
 6839SOL     OW21415   5.393   0.208   6.900
 6839SOL    HW121416   5.367   0.298   6.866
 6839SOL    HW221417   5.403   0.144   6.824
 6840SOL     OW21418   2.948   0.926   4.996
 6840SOL    HW121419   2.892   1.005   4.970
 6840SOL    HW221420   3.043   0.942   4.968
 6841SOL     OW21421   4.644   4.021   6.298
 6841SOL    HW121422   4.551   4.053   6.318
 6841SOL    HW221423   4.697   4.097   6.261
 6842SOL     OW21424   3.055   4.262   1.460
 6842SOL    HW121425   3.000   4.337   1.498
 6842SOL    HW221426   3.068   4.277   1.362
 6843SOL     OW21427   6.071   6.551   0.839
 6843SOL    HW121428   6.008   6.528   0.913
 6843SOL    HW221429   6.020   6.595   0.765
 6844SOL     OW21430   5.963   0.881   4.433
 6844SOL    HW121431   5.877   0.931   4.446
 6844SOL    HW221432   5.980   0.869   4.335
 6845SOL     OW21433   6.135   4.146   3.544
 6845SOL    HW121434   6.082   4.062   3.539
 6845SOL    HW221435   6.075   4.225   3.527
 6846SOL     OW21436   3.821   3.373   0.306
 6846SOL    HW121437   3.760   3.424   0.245
 6846SOL    HW221438   3.782   3.373   0.399
 6847SOL     OW21439   0.060   3.476   5.069
 6847SOL    HW121440   6.991   3.446   5.053
 6847SOL    HW221441   0.096   3.518   4.986
 6848SOL     OW21442   5.324   4.748   3.533
 6848SOL    HW121443   5.300   4.823   3.471
 6848SOL    HW221444   5.367   4.785   3.615
 6849SOL     OW21445   4.626   3.915   5.573
 6849SOL    HW121446   4.527   3.901   5.574
 6849SOL    HW221447   4.673   3.826   5.566
 6850SOL     OW21448   5.306   2.979   2.954
 6850SOL    HW121449   5.368   3.033   3.011
 6850SOL    HW221450   5.337   2.981   2.859
 6851SOL     OW21451   0.396   2.145   3.000
 6851SOL    HW121452   0.310   2.144   3.051
 6851SOL    HW221453   0.415   2.054   2.964
 6852SOL     OW21454   2.450   4.543   1.098
 6852SOL    HW121455   2.403   4.460   1.126
 6852SOL    HW221456   2.389   4.622   1.111
 6853SOL     OW21457   5.193   4.364   6.534
 6853SOL    HW121458   5.262   4.371   6.606
 6853SOL    HW221459   5.195   4.446   6.477
 6854SOL     OW21460   5.293   0.371   6.010
 6854SOL    HW121461   5.306   0.347   5.913
 6854SOL    HW221462   5.243   0.297   6.056
 6855SOL     OW21463   4.399   5.938   3.694
 6855SOL    HW121464   4.301   5.934   3.715
 6855SOL    HW221465   4.412   5.940   3.595
 6856SOL     OW21466   0.422   2.583   4.992
 6856SOL    HW121467   0.440   2.566   4.895
 6856SOL    HW221468   0.484   2.654   5.026
 6857SOL     OW21469   1.220   2.910   6.283
 6857SOL    HW121470   1.280   2.958   6.347
 6857SOL    HW221471   1.212   2.814   6.310
 6858SOL     OW21472   3.958   4.089   1.726
 6858SOL    HW121473   4.041   4.137   1.699
 6858SOL    HW221474   3.983   4.004   1.774
 6859SOL     OW21475   0.813   0.982   1.133
 6859SOL    HW121476   0.896   0.927   1.144
 6859SOL    HW221477   0.772   0.963   1.043
 6860SOL     OW21478   6.960   4.936   1.320
 6860SOL    HW121479   7.021   4.936   1.400
 6860SOL    HW221480   6.938   4.841   1.296
 6861SOL     OW21481   4.987   3.933   6.608
 6861SOL    HW121482   4.891   3.942   6.583
 6861SOL    HW221483   5.044   3.982   6.542
 6862SOL     OW21484   0.143   5.953   5.924
 6862SOL    HW121485   0.177   6.019   5.858
 6862SOL    HW221486   0.113   5.870   5.877
 6863SOL     OW21487   6.588   6.691   5.781
 6863SOL    HW121488   6.640   6.774   5.759
 6863SOL    HW221489   6.591   6.628   5.703
 6864SOL     OW21490   2.119   4.671   5.082
 6864SOL    HW121491   2.111   4.760   5.128
 6864SOL    HW221492   2.087   4.599   5.144
 6865SOL     OW21493   0.753   6.822   5.101
 6865SOL    HW121494   0.718   6.755   5.166
 6865SOL    HW221495   0.812   6.887   5.149
 6866SOL     OW21496   5.554   5.044   2.965
 6866SOL    HW121497   5.504   5.051   3.051
 6866SOL    HW221498   5.491   5.050   2.888
 6867SOL     OW21499   2.130   3.327   1.776
 6867SOL    HW121500   2.206   3.390   1.779
 6867SOL    HW221501   2.077   3.333   1.861
 6868SOL     OW21502   2.095   6.859   5.177
 6868SOL    HW121503   2.068   6.953   5.161
 6868SOL    HW221504   2.050   6.799   5.110
 6869SOL     OW21505   5.113   0.765   6.040
 6869SOL    HW121506   5.043   0.822   5.996
 6869SOL    HW221507   5.104   0.671   6.006
 6870SOL     OW21508   0.508   4.238   1.017
 6870SOL    HW121509   0.548   4.263   0.929
 6870SOL    HW221510   0.488   4.140   1.019
 6871SOL     OW21511   5.900   4.320   3.053
 6871SOL    HW121512   5.831   4.383   3.089
 6871SOL    HW221513   5.989   4.366   3.049
 6872SOL     OW21514   0.229   2.864   1.450
 6872SOL    HW121515   0.282   2.906   1.524
 6872SOL    HW221516   0.190   2.777   1.482
 6873SOL     OW21517   1.014   3.849   4.091
 6873SOL    HW121518   0.966   3.769   4.127
 6873SOL    HW221519   0.982   3.867   3.998
 6874SOL     OW21520   6.615   5.141   3.650
 6874SOL    HW121521   6.521   5.117   3.674
 6874SOL    HW221522   6.655   5.196   3.724
 6875SOL     OW21523   2.428   1.722   2.094
 6875SOL    HW121524   2.475   1.661   2.030
 6875SOL    HW221525   2.330   1.702   2.094
 6876SOL     OW21526   3.686   6.736   3.885
 6876SOL    HW121527   3.682   6.829   3.922
 6876SOL    HW221528   3.597   6.692   3.897
 6877SOL     OW21529   3.432   4.287   1.619
 6877SOL    HW121530   3.492   4.332   1.685
 6877SOL    HW221531   3.339   4.321   1.630
 6878SOL     OW21532   2.728   1.907   3.586
 6878SOL    HW121533   2.646   1.860   3.553
 6878SOL    HW221534   2.809   1.865   3.546
 6879SOL     OW21535   2.309   2.460   6.844
 6879SOL    HW121536   2.221   2.460   6.795
 6879SOL    HW221537   2.299   2.409   6.930
 6880SOL     OW21538   1.150   6.122   5.708
 6880SOL    HW121539   1.248   6.139   5.710
 6880SOL    HW221540   1.121   6.105   5.614
 6881SOL     OW21541   1.589   3.201   1.338
 6881SOL    HW121542   1.587   3.160   1.429
 6881SOL    HW221543   1.495   3.220   1.308
 6882SOL     OW21544   2.968   0.501   0.488
 6882SOL    HW121545   2.928   0.588   0.516
 6882SOL    HW221546   2.900   0.448   0.437
 6883SOL     OW21547   5.564   1.267   0.128
 6883SOL    HW121548   5.470   1.292   0.105
 6883SOL    HW221549   5.627   1.326   0.078
 6884SOL     OW21550   0.873   4.510   3.003
 6884SOL    HW121551   0.923   4.582   3.053
 6884SOL    HW221552   0.937   4.456   2.949
 6885SOL     OW21553   4.380   4.930   3.327
 6885SOL    HW121554   4.391   4.834   3.301
 6885SOL    HW221555   4.316   4.936   3.404
 6886SOL     OW21556   0.090   1.406   4.773
 6886SOL    HW121557   0.177   1.357   4.763
 6886SOL    HW221558   0.089   1.484   4.711
 6887SOL     OW21559   4.709   5.755   6.887
 6887SOL    HW121560   4.759   5.828   6.839
 6887SOL    HW221561   4.658   5.701   6.821
 6888SOL     OW21562   5.146   5.051   6.391
 6888SOL    HW121563   5.143   4.993   6.473
 6888SOL    HW221564   5.084   5.128   6.403
 6889SOL     OW21565   1.794   2.600   5.823
 6889SOL    HW121566   1.748   2.512   5.820
 6889SOL    HW221567   1.886   2.591   5.784
 6890SOL     OW21568   3.808   5.762   2.083
 6890SOL    HW121569   3.796   5.819   2.001
 6890SOL    HW221570   3.742   5.790   2.152
 6891SOL     OW21571   2.023   3.144   1.569
 6891SOL    HW121572   1.967   3.214   1.525
 6891SOL    HW221573   2.080   3.187   1.640
 6892SOL     OW21574   3.814   1.355   4.283
 6892SOL    HW121575   3.856   1.432   4.332
 6892SOL    HW221576   3.782   1.385   4.194
 6893SOL     OW21577   4.777   3.994   6.934
 6893SOL    HW121578   4.695   3.973   6.880
 6893SOL    HW221579   4.791   4.093   6.936
 6894SOL     OW21580   6.398   5.179   1.147
 6894SOL    HW121581   6.406   5.257   1.209
 6894SOL    HW221582   6.380   5.212   1.054
 6895SOL     OW21583   1.747   5.161   1.243
 6895SOL    HW121584   1.842   5.186   1.260
 6895SOL    HW221585   1.725   5.077   1.291
 6896SOL     OW21586   3.073   2.097   3.722
 6896SOL    HW121587   3.113   2.015   3.762
 6896SOL    HW221588   3.048   2.080   3.627
 6897SOL     OW21589   4.891   3.266   5.145
 6897SOL    HW121590   4.839   3.344   5.112
 6897SOL    HW221591   4.940   3.223   5.069
 6898SOL     OW21592   3.529   1.354   1.478
 6898SOL    HW121593   3.555   1.276   1.536
 6898SOL    HW221594   3.448   1.329   1.424
 6899SOL     OW21595   4.626   5.994   2.341
 6899SOL    HW121596   4.693   6.068   2.348
 6899SOL    HW221597   4.543   6.028   2.298
 6900SOL     OW21598   6.922   4.710   5.011
 6900SOL    HW121599   6.864   4.752   5.081
 6900SOL    HW221600   6.868   4.696   4.927
 6901SOL     OW21601   5.608   5.879   6.348
 6901SOL    HW121602   5.620   5.977   6.366
 6901SOL    HW221603   5.628   5.827   6.431
 6902SOL     OW21604   0.071   5.620   5.926
 6902SOL    HW121605   0.019   5.580   5.851
 6902SOL    HW221606   0.015   5.623   6.008
 6903SOL     OW21607   3.145   5.024   5.251
 6903SOL    HW121608   3.117   4.959   5.181
 6903SOL    HW221609   3.065   5.057   5.301
 6904SOL     OW21610   6.456   0.613   6.109
 6904SOL    HW121611   6.538   0.564   6.080
 6904SOL    HW221612   6.473   0.712   6.105
 6905SOL     OW21613   5.306   5.545   6.410
 6905SOL    HW121614   5.228   5.598   6.441
 6905SOL    HW221615   5.382   5.556   6.475
 6906SOL     OW21616   3.929   1.045   3.818
 6906SOL    HW121617   3.913   1.085   3.908
 6906SOL    HW221618   3.980   1.109   3.761
 6907SOL     OW21619   5.752   2.380   1.619
 6907SOL    HW121620   5.766   2.351   1.714
 6907SOL    HW221621   5.782   2.308   1.557
 6908SOL     OW21622   2.198   5.120   6.548
 6908SOL    HW121623   2.118   5.061   6.539
 6908SOL    HW221624   2.221   5.159   6.459
 6909SOL     OW21625   4.946   3.886   0.711
 6909SOL    HW121626   4.918   3.898   0.806
 6909SOL    HW221627   5.045   3.899   0.704
 6910SOL     OW21628   1.162   3.143   2.900
 6910SOL    HW121629   1.257   3.118   2.883
 6910SOL    HW221630   1.122   3.181   2.816
 6911SOL     OW21631   4.274   0.012   4.472
 6911SOL    HW121632   4.192   0.007   4.416
 6911SOL    HW221633   4.354   0.028   4.413
 6912SOL     OW21634   2.848   3.234   6.620
 6912SOL    HW121635   2.774   3.265   6.561
 6912SOL    HW221636   2.873   3.140   6.596
 6913SOL     OW21637   5.239   6.197   5.010
 6913SOL    HW121638   5.244   6.289   4.971
 6913SOL    HW221639   5.147   6.180   5.044
 6914SOL     OW21640   5.567   4.720   3.974
 6914SOL    HW121641   5.557   4.681   4.065
 6914SOL    HW221642   5.660   4.754   3.961
 6915SOL     OW21643   6.916   2.270   1.873
 6915SOL    HW121644   6.971   2.315   1.944
 6915SOL    HW221645   6.857   2.201   1.916
 6916SOL     OW21646   5.524   0.458   7.017
 6916SOL    HW121647   5.620   0.452   0.021
 6916SOL    HW221648   5.520   0.490   6.923
 6917SOL     OW21649   4.190   6.368   1.764
 6917SOL    HW121650   4.163   6.438   1.698
 6917SOL    HW221651   4.115   6.302   1.774
 6918SOL     OW21652   0.067   2.667   4.041
 6918SOL    HW121653   0.075   2.764   4.065
 6918SOL    HW221654   0.008   2.657   3.961
 6919SOL     OW21655   6.679   5.607   3.713
 6919SOL    HW121656   6.707   5.518   3.749
 6919SOL    HW221657   6.732   5.628   3.631
 6920SOL     OW21658   4.673   6.946   5.171
 6920SOL    HW121659   4.735   6.988   5.238
 6920SOL    HW221660   4.639   7.016   5.109
 6921SOL     OW21661   4.173   6.561   3.447
 6921SOL    HW121662   4.120   6.570   3.363
 6921SOL    HW221663   4.164   6.643   3.503
 6922SOL     OW21664   1.618   6.102   5.505
 6922SOL    HW121665   1.683   6.057   5.566
 6922SOL    HW221666   1.632   6.070   5.411
 6923SOL     OW21667   5.253   5.740   2.642
 6923SOL    HW121668   5.153   5.734   2.637
 6923SOL    HW221669   5.291   5.647   2.644
 6924SOL     OW21670   2.722   4.088   0.179
 6924SOL    HW121671   2.751   3.994   0.197
 6924SOL    HW221672   2.730   4.107   0.081
 6925SOL     OW21673   4.837   5.665   4.869
 6925SOL    HW121674   4.810   5.708   4.783
 6925SOL    HW221675   4.886   5.580   4.850
 6926SOL     OW21676   2.376   1.808   0.344
 6926SOL    HW121677   2.280   1.833   0.342
 6926SOL    HW221678   2.427   1.866   0.280
 6927SOL     OW21679   3.497   1.983   6.305
 6927SOL    HW121680   3.398   1.993   6.312
 6927SOL    HW221681   3.519   1.923   6.228
 6928SOL     OW21682   5.619   6.098   0.725
 6928SOL    HW121683   5.636   6.041   0.804
 6928SOL    HW221684   5.688   6.170   0.720
 6929SOL     OW21685   5.202   5.975   2.514
 6929SOL    HW121686   5.126   6.011   2.568
 6929SOL    HW221687   5.226   5.883   2.547
 6930SOL     OW21688   1.261   0.986   1.333
 6930SOL    HW121689   1.199   0.926   1.283
 6930SOL    HW221690   1.352   0.946   1.334
 6931SOL     OW21691   1.401   2.023   2.604
 6931SOL    HW121692   1.304   2.015   2.580
 6931SOL    HW221693   1.447   2.083   2.538
 6932SOL     OW21694   4.720   6.594   0.812
 6932SOL    HW121695   4.781   6.515   0.822
 6932SOL    HW221696   4.634   6.576   0.859
 6933SOL     OW21697   3.313   6.568   5.638
 6933SOL    HW121698   3.339   6.487   5.692
 6933SOL    HW221699   3.341   6.555   5.543
 6934SOL     OW21700   4.649   3.379   6.242
 6934SOL    HW121701   4.603   3.413   6.323
 6934SOL    HW221702   4.640   3.279   6.238
 6935SOL     OW21703   3.987   5.841   2.755
 6935SOL    HW121704   3.981   5.935   2.721
 6935SOL    HW221705   3.943   5.836   2.845
 6936SOL     OW21706   6.256   2.542   4.449
 6936SOL    HW121707   6.279   2.465   4.510
 6936SOL    HW221708   6.183   2.596   4.490
 6937SOL     OW21709   6.316   6.141   0.575
 6937SOL    HW121710   6.237   6.092   0.538
 6937SOL    HW221711   6.284   6.216   0.633
 6938SOL     OW21712   0.143   2.373   4.594
 6938SOL    HW121713   0.157   2.299   4.661
 6938SOL    HW221714   0.175   2.343   4.504
 6939SOL     OW21715   6.847   5.345   2.551
 6939SOL    HW121716   6.895   5.307   2.471
 6939SOL    HW221717   6.891   5.313   2.635
 6940SOL     OW21718   4.555   6.872   0.205
 6940SOL    HW121719   4.529   6.786   0.249
 6940SOL    HW221720   4.568   6.857   0.107
 6941SOL     OW21721   3.092   3.601   1.944
 6941SOL    HW121722   3.094   3.515   1.893
 6941SOL    HW221723   3.102   3.583   2.042
 6942SOL     OW21724   5.500   6.771   2.701
 6942SOL    HW121725   5.436   6.695   2.713
 6942SOL    HW221726   5.593   6.736   2.693
 6943SOL     OW21727   3.584   5.368   0.905
 6943SOL    HW121728   3.599   5.460   0.941
 6943SOL    HW221729   3.576   5.372   0.805
 6944SOL     OW21730   1.236   5.234   5.960
 6944SOL    HW121731   1.332   5.217   5.936
 6944SOL    HW221732   1.213   5.185   6.044
 6945SOL     OW21733   6.792   1.583   1.648
 6945SOL    HW121734   6.703   1.621   1.676
 6945SOL    HW221735   6.781   1.488   1.620
 6946SOL     OW21736   4.235   6.578   1.596
 6946SOL    HW121737   4.320   6.578   1.649
 6946SOL    HW221738   4.204   6.672   1.584
 6947SOL     OW21739   4.310   5.370   6.353
 6947SOL    HW121740   4.291   5.424   6.271
 6947SOL    HW221741   4.233   5.310   6.373
 6948SOL     OW21742   0.929   6.002   0.965
 6948SOL    HW121743   0.887   6.019   0.876
 6948SOL    HW221744   0.935   5.903   0.981
 6949SOL     OW21745   2.269   1.090   3.360
 6949SOL    HW121746   2.193   1.028   3.380
 6949SOL    HW221747   2.269   1.113   3.262
 6950SOL     OW21748   1.664   0.682   4.884
 6950SOL    HW121749   1.631   0.592   4.915
 6950SOL    HW221750   1.631   0.753   4.946
 6951SOL     OW21751   0.397   6.167   6.570
 6951SOL    HW121752   0.455   6.142   6.647
 6951SOL    HW221753   0.402   6.095   6.500
 6952SOL     OW21754   1.449   5.181   3.176
 6952SOL    HW121755   1.368   5.240   3.171
 6952SOL    HW221756   1.425   5.088   3.149
 6953SOL     OW21757   5.401   0.023   0.537
 6953SOL    HW121758   5.470   0.033   0.609
 6953SOL    HW221759   5.391   0.110   0.488
 6954SOL     OW21760   0.925   4.394   1.437
 6954SOL    HW121761   0.915   4.370   1.534
 6954SOL    HW221762   0.943   4.492   1.429
 6955SOL     OW21763   4.614   0.812   2.963
 6955SOL    HW121764   4.702   0.788   2.921
 6955SOL    HW221765   4.627   0.836   3.059
 6956SOL     OW21766   4.855   6.051   3.249
 6956SOL    HW121767   4.886   6.126   3.307
 6956SOL    HW221768   4.791   5.993   3.299
 6957SOL     OW21769   5.889   5.687   6.962
 6957SOL    HW121770   5.893   5.779   7.000
 6957SOL    HW221771   5.981   5.654   6.943
 6958SOL     OW21772   3.997   3.471   4.801
 6958SOL    HW121773   3.971   3.479   4.897
 6958SOL    HW221774   4.059   3.545   4.777
 6959SOL     OW21775   1.940   4.006   3.137
 6959SOL    HW121776   1.994   4.082   3.101
 6959SOL    HW221777   1.993   3.921   3.130
 6960SOL     OW21778   1.784   4.238   0.813
 6960SOL    HW121779   1.812   4.322   0.859
 6960SOL    HW221780   1.709   4.195   0.863
 6961SOL     OW21781   6.071   1.331   4.955
 6961SOL    HW121782   5.989   1.276   4.938
 6961SOL    HW221783   6.072   1.410   4.894
 6962SOL     OW21784   4.306   5.885   1.106
 6962SOL    HW121785   4.347   5.821   1.041
 6962SOL    HW221786   4.378   5.928   1.160
 6963SOL     OW21787   5.656   5.054   0.833
 6963SOL    HW121788   5.567   5.058   0.879
 6963SOL    HW221789   5.718   5.120   0.874
 6964SOL     OW21790   3.453   0.621   6.298
 6964SOL    HW121791   3.434   0.603   6.202
 6964SOL    HW221792   3.501   0.543   6.338
 6965SOL     OW21793   2.014   1.528   6.880
 6965SOL    HW121794   2.067   1.549   6.798
 6965SOL    HW221795   1.985   1.433   6.878
 6966SOL     OW21796   0.164   0.539   2.314
 6966SOL    HW121797   0.110   0.608   2.361
 6966SOL    HW221798   0.164   0.455   2.367
 6967SOL     OW21799   3.277   1.259   5.352
 6967SOL    HW121800   3.221   1.232   5.430
 6967SOL    HW221801   3.250   1.351   5.322
 6968SOL     OW21802   2.681   1.293   3.920
 6968SOL    HW121803   2.663   1.354   3.843
 6968SOL    HW221804   2.648   1.201   3.899
 6969SOL     OW21805   2.929   2.080   1.393
 6969SOL    HW121806   2.906   2.077   1.491
 6969SOL    HW221807   2.968   2.169   1.370
 6970SOL     OW21808   4.240   3.570   5.041
 6970SOL    HW121809   4.215   3.657   5.083
 6970SOL    HW221810   4.339   3.564   5.032
 6971SOL     OW21811   5.791   4.630   1.245
 6971SOL    HW121812   5.866   4.694   1.229
 6971SOL    HW221813   5.794   4.558   1.176
 6972SOL     OW21814   5.300   4.328   2.225
 6972SOL    HW121815   5.217   4.362   2.182
 6972SOL    HW221816   5.278   4.290   2.315
 6973SOL     OW21817   0.401   2.487   3.697
 6973SOL    HW121818   0.420   2.433   3.615
 6973SOL    HW221819   0.412   2.429   3.778
 6974SOL     OW21820   3.007   3.856   2.839
 6974SOL    HW121821   2.917   3.887   2.869
 6974SOL    HW221822   3.001   3.823   2.744
 6975SOL     OW21823   1.570   6.842   4.560
 6975SOL    HW121824   1.661   6.862   4.595
 6975SOL    HW221825   1.572   6.758   4.505
 6976SOL     OW21826   6.106   4.148   5.832
 6976SOL    HW121827   6.144   4.153   5.739
 6976SOL    HW221828   6.013   4.112   5.828
 6977SOL     OW21829   3.457   3.256   1.225
 6977SOL    HW121830   3.487   3.346   1.193
 6977SOL    HW221831   3.396   3.215   1.157
 6978SOL     OW21832   5.454   2.463   1.680
 6978SOL    HW121833   5.523   2.402   1.640
 6978SOL    HW221834   5.441   2.542   1.621
 6979SOL     OW21835   1.061   3.580   1.277
 6979SOL    HW121836   1.045   3.677   1.296
 6979SOL    HW221837   0.978   3.528   1.299
 6980SOL     OW21838   2.047   1.317   3.687
 6980SOL    HW121839   2.139   1.354   3.693
 6980SOL    HW221840   2.004   1.347   3.601
 6981SOL     OW21841   4.043   3.165   5.990
 6981SOL    HW121842   4.015   3.171   5.894
 6981SOL    HW221843   4.109   3.237   6.009
 6982SOL     OW21844   0.947   1.076   4.283
 6982SOL    HW121845   0.947   1.138   4.204
 6982SOL    HW221846   0.943   0.981   4.250
 6983SOL     OW21847   4.967   1.524   4.945
 6983SOL    HW121848   5.023   1.588   4.893
 6983SOL    HW221849   4.920   1.573   5.018
 6984SOL     OW21850   2.187   1.691   2.419
 6984SOL    HW121851   2.176   1.593   2.434
 6984SOL    HW221852   2.103   1.730   2.381
 6985SOL     OW21853   6.583   5.383   0.780
 6985SOL    HW121854   6.581   5.463   0.720
 6985SOL    HW221855   6.608   5.302   0.727
 6986SOL     OW21856   3.434   6.595   6.883
 6986SOL    HW121857   3.514   6.652   6.902
 6986SOL    HW221858   3.452   6.501   6.913
 6987SOL     OW21859   6.540   1.436   6.470
 6987SOL    HW121860   6.482   1.475   6.399
 6987SOL    HW221861   6.485   1.418   6.552
 6988SOL     OW21862   1.635   6.771   5.960
 6988SOL    HW121863   1.554   6.828   5.944
 6988SOL    HW221864   1.607   6.675   5.964
 6989SOL     OW21865   0.068   4.731   3.079
 6989SOL    HW121866   0.160   4.748   3.044
 6989SOL    HW221867   0.030   4.649   3.037
 6990SOL     OW21868   3.887   2.856   1.256
 6990SOL    HW121869   3.879   2.952   1.232
 6990SOL    HW221870   3.969   2.817   1.213
 6991SOL     OW21871   5.346   4.236   3.054
 6991SOL    HW121872   5.325   4.328   3.086
 6991SOL    HW221873   5.420   4.197   3.109
 6992SOL     OW21874   6.352   6.537   6.541
 6992SOL    HW121875   6.273   6.594   6.565
 6992SOL    HW221876   6.383   6.560   6.449
 6993SOL     OW21877   6.075   0.683   1.841
 6993SOL    HW121878   6.057   0.700   1.744
 6993SOL    HW221879   6.054   0.765   1.894
 6994SOL     OW21880   1.107   1.432   4.209
 6994SOL    HW121881   1.022   1.430   4.261
 6994SOL    HW221882   1.154   1.345   4.217
 6995SOL     OW21883   6.743   3.714   6.895
 6995SOL    HW121884   6.697   3.764   6.822
 6995SOL    HW221885   6.823   3.666   6.858
 6996SOL     OW21886   1.565   0.563   0.195
 6996SOL    HW121887   1.504   0.622   0.141
 6996SOL    HW221888   1.533   0.468   0.190
 6997SOL     OW21889   0.420   4.871   5.184
 6997SOL    HW121890   0.503   4.907   5.227
 6997SOL    HW221891   0.444   4.792   5.128
 6998SOL     OW21892   1.553   1.721   1.122
 6998SOL    HW121893   1.480   1.781   1.089
 6998SOL    HW221894   1.620   1.775   1.173
 6999SOL     OW21895   1.949   2.254   6.087
 6999SOL    HW121896   2.018   2.323   6.064
 6999SOL    HW221897   1.959   2.227   6.183
 7000SOL     OW21898   6.116   0.389   2.594
 7000SOL    HW121899   6.206   0.354   2.568
 7000SOL    HW221900   6.051   0.314   2.602
 7001SOL     OW21901   1.085   2.473   5.177
 7001SOL    HW121902   1.007   2.420   5.210
 7001SOL    HW221903   1.091   2.465   5.077
 7002SOL     OW21904   2.105   4.852   3.773
 7002SOL    HW121905   2.170   4.792   3.820
 7002SOL    HW221906   2.150   4.938   3.750
 7003SOL     OW21907   4.518   5.834   1.481
 7003SOL    HW121908   4.437   5.888   1.459
 7003SOL    HW221909   4.502   5.784   1.567
 7004SOL     OW21910   0.615   6.558   0.571
 7004SOL    HW121911   0.561   6.615   0.509
 7004SOL    HW221912   0.619   6.465   0.536
 7005SOL     OW21913   0.945   1.108   0.619
 7005SOL    HW121914   1.015   1.169   0.582
 7005SOL    HW221915   0.953   1.018   0.577
 7006SOL     OW21916   5.543   5.925   3.506
 7006SOL    HW121917   5.459   5.875   3.486
 7006SOL    HW221918   5.532   6.021   3.477
 7007SOL     OW21919   3.841   0.647   4.733
 7007SOL    HW121920   3.898   0.729   4.730
 7007SOL    HW221921   3.843   0.609   4.826
 7008SOL     OW21922   0.623   4.379   4.380
 7008SOL    HW121923   0.686   4.450   4.348
 7008SOL    HW221924   0.676   4.299   4.409
 7009SOL     OW21925   3.993   6.967   2.218
 7009SOL    HW121926   3.989   6.873   2.185
 7009SOL    HW221927   3.933   6.977   2.297
 7010SOL     OW21928   5.702   4.392   3.848
 7010SOL    HW121929   5.744   4.436   3.927
 7010SOL    HW221930   5.660   4.461   3.789
 7011SOL     OW21931   3.933   6.709   0.572
 7011SOL    HW121932   3.993   6.786   0.553
 7011SOL    HW221933   3.856   6.739   0.628
 7012SOL     OW21934   0.929   1.799   1.097
 7012SOL    HW121935   0.901   1.870   1.160
 7012SOL    HW221936   0.940   1.712   1.146
 7013SOL     OW21937   1.785   0.134   6.888
 7013SOL    HW121938   1.802   0.215   6.832
 7013SOL    HW221939   1.687   0.125   6.904
 7014SOL     OW21940   5.542   3.369   0.546
 7014SOL    HW121941   5.521   3.317   0.463
 7014SOL    HW221942   5.489   3.453   0.547
 7015SOL     OW21943   5.510   5.000   1.641
 7015SOL    HW121944   5.418   5.029   1.615
 7015SOL    HW221945   5.571   5.079   1.642
 7016SOL     OW21946   3.998   5.073   1.395
 7016SOL    HW121947   4.076   5.011   1.403
 7016SOL    HW221948   3.937   5.040   1.323
 7017SOL     OW21949   3.127   5.186   3.130
 7017SOL    HW121950   3.115   5.199   3.031
 7017SOL    HW221951   3.225   5.190   3.152
 7018SOL     OW21952   5.199   4.192   4.645
 7018SOL    HW121953   5.162   4.284   4.645
 7018SOL    HW221954   5.141   4.132   4.701
 7019SOL     OW21955   4.187   4.867   1.412
 7019SOL    HW121956   4.261   4.873   1.479
 7019SOL    HW221957   4.142   4.778   1.419
 7020SOL     OW21958   0.239   3.911   5.827
 7020SOL    HW121959   0.309   3.974   5.861
 7020SOL    HW221960   0.157   3.962   5.803
 7021SOL     OW21961   1.818   3.111   3.970
 7021SOL    HW121962   1.831   3.182   4.040
 7021SOL    HW221963   1.861   3.026   4.000
 7022SOL     OW21964   5.013   6.909   0.156
 7022SOL    HW121965   5.011   7.007   0.138
 7022SOL    HW221966   5.106   6.882   0.182
 7023SOL     OW21967   0.402   2.907   1.250
 7023SOL    HW121968   0.354   2.873   1.331
 7023SOL    HW221969   0.378   2.852   1.170
 7024SOL     OW21970   3.830   3.445   4.385
 7024SOL    HW121971   3.778   3.433   4.301
 7024SOL    HW221972   3.911   3.386   4.383
 7025SOL     OW21973   3.486   1.040   1.096
 7025SOL    HW121974   3.574   1.004   1.066
 7025SOL    HW221975   3.462   1.120   1.041
 7026SOL     OW21976   3.724   1.955   2.100
 7026SOL    HW121977   3.705   2.049   2.071
 7026SOL    HW221978   3.646   1.896   2.077
 7027SOL     OW21979   2.255   5.864   3.841
 7027SOL    HW121980   2.222   5.922   3.916
 7027SOL    HW221981   2.193   5.871   3.763
 7028SOL     OW21982   3.922   0.372   3.972
 7028SOL    HW121983   3.823   0.361   3.976
 7028SOL    HW221984   3.952   0.362   3.877
 7029SOL     OW21985   4.959   3.579   5.682
 7029SOL    HW121986   4.983   3.482   5.674
 7029SOL    HW221987   4.868   3.588   5.721
 7030SOL     OW21988   0.644   1.097   4.317
 7030SOL    HW121989   0.742   1.093   4.296
 7030SOL    HW221990   0.607   1.004   4.318
 7031SOL     OW21991   3.973   6.067   0.098
 7031SOL    HW121992   3.964   6.160   0.134
 7031SOL    HW221993   3.885   6.036   0.062
 7032SOL     OW21994   4.096   1.036   3.503
 7032SOL    HW121995   4.128   0.951   3.545
 7032SOL    HW221996   4.106   1.111   3.569
 7033SOL     OW21997   1.444   3.057   3.197
 7033SOL    HW121998   1.416   3.135   3.253
 7033SOL    HW221999   1.372   3.035   3.131
 7034SOL     OW22000   6.979   2.049   3.184
 7034SOL    HW122001   6.904   2.010   3.237
 7034SOL    HW222002   6.974   2.017   3.090
 7035SOL     OW22003   1.883   0.213   0.771
 7035SOL    HW122004   1.799   0.267   0.772
 7035SOL    HW222005   1.872   0.135   0.832
 7036SOL     OW22006   6.607   1.937   2.324
 7036SOL    HW122007   6.589   1.842   2.299
 7036SOL    HW222008   6.579   1.953   2.419
 7037SOL     OW22009   0.312   1.385   6.411
 7037SOL    HW122010   0.375   1.307   6.409
 7037SOL    HW222011   0.233   1.362   6.468
 7038SOL     OW22012   2.547   4.659   5.067
 7038SOL    HW122013   2.489   4.579   5.050
 7038SOL    HW222014   2.643   4.633   5.060
 7039SOL     OW22015   0.150   6.196   3.808
 7039SOL    HW122016   0.102   6.181   3.894
 7039SOL    HW222017   0.136   6.290   3.777
 7040SOL     OW22018   4.878   2.403   5.767
 7040SOL    HW122019   4.843   2.337   5.701
 7040SOL    HW222020   4.871   2.366   5.859
 7041SOL     OW22021   0.458   1.691   3.002
 7041SOL    HW122022   0.459   1.600   3.043
 7041SOL    HW222023   0.495   1.757   3.068
 7042SOL     OW22024   4.547   6.304   4.257
 7042SOL    HW122025   4.475   6.256   4.207
 7042SOL    HW222026   4.601   6.238   4.310
 7043SOL     OW22027   2.972   5.094   3.646
 7043SOL    HW122028   3.034   5.172   3.650
 7043SOL    HW222029   3.001   5.032   3.574
 7044SOL     OW22030   4.725   6.229   5.169
 7044SOL    HW122031   4.795   6.292   5.135
 7044SOL    HW222032   4.765   6.168   5.237
 7045SOL     OW22033   5.336   5.731   2.269
 7045SOL    HW122034   5.417   5.679   2.296
 7045SOL    HW222035   5.260   5.667   2.252
 7046SOL     OW22036   3.252   1.576   3.932
 7046SOL    HW122037   3.172   1.561   3.991
 7046SOL    HW222038   3.251   1.670   3.899
 7047SOL     OW22039   0.056   0.987   1.597
 7047SOL    HW122040   0.020   0.895   1.610
 7047SOL    HW222041   0.028   1.021   1.507
 7048SOL     OW22042   5.730   6.480   4.858
 7048SOL    HW122043   5.662   6.445   4.793
 7048SOL    HW222044   5.692   6.474   4.950
 7049SOL     OW22045   3.110   1.741   2.090
 7049SOL    HW122046   3.119   1.841   2.087
 7049SOL    HW222047   3.014   1.716   2.081
 7050SOL     OW22048   3.985   4.117   1.239
 7050SOL    HW122049   3.928   4.078   1.167
 7050SOL    HW222050   3.938   4.196   1.279
 7051SOL     OW22051   6.702   6.249   1.013
 7051SOL    HW122052   6.782   6.195   0.988
 7051SOL    HW222053   6.640   6.193   1.068
 7052SOL     OW22054   5.898   0.542   3.645
 7052SOL    HW122055   5.913   0.449   3.611
 7052SOL    HW222056   5.801   0.554   3.665
 7053SOL     OW22057   1.635   4.005   4.298
 7053SOL    HW122058   1.610   4.079   4.236
 7053SOL    HW222059   1.696   3.942   4.251
 7054SOL     OW22060   0.250   6.942   1.632
 7054SOL    HW122061   0.280   6.977   1.721
 7054SOL    HW222062   0.158   6.905   1.641
 7055SOL     OW22063   2.883   0.165   0.078
 7055SOL    HW122064   2.926   0.245   0.034
 7055SOL    HW222065   2.790   0.189   0.106
 7056SOL     OW22066   0.032   5.607   1.145
 7056SOL    HW122067   7.017   5.575   1.059
 7056SOL    HW222068   0.106   5.671   1.126
 7057SOL     OW22069   2.777   5.835   4.071
 7057SOL    HW122070   2.698   5.775   4.059
 7057SOL    HW222071   2.851   5.784   4.115
 7058SOL     OW22072   5.221   1.641   6.366
 7058SOL    HW122073   5.146   1.706   6.354
 7058SOL    HW222074   5.195   1.571   6.433
 7059SOL     OW22075   1.534   1.237   4.107
 7059SOL    HW122076   1.623   1.192   4.108
 7059SOL    HW222077   1.490   1.222   4.018
 7060SOL     OW22078   3.937   6.615   1.276
 7060SOL    HW122079   3.920   6.679   1.351
 7060SOL    HW222080   4.033   6.618   1.251
 7061SOL     OW22081   0.333   2.756   3.196
 7061SOL    HW122082   0.341   2.850   3.229
 7061SOL    HW222083   0.417   2.706   3.217
 7062SOL     OW22084   3.984   2.161   5.190
 7062SOL    HW122085   4.026   2.071   5.181
 7062SOL    HW222086   3.897   2.163   5.140
 7063SOL     OW22087   1.236   0.193   1.706
 7063SOL    HW122088   1.308   0.171   1.640
 7063SOL    HW222089   1.277   0.209   1.796
 7064SOL     OW22090   4.592   1.567   6.457
 7064SOL    HW122091   4.551   1.568   6.365
 7064SOL    HW222092   4.521   1.584   6.525
 7065SOL     OW22093   3.627   4.323   5.283
 7065SOL    HW122094   3.704   4.384   5.302
 7065SOL    HW222095   3.542   4.364   5.316
 7066SOL     OW22096   4.386   0.160   5.707
 7066SOL    HW122097   4.470   0.200   5.746
 7066SOL    HW222098   4.382   0.180   5.610
 7067SOL     OW22099   1.219   3.229   6.508
 7067SOL    HW122100   1.283   3.305   6.497
 7067SOL    HW222101   1.269   3.142   6.507
 7068SOL     OW22102   5.656   4.372   4.495
 7068SOL    HW122103   5.736   4.412   4.450
 7068SOL    HW222104   5.618   4.299   4.438
 7069SOL     OW22105   5.688   1.821   5.347
 7069SOL    HW122106   5.758   1.760   5.384
 7069SOL    HW222107   5.598   1.778   5.357
 7070SOL     OW22108   1.196   6.405   4.141
 7070SOL    HW122109   1.130   6.459   4.193
 7070SOL    HW222110   1.230   6.459   4.064
 7071SOL     OW22111   4.933   5.894   6.510
 7071SOL    HW122112   4.896   5.906   6.602
 7071SOL    HW222113   4.944   5.983   6.466
 7072SOL     OW22114   2.301   5.062   6.962
 7072SOL    HW122115   2.280   5.039   0.032
 7072SOL    HW222116   2.260   5.150   6.939
 7073SOL     OW22117   3.527   0.152   3.063
 7073SOL    HW122118   3.525   0.242   3.107
 7073SOL    HW222119   3.585   0.090   3.116
 7074SOL     OW22120   6.610   3.524   3.457
 7074SOL    HW122121   6.631   3.531   3.360
 7074SOL    HW222122   6.536   3.459   3.471
 7075SOL     OW22123   2.621   5.246   4.741
 7075SOL    HW122124   2.543   5.269   4.682
 7075SOL    HW222125   2.702   5.294   4.709
 7076SOL     OW22126   6.002   2.746   0.976
 7076SOL    HW122127   6.077   2.680   0.978
 7076SOL    HW222128   5.948   2.738   1.060
 7077SOL     OW22129   2.354   4.258   2.808
 7077SOL    HW122130   2.397   4.239   2.720
 7077SOL    HW222131   2.307   4.347   2.803
 7078SOL     OW22132   6.087   6.089   0.862
 7078SOL    HW122133   6.155   6.160   0.881
 7078SOL    HW222134   6.075   6.032   0.943
 7079SOL     OW22135   1.150   6.812   4.102
 7079SOL    HW122136   1.104   6.901   4.097
 7079SOL    HW222137   1.202   6.796   4.018
 7080SOL     OW22138   3.982   1.899   3.896
 7080SOL    HW122139   3.999   1.868   3.990
 7080SOL    HW222140   3.941   1.990   3.898
 7081SOL     OW22141   1.442   6.103   0.434
 7081SOL    HW122142   1.358   6.069   0.475
 7081SOL    HW222143   1.466   6.046   0.355
 7082SOL     OW22144   6.826   4.122   0.852
 7082SOL    HW122145   6.809   4.174   0.936
 7082SOL    HW222146   6.741   4.079   0.822
 7083SOL     OW22147   0.213   1.816   2.758
 7083SOL    HW122148   0.312   1.817   2.746
 7083SOL    HW222149   0.190   1.818   2.855
 7084SOL     OW22150   0.746   5.502   5.508
 7084SOL    HW122151   0.690   5.477   5.430
 7084SOL    HW222152   0.838   5.527   5.477
 7085SOL     OW22153   6.580   2.470   2.803
 7085SOL    HW122154   6.662   2.447   2.857
 7085SOL    HW222155   6.580   2.416   2.719
 7086SOL     OW22156   5.787   0.525   6.702
 7086SOL    HW122157   5.690   0.525   6.724
 7086SOL    HW222158   5.803   0.469   6.621
 7087SOL     OW22159   5.406   3.538   2.388
 7087SOL    HW122160   5.465   3.491   2.454
 7087SOL    HW222161   5.390   3.479   2.309
 7088SOL     OW22162   5.151   2.354   5.729
 7088SOL    HW122163   5.052   2.362   5.724
 7088SOL    HW222164   5.176   2.298   5.808
 7089SOL     OW22165   2.516   4.955   2.716
 7089SOL    HW122166   2.611   4.986   2.706
 7089SOL    HW222167   2.465   5.021   2.771
 7090SOL     OW22168   2.770   1.605   0.634
 7090SOL    HW122169   2.727   1.549   0.563
 7090SOL    HW222170   2.711   1.608   0.715
 7091SOL     OW22171   0.848   0.609   1.566
 7091SOL    HW122172   0.857   0.624   1.665
 7091SOL    HW222173   0.757   0.639   1.536
 7092SOL     OW22174   3.990   2.786   6.021
 7092SOL    HW122175   4.081   2.783   5.981
 7092SOL    HW222176   3.921   2.769   5.950
 7093SOL     OW22177   3.552   3.312   1.684
 7093SOL    HW122178   3.461   3.335   1.719
 7093SOL    HW222179   3.583   3.226   1.724
 7094SOL     OW22180   1.415   0.070   5.455
 7094SOL    HW122181   1.359   7.016   5.480
 7094SOL    HW222182   1.511   0.052   5.479
 7095SOL     OW22183   3.461   4.915   5.929
 7095SOL    HW122184   3.551   4.957   5.944
 7095SOL    HW222185   3.463   4.820   5.959
 7096SOL     OW22186   6.827   0.449   2.045
 7096SOL    HW122187   6.780   0.532   2.077
 7096SOL    HW222188   6.925   0.461   2.053
 7097SOL     OW22189   4.760   0.877   2.118
 7097SOL    HW122190   4.730   0.792   2.161
 7097SOL    HW222191   4.806   0.856   2.031
 7098SOL     OW22192   1.511   6.485   5.694
 7098SOL    HW122193   1.595   6.469   5.641
 7098SOL    HW222194   1.536   6.499   5.790
 7099SOL     OW22195   3.778   1.735   4.203
 7099SOL    HW122196   3.783   1.644   4.244
 7099SOL    HW222197   3.863   1.754   4.153
 7100SOL     OW22198   6.592   3.104   0.843
 7100SOL    HW122199   6.600   3.099   0.943
 7100SOL    HW222200   6.562   3.196   0.817
 7101SOL     OW22201   2.703   0.391   5.686
 7101SOL    HW122202   2.719   0.486   5.709
 7101SOL    HW222203   2.766   0.333   5.738
 7102SOL     OW22204   5.718   0.307   1.380
 7102SOL    HW122205   5.786   0.242   1.414
 7102SOL    HW222206   5.749   0.345   1.292
 7103SOL     OW22207   4.912   5.486   1.921
 7103SOL    HW122208   4.996   5.514   1.875
 7103SOL    HW222209   4.903   5.386   1.916
 7104SOL     OW22210   5.207   3.945   2.413
 7104SOL    HW122211   5.121   3.967   2.459
 7104SOL    HW222212   5.264   3.890   2.474
 7105SOL     OW22213   3.749   4.135   4.536
 7105SOL    HW122214   3.705   4.045   4.539
 7105SOL    HW222215   3.789   4.155   4.625
 7106SOL     OW22216   2.858   3.044   0.936
 7106SOL    HW122217   2.880   2.956   0.978
 7106SOL    HW222218   2.829   3.108   1.007
 7107SOL     OW22219   3.831   7.011   0.310
 7107SOL    HW122220   3.768   6.994   0.386
 7107SOL    HW222221   3.780   0.002   0.226
 7108SOL     OW22222   2.680   6.329   2.258
 7108SOL    HW122223   2.631   6.327   2.345
 7108SOL    HW222224   2.616   6.313   2.183
 7109SOL     OW22225   1.802   1.012   6.605
 7109SOL    HW122226   1.864   0.940   6.637
 7109SOL    HW222227   1.857   1.090   6.573
 7110SOL     OW22228   3.294   6.326   4.196
 7110SOL    HW122229   3.259   6.235   4.177
 7110SOL    HW222230   3.386   6.335   4.158
 7111SOL     OW22231   1.413   1.701   4.114
 7111SOL    HW122232   1.449   1.732   4.202
 7111SOL    HW222233   1.489   1.681   4.052
 7112SOL     OW22234   2.177   4.150   4.794
 7112SOL    HW122235   2.252   4.114   4.850
 7112SOL    HW222236   2.214   4.202   4.718
 7113SOL     OW22237   3.291   4.695   5.321
 7113SOL    HW122238   3.345   4.620   5.359
 7113SOL    HW222239   3.319   4.711   5.226
 7114SOL     OW22240   4.263   5.617   1.380
 7114SOL    HW122241   4.356   5.630   1.348
 7114SOL    HW222242   4.216   5.553   1.320
 7115SOL     OW22243   5.649   3.579   6.935
 7115SOL    HW122244   5.669   3.640   7.012
 7115SOL    HW222245   5.702   3.606   6.855
 7116SOL     OW22246   5.973   3.943   3.495
 7116SOL    HW122247   5.906   3.873   3.520
 7116SOL    HW222248   5.952   3.979   3.404
 7117SOL     OW22249   7.019   0.031   4.217
 7117SOL    HW122250   0.054   0.071   4.286
 7117SOL    HW222251   0.023   6.962   4.198
 7118SOL     OW22252   3.832   4.174   5.660
 7118SOL    HW122253   3.787   4.262   5.675
 7118SOL    HW222254   3.797   4.131   5.577
 7119SOL     OW22255   5.227   0.899   5.166
 7119SOL    HW122256   5.287   0.898   5.246
 7119SOL    HW222257   5.264   0.840   5.095
 7120SOL     OW22258   4.585   1.653   1.236
 7120SOL    HW122259   4.643   1.574   1.256
 7120SOL    HW222260   4.566   1.703   1.321
 7121SOL     OW22261   0.454   6.301   2.772
 7121SOL    HW122262   0.356   6.300   2.753
 7121SOL    HW222263   0.470   6.338   2.863
 7122SOL     OW22264   1.928   0.224   5.951
 7122SOL    HW122265   1.971   0.169   5.880
 7122SOL    HW222266   1.863   0.288   5.909
 7123SOL     OW22267   6.838   5.208   4.199
 7123SOL    HW122268   6.927   5.179   4.163
 7123SOL    HW222269   6.849   5.294   4.249
 7124SOL     OW22270   0.456   2.009   1.577
 7124SOL    HW122271   0.404   2.025   1.661
 7124SOL    HW222272   0.445   1.914   1.549
 7125SOL     OW22273   1.302   1.205   1.516
 7125SOL    HW122274   1.289   1.106   1.521
 7125SOL    HW222275   1.393   1.226   1.480
 7126SOL     OW22276   4.195   5.821   0.528
 7126SOL    HW122277   4.191   5.881   0.608
 7126SOL    HW222278   4.139   5.859   0.455
 7127SOL     OW22279   2.696   6.270   5.975
 7127SOL    HW122280   2.732   6.204   6.041
 7127SOL    HW222281   2.679   6.223   5.888
 7128SOL     OW22282   3.960   3.928   6.802
 7128SOL    HW122283   4.045   3.881   6.825
 7128SOL    HW222284   3.945   3.925   6.704
 7129SOL     OW22285   1.040   1.333   1.421
 7129SOL    HW122286   1.049   1.259   1.488
 7129SOL    HW222287   1.095   1.311   1.340
 7130SOL     OW22288   3.696   0.163   4.444
 7130SOL    HW122289   3.648   0.078   4.465
 7130SOL    HW222290   3.630   0.232   4.414
 7131SOL     OW22291   3.098   1.454   1.913
 7131SOL    HW122292   3.060   1.512   1.986
 7131SOL    HW222293   3.064   1.484   1.825
 7132SOL     OW22294   5.287   4.428   0.136
 7132SOL    HW122295   5.367   4.386   0.094
 7132SOL    HW222296   5.308   4.522   0.162
 7133SOL     OW22297   4.266   4.979   3.993
 7133SOL    HW122298   4.328   5.032   3.935
 7133SOL    HW222299   4.238   4.896   3.944
 7134SOL     OW22300   5.376   6.453   1.888
 7134SOL    HW122301   5.435   6.433   1.809
 7134SOL    HW222302   5.418   6.525   1.943
 7135SOL     OW22303   2.141   2.991   2.087
 7135SOL    HW122304   2.180   3.033   2.005
 7135SOL    HW222305   2.119   3.062   2.153
 7136SOL     OW22306   2.407   1.774   1.249
 7136SOL    HW122307   2.454   1.796   1.164
 7136SOL    HW222308   2.432   1.840   1.320
 7137SOL     OW22309   3.053   1.579   0.596
 7137SOL    HW122310   3.085   1.516   0.666
 7137SOL    HW222311   2.955   1.596   0.609
 7138SOL     OW22312   1.999   1.126   1.244
 7138SOL    HW122313   1.956   1.040   1.270
 7138SOL    HW222314   2.097   1.121   1.260
 7139SOL     OW22315   4.758   4.945   1.930
 7139SOL    HW122316   4.839   4.913   1.882
 7139SOL    HW222317   4.686   4.875   1.925
 7140SOL     OW22318   5.904   4.923   1.065
 7140SOL    HW122319   5.900   4.827   1.037
 7140SOL    HW222320   5.959   4.931   1.148
 7141SOL     OW22321   4.390   6.827   1.389
 7141SOL    HW122322   4.442   6.908   1.419
 7141SOL    HW222323   4.293   6.842   1.405
 7142SOL     OW22324   3.598   0.312   4.123
 7142SOL    HW122325   3.681   0.279   4.167
 7142SOL    HW222326   3.609   0.308   4.024
 7143SOL     OW22327   1.264   3.883   6.769
 7143SOL    HW122328   1.167   3.890   6.794
 7143SOL    HW222329   1.283   3.945   6.693
 7144SOL     OW22330   0.458   1.168   3.717
 7144SOL    HW122331   0.382   1.159   3.782
 7144SOL    HW222332   0.421   1.173   3.624
 7145SOL     OW22333   4.530   0.793   6.636
 7145SOL    HW122334   4.621   0.814   6.601
 7145SOL    HW222335   4.528   0.811   6.735
 7146SOL     OW22336   2.031   1.640   6.237
 7146SOL    HW122337   2.007   1.667   6.330
 7146SOL    HW222338   1.971   1.687   6.172
 7147SOL     OW22339   6.144   5.741   3.510
 7147SOL    HW122340   6.067   5.681   3.489
 7147SOL    HW222341   6.134   5.777   3.603
 7148SOL     OW22342   6.069   5.480   1.234
 7148SOL    HW122343   5.998   5.489   1.303
 7148SOL    HW222344   6.053   5.547   1.161
 7149SOL     OW22345   6.980   5.193   3.822
 7149SOL    HW122346   6.937   5.107   3.793
 7149SOL    HW222347   0.029   5.215   3.759
 7150SOL     OW22348   4.193   3.135   0.258
 7150SOL    HW122349   4.106   3.095   0.287
 7150SOL    HW222350   4.178   3.229   0.227
 7151SOL     OW22351   3.467   6.457   0.742
 7151SOL    HW122352   3.548   6.450   0.683
 7151SOL    HW222353   3.455   6.372   0.793
 7152SOL     OW22354   6.139   0.906   6.307
 7152SOL    HW122355   6.172   0.822   6.263
 7152SOL    HW222356   6.215   0.968   6.322
 7153SOL     OW22357   3.507   5.148   2.189
 7153SOL    HW122358   3.573   5.223   2.199
 7153SOL    HW222359   3.520   5.103   2.101
 7154SOL     OW22360   3.971   0.866   2.994
 7154SOL    HW122361   3.972   0.801   3.070
 7154SOL    HW222362   3.914   0.944   3.017
 7155SOL     OW22363   2.622   2.343   1.144
 7155SOL    HW122364   2.547   2.307   1.199
 7155SOL    HW222365   2.702   2.357   1.201
 7156SOL     OW22366   4.969   3.590   2.660
 7156SOL    HW122367   4.972   3.647   2.578
 7156SOL    HW222368   4.945   3.646   2.739
 7157SOL     OW22369   6.279   4.626   1.051
 7157SOL    HW122370   6.209   4.686   1.090
 7157SOL    HW222371   6.241   4.577   0.973
 7158SOL     OW22372   6.567   0.475   3.785
 7158SOL    HW122373   6.494   0.538   3.809
 7158SOL    HW222374   6.585   0.481   3.686
 7159SOL     OW22375   0.747   4.913   4.357
 7159SOL    HW122376   0.670   4.888   4.417
 7159SOL    HW222377   0.715   4.916   4.262
 7160SOL     OW22378   5.911   6.472   2.740
 7160SOL    HW122379   5.845   6.400   2.763
 7160SOL    HW222380   5.921   6.533   2.819
 7161SOL     OW22381   3.714   3.981   3.024
 7161SOL    HW122382   3.645   3.912   3.001
 7161SOL    HW222383   3.799   3.961   2.975
 7162SOL     OW22384   0.132   4.867   0.350
 7162SOL    HW122385   0.045   4.861   0.398
 7162SOL    HW222386   0.127   4.815   0.265
 7163SOL     OW22387   1.886   1.028   2.959
 7163SOL    HW122388   1.957   0.966   2.990
 7163SOL    HW222389   1.895   1.043   2.860
 7164SOL     OW22390   2.086   1.144   4.909
 7164SOL    HW122391   2.093   1.058   4.959
 7164SOL    HW222392   2.082   1.125   4.811
 7165SOL     OW22393   6.472   5.921   1.571
 7165SOL    HW122394   6.398   5.933   1.505
 7165SOL    HW222395   6.484   6.005   1.623
 7166SOL     OW22396   5.724   0.392   6.325
 7166SOL    HW122397   5.700   0.488   6.315
 7166SOL    HW222398   5.694   0.341   6.245
 7167SOL     OW22399   5.341   2.021   5.671
 7167SOL    HW122400   5.384   2.087   5.611
 7167SOL    HW222401   5.325   1.936   5.621
 7168SOL     OW22402   3.193   1.558   2.653
 7168SOL    HW122403   3.144   1.537   2.569
 7168SOL    HW222404   3.136   1.534   2.732
 7169SOL     OW22405   1.014   4.320   5.132
 7169SOL    HW122406   1.007   4.240   5.191
 7169SOL    HW222407   1.054   4.396   5.183
 7170SOL     OW22408   4.275   0.041   2.298
 7170SOL    HW122409   4.200   7.011   2.261
 7170SOL    HW222410   4.239   0.116   2.352
 7171SOL     OW22411   5.783   4.455   1.038
 7171SOL    HW122412   5.795   4.361   1.070
 7171SOL    HW222413   5.703   4.459   0.977
 7172SOL     OW22414   1.795   1.649   5.069
 7172SOL    HW122415   1.827   1.555   5.055
 7172SOL    HW222416   1.864   1.701   5.119
 7173SOL     OW22417   6.435   5.099   6.262
 7173SOL    HW122418   6.475   5.140   6.344
 7173SOL    HW222419   6.381   5.167   6.213
 7174SOL     OW22420   6.699   4.548   1.311
 7174SOL    HW122421   6.660   4.492   1.238
 7174SOL    HW222422   6.634   4.619   1.337
 7175SOL     OW22423   6.545   3.949   5.325
 7175SOL    HW122424   6.467   3.967   5.265
 7175SOL    HW222425   6.606   3.884   5.281
 7176SOL     OW22426   0.885   1.260   4.084
 7176SOL    HW122427   0.933   1.317   4.018
 7176SOL    HW222428   0.786   1.267   4.069
 7177SOL     OW22429   2.090   5.698   5.449
 7177SOL    HW122430   2.166   5.735   5.503
 7177SOL    HW222431   2.084   5.599   5.465
 7178SOL     OW22432   1.053   0.646   5.786
 7178SOL    HW122433   1.051   0.731   5.733
 7178SOL    HW222434   0.963   0.603   5.785
 7179SOL     OW22435   2.417   4.419   5.052
 7179SOL    HW122436   2.329   4.373   5.055
 7179SOL    HW222437   2.478   4.382   5.122
 7180SOL     OW22438   2.545   4.124   1.002
 7180SOL    HW122439   2.598   4.048   0.965
 7180SOL    HW222440   2.495   4.169   0.928
 7181SOL     OW22441   2.214   1.094   6.202
 7181SOL    HW122442   2.249   1.165   6.141
 7181SOL    HW222443   2.149   1.036   6.152
 7182SOL     OW22444   1.168   4.063   3.413
 7182SOL    HW122445   1.264   4.078   3.436
 7182SOL    HW222446   1.162   4.029   3.319
 7183SOL     OW22447   1.922   5.856   2.100
 7183SOL    HW122448   1.954   5.948   2.125
 7183SOL    HW222449   1.975   5.822   2.023
 7184SOL     OW22450   5.887   1.208   3.444
 7184SOL    HW122451   5.794   1.234   3.420
 7184SOL    HW222452   5.891   1.180   3.540
 7185SOL     OW22453   5.470   1.205   5.311
 7185SOL    HW122454   5.498   1.110   5.305
 7185SOL    HW222455   5.394   1.222   5.248
 7186SOL     OW22456   0.309   0.673   0.901
 7186SOL    HW122457   0.291   0.654   0.997
 7186SOL    HW222458   0.366   0.601   0.862
 7187SOL     OW22459   3.114   3.759   5.345
 7187SOL    HW122460   3.046   3.694   5.313
 7187SOL    HW222461   3.079   3.810   5.423
 7188SOL     OW22462   4.719   4.106   0.277
 7188SOL    HW122463   4.808   4.119   0.235
 7188SOL    HW222464   4.730   4.063   0.367
 7189SOL     OW22465   6.213   3.586   5.472
 7189SOL    HW122466   6.220   3.680   5.438
 7189SOL    HW222467   6.293   3.565   5.529
 7190SOL     OW22468   6.064   6.026   1.211
 7190SOL    HW122469   6.053   6.125   1.212
 7190SOL    HW222470   5.996   5.985   1.272
 7191SOL     OW22471   0.301   4.082   3.216
 7191SOL    HW122472   0.359   4.158   3.188
 7191SOL    HW222473   0.357   4.001   3.232
 7192SOL     OW22474   1.542   4.212   6.090
 7192SOL    HW122475   1.462   4.154   6.076
 7192SOL    HW222476   1.625   4.157   6.089
 7193SOL     OW22477   2.804   1.430   2.688
 7193SOL    HW122478   2.747   1.427   2.771
 7193SOL    HW222479   2.892   1.472   2.710
 7194SOL     OW22480   2.154   2.034   6.719
 7194SOL    HW122481   2.173   2.074   6.808
 7194SOL    HW222482   2.233   2.044   6.659
 7195SOL     OW22483   6.052   4.247   6.667
 7195SOL    HW122484   5.961   4.280   6.643
 7195SOL    HW222485   6.074   4.277   6.760
 7196SOL     OW22486   3.267   3.998   2.294
 7196SOL    HW122487   3.295   4.073   2.354
 7196SOL    HW222488   3.321   4.001   2.210
 7197SOL     OW22489   1.240   4.303   5.663
 7197SOL    HW122490   1.260   4.205   5.667
 7197SOL    HW222491   1.268   4.339   5.574
 7198SOL     OW22492   0.731   0.671   0.242
 7198SOL    HW122493   0.760   0.633   0.154
 7198SOL    HW222494   0.646   0.723   0.229
 7199SOL     OW22495   1.064   0.021   2.328
 7199SOL    HW122496   1.094   0.110   2.362
 7199SOL    HW222497   1.127   7.015   2.257
 7200SOL     OW22498   1.954   3.558   0.878
 7200SOL    HW122499   1.908   3.523   0.796
 7200SOL    HW222500   2.039   3.509   0.892
 7201SOL     OW22501   0.220   5.574   4.365
 7201SOL    HW122502   0.145   5.633   4.336
 7201SOL    HW222503   0.185   5.504   4.428
 7202SOL     OW22504   5.344   0.326   5.736
 7202SOL    HW122505   5.422   0.382   5.706
 7202SOL    HW222506   5.327   0.254   5.668
 7203SOL     OW22507   1.258   0.978   1.663
 7203SOL    HW122508   1.348   0.942   1.640
 7203SOL    HW222509   1.266   1.071   1.698
 7204SOL     OW22510   5.956   1.520   0.054
 7204SOL    HW122511   6.002   1.473   0.130
 7204SOL    HW222512   6.005   1.501   6.994
 7205SOL     OW22513   1.475   3.259   4.595
 7205SOL    HW122514   1.426   3.242   4.681
 7205SOL    HW222515   1.573   3.261   4.612
 7206SOL     OW22516   1.020   1.588   1.553
 7206SOL    HW122517   1.101   1.630   1.595
 7206SOL    HW222518   1.042   1.494   1.527
 7207SOL     OW22519   2.852   1.320   3.546
 7207SOL    HW122520   2.885   1.378   3.619
 7207SOL    HW222521   2.846   1.225   3.578
 7208SOL     OW22522   4.771   6.963   4.036
 7208SOL    HW122523   4.703   6.965   3.962
 7208SOL    HW222524   4.817   0.027   4.041
 7209SOL     OW22525   1.997   2.511   2.139
 7209SOL    HW122526   2.088   2.551   2.127
 7209SOL    HW222527   1.931   2.583   2.158
 7210SOL     OW22528   3.805   1.865   3.315
 7210SOL    HW122529   3.883   1.814   3.279
 7210SOL    HW222530   3.766   1.923   3.243
 7211SOL     OW22531   3.000   5.934   5.207
 7211SOL    HW122532   2.994   5.971   5.300
 7211SOL    HW222533   2.960   5.843   5.205
 7212SOL     OW22534   6.833   6.663   6.405
 7212SOL    HW122535   6.916   6.673   6.460
 7212SOL    HW222536   6.766   6.607   6.455
 7213SOL     OW22537   3.813   6.486   6.562
 7213SOL    HW122538   3.736   6.443   6.514
 7213SOL    HW222539   3.834   6.434   6.645
 7214SOL     OW22540   0.015   0.984   5.821
 7214SOL    HW122541   6.944   0.972   5.793
 7214SOL    HW222542   0.059   1.050   5.760
 7215SOL     OW22543   6.368   2.881   4.394
 7215SOL    HW122544   6.288   2.833   4.431
 7215SOL    HW222545   6.439   2.886   4.464
 7216SOL     OW22546   3.009   6.061   2.054
 7216SOL    HW122547   2.951   6.095   2.128
 7216SOL    HW222548   2.953   6.050   1.971
 7217SOL     OW22549   1.513   4.116   3.182
 7217SOL    HW122550   1.526   4.030   3.232
 7217SOL    HW222551   1.510   4.192   3.246
 7218SOL     OW22552   0.351   3.309   3.539
 7218SOL    HW122553   0.308   3.398   3.520
 7218SOL    HW222554   0.377   3.305   3.635
 7219SOL     OW22555   3.501   0.001   1.485
 7219SOL    HW122556   3.499   0.035   1.578
 7219SOL    HW222557   3.591   0.019   1.445
 7220SOL     OW22558   6.628   4.961   3.972
 7220SOL    HW122559   6.563   5.037   3.966
 7220SOL    HW222560   6.656   4.949   4.067
 7221SOL     OW22561   3.212   6.008   4.731
 7221SOL    HW122562   3.208   6.015   4.831
 7221SOL    HW222563   3.282   6.069   4.696
 7222SOL     OW22564   5.406   0.328   3.063
 7222SOL    HW122565   5.314   0.361   3.081
 7222SOL    HW222566   5.454   0.393   3.004
 7223SOL     OW22567   2.683   0.645   0.617
 7223SOL    HW122568   2.781   0.656   0.633
 7223SOL    HW222569   2.633   0.721   0.658
 7224SOL     OW22570   4.627   2.298   4.463
 7224SOL    HW122571   4.635   2.390   4.501
 7224SOL    HW222572   4.552   2.249   4.508
 7225SOL     OW22573   2.022   6.657   1.002
 7225SOL    HW122574   2.049   6.688   0.910
 7225SOL    HW222575   2.020   6.558   1.004
 7226SOL     OW22576   6.057   0.442   1.542
 7226SOL    HW122577   6.078   0.528   1.588
 7226SOL    HW222578   6.109   0.368   1.584
 7227SOL     OW22579   2.756   1.424   1.877
 7227SOL    HW122580   2.801   1.442   1.790
 7227SOL    HW222581   2.809   1.465   1.952
 7228SOL     OW22582   0.841   1.343   3.434
 7228SOL    HW122583   0.822   1.324   3.531
 7228SOL    HW222584   0.940   1.338   3.418
 7229SOL     OW22585   0.209   6.730   4.798
 7229SOL    HW122586   0.248   6.807   4.748
 7229SOL    HW222587   0.144   6.681   4.740
 7230SOL     OW22588   3.056   5.523   3.512
 7230SOL    HW122589   3.125   5.596   3.503
 7230SOL    HW222590   3.044   5.478   3.424
 7231SOL     OW22591   4.156   0.815   0.767
 7231SOL    HW122592   4.126   0.882   0.836
 7231SOL    HW222593   4.076   0.766   0.732
 7232SOL     OW22594   4.661   6.337   2.614
 7232SOL    HW122595   4.690   6.309   2.705
 7232SOL    HW222596   4.655   6.437   2.610
 7233SOL     OW22597   1.160   1.065   5.096
 7233SOL    HW122598   1.196   0.974   5.076
 7233SOL    HW222599   1.089   1.059   5.166
 7234SOL     OW22600   5.419   3.251   2.803
 7234SOL    HW122601   5.373   3.215   2.884
 7234SOL    HW222602   5.483   3.323   2.831
 7235SOL     OW22603   6.192   5.101   1.532
 7235SOL    HW122604   6.188   5.029   1.601
 7235SOL    HW222605   6.123   5.171   1.553
 7236SOL     OW22606   2.162   2.505   2.591
 7236SOL    HW122607   2.220   2.475   2.515
 7236SOL    HW222608   2.070   2.525   2.556
 7237SOL     OW22609   4.164   6.779   6.345
 7237SOL    HW122610   4.121   6.724   6.274
 7237SOL    HW222611   4.212   6.856   6.304
 7238SOL     OW22612   4.522   2.309   6.664
 7238SOL    HW122613   4.593   2.318   6.734
 7238SOL    HW222614   4.526   2.387   6.602
 7239SOL     OW22615   1.166   2.844   2.090
 7239SOL    HW122616   1.208   2.759   2.124
 7239SOL    HW222617   1.234   2.896   2.039
 7240SOL     OW22618   6.412   1.557   6.830
 7240SOL    HW122619   6.464   1.500   6.894
 7240SOL    HW222620   6.469   1.631   6.796
 7241SOL     OW22621   2.701   6.807   0.481
 7241SOL    HW122622   2.638   6.857   0.421
 7241SOL    HW222623   2.671   6.816   0.576
 7242SOL     OW22624   6.933   5.401   5.404
 7242SOL    HW122625   6.887   5.488   5.387
 7242SOL    HW222626   6.864   5.328   5.409
 7243SOL     OW22627   0.038   4.470   6.306
 7243SOL    HW122628   0.005   4.465   6.212
 7243SOL    HW222629   0.115   4.407   6.317
 7244SOL     OW22630   0.205   0.611   1.169
 7244SOL    HW122631   0.185   0.684   1.234
 7244SOL    HW222632   0.122   0.561   1.148
 7245SOL     OW22633   1.314   2.658   5.219
 7245SOL    HW122634   1.374   2.629   5.293
 7245SOL    HW222635   1.240   2.592   5.208
 7246SOL     OW22636   1.744   0.657   3.823
 7246SOL    HW122637   1.679   0.733   3.832
 7246SOL    HW222638   1.812   0.663   3.896
 7247SOL     OW22639   3.033   2.173   5.545
 7247SOL    HW122640   2.998   2.202   5.456
 7247SOL    HW222641   2.957   2.153   5.606
 7248SOL     OW22642   3.072   0.783   3.155
 7248SOL    HW122643   3.055   0.878   3.181
 7248SOL    HW222644   3.108   0.779   3.062
 7249SOL     OW22645   4.602   5.174   1.815
 7249SOL    HW122646   4.685   5.220   1.785
 7249SOL    HW222647   4.528   5.193   1.749
 7250SOL     OW22648   5.115   5.215   5.823
 7250SOL    HW122649   5.198   5.218   5.879
 7250SOL    HW222650   5.112   5.296   5.765
 7251SOL     OW22651   1.066   0.099   4.993
 7251SOL    HW122652   1.091   0.188   4.955
 7251SOL    HW222653   1.105   0.026   4.936
 7252SOL     OW22654   3.056   3.401   1.743
 7252SOL    HW122655   3.099   3.313   1.723
 7252SOL    HW222656   2.958   3.396   1.725
 7253SOL     OW22657   1.949   5.935   6.675
 7253SOL    HW122658   2.002   6.002   6.623
 7253SOL    HW222659   2.012   5.874   6.724
 7254SOL     OW22660   5.275   5.533   4.512
 7254SOL    HW122661   5.262   5.434   4.508
 7254SOL    HW222662   5.307   5.559   4.603
 7255SOL     OW22663   4.443   3.682   6.883
 7255SOL    HW122664   4.379   3.612   6.912
 7255SOL    HW222665   4.509   3.699   6.957
 7256SOL     OW22666   3.412   6.067   5.662
 7256SOL    HW122667   3.373   6.156   5.684
 7256SOL    HW222668   3.512   6.073   5.665
 7257SOL     OW22669   0.917   2.262   3.769
 7257SOL    HW122670   0.993   2.325   3.752
 7257SOL    HW222671   0.949   2.168   3.759
 7258SOL     OW22672   5.310   2.097   2.783
 7258SOL    HW122673   5.242   2.165   2.810
 7258SOL    HW222674   5.298   2.074   2.687
 7259SOL     OW22675   1.330   3.138   2.401
 7259SOL    HW122676   1.333   3.216   2.463
 7259SOL    HW222677   1.253   3.150   2.337
 7260SOL     OW22678   5.574   1.649   1.965
 7260SOL    HW122679   5.624   1.692   1.890
 7260SOL    HW222680   5.506   1.586   1.929
 7261SOL     OW22681   0.709   4.582   1.186
 7261SOL    HW122682   0.625   4.625   1.153
 7261SOL    HW222683   0.780   4.592   1.116
 7262SOL     OW22684   5.169   1.977   6.642
 7262SOL    HW122685   5.252   2.023   6.610
 7262SOL    HW222686   5.194   1.889   6.684
 7263SOL     OW22687   0.568   6.521   0.139
 7263SOL    HW122688   0.529   6.568   0.060
 7263SOL    HW222689   0.495   6.476   0.191
 7264SOL     OW22690   5.312   1.015   0.711
 7264SOL    HW122691   5.291   0.967   0.625
 7264SOL    HW222692   5.232   1.015   0.770
 7265SOL     OW22693   5.541   4.603   5.721
 7265SOL    HW122694   5.535   4.521   5.777
 7265SOL    HW222695   5.501   4.585   5.631
 7266SOL     OW22696   6.191   1.313   3.154
 7266SOL    HW122697   6.150   1.395   3.114
 7266SOL    HW222698   6.195   1.324   3.254
 7267SOL     OW22699   6.530   6.714   4.707
 7267SOL    HW122700   6.497   6.671   4.791
 7267SOL    HW222701   6.614   6.764   4.726
 7268SOL     OW22702   6.993   6.180   4.475
 7268SOL    HW122703   7.016   6.232   4.558
 7268SOL    HW222704   0.035   6.199   4.404
 7269SOL     OW22705   2.068   6.119   6.178
 7269SOL    HW122706   2.058   6.216   6.158
 7269SOL    HW222707   1.991   6.089   6.235
 7270SOL     OW22708   0.363   2.922   4.906
 7270SOL    HW122709   0.318   2.993   4.961
 7270SOL    HW222710   0.294   2.866   4.861
 7271SOL     OW22711   1.548   4.927   4.449
 7271SOL    HW122712   1.558   4.856   4.519
 7271SOL    HW222713   1.463   4.977   4.465
 7272SOL     OW22714   5.932   5.743   2.517
 7272SOL    HW122715   5.978   5.693   2.443
 7272SOL    HW222716   5.847   5.783   2.482
 7273SOL     OW22717   5.981   4.128   0.399
 7273SOL    HW122718   6.004   4.163   0.309
 7273SOL    HW222719   6.051   4.062   0.427
 7274SOL     OW22720   0.165   4.815   6.879
 7274SOL    HW122721   0.187   4.763   6.796
 7274SOL    HW222722   0.229   4.891   6.889
 7275SOL     OW22723   0.021   5.777   2.829
 7275SOL    HW122724   7.001   5.863   2.853
 7275SOL    HW222725   6.990   5.728   2.762
 7276SOL     OW22726   5.308   0.822   3.633
 7276SOL    HW122727   5.247   0.815   3.712
 7276SOL    HW222728   5.258   0.798   3.550
 7277SOL     OW22729   5.442   0.367   4.392
 7277SOL    HW122730   5.396   0.334   4.475
 7277SOL    HW222731   5.525   0.315   4.377
 7278SOL     OW22732   3.356   3.057   1.424
 7278SOL    HW122733   3.409   2.976   1.399
 7278SOL    HW222734   3.366   3.126   1.353
 7279SOL     OW22735   4.464   4.771   6.173
 7279SOL    HW122736   4.451   4.700   6.104
 7279SOL    HW222737   4.435   4.738   6.262
 7280SOL     OW22738   0.138   1.198   3.671
 7280SOL    HW122739   0.175   1.289   3.690
 7280SOL    HW222740   0.137   1.182   3.572
 7281SOL     OW22741   3.098   1.870   6.863
 7281SOL    HW122742   3.144   1.952   6.829
 7281SOL    HW222743   3.159   1.821   6.926
 7282SOL     OW22744   5.816   5.003   3.067
 7282SOL    HW122745   5.860   5.086   3.102
 7282SOL    HW222746   5.721   5.023   3.045
 7283SOL     OW22747   3.961   1.686   3.004
 7283SOL    HW122748   3.862   1.678   3.004
 7283SOL    HW222749   3.993   1.712   3.095
 7284SOL     OW22750   0.673   3.214   6.281
 7284SOL    HW122751   0.704   3.299   6.238
 7284SOL    HW222752   0.682   3.221   6.380
 7285SOL     OW22753   5.121   3.277   2.558
 7285SOL    HW122754   5.191   3.238   2.498
 7285SOL    HW222755   5.041   3.302   2.503
 7286SOL     OW22756   2.897   0.572   0.117
 7286SOL    HW122757   2.956   0.528   0.050
 7286SOL    HW222758   2.953   0.625   0.181
 7287SOL     OW22759   0.348   2.391   6.015
 7287SOL    HW122760   0.342   2.336   6.098
 7287SOL    HW222761   0.379   2.334   5.939
 7288SOL     OW22762   3.185   0.363   0.371
 7288SOL    HW122763   3.225   0.300   0.438
 7288SOL    HW222764   3.106   0.409   0.411
 7289SOL     OW22765   5.390   2.113   4.270
 7289SOL    HW122766   5.321   2.160   4.324
 7289SOL    HW222767   5.412   2.025   4.313
 7290SOL     OW22768   3.668   0.623   5.696
 7290SOL    HW122769   3.599   0.687   5.664
 7290SOL    HW222770   3.692   0.560   5.622
 7291SOL     OW22771   1.921   6.393   0.918
 7291SOL    HW122772   1.902   6.348   0.831
 7291SOL    HW222773   1.962   6.327   0.981
 7292SOL     OW22774   3.064   1.073   3.221
 7292SOL    HW122775   3.160   1.093   3.241
 7292SOL    HW222776   3.040   1.110   3.131
 7293SOL     OW22777   1.411   2.140   5.270
 7293SOL    HW122778   1.323   2.146   5.317
 7293SOL    HW222779   1.470   2.075   5.318
 7294SOL     OW22780   2.295   4.825   6.796
 7294SOL    HW122781   2.239   4.887   6.851
 7294SOL    HW222782   2.358   4.776   6.856
 7295SOL     OW22783   0.478   2.457   0.787
 7295SOL    HW122784   0.566   2.477   0.745
 7295SOL    HW222785   0.493   2.407   0.872
 7296SOL     OW22786   2.824   5.263   1.528
 7296SOL    HW122787   2.786   5.171   1.521
 7296SOL    HW222788   2.840   5.285   1.624
 7297SOL     OW22789   3.625   6.142   1.175
 7297SOL    HW122790   3.568   6.223   1.187
 7297SOL    HW222791   3.610   6.105   1.083
 7298SOL     OW22792   4.737   4.479   5.161
 7298SOL    HW122793   4.763   4.385   5.184
 7298SOL    HW222794   4.775   4.503   5.072
 7299SOL     OW22795   0.371   1.621   0.410
 7299SOL    HW122796   0.377   1.607   0.509
 7299SOL    HW222797   0.355   1.533   0.365
 7300SOL     OW22798   6.461   5.880   3.022
 7300SOL    HW122799   6.464   5.800   3.083
 7300SOL    HW222800   6.544   5.935   3.035
 7301SOL     OW22801   5.876   1.404   4.674
 7301SOL    HW122802   5.885   1.359   4.586
 7301SOL    HW222803   5.910   1.498   4.667
 7302SOL     OW22804   0.565   1.906   5.657
 7302SOL    HW122805   0.570   1.862   5.747
 7302SOL    HW222806   0.621   1.854   5.592
 7303SOL     OW22807   4.259   0.275   0.017
 7303SOL    HW122808   4.348   0.252   0.055
 7303SOL    HW222809   4.195   0.199   0.031
 7304SOL     OW22810   3.751   4.820   0.853
 7304SOL    HW122811   3.729   4.729   0.817
 7304SOL    HW222812   3.666   4.869   0.873
 7305SOL     OW22813   4.937   0.887   0.294
 7305SOL    HW122814   5.002   0.964   0.291
 7305SOL    HW222815   4.962   0.825   0.368
 7306SOL     OW22816   5.029   2.238   1.936
 7306SOL    HW122817   5.069   2.316   1.886
 7306SOL    HW222818   4.940   2.216   1.897
 7307SOL     OW22819   2.230   7.019   2.374
 7307SOL    HW122820   2.213   0.084   2.335
 7307SOL    HW222821   2.208   7.020   2.472
 7308SOL     OW22822   0.060   3.536   6.100
 7308SOL    HW122823   0.019   3.451   6.067
 7308SOL    HW222824   0.104   3.519   6.188
 7309SOL     OW22825   4.880   5.771   1.224
 7309SOL    HW122826   4.895   5.681   1.264
 7309SOL    HW222827   4.793   5.808   1.257
 7310SOL     OW22828   2.133   3.788   1.565
 7310SOL    HW122829   2.206   3.782   1.633
 7310SOL    HW222830   2.044   3.793   1.611
 7311SOL     OW22831   3.511   1.849   1.812
 7311SOL    HW122832   3.566   1.930   1.794
 7311SOL    HW222833   3.525   1.820   1.907
 7312SOL     OW22834   0.277   3.461   5.597
 7312SOL    HW122835   0.294   3.399   5.673
 7312SOL    HW222836   0.314   3.552   5.618
 7313SOL     OW22837   2.770   1.532   6.398
 7313SOL    HW122838   2.860   1.549   6.359
 7313SOL    HW222839   2.779   1.476   6.480
 7314SOL     OW22840   6.921   5.564   5.723
 7314SOL    HW122841   6.915   5.475   5.678
 7314SOL    HW222842   6.830   5.594   5.751
 7315SOL     OW22843   6.782   0.716   2.152
 7315SOL    HW122844   6.736   0.756   2.231
 7315SOL    HW222845   6.793   0.786   2.082
 7316SOL     OW22846   2.899   3.977   6.653
 7316SOL    HW122847   2.803   3.962   6.631
 7316SOL    HW222848   2.939   4.039   6.586
 7317SOL     OW22849   5.114   0.918   2.862
 7317SOL    HW122850   5.044   0.989   2.865
 7317SOL    HW222851   5.143   0.902   2.768
 7318SOL     OW22852   1.485   0.964   1.023
 7318SOL    HW122853   1.393   0.927   1.027
 7318SOL    HW222854   1.503   1.000   0.932
 7319SOL     OW22855   6.626   4.467   6.291
 7319SOL    HW122856   6.722   4.457   6.263
 7319SOL    HW222857   6.570   4.491   6.212
 7320SOL     OW22858   6.272   3.560   2.092
 7320SOL    HW122859   6.332   3.527   2.166
 7320SOL    HW222860   6.274   3.660   2.091
 7321SOL     OW22861   2.338   0.211   5.465
 7321SOL    HW122862   2.381   0.121   5.457
 7321SOL    HW222863   2.386   0.276   5.406
 7322SOL     OW22864   6.630   2.838   3.552
 7322SOL    HW122865   6.537   2.804   3.561
 7322SOL    HW222866   6.674   2.796   3.473
 7323SOL     OW22867   1.926   2.023   2.071
 7323SOL    HW122868   1.985   2.014   1.990
 7323SOL    HW222869   1.934   2.116   2.107
 7324SOL     OW22870   4.753   6.273   2.339
 7324SOL    HW122871   4.700   6.292   2.422
 7324SOL    HW222872   4.846   6.307   2.351
 7325SOL     OW22873   3.357   6.264   0.406
 7325SOL    HW122874   3.297   6.244   0.329
 7325SOL    HW222875   3.309   6.322   0.472
 7326SOL     OW22876   3.095   5.756   5.722
 7326SOL    HW122877   3.193   5.768   5.733
 7326SOL    HW222878   3.049   5.845   5.723
 7327SOL     OW22879   6.133   2.046   6.207
 7327SOL    HW122880   6.109   2.124   6.150
 7327SOL    HW222881   6.228   2.021   6.192
 7328SOL     OW22882   3.570   0.374   6.529
 7328SOL    HW122883   3.640   0.334   6.589
 7328SOL    HW222884   3.600   0.367   6.434
 7329SOL     OW22885   5.791   4.179   1.098
 7329SOL    HW122886   5.711   4.174   1.157
 7329SOL    HW222887   5.858   4.110   1.128
 7330SOL     OW22888   2.468   2.113   6.828
 7330SOL    HW122889   2.496   2.021   6.855
 7330SOL    HW222890   2.549   2.170   6.817
 7331SOL     OW22891   5.800   0.041   2.179
 7331SOL    HW122892   5.761   0.055   2.270
 7331SOL    HW222893   5.758   0.105   2.115
 7332SOL     OW22894   2.388   6.030   0.721
 7332SOL    HW122895   2.303   6.083   0.725
 7332SOL    HW222896   2.370   5.939   0.685
 7333SOL     OW22897   0.468   2.360   2.698
 7333SOL    HW122898   0.554   2.409   2.686
 7333SOL    HW222899   0.415   2.364   2.614
 7334SOL     OW22900   3.397   5.411   6.691
 7334SOL    HW122901   3.317   5.356   6.715
 7334SOL    HW222902   3.391   5.439   6.595
 7335SOL     OW22903   1.314   2.560   3.251
 7335SOL    HW122904   1.383   2.528   3.187
 7335SOL    HW222905   1.352   2.634   3.307
 7336SOL     OW22906   1.337   6.738   3.174
 7336SOL    HW122907   1.265   6.670   3.188
 7336SOL    HW222908   1.334   6.771   3.080
 7337SOL     OW22909   0.062   3.600   1.753
 7337SOL    HW122910   0.159   3.623   1.767
 7337SOL    HW222911   0.010   3.683   1.734
 7338SOL     OW22912   6.386   2.428   1.482
 7338SOL    HW122913   6.425   2.353   1.535
 7338SOL    HW222914   6.289   2.409   1.465
 7339SOL     OW22915   6.068   6.565   3.422
 7339SOL    HW122916   5.973   6.576   3.452
 7339SOL    HW222917   6.074   6.488   3.359
 7340SOL     OW22918   2.546   0.833   1.277
 7340SOL    HW122919   2.529   0.888   1.358
 7340SOL    HW222920   2.558   0.737   1.303
 7341SOL     OW22921   6.649   2.948   6.951
 7341SOL    HW122922   6.618   3.042   6.965
 7341SOL    HW222923   6.739   2.936   6.993
 7342SOL     OW22924   6.975   1.554   1.917
 7342SOL    HW122925   6.914   1.547   1.838
 7342SOL    HW222926   0.043   1.574   1.885
 7343SOL     OW22927   5.435   3.703   0.199
 7343SOL    HW122928   5.456   3.665   0.289
 7343SOL    HW222929   5.388   3.634   0.144
 7344SOL     OW22930   0.356   1.066   6.769
 7344SOL    HW122931   0.366   1.095   6.674
 7344SOL    HW222932   0.259   1.056   6.792
 7345SOL     OW22933   4.722   3.723   5.377
 7345SOL    HW122934   4.724   3.626   5.353
 7345SOL    HW222935   4.801   3.745   5.435
 7346SOL     OW22936   4.138   5.771   2.450
 7346SOL    HW122937   4.190   5.848   2.487
 7346SOL    HW222938   4.050   5.805   2.415
 7347SOL     OW22939   1.148   1.609   0.870
 7347SOL    HW122940   1.088   1.546   0.821
 7347SOL    HW222941   1.122   1.703   0.850
 7348SOL     OW22942   1.408   4.189   3.520
 7348SOL    HW122943   1.435   4.189   3.617
 7348SOL    HW222944   1.467   4.252   3.469
 7349SOL     OW22945   4.004   0.320   1.587
 7349SOL    HW122946   3.904   0.316   1.599
 7349SOL    HW222947   4.033   0.416   1.589
 7350SOL     OW22948   2.720   2.407   5.637
 7350SOL    HW122949   2.685   2.470   5.706
 7350SOL    HW222950   2.655   2.403   5.560
 7351SOL     OW22951   5.763   5.345   4.013
 7351SOL    HW122952   5.861   5.341   3.993
 7351SOL    HW222953   5.735   5.440   4.023
 7352SOL     OW22954   1.874   1.951   2.707
 7352SOL    HW122955   1.838   1.869   2.663
 7352SOL    HW222956   1.966   1.970   2.672
 7353SOL     OW22957   0.404   0.501   6.644
 7353SOL    HW122958   0.484   0.495   6.584
 7353SOL    HW222959   0.321   0.491   6.589
 7354SOL     OW22960   1.096   1.840   5.013
 7354SOL    HW122961   1.146   1.926   5.022
 7354SOL    HW222962   1.157   1.764   5.035
 7355SOL     OW22963   1.291   0.998   0.593
 7355SOL    HW122964   1.356   0.922   0.590
 7355SOL    HW222965   1.218   0.976   0.657
 7356SOL     OW22966   4.089   3.369   6.392
 7356SOL    HW122967   4.040   3.304   6.450
 7356SOL    HW222968   4.026   3.407   6.324
 7357SOL     OW22969   3.262   6.057   2.297
 7357SOL    HW122970   3.217   6.060   2.208
 7357SOL    HW222971   3.355   6.093   2.288
 7358SOL     OW22972   6.591   3.439   2.529
 7358SOL    HW122973   6.517   3.384   2.565
 7358SOL    HW222974   6.641   3.483   2.604
 7359SOL     OW22975   4.584   2.319   5.559
 7359SOL    HW122976   4.640   2.377   5.500
 7359SOL    HW222977   4.602   2.223   5.537
 7360SOL     OW22978   3.064   3.347   5.784
 7360SOL    HW122979   2.975   3.342   5.738
 7360SOL    HW222980   3.135   3.314   5.722
 7361SOL     OW22981   5.480   0.727   2.476
 7361SOL    HW122982   5.579   0.712   2.474
 7361SOL    HW222983   5.435   0.649   2.520
 7362SOL     OW22984   1.433   5.557   6.183
 7362SOL    HW122985   1.398   5.593   6.097
 7362SOL    HW222986   1.532   5.543   6.176
 7363SOL     OW22987   4.348   1.540   1.021
 7363SOL    HW122988   4.360   1.496   1.110
 7363SOL    HW222989   4.389   1.631   1.022
 7364SOL     OW22990   4.249   1.078   2.051
 7364SOL    HW122991   4.336   1.038   2.021
 7364SOL    HW222992   4.240   1.068   2.150
 7365SOL     OW22993   0.634   6.259   2.062
 7365SOL    HW122994   0.541   6.242   2.095
 7365SOL    HW222995   0.698   6.199   2.111
 7366SOL     OW22996   2.127   6.945   5.521
 7366SOL    HW122997   2.108   0.009   5.479
 7366SOL    HW222998   2.073   6.875   5.476
 7367SOL     OW22999   4.678   2.578   0.960
 7367SOL    HW123000   4.691   2.483   0.988
 7367SOL    HW223001   4.722   2.638   1.027
 7368SOL     OW23002   3.894   2.979   2.456
 7368SOL    HW123003   3.937   3.052   2.510
 7368SOL    HW223004   3.956   2.901   2.449
 7369SOL     OW23005   2.986   2.341   0.996
 7369SOL    HW123006   3.057   2.361   0.928
 7369SOL    HW223007   2.914   2.287   0.953
 7370SOL     OW23008   2.536   1.364   6.303
 7370SOL    HW123009   2.604   1.409   6.362
 7370SOL    HW223010   2.456   1.423   6.294
 7371SOL     OW23011   2.571   6.540   3.127
 7371SOL    HW123012   2.650   6.581   3.173
 7371SOL    HW223013   2.488   6.560   3.179
 7372SOL     OW23014   4.688   6.527   4.862
 7372SOL    HW123015   4.660   6.434   4.884
 7372SOL    HW223016   4.607   6.584   4.847
 7373SOL     OW23017   6.207   1.751   4.548
 7373SOL    HW123018   6.123   1.700   4.563
 7373SOL    HW223019   6.226   1.809   4.628
 7374SOL     OW23020   2.451   2.302   4.859
 7374SOL    HW123021   2.540   2.298   4.813
 7374SOL    HW223022   2.463   2.342   4.950
 7375SOL     OW23023   2.436   2.666   2.182
 7375SOL    HW123024   2.460   2.571   2.161
 7375SOL    HW223025   2.519   2.720   2.192
 7376SOL     OW23026   1.353   1.807   1.714
 7376SOL    HW123027   1.346   1.712   1.742
 7376SOL    HW223028   1.445   1.841   1.733
 7377SOL     OW23029   5.249   5.170   0.364
 7377SOL    HW123030   5.164   5.119   0.380
 7377SOL    HW223031   5.304   5.168   0.447
 7378SOL     OW23032   1.205   0.620   4.754
 7378SOL    HW123033   1.166   0.551   4.815
 7378SOL    HW223034   1.253   0.689   4.807
 7379SOL     OW23035   3.415   1.407   2.054
 7379SOL    HW123036   3.393   1.433   1.960
 7379SOL    HW223037   3.471   1.478   2.096
 7380SOL     OW23038   0.305   4.448   4.310
 7380SOL    HW123039   0.362   4.424   4.231
 7380SOL    HW223040   0.303   4.371   4.374
 7381SOL     OW23041   3.995   3.363   0.582
 7381SOL    HW123042   3.960   3.386   0.491
 7381SOL    HW223043   3.956   3.275   0.610
 7382SOL     OW23044   6.912   1.256   4.919
 7382SOL    HW123045   6.907   1.169   4.871
 7382SOL    HW223046   6.954   1.325   4.860
 7383SOL     OW23047   3.012   5.869   1.087
 7383SOL    HW123048   2.949   5.818   1.145
 7383SOL    HW223049   2.961   5.933   1.030
 7384SOL     OW23050   6.576   0.037   2.793
 7384SOL    HW123051   6.487   0.000   2.820
 7384SOL    HW223052   6.630   6.990   2.750
 7385SOL     OW23053   2.878   5.382   2.706
 7385SOL    HW123054   2.851   5.461   2.652
 7385SOL    HW223055   2.964   5.401   2.754
 7386SOL     OW23056   6.883   2.817   6.712
 7386SOL    HW123057   6.838   2.793   6.798
 7386SOL    HW223058   6.982   2.823   6.727
 7387SOL     OW23059   6.690   5.134   5.331
 7387SOL    HW123060   6.743   5.143   5.247
 7387SOL    HW223061   6.593   5.150   5.311
 7388SOL     OW23062   1.254   4.963   2.084
 7388SOL    HW123063   1.176   4.955   2.022
 7388SOL    HW223064   1.229   4.925   2.174
 7389SOL     OW23065   6.721   3.882   6.684
 7389SOL    HW123066   6.653   3.939   6.730
 7389SOL    HW223067   6.805   3.935   6.671
 7390SOL     OW23068   2.601   1.842   2.269
 7390SOL    HW123069   2.698   1.820   2.264
 7390SOL    HW223070   2.549   1.779   2.212
 7391SOL     OW23071   4.009   3.171   3.207
 7391SOL    HW123072   4.019   3.134   3.115
 7391SOL    HW223073   4.099   3.196   3.243
 7392SOL     OW23074   3.922   6.034   6.687
 7392SOL    HW123075   3.957   5.961   6.746
 7392SOL    HW223076   3.835   6.005   6.646
 7393SOL     OW23077   6.143   4.688   2.908
 7393SOL    HW123078   6.123   4.635   2.825
 7393SOL    HW223079   6.209   4.760   2.887
 7394SOL     OW23080   1.563   2.834   6.013
 7394SOL    HW123081   1.468   2.810   6.029
 7394SOL    HW223082   1.621   2.790   6.081
 7395SOL     OW23083   1.826   3.582   1.353
 7395SOL    HW123084   1.745   3.584   1.412
 7395SOL    HW223085   1.798   3.586   1.257
 7396SOL     OW23086   2.087   6.489   1.323
 7396SOL    HW123087   2.023   6.529   1.257
 7396SOL    HW223088   2.093   6.390   1.309
 7397SOL     OW23089   5.257   5.262   4.498
 7397SOL    HW123090   5.321   5.286   4.424
 7397SOL    HW223091   5.199   5.186   4.469
 7398SOL     OW23092   0.901   5.256   3.068
 7398SOL    HW123093   0.908   5.256   2.969
 7398SOL    HW223094   0.970   5.317   3.107
 7399SOL     OW23095   0.059   2.969   4.351
 7399SOL    HW123096   7.015   2.954   4.422
 7399SOL    HW223097   0.145   2.926   4.379
 7400SOL     OW23098   4.044   2.750   6.303
 7400SOL    HW123099   4.003   2.835   6.337
 7400SOL    HW223100   4.026   2.741   6.205
 7401SOL     OW23101   1.247   3.514   2.950
 7401SOL    HW123102   1.270   3.447   3.021
 7401SOL    HW223103   1.150   3.508   2.929
 7402SOL     OW23104   3.354   4.199   6.146
 7402SOL    HW123105   3.307   4.168   6.229
 7402SOL    HW223106   3.288   4.242   6.085
 7403SOL     OW23107   1.562   3.567   2.517
 7403SOL    HW123108   1.558   3.525   2.608
 7403SOL    HW223109   1.498   3.644   2.514
 7404SOL     OW23110   2.878   4.761   1.754
 7404SOL    HW123111   2.814   4.835   1.773
 7404SOL    HW223112   2.841   4.675   1.790
 7405SOL     OW23113   3.300   4.990   4.266
 7405SOL    HW123114   3.279   4.956   4.174
 7405SOL    HW223115   3.240   5.067   4.288
 7406SOL     OW23116   0.771   1.711   4.786
 7406SOL    HW123117   0.867   1.701   4.758
 7406SOL    HW223118   0.768   1.753   4.877
 7407SOL     OW23119   1.384   6.838   5.512
 7407SOL    HW123120   1.460   6.818   5.575
 7407SOL    HW223121   1.415   6.826   5.418
 7408SOL     OW23122   3.838   3.955   5.908
 7408SOL    HW123123   3.780   3.976   5.829
 7408SOL    HW223124   3.800   3.998   5.989
 7409SOL     OW23125   5.451   3.931   0.491
 7409SOL    HW123126   5.447   4.031   0.491
 7409SOL    HW223127   5.392   3.895   0.419
 7410SOL     OW23128   0.340   0.981   0.577
 7410SOL    HW123129   0.392   1.066   0.591
 7410SOL    HW223130   0.250   0.989   0.620
 7411SOL     OW23131   1.954   0.797   6.770
 7411SOL    HW123132   1.971   0.731   6.697
 7411SOL    HW223133   1.916   0.751   6.849
 7412SOL     OW23134   4.207   6.831   0.760
 7412SOL    HW123135   4.203   6.857   0.663
 7412SOL    HW223136   4.115   6.825   0.797
 7413SOL     OW23137   4.201   5.084   3.653
 7413SOL    HW123138   4.298   5.087   3.631
 7413SOL    HW223139   4.177   4.992   3.686
 7414SOL     OW23140   2.295   1.188   3.100
 7414SOL    HW123141   2.247   1.165   3.015
 7414SOL    HW223142   2.371   1.249   3.080
 7415SOL     OW23143   2.289   4.621   4.897
 7415SOL    HW123144   2.361   4.557   4.923
 7415SOL    HW223145   2.240   4.652   4.979
 7416SOL     OW23146   2.384   0.576   2.283
 7416SOL    HW123147   2.408   0.485   2.318
 7416SOL    HW223148   2.464   0.617   2.240
 7417SOL     OW23149   2.145   2.085   1.882
 7417SOL    HW123150   2.193   2.064   1.968
 7417SOL    HW223151   2.142   2.184   1.870
 7418SOL     OW23152   1.552   4.815   6.421
 7418SOL    HW123153   1.643   4.776   6.406
 7418SOL    HW223154   1.550   4.866   6.507
 7419SOL     OW23155   6.765   4.271   4.040
 7419SOL    HW123156   6.852   4.305   4.076
 7419SOL    HW223157   6.697   4.344   4.045
 7420SOL     OW23158   0.083   6.388   0.883
 7420SOL    HW123159   0.152   6.316   0.873
 7420SOL    HW223160   0.054   6.418   0.792
 7421SOL     OW23161   4.234   3.469   1.136
 7421SOL    HW123162   4.185   3.556   1.144
 7421SOL    HW223163   4.285   3.466   1.050
 7422SOL     OW23164   6.772   4.386   2.132
 7422SOL    HW123165   6.802   4.292   2.150
 7422SOL    HW223166   6.799   4.413   2.040
 7423SOL     OW23167   6.364   2.811   5.805
 7423SOL    HW123168   6.428   2.841   5.875
 7423SOL    HW223169   6.303   2.742   5.844
 7424SOL     OW23170   6.949   1.854   5.778
 7424SOL    HW123171   6.999   1.772   5.751
 7424SOL    HW223172   6.972   1.929   5.716
 7425SOL     OW23173   5.073   6.768   0.487
 7425SOL    HW123174   5.121   6.782   0.400
 7425SOL    HW223175   5.021   6.851   0.510
 7426SOL     OW23176   3.429   2.066   5.374
 7426SOL    HW123177   3.456   1.983   5.327
 7426SOL    HW223178   3.506   2.099   5.429
 7427SOL     OW23179   5.106   0.889   4.373
 7427SOL    HW123180   5.197   0.893   4.330
 7427SOL    HW223181   5.068   0.981   4.379
 7428SOL     OW23182   4.181   0.359   5.532
 7428SOL    HW123183   4.253   0.425   5.552
 7428SOL    HW223184   4.202   0.272   5.578
 7429SOL     OW23185   0.990   6.379   3.577
 7429SOL    HW123186   0.921   6.431   3.527
 7429SOL    HW223187   1.053   6.337   3.512
 7430SOL     OW23188   0.025   3.560   0.860
 7430SOL    HW123189   6.995   3.638   0.889
 7430SOL    HW223190   6.994   3.496   0.808
 7431SOL     OW23191   0.562   2.341   3.050
 7431SOL    HW123192   0.524   2.414   2.993
 7431SOL    HW223193   0.508   2.258   3.037
 7432SOL     OW23194   1.885   0.512   3.459
 7432SOL    HW123195   1.834   0.598   3.471
 7432SOL    HW223196   1.820   0.437   3.447
 7433SOL     OW23197   4.380   6.326   6.365
 7433SOL    HW123198   4.400   6.229   6.356
 7433SOL    HW223199   4.281   6.340   6.372
 7434SOL     OW23200   5.477   5.337   5.310
 7434SOL    HW123201   5.576   5.347   5.307
 7434SOL    HW223202   5.442   5.325   5.218
 7435SOL     OW23203   4.497   6.568   1.593
 7435SOL    HW123204   4.585   6.554   1.549
 7435SOL    HW223205   4.426   6.585   1.524
 7436SOL     OW23206   4.781   4.249   5.848
 7436SOL    HW123207   4.725   4.267   5.928
 7436SOL    HW223208   4.848   4.178   5.870
 7437SOL     OW23209   3.333   5.232   0.497
 7437SOL    HW123210   3.405   5.267   0.557
 7437SOL    HW223211   3.361   5.144   0.459
 7438SOL     OW23212   1.326   6.950   6.800
 7438SOL    HW123213   1.286   6.964   6.709
 7438SOL    HW223214   1.254   6.940   6.868
 7439SOL     OW23215   1.620   6.368   5.446
 7439SOL    HW123216   1.649   6.395   5.354
 7439SOL    HW223217   1.630   6.268   5.455
 7440SOL     OW23218   6.653   2.972   4.045
 7440SOL    HW123219   6.673   2.897   3.982
 7440SOL    HW223220   6.586   3.034   4.003
 7441SOL     OW23221   5.884   0.009   4.347
 7441SOL    HW123222   5.977   0.044   4.341
 7441SOL    HW223223   5.887   6.936   4.366
 7442SOL     OW23224   5.605   1.416   0.624
 7442SOL    HW123225   5.568   1.355   0.554
 7442SOL    HW223226   5.685   1.464   0.589
 7443SOL     OW23227   6.467   5.558   2.245
 7443SOL    HW123228   6.375   5.527   2.270
 7443SOL    HW223229   6.479   5.653   2.275
 7444SOL     OW23230   5.732   0.915   6.094
 7444SOL    HW123231   5.659   0.964   6.141
 7444SOL    HW223232   5.791   0.870   6.161
 7445SOL     OW23233   3.204   0.652   1.803
 7445SOL    HW123234   3.205   0.640   1.704
 7445SOL    HW223235   3.255   0.577   1.846
 7446SOL     OW23236   4.965   2.040   0.659
 7446SOL    HW123237   5.028   2.089   0.600
 7446SOL    HW223238   4.897   1.992   0.604
 7447SOL     OW23239   6.335   4.862   6.292
 7447SOL    HW123240   6.368   4.956   6.301
 7447SOL    HW223241   6.288   4.852   6.204
 7448SOL     OW23242   5.690   6.708   4.526
 7448SOL    HW123243   5.619   6.638   4.516
 7448SOL    HW223244   5.771   6.667   4.569
 7449SOL     OW23245   1.075   5.840   0.610
 7449SOL    HW123246   1.131   5.820   0.529
 7449SOL    HW223247   1.101   5.777   0.683
 7450SOL     OW23248   5.326   2.500   5.125
 7450SOL    HW123249   5.328   2.542   5.034
 7450SOL    HW223250   5.417   2.507   5.167
 7451SOL     OW23251   6.084   5.601   2.289
 7451SOL    HW123252   6.095   5.585   2.191
 7451SOL    HW223253   6.162   5.653   2.323
 7452SOL     OW23254   5.880   5.780   4.607
 7452SOL    HW123255   5.937   5.859   4.584
 7452SOL    HW223256   5.846   5.738   4.524
 7453SOL     OW23257   4.202   4.968   4.831
 7453SOL    HW123258   4.120   5.023   4.843
 7453SOL    HW223259   4.201   4.891   4.895
 7454SOL     OW23260   2.589   1.568   0.839
 7454SOL    HW123261   2.561   1.640   0.902
 7454SOL    HW223262   2.647   1.502   0.887
 7455SOL     OW23263   6.673   3.332   2.152
 7455SOL    HW123264   6.601   3.337   2.221
 7455SOL    HW223265   6.686   3.423   2.111
 7456SOL     OW23266   2.410   1.228   4.800
 7456SOL    HW123267   2.475   1.166   4.844
 7456SOL    HW223268   2.370   1.288   4.869
 7457SOL     OW23269   3.256   0.451   4.459
 7457SOL    HW123270   3.272   0.489   4.550
 7457SOL    HW223271   3.253   0.525   4.392
 7458SOL     OW23272   1.385   0.151   6.167
 7458SOL    HW123273   1.437   0.233   6.147
 7458SOL    HW223274   1.344   0.116   6.082
 7459SOL     OW23275   6.240   1.420   2.738
 7459SOL    HW123276   6.145   1.447   2.753
 7459SOL    HW223277   6.296   1.502   2.728
 7460SOL     OW23278   1.344   5.788   0.070
 7460SOL    HW123279   1.400   5.869   0.054
 7460SOL    HW223280   1.388   5.729   0.137
 7461SOL     OW23281   5.872   6.130   5.963
 7461SOL    HW123282   5.923   6.075   5.896
 7461SOL    HW223283   5.838   6.213   5.918
 7462SOL     OW23284   1.932   4.406   1.674
 7462SOL    HW123285   1.984   4.414   1.759
 7462SOL    HW223286   1.914   4.310   1.655
 7463SOL     OW23287   2.941   4.146   0.348
 7463SOL    HW123288   3.002   4.134   0.270
 7463SOL    HW223289   2.849   4.117   0.322
 7464SOL     OW23290   6.002   6.729   5.365
 7464SOL    HW123291   6.086   6.724   5.419
 7464SOL    HW223292   5.941   6.654   5.391
 7465SOL     OW23293   2.736   4.636   6.651
 7465SOL    HW123294   2.673   4.695   6.601
 7465SOL    HW223295   2.685   4.565   6.699
 7466SOL     OW23296   0.344   0.863   6.031
 7466SOL    HW123297   0.344   0.820   5.941
 7466SOL    HW223298   0.336   0.962   6.021
 7467SOL     OW23299   0.559   2.396   5.487
 7467SOL    HW123300   0.481   2.349   5.529
 7467SOL    HW223301   0.527   2.480   5.443
 7468SOL     OW23302   5.120   3.116   4.162
 7468SOL    HW123303   5.165   3.198   4.198
 7468SOL    HW223304   5.023   3.135   4.147
 7469SOL     OW23305   6.450   1.351   0.347
 7469SOL    HW123306   6.429   1.427   0.408
 7469SOL    HW223307   6.380   1.279   0.357
 7470SOL     OW23308   5.301   4.274   3.515
 7470SOL    HW123309   5.339   4.332   3.444
 7470SOL    HW223310   5.281   4.183   3.477
 7471SOL     OW23311   5.479   6.193   6.275
 7471SOL    HW123312   5.458   6.290   6.264
 7471SOL    HW223313   5.497   6.152   6.185
 7472SOL     OW23314   6.712   1.334   5.422
 7472SOL    HW123315   6.747   1.351   5.330
 7472SOL    HW223316   6.677   1.240   5.426
 7473SOL     OW23317   5.054   5.711   4.118
 7473SOL    HW123318   5.128   5.733   4.181
 7473SOL    HW223319   5.070   5.754   4.030
 7474SOL     OW23320   6.552   1.740   6.719
 7474SOL    HW123321   6.506   1.727   6.631
 7474SOL    HW223322   6.581   1.836   6.728
 7475SOL     OW23323   4.541   2.338   2.072
 7475SOL    HW123324   4.521   2.382   1.984
 7475SOL    HW223325   4.514   2.399   2.147
 7476SOL     OW23326   2.271   1.539   3.156
 7476SOL    HW123327   2.182   1.495   3.164
 7476SOL    HW223328   2.306   1.529   3.063
 7477SOL     OW23329   0.035   2.937   5.079
 7477SOL    HW123330   0.104   2.867   5.098
 7477SOL    HW223331   6.995   2.903   5.012
 7478SOL     OW23332   5.800   3.423   5.260
 7478SOL    HW123333   5.768   3.456   5.171
 7478SOL    HW223334   5.763   3.332   5.277
 7479SOL     OW23335   5.117   2.498   1.856
 7479SOL    HW123336   5.129   2.512   1.954
 7479SOL    HW223337   5.030   2.539   1.827
 7480SOL     OW23338   1.639   4.399   2.062
 7480SOL    HW123339   1.676   4.336   2.131
 7480SOL    HW223340   1.711   4.463   2.034
 7481SOL     OW23341   6.342   4.837   0.215
 7481SOL    HW123342   6.268   4.882   0.164
 7481SOL    HW223343   6.351   4.880   0.305
 7482SOL     OW23344   4.472   2.501   2.300
 7482SOL    HW123345   4.472   2.576   2.366
 7482SOL    HW223346   4.427   2.421   2.340
 7483SOL     OW23347   4.916   3.189   4.621
 7483SOL    HW123348   4.899   3.287   4.613
 7483SOL    HW223349   4.915   3.163   4.718
 7484SOL     OW23350   1.739   5.209   4.541
 7484SOL    HW123351   1.775   5.117   4.559
 7484SOL    HW223352   1.653   5.202   4.490
 7485SOL     OW23353   2.626   0.442   4.669
 7485SOL    HW123354   2.592   0.489   4.750
 7485SOL    HW223355   2.694   0.498   4.623
 7486SOL     OW23356   0.871   6.251   0.388
 7486SOL    HW123357   0.907   6.275   0.478
 7486SOL    HW223358   0.931   6.287   0.317
 7487SOL     OW23359   3.042   0.604   3.720
 7487SOL    HW123360   3.044   0.704   3.718
 7487SOL    HW223361   3.133   0.567   3.702
 7488SOL     OW23362   2.238   5.847   4.488
 7488SOL    HW123363   2.194   5.816   4.404
 7488SOL    HW223364   2.338   5.842   4.478
 7489SOL     OW23365   5.947   3.187   6.763
 7489SOL    HW123366   5.895   3.102   6.768
 7489SOL    HW223367   6.041   3.171   6.793
 7490SOL     OW23368   1.564   0.671   3.056
 7490SOL    HW123369   1.572   0.771   3.055
 7490SOL    HW223370   1.519   0.642   3.140
 7491SOL     OW23371   4.703   2.750   6.994
 7491SOL    HW123372   4.678   2.742   6.898
 7491SOL    HW223373   4.743   2.664   0.001
 7492SOL     OW23374   1.977   0.804   4.283
 7492SOL    HW123375   1.937   0.890   4.316
 7492SOL    HW223376   2.069   0.821   4.248
 7493SOL     OW23377   6.364   3.209   5.688
 7493SOL    HW123378   6.442   3.166   5.641
 7493SOL    HW223379   6.397   3.255   5.771
 7494SOL     OW23380   5.818   1.435   3.720
 7494SOL    HW123381   5.865   1.359   3.676
 7494SOL    HW223382   5.770   1.489   3.651
 7495SOL     OW23383   1.137   3.007   5.567
 7495SOL    HW123384   1.226   2.972   5.539
 7495SOL    HW223385   1.067   2.936   5.557
 7496SOL     OW23386   5.414   3.637   4.248
 7496SOL    HW123387   5.347   3.711   4.246
 7496SOL    HW223388   5.496   3.666   4.297
 7497SOL     OW23389   1.787   5.285   1.011
 7497SOL    HW123390   1.755   5.237   1.092
 7497SOL    HW223391   1.887   5.281   1.007
 7498SOL     OW23392   3.220   0.987   4.133
 7498SOL    HW123393   3.292   0.967   4.199
 7498SOL    HW223394   3.172   1.070   4.161
 7499SOL     OW23395   4.458   2.257   3.563
 7499SOL    HW123396   4.548   2.216   3.580
 7499SOL    HW223397   4.459   2.305   3.475
 7500SOL     OW23398   3.455   5.801   2.698
 7500SOL    HW123399   3.422   5.880   2.646
 7500SOL    HW223400   3.388   5.778   2.769
 7501SOL     OW23401   5.397   4.540   3.820
 7501SOL    HW123402   5.328   4.610   3.803
 7501SOL    HW223403   5.467   4.577   3.881
 7502SOL     OW23404   3.059   6.716   4.083
 7502SOL    HW123405   3.049   6.617   4.086
 7502SOL    HW223406   3.032   6.756   4.170
 7503SOL     OW23407   2.501   6.102   1.268
 7503SOL    HW123408   2.575   6.050   1.309
 7503SOL    HW223409   2.484   6.069   1.175
 7504SOL     OW23410   0.168   6.371   2.714
 7504SOL    HW123411   0.167   6.443   2.645
 7504SOL    HW223412   0.082   6.320   2.709
 7505SOL     OW23413   1.671   2.144   6.490
 7505SOL    HW123414   1.757   2.094   6.492
 7505SOL    HW223415   1.687   2.236   6.453
 7506SOL     OW23416   4.435   2.394   3.334
 7506SOL    HW123417   4.496   2.356   3.265
 7506SOL    HW223418   4.340   2.390   3.301
 7507SOL     OW23419   5.808   2.738   3.191
 7507SOL    HW123420   5.883   2.723   3.255
 7507SOL    HW223421   5.746   2.659   3.193
 7508SOL     OW23422   2.270   4.964   0.177
 7508SOL    HW123423   2.354   4.939   0.224
 7508SOL    HW223424   2.192   4.918   0.219
 7509SOL     OW23425   5.987   3.392   0.575
 7509SOL    HW123426   6.081   3.427   0.575
 7509SOL    HW223427   5.926   3.459   0.534
 7510SOL     OW23428   4.031   3.840   4.569
 7510SOL    HW123429   4.003   3.903   4.497
 7510SOL    HW223430   4.083   3.765   4.529
 7511SOL     OW23431   2.874   6.091   3.338
 7511SOL    HW123432   2.871   6.001   3.383
 7511SOL    HW223433   2.785   6.110   3.296
 7512SOL     OW23434   2.554   1.030   0.027
 7512SOL    HW123435   2.512   0.939   0.028
 7512SOL    HW223436   2.492   1.095   7.008
 7513SOL     OW23437   1.845   2.247   2.473
 7513SOL    HW123438   1.921   2.204   2.521
 7513SOL    HW223439   1.863   2.346   2.465
 7514SOL     OW23440   2.180   5.358   3.062
 7514SOL    HW123441   2.146   5.275   3.016
 7514SOL    HW223442   2.124   5.436   3.035
 7515SOL     OW23443   0.227   4.651   4.863
 7515SOL    HW123444   0.289   4.634   4.786
 7515SOL    HW223445   0.185   4.565   4.892
 7516SOL     OW23446   0.403   5.490   6.428
 7516SOL    HW123447   0.312   5.507   6.389
 7516SOL    HW223448   0.453   5.428   6.368
 7517SOL     OW23449   0.933   1.967   0.270
 7517SOL    HW123450   0.845   2.014   0.270
 7517SOL    HW223451   0.953   1.934   0.362
 7518SOL     OW23452   5.229   3.688   3.301
 7518SOL    HW123453   5.183   3.620   3.357
 7518SOL    HW223454   5.313   3.649   3.263
 7519SOL     OW23455   6.550   6.547   4.476
 7519SOL    HW123456   6.491   6.582   4.549
 7519SOL    HW223457   6.642   6.533   4.511
 7520SOL     OW23458   1.569   0.599   2.443
 7520SOL    HW123459   1.497   0.663   2.471
 7520SOL    HW223460   1.622   0.640   2.369
 7521SOL     OW23461   5.314   2.567   4.823
 7521SOL    HW123462   5.247   2.636   4.850
 7521SOL    HW223463   5.377   2.606   4.755
 7522SOL     OW23464   1.574   0.331   5.321
 7522SOL    HW123465   1.663   0.303   5.357
 7522SOL    HW223466   1.572   0.431   5.312
 7523SOL     OW23467   5.167   0.657   6.476
 7523SOL    HW123468   5.221   0.699   6.403
 7523SOL    HW223469   5.160   0.559   6.460
 7524SOL     OW23470   6.846   2.854   4.899
 7524SOL    HW123471   6.891   2.766   4.912
 7524SOL    HW223472   6.792   2.852   4.815
 7525SOL     OW23473   4.714   6.516   6.993
 7525SOL    HW123474   4.714   6.578   0.046
 7525SOL    HW223475   4.623   6.515   6.951
 7526SOL     OW23476   2.677   3.102   1.345
 7526SOL    HW123477   2.717   3.102   1.437
 7526SOL    HW223478   2.654   3.009   1.318
 7527SOL     OW23479   3.362   5.955   3.909
 7527SOL    HW123480   3.370   6.041   3.859
 7527SOL    HW223481   3.303   5.893   3.859
 7528SOL     OW23482   5.868   2.374   0.217
 7528SOL    HW123483   5.873   2.371   0.117
 7528SOL    HW223484   5.814   2.297   0.250
 7529SOL     OW23485   5.176   1.724   4.512
 7529SOL    HW123486   5.091   1.710   4.461
 7529SOL    HW223487   5.203   1.820   4.507
 7530SOL     OW23488   6.216   2.156   2.080
 7530SOL    HW123489   6.285   2.090   2.050
 7530SOL    HW223490   6.130   2.109   2.099
 7531SOL     OW23491   5.078   3.081   3.212
 7531SOL    HW123492   5.050   3.001   3.159
 7531SOL    HW223493   5.004   3.107   3.274
 7532SOL     OW23494   4.928   6.384   0.067
 7532SOL    HW123495   4.949   6.403   0.163
 7532SOL    HW223496   4.858   6.448   0.035
 7533SOL     OW23497   3.655   2.065   1.717
 7533SOL    HW123498   3.641   2.137   1.785
 7533SOL    HW223499   3.753   2.049   1.704
 7534SOL     OW23500   4.839   5.918   4.218
 7534SOL    HW123501   4.837   5.994   4.153
 7534SOL    HW223502   4.828   5.832   4.169
 7535SOL     OW23503   1.780   6.614   4.672
 7535SOL    HW123504   1.829   6.546   4.617
 7535SOL    HW223505   1.815   6.705   4.651
 7536SOL     OW23506   5.089   6.179   3.926
 7536SOL    HW123507   5.138   6.264   3.907
 7536SOL    HW223508   5.012   6.170   3.863
 7537SOL     OW23509   1.826   4.578   2.265
 7537SOL    HW123510   1.913   4.546   2.301
 7537SOL    HW223511   1.832   4.586   2.165
 7538SOL     OW23512   1.835   2.631   1.202
 7538SOL    HW123513   1.847   2.721   1.160
 7538SOL    HW223514   1.832   2.641   1.302
 7539SOL     OW23515   1.040   4.647   3.880
 7539SOL    HW123516   1.014   4.742   3.862
 7539SOL    HW223517   1.073   4.638   3.974
 7540SOL     OW23518   4.113   6.441   4.794
 7540SOL    HW123519   4.035   6.385   4.821
 7540SOL    HW223520   4.084   6.509   4.727
 7541SOL     OW23521   1.258   4.451   5.973
 7541SOL    HW123522   1.357   4.447   5.988
 7541SOL    HW223523   1.238   4.429   5.877
 7542SOL     OW23524   6.658   5.470   6.410
 7542SOL    HW123525   6.563   5.498   6.426
 7542SOL    HW223526   6.719   5.530   6.463
 7543SOL     OW23527   2.891   0.733   5.171
 7543SOL    HW123528   2.977   0.730   5.222
 7543SOL    HW223529   2.898   0.801   5.098
 7544SOL     OW23530   6.965   2.674   4.301
 7544SOL    HW123531   7.001   2.647   4.212
 7544SOL    HW223532   6.914   2.760   4.292
 7545SOL     OW23533   0.469   6.555   6.192
 7545SOL    HW123534   0.397   6.623   6.182
 7545SOL    HW223535   0.443   6.488   6.262
 7546SOL     OW23536   4.727   2.333   1.554
 7546SOL    HW123537   4.675   2.274   1.615
 7546SOL    HW223538   4.752   2.417   1.603
 7547SOL     OW23539   4.778   0.891   0.915
 7547SOL    HW123540   4.832   0.828   0.972
 7547SOL    HW223541   4.818   0.894   0.823
 7548SOL     OW23542   4.555   2.077   6.993
 7548SOL    HW123543   4.542   2.099   6.897
 7548SOL    HW223544   4.652   2.060   7.011
 7549SOL     OW23545   3.845   2.785   6.682
 7549SOL    HW123546   3.753   2.791   6.643
 7549SOL    HW223547   3.887   2.876   6.682
 7550SOL     OW23548   1.884   4.870   3.162
 7550SOL    HW123549   1.867   4.782   3.207
 7550SOL    HW223550   1.975   4.868   3.120
 7551SOL     OW23551   5.462   3.177   5.448
 7551SOL    HW123552   5.554   3.170   5.409
 7551SOL    HW223553   5.462   3.245   5.521
 7552SOL     OW23554   1.520   5.796   4.238
 7552SOL    HW123555   1.495   5.884   4.198
 7552SOL    HW223556   1.620   5.785   4.233
 7553SOL     OW23557   5.312   6.780   5.817
 7553SOL    HW123558   5.259   6.703   5.854
 7553SOL    HW223559   5.365   6.823   5.890
 7554SOL     OW23560   4.703   0.699   0.399
 7554SOL    HW123561   4.629   0.691   0.465
 7554SOL    HW223562   4.711   0.795   0.370
 7555SOL     OW23563   3.296   5.704   6.328
 7555SOL    HW123564   3.232   5.665   6.262
 7555SOL    HW223565   3.257   5.788   6.366
 7556SOL     OW23566   2.337   1.360   0.219
 7556SOL    HW123567   2.338   1.401   0.310
 7556SOL    HW223568   2.427   1.321   0.199
 7557SOL     OW23569   5.069   0.246   6.844
 7557SOL    HW123570   5.156   0.266   6.887
 7557SOL    HW223571   5.004   0.320   6.863
 7558SOL     OW23572   2.218   2.907   3.551
 7558SOL    HW123573   2.223   2.853   3.468
 7558SOL    HW223574   2.221   3.004   3.528
 7559SOL     OW23575   4.045   2.202   5.798
 7559SOL    HW123576   4.051   2.197   5.699
 7559SOL    HW223577   4.019   2.295   5.825
 7560SOL     OW23578   6.345   0.042   0.060
 7560SOL    HW123579   6.296   0.121   0.097
 7560SOL    HW223580   6.311   0.021   6.993
 7561SOL     OW23581   6.110   3.230   5.806
 7561SOL    HW123582   6.203   3.213   5.774
 7561SOL    HW223583   6.065   3.294   5.744
 7562SOL     OW23584   0.827   4.938   5.137
 7562SOL    HW123585   0.790   4.918   5.046
 7562SOL    HW223586   0.796   5.028   5.166
 7563SOL     OW23587   2.611   5.906   2.218
 7563SOL    HW123588   2.655   5.857   2.143
 7563SOL    HW223589   2.524   5.862   2.240
 7564SOL     OW23590   3.889   0.274   4.854
 7564SOL    HW123591   3.978   0.229   4.844
 7564SOL    HW223592   3.902   0.364   4.895
 7565SOL     OW23593   5.440   4.068   5.563
 7565SOL    HW123594   5.531   4.028   5.556
 7565SOL    HW223595   5.373   3.994   5.574
 7566SOL     OW23596   5.195   5.425   2.398
 7566SOL    HW123597   5.271   5.365   2.424
 7566SOL    HW223598   5.183   5.422   2.299
 7567SOL     OW23599   0.812   0.873   5.780
 7567SOL    HW123600   0.746   0.860   5.706
 7567SOL    HW223601   0.876   0.946   5.756
 7568SOL     OW23602   5.221   5.061   2.067
 7568SOL    HW123603   5.167   4.999   2.124
 7568SOL    HW223604   5.312   5.021   2.051
 7569SOL     OW23605   3.957   4.231   6.266
 7569SOL    HW123606   3.961   4.213   6.364
 7569SOL    HW223607   3.972   4.328   6.249
 7570SOL     OW23608   6.694   4.027   3.940
 7570SOL    HW123609   6.596   4.014   3.929
 7570SOL    HW223610   6.713   4.123   3.960
 7571SOL     OW23611   5.409   3.811   3.065
 7571SOL    HW123612   5.509   3.805   3.073
 7571SOL    HW223613   5.370   3.720   3.075
 7572SOL     OW23614   5.266   0.652   3.370
 7572SOL    HW123615   5.348   0.701   3.341
 7572SOL    HW223616   5.292   0.564   3.408
 7573SOL     OW23617   6.775   0.621   5.359
 7573SOL    HW123618   6.737   0.705   5.397
 7573SOL    HW223619   6.783   0.630   5.260
 7574SOL     OW23620   5.948   1.300   4.436
 7574SOL    HW123621   6.037   1.258   4.455
 7574SOL    HW223622   5.958   1.372   4.368
 7575SOL     OW23623   6.396   6.458   0.588
 7575SOL    HW123624   6.312   6.447   0.641
 7575SOL    HW223625   6.384   6.533   0.522
 7576SOL     OW23626   4.779   1.892   0.495
 7576SOL    HW123627   4.728   1.805   0.493
 7576SOL    HW223628   4.748   1.950   0.420
 7577SOL     OW23629   0.361   6.172   0.620
 7577SOL    HW123630   0.367   6.122   0.534
 7577SOL    HW223631   0.332   6.266   0.603
 7578SOL     OW23632   1.587   5.498   2.377
 7578SOL    HW123633   1.673   5.537   2.343
 7578SOL    HW223634   1.510   5.542   2.331
 7579SOL     OW23635   6.749   1.347   1.328
 7579SOL    HW123636   6.746   1.326   1.426
 7579SOL    HW223637   6.678   1.414   1.305
 7580SOL     OW23638   1.300   4.462   3.229
 7580SOL    HW123639   1.300   4.493   3.134
 7580SOL    HW223640   1.221   4.499   3.276
 7581SOL     OW23641   0.327   1.498   1.696
 7581SOL    HW123642   0.422   1.515   1.668
 7581SOL    HW223643   0.327   1.441   1.778
 7582SOL     OW23644   4.004   1.711   3.672
 7582SOL    HW123645   3.938   1.787   3.675
 7582SOL    HW223646   4.086   1.740   3.623
 7583SOL     OW23647   5.528   3.567   2.720
 7583SOL    HW123648   5.431   3.580   2.700
 7583SOL    HW223649   5.568   3.505   2.653
 7584SOL     OW23650   1.433   0.141   2.457
 7584SOL    HW123651   1.478   0.208   2.516
 7584SOL    HW223652   1.483   0.054   2.461
 7585SOL     OW23653   1.250   1.902   5.997
 7585SOL    HW123654   1.249   1.804   5.976
 7585SOL    HW223655   1.339   1.940   5.972
 7586SOL     OW23656   1.915   6.346   3.254
 7586SOL    HW123657   1.836   6.382   3.303
 7586SOL    HW223658   1.939   6.408   3.179
 7587SOL     OW23659   2.758   1.414   0.056
 7587SOL    HW123660   2.697   1.355   0.110
 7587SOL    HW223661   2.728   1.509   0.063
 7588SOL     OW23662   1.488   2.609   4.380
 7588SOL    HW123663   1.421   2.672   4.420
 7588SOL    HW223664   1.470   2.516   4.412
 7589SOL     OW23665   6.992   0.804   2.823
 7589SOL    HW123666   6.899   0.800   2.785
 7589SOL    HW223667   6.989   0.848   2.912
 7590SOL     OW23668   6.081   0.563   7.025
 7590SOL    HW123669   6.064   0.547   0.097
 7590SOL    HW223670   6.030   0.496   6.971
 7591SOL     OW23671   5.443   3.433   6.770
 7591SOL    HW123672   5.356   3.423   6.818
 7591SOL    HW223673   5.505   3.492   6.822
 7592SOL     OW23674   6.348   4.821   4.477
 7592SOL    HW123675   6.277   4.819   4.407
 7592SOL    HW223676   6.317   4.875   4.555
 7593SOL     OW23677   0.170   2.620   6.864
 7593SOL    HW123678   0.080   2.595   6.901
 7593SOL    HW223679   0.241   2.600   6.932
 7594SOL     OW23680   0.940   5.051   1.089
 7594SOL    HW123681   0.988   5.137   1.107
 7594SOL    HW223682   0.928   5.041   0.990
 7595SOL     OW23683   6.658   2.968   6.387
 7595SOL    HW123684   6.614   2.994   6.301
 7595SOL    HW223685   6.692   3.049   6.434
 7596SOL     OW23686   2.838   6.848   4.850
 7596SOL    HW123687   2.741   6.831   4.833
 7596SOL    HW223688   2.888   6.762   4.848
 7597SOL     OW23689   2.008   6.831   3.041
 7597SOL    HW123690   2.004   6.786   2.952
 7597SOL    HW223691   2.060   6.916   3.033
 7598SOL     OW23692   6.318   0.666   3.241
 7598SOL    HW123693   6.312   0.746   3.181
 7598SOL    HW223694   6.390   0.605   3.207
 7599SOL     OW23695   5.469   3.259   1.285
 7599SOL    HW123696   5.465   3.168   1.243
 7599SOL    HW223697   5.498   3.250   1.380
 7600SOL     OW23698   1.249   0.948   3.330
 7600SOL    HW123699   1.234   0.977   3.424
 7600SOL    HW223700   1.250   0.848   3.325
 7601SOL     OW23701   2.926   5.284   2.092
 7601SOL    HW123702   2.904   5.187   2.087
 7601SOL    HW223703   3.025   5.296   2.104
 7602SOL     OW23704   1.173   3.166   6.922
 7602SOL    HW123705   1.145   3.113   7.002
 7602SOL    HW223706   1.269   3.191   6.931
 7603SOL     OW23707   1.611   6.493   5.977
 7603SOL    HW123708   1.669   6.449   5.908
 7603SOL    HW223709   1.650   6.477   6.068
 7604SOL     OW23710   1.426   1.921   5.435
 7604SOL    HW123711   1.360   1.878   5.498
 7604SOL    HW223712   1.505   1.952   5.487
 7605SOL     OW23713   1.008   0.637   0.825
 7605SOL    HW123714   0.910   0.656   0.827
 7605SOL    HW223715   1.023   0.538   0.829
 7606SOL     OW23716   5.480   2.804   4.996
 7606SOL    HW123717   5.458   2.848   4.909
 7606SOL    HW223718   5.542   2.728   4.980
 7607SOL     OW23719   3.897   5.486   7.012
 7607SOL    HW123720   3.813   5.525   0.026
 7607SOL    HW223721   3.965   5.475   0.060
 7608SOL     OW23722   4.818   2.757   0.321
 7608SOL    HW123723   4.730   2.778   0.278
 7608SOL    HW223724   4.891   2.806   0.273
 7609SOL     OW23725   1.122   4.122   3.842
 7609SOL    HW123726   1.136   4.099   3.938
 7609SOL    HW223727   1.130   4.221   3.830
 7610SOL     OW23728   3.830   4.764   5.606
 7610SOL    HW123729   3.915   4.732   5.648
 7610SOL    HW223730   3.752   4.714   5.644
 7611SOL     OW23731   5.530   3.536   1.324
 7611SOL    HW123732   5.503   3.450   1.281
 7611SOL    HW223733   5.616   3.568   1.282
 7612SOL     OW23734   4.771   2.611   2.872
 7612SOL    HW123735   4.722   2.613   2.959
 7612SOL    HW223736   4.869   2.622   2.889
 7613SOL     OW23737   0.939   1.762   2.111
 7613SOL    HW123738   0.896   1.743   2.023
 7613SOL    HW223739   1.038   1.752   2.103
 7614SOL     OW23740   5.231   3.552   1.318
 7614SOL    HW123741   5.318   3.567   1.273
 7614SOL    HW223742   5.177   3.637   1.315
 7615SOL     OW23743   4.706   3.906   5.853
 7615SOL    HW123744   4.690   3.889   5.756
 7615SOL    HW223745   4.620   3.893   5.903
 7616SOL     OW23746   7.013   0.033   3.909
 7616SOL    HW123747   0.027   0.083   3.987
 7616SOL    HW223748   6.985   0.099   3.839
 7617SOL     OW23749   5.694   5.915   3.274
 7617SOL    HW123750   5.654   5.909   3.365
 7617SOL    HW223751   5.654   5.845   3.215
 7618SOL     OW23752   1.154   2.818   6.938
 7618SOL    HW123753   1.136   2.907   6.979
 7618SOL    HW223754   1.069   2.779   6.903
 7619SOL     OW23755   6.887   2.526   4.502
 7619SOL    HW123756   6.967   2.492   4.551
 7619SOL    HW223757   6.917   2.587   4.428
 7620SOL     OW23758   4.131   5.164   1.114
 7620SOL    HW123759   4.057   5.103   1.143
 7620SOL    HW223760   4.093   5.239   1.061
 7621SOL     OW23761   0.557   0.187   0.996
 7621SOL    HW123762   0.649   0.185   0.957
 7621SOL    HW223763   0.493   0.142   0.934
 7622SOL     OW23764   4.274   4.756   6.414
 7622SOL    HW123765   4.190   4.722   6.370
 7622SOL    HW223766   4.273   4.731   6.511
 7623SOL     OW23767   4.198   4.393   1.087
 7623SOL    HW123768   4.290   4.430   1.073
 7623SOL    HW223769   4.201   4.320   1.155
 7624SOL     OW23770   6.615   3.598   3.726
 7624SOL    HW123771   6.522   3.626   3.752
 7624SOL    HW223772   6.618   3.583   3.627
 7625SOL     OW23773   6.660   1.603   0.131
 7625SOL    HW123774   6.584   1.610   0.196
 7625SOL    HW223775   6.659   1.513   0.088
 7626SOL     OW23776   6.744   1.211   5.780
 7626SOL    HW123777   6.775   1.215   5.875
 7626SOL    HW223778   6.815   1.171   5.723
 7627SOL     OW23779   2.787   1.962   0.307
 7627SOL    HW123780   2.762   1.896   0.378
 7627SOL    HW223781   2.874   1.935   0.266
 7628SOL     OW23782   3.764   3.003   1.670
 7628SOL    HW123783   3.769   2.907   1.642
 7628SOL    HW223784   3.733   3.058   1.593
 7629SOL     OW23785   0.027   4.443   3.340
 7629SOL    HW123786   7.014   4.351   3.348
 7629SOL    HW223787   6.986   4.510   3.375
 7630SOL     OW23788   1.123   0.886   6.234
 7630SOL    HW123789   1.135   0.789   6.212
 7630SOL    HW223790   1.102   0.937   6.151
 7631SOL     OW23791   1.526   1.253   5.643
 7631SOL    HW123792   1.598   1.215   5.701
 7631SOL    HW223793   1.557   1.340   5.605
 7632SOL     OW23794   4.383   5.050   1.007
 7632SOL    HW123795   4.320   5.127   1.009
 7632SOL    HW223796   4.344   4.973   1.057
 7633SOL     OW23797   5.115   0.570   1.969
 7633SOL    HW123798   5.149   0.545   2.060
 7633SOL    HW223799   5.187   0.556   1.901
 7634SOL     OW23800   1.628   1.338   1.643
 7634SOL    HW123801   1.599   1.268   1.578
 7634SOL    HW223802   1.676   1.296   1.720
 7635SOL     OW23803   3.117   5.174   4.320
 7635SOL    HW123804   3.025   5.210   4.326
 7635SOL    HW223805   3.174   5.213   4.391
 7636SOL     OW23806   1.314   4.204   4.581
 7636SOL    HW123807   1.408   4.171   4.572
 7636SOL    HW223808   1.267   4.194   4.493
 7637SOL     OW23809   1.457   6.369   2.716
 7637SOL    HW123810   1.459   6.410   2.625
 7637SOL    HW223811   1.398   6.423   2.776
 7638SOL     OW23812   1.056   5.354   1.992
 7638SOL    HW123813   1.092   5.395   1.908
 7638SOL    HW223814   0.998   5.421   2.040
 7639SOL     OW23815   0.462   1.267   0.602
 7639SOL    HW123816   0.409   1.322   0.537
 7639SOL    HW223817   0.558   1.268   0.575
 7640SOL     OW23818   3.101   2.603   6.979
 7640SOL    HW123819   3.054   2.640   0.034
 7640SOL    HW223820   3.097   2.503   6.981
 7641SOL     OW23821   6.897   4.037   2.732
 7641SOL    HW123822   6.929   3.942   2.732
 7641SOL    HW223823   6.932   4.084   2.812
 7642SOL     OW23824   6.006   1.100   2.722
 7642SOL    HW123825   6.097   1.092   2.682
 7642SOL    HW223826   5.962   1.010   2.723
 7643SOL     OW23827   5.339   1.387   2.712
 7643SOL    HW123828   5.390   1.304   2.689
 7643SOL    HW223829   5.268   1.403   2.643
 7644SOL     OW23830   4.860   3.057   2.322
 7644SOL    HW123831   4.940   3.016   2.366
 7644SOL    HW223832   4.870   3.051   2.222
 7645SOL     OW23833   4.588   3.515   5.610
 7645SOL    HW123834   4.630   3.475   5.529
 7645SOL    HW223835   4.488   3.516   5.598
 7646SOL     OW23836   0.705   2.877   4.247
 7646SOL    HW123837   0.749   2.949   4.192
 7646SOL    HW223838   0.606   2.879   4.233
 7647SOL     OW23839   0.494   3.038   4.541
 7647SOL    HW123840   0.574   3.073   4.492
 7647SOL    HW223841   0.525   2.976   4.613
 7648SOL     OW23842   2.196   1.363   2.177
 7648SOL    HW123843   2.199   1.445   2.119
 7648SOL    HW223844   2.241   1.287   2.130
 7649SOL     OW23845   1.497   1.409   4.390
 7649SOL    HW123846   1.430   1.342   4.359
 7649SOL    HW223847   1.559   1.432   4.314
 7650SOL     OW23848   6.113   0.258   1.355
 7650SOL    HW123849   6.115   0.204   1.439
 7650SOL    HW223850   6.108   0.356   1.378
 7651SOL     OW23851   2.522   5.919   4.386
 7651SOL    HW123852   2.545   5.993   4.322
 7651SOL    HW223853   2.569   5.836   4.358
 7652SOL     OW23854   5.482   2.861   5.454
 7652SOL    HW123855   5.531   2.815   5.528
 7652SOL    HW223856   5.467   2.957   5.478
 7653SOL     OW23857   1.439   1.284   0.023
 7653SOL    HW123858   1.471   1.313   0.113
 7653SOL    HW223859   1.343   1.258   0.028
 7654SOL     OW23860   5.445   3.809   4.629
 7654SOL    HW123861   5.354   3.791   4.666
 7654SOL    HW223862   5.511   3.813   4.704
 7655SOL     OW23863   3.922   0.492   3.676
 7655SOL    HW123864   3.829   0.522   3.656
 7655SOL    HW223865   3.978   0.503   3.594
 7656SOL     OW23866   5.120   2.610   6.398
 7656SOL    HW123867   5.128   2.596   6.497
 7656SOL    HW223868   5.211   2.614   6.357
 7657SOL     OW23869   1.794   2.740   3.993
 7657SOL    HW123870   1.849   2.784   3.922
 7657SOL    HW223871   1.842   2.743   4.080
 7658SOL     OW23872   3.213   0.490   0.689
 7658SOL    HW123873   3.310   0.505   0.672
 7658SOL    HW223874   3.159   0.548   0.628
 7659SOL     OW23875   4.801   4.276   6.938
 7659SOL    HW123876   4.794   4.271   6.838
 7659SOL    HW223877   4.897   4.270   6.965
 7660SOL     OW23878   6.218   5.448   4.170
 7660SOL    HW123879   6.131   5.475   4.211
 7660SOL    HW223880   6.229   5.349   4.179
 7661SOL     OW23881   4.847   1.861   5.578
 7661SOL    HW123882   4.891   1.806   5.649
 7661SOL    HW223883   4.766   1.906   5.616
 7662SOL     OW23884   0.740   2.713   3.455
 7662SOL    HW123885   0.786   2.791   3.413
 7662SOL    HW223886   0.761   2.712   3.553
 7663SOL     OW23887   5.062   5.656   6.498
 7663SOL    HW123888   4.992   5.727   6.502
 7663SOL    HW223889   5.060   5.601   6.581
 7664SOL     OW23890   3.394   1.644   2.858
 7664SOL    HW123891   3.317   1.695   2.897
 7664SOL    HW223892   3.430   1.694   2.780
 7665SOL     OW23893   5.579   1.680   4.160
 7665SOL    HW123894   5.516   1.664   4.235
 7665SOL    HW223895   5.590   1.778   4.146
 7666SOL     OW23896   0.107   4.824   4.249
 7666SOL    HW123897   0.171   4.879   4.196
 7666SOL    HW223898   0.153   4.787   4.329
 7667SOL     OW23899   4.196   0.336   2.770
 7667SOL    HW123900   4.259   0.411   2.748
 7667SOL    HW223901   4.105   0.357   2.735
 7668SOL     OW23902   2.628   4.611   0.213
 7668SOL    HW123903   2.680   4.578   0.291
 7668SOL    HW223904   2.585   4.533   0.167
 7669SOL     OW23905   4.371   0.909   5.343
 7669SOL    HW123906   4.444   0.843   5.360
 7669SOL    HW223907   4.392   0.995   5.390
 7670SOL     OW23908   0.765   5.938   0.674
 7670SOL    HW123909   0.859   5.933   0.641
 7670SOL    HW223910   0.723   5.848   0.670
 7671SOL     OW23911   4.418   6.945   2.675
 7671SOL    HW123912   4.415   6.891   2.591
 7671SOL    HW223913   4.509   6.940   2.715
 7672SOL     OW23914   6.589   4.773   3.202
 7672SOL    HW123915   6.623   4.819   3.285
 7672SOL    HW223916   6.491   4.789   3.194
 7673SOL     OW23917   1.727   5.708   2.557
 7673SOL    HW123918   1.683   5.620   2.575
 7673SOL    HW223919   1.823   5.702   2.581
 7674SOL     OW23920   4.480   0.076   4.330
 7674SOL    HW123921   4.529   0.050   4.413
 7674SOL    HW223922   4.459   0.174   4.333
 7675SOL     OW23923   4.471   6.357   3.606
 7675SOL    HW123924   4.381   6.313   3.604
 7675SOL    HW223925   4.460   6.454   3.626
 7676SOL     OW23926   2.916   1.919   6.051
 7676SOL    HW123927   2.992   1.855   6.064
 7676SOL    HW223928   2.943   1.991   5.986
 7677SOL     OW23929   0.244   4.602   0.567
 7677SOL    HW123930   0.155   4.646   0.579
 7677SOL    HW223931   0.235   4.526   0.503
 7678SOL     OW23932   1.584   2.964   5.316
 7678SOL    HW123933   1.572   2.906   5.235
 7678SOL    HW223934   1.641   3.042   5.293
 7679SOL     OW23935   2.036   5.444   5.445
 7679SOL    HW123936   1.953   5.425   5.497
 7679SOL    HW223937   2.027   5.405   5.353
 7680SOL     OW23938   1.450   0.383   6.524
 7680SOL    HW123939   1.523   0.334   6.477
 7680SOL    HW223940   1.371   0.390   6.463
 7681SOL     OW23941   2.847   1.012   0.444
 7681SOL    HW123942   2.906   1.088   0.416
 7681SOL    HW223943   2.763   1.047   0.485
 7682SOL     OW23944   4.567   1.264   2.134
 7682SOL    HW123945   4.481   1.266   2.185
 7682SOL    HW223946   4.613   1.353   2.144
 7683SOL     OW23947   0.526   1.415   4.669
 7683SOL    HW123948   0.478   1.479   4.729
 7683SOL    HW223949   0.624   1.416   4.690
 7684SOL     OW23950   3.893   2.493   1.523
 7684SOL    HW123951   3.796   2.507   1.503
 7684SOL    HW223952   3.904   2.411   1.580
 7685SOL     OW23953   3.406   1.450   6.722
 7685SOL    HW123954   3.330   1.391   6.695
 7685SOL    HW223955   3.384   1.545   6.700
 7686SOL     OW23956   5.637   6.738   4.017
 7686SOL    HW123957   5.671   6.709   3.927
 7686SOL    HW223958   5.688   6.818   4.048
 7687SOL     OW23959   4.752   4.999   4.793
 7687SOL    HW123960   4.803   5.073   4.835
 7687SOL    HW223961   4.788   4.911   4.824
 7688SOL     OW23962   6.756   6.220   5.936
 7688SOL    HW123963   6.831   6.156   5.953
 7688SOL    HW223964   6.767   6.261   5.846
 7689SOL     OW23965   5.162   0.345   2.571
 7689SOL    HW123966   5.214   0.318   2.652
 7689SOL    HW223967   5.182   0.440   2.549
 7690SOL     OW23968   5.666   5.257   0.636
 7690SOL    HW123969   5.660   5.188   0.708
 7690SOL    HW223970   5.718   5.221   0.559
 7691SOL     OW23971   4.667   4.694   1.803
 7691SOL    HW123972   4.738   4.646   1.752
 7691SOL    HW223973   4.581   4.643   1.796
 7692SOL     OW23974   0.845   6.377   1.634
 7692SOL    HW123975   0.908   6.352   1.708
 7692SOL    HW223976   0.756   6.398   1.673
 7693SOL     OW23977   3.038   0.387   1.730
 7693SOL    HW123978   3.041   0.444   1.648
 7693SOL    HW223979   3.129   0.379   1.769
 7694SOL     OW23980   5.679   2.778   4.432
 7694SOL    HW123981   5.637   2.835   4.361
 7694SOL    HW223982   5.671   2.823   4.520
 7695SOL     OW23983   5.796   0.719   1.706
 7695SOL    HW123984   5.787   0.811   1.746
 7695SOL    HW223985   5.764   0.722   1.611
 7696SOL     OW23986   6.839   1.190   6.036
 7696SOL    HW123987   6.899   1.121   6.075
 7696SOL    HW223988   6.841   1.272   6.093
 7697SOL     OW23989   2.900   0.897   2.516
 7697SOL    HW123990   2.862   0.983   2.552
 7697SOL    HW223991   2.861   0.878   2.426
 7698SOL     OW23992   6.898   1.792   4.990
 7698SOL    HW123993   6.979   1.741   4.962
 7698SOL    HW223994   6.828   1.728   5.021
 7699SOL     OW23995   2.535   4.970   6.806
 7699SOL    HW123996   2.465   4.909   6.769
 7699SOL    HW223997   2.499   5.017   6.886
 7700SOL     OW23998   4.139   6.077   3.453
 7700SOL    HW123999   4.157   6.021   3.534
 7700SOL    HW224000   4.041   6.075   3.432
 7701SOL     OW24001   0.375   2.186   6.417
 7701SOL    HW124002   0.415   2.276   6.399
 7701SOL    HW224003   0.417   2.147   6.499
 7702SOL     OW24004   4.262   6.204   5.163
 7702SOL    HW124005   4.175   6.191   5.116
 7702SOL    HW224006   4.264   6.148   5.246
 7703SOL     OW24007   6.347   6.709   5.286
 7703SOL    HW124008   6.316   6.625   5.243
 7703SOL    HW224009   6.328   6.705   5.384
 7704SOL     OW24010   6.322   2.293   3.856
 7704SOL    HW124011   6.244   2.267   3.913
 7704SOL    HW224012   6.407   2.265   3.902
 7705SOL     OW24013   2.512   4.796   0.896
 7705SOL    HW124014   2.598   4.762   0.933
 7705SOL    HW224015   2.475   4.867   0.956
 7706SOL     OW24016   3.572   2.919   3.400
 7706SOL    HW124017   3.591   2.822   3.415
 7706SOL    HW224018   3.653   2.963   3.362
 7707SOL     OW24019   0.308   4.736   6.452
 7707SOL    HW124020   0.226   4.793   6.452
 7707SOL    HW224021   0.309   4.679   6.533
 7708SOL     OW24022   1.636   6.637   4.380
 7708SOL    HW124023   1.707   6.656   4.312
 7708SOL    HW224024   1.588   6.553   4.356
 7709SOL     OW24025   6.439   5.249   1.534
 7709SOL    HW124026   6.347   5.217   1.513
 7709SOL    HW224027   6.434   5.340   1.575
 7710SOL     OW24028   2.115   2.482   0.672
 7710SOL    HW124029   2.091   2.577   0.689
 7710SOL    HW224030   2.032   2.427   0.664
 7711SOL     OW24031   5.880   5.484   5.690
 7711SOL    HW124032   5.945   5.436   5.748
 7711SOL    HW224033   5.793   5.495   5.739
 7712SOL     OW24034   6.009   4.698   7.020
 7712SOL    HW124035   5.932   4.723   6.962
 7712SOL    HW224036   6.011   4.599   0.007
 7713SOL     OW24037   1.927   3.841   0.980
 7713SOL    HW124038   1.938   3.742   0.971
 7713SOL    HW224039   1.853   3.860   1.045
 7714SOL     OW24040   0.269   6.517   5.304
 7714SOL    HW124041   0.271   6.434   5.248
 7714SOL    HW224042   0.218   6.588   5.256
 7715SOL     OW24043   2.637   2.188   6.535
 7715SOL    HW124044   2.689   2.103   6.547
 7715SOL    HW224045   2.685   2.263   6.581
 7716SOL     OW24046   6.827   5.146   0.245
 7716SOL    HW124047   6.770   5.139   0.163
 7716SOL    HW224048   6.919   5.177   0.220
 7717SOL     OW24049   1.520   1.672   5.366
 7717SOL    HW124050   1.583   1.674   5.289
 7717SOL    HW224051   1.459   1.751   5.360
 7718SOL     OW24052   6.607   4.595   2.772
 7718SOL    HW124053   6.551   4.607   2.690
 7718SOL    HW224054   6.704   4.602   2.747
 7719SOL     OW24055   0.897   4.314   4.896
 7719SOL    HW124056   0.902   4.314   4.996
 7719SOL    HW224057   0.862   4.226   4.865
 7720SOL     OW24058   6.254   1.777   5.618
 7720SOL    HW124059   6.177   1.728   5.659
 7720SOL    HW224060   6.305   1.716   5.558
 7721SOL     OW24061   0.525   0.161   2.525
 7721SOL    HW124062   0.567   0.252   2.529
 7721SOL    HW224063   0.477   0.143   2.610
 7722SOL     OW24064   1.840   5.181   4.026
 7722SOL    HW124065   1.821   5.175   3.929
 7722SOL    HW224066   1.939   5.182   4.041
 7723SOL     OW24067   4.941   3.665   6.603
 7723SOL    HW124068   4.951   3.642   6.506
 7723SOL    HW224069   4.973   3.758   6.619
 7724SOL     OW24070   3.294   4.417   0.500
 7724SOL    HW124071   3.265   4.446   0.409
 7724SOL    HW224072   3.312   4.497   0.557
 7725SOL     OW24073   5.817   2.599   2.775
 7725SOL    HW124074   5.760   2.677   2.803
 7725SOL    HW224075   5.883   2.578   2.847
 7726SOL     OW24076   0.800   2.918   6.042
 7726SOL    HW124077   0.880   2.951   6.092
 7726SOL    HW224078   0.805   2.819   6.031
 7727SOL     OW24079   5.915   2.755   1.436
 7727SOL    HW124080   5.973   2.837   1.435
 7727SOL    HW224081   5.819   2.782   1.431
 7728SOL     OW24082   2.213   2.744   5.121
 7728SOL    HW124083   2.222   2.820   5.186
 7728SOL    HW224084   2.285   2.751   5.052
 7729SOL     OW24085   5.406   1.442   1.922
 7729SOL    HW124086   5.430   1.418   2.016
 7729SOL    HW224087   5.319   1.399   1.897
 7730SOL     OW24088   6.216   4.780   6.043
 7730SOL    HW124089   6.262   4.809   5.960
 7730SOL    HW224090   6.191   4.683   6.036
 7731SOL     OW24091   6.698   0.149   0.661
 7731SOL    HW124092   6.656   0.074   0.713
 7731SOL    HW224093   6.644   0.232   0.674
 7732SOL     OW24094   4.342   0.029   0.239
 7732SOL    HW124095   4.267   6.992   0.260
 7732SOL    HW224096   4.424   7.002   0.217
 7733SOL     OW24097   6.159   5.210   2.670
 7733SOL    HW124098   6.121   5.208   2.762
 7733SOL    HW224099   6.149   5.302   2.632
 7734SOL     OW24100   2.430   4.820   4.454
 7734SOL    HW124101   2.475   4.741   4.413
 7734SOL    HW224102   2.445   4.818   4.553
 7735SOL     OW24103   6.310   5.511   0.117
 7735SOL    HW124104   6.223   5.502   0.166
 7735SOL    HW224105   6.297   5.484   0.022
 7736SOL     OW24106   2.292   3.058   0.615
 7736SOL    HW124107   2.254   3.076   0.706
 7736SOL    HW224108   2.381   3.103   0.606
 7737SOL     OW24109   3.036   5.668   2.107
 7737SOL    HW124110   3.009   5.722   2.027
 7737SOL    HW224111   3.020   5.722   2.190
 7738SOL     OW24112   2.469   5.775   6.856
 7738SOL    HW124113   2.392   5.796   6.796
 7738SOL    HW224114   2.489   5.855   6.914
 7739SOL     OW24115   1.397   1.576   1.899
 7739SOL    HW124116   1.453   1.544   1.975
 7739SOL    HW224117   1.347   1.498   1.860
 7740SOL     OW24118   1.791   0.886   2.545
 7740SOL    HW124119   1.826   0.800   2.508
 7740SOL    HW224120   1.867   0.936   2.588
 7741SOL     OW24121   1.009   3.916   5.071
 7741SOL    HW124122   0.952   3.926   4.989
 7741SOL    HW224123   0.962   3.958   5.149
 7742SOL     OW24124   4.098   1.598   3.893
 7742SOL    HW124125   4.049   1.618   3.808
 7742SOL    HW224126   4.196   1.602   3.877
 7743SOL     OW24127   4.955   1.109   6.943
 7743SOL    HW124128   4.936   1.195   6.990
 7743SOL    HW224129   4.874   1.079   6.893
 7744SOL     OW24130   0.565   6.063   3.401
 7744SOL    HW124131   0.617   5.992   3.355
 7744SOL    HW224132   0.522   6.026   3.483
 7745SOL     OW24133   2.709   6.741   6.823
 7745SOL    HW124134   2.627   6.694   6.792
 7745SOL    HW224135   2.717   6.733   6.922
 7746SOL     OW24136   1.518   6.892   0.896
 7746SOL    HW124137   1.524   6.878   0.797
 7746SOL    HW224138   1.491   6.807   0.940
 7747SOL     OW24139   0.840   6.101   1.238
 7747SOL    HW124140   0.755   6.153   1.224
 7747SOL    HW224141   0.871   6.064   1.150
 7748SOL     OW24142   3.319   3.846   4.627
 7748SOL    HW124143   3.254   3.920   4.612
 7748SOL    HW224144   3.397   3.880   4.680
 7749SOL     OW24145   3.163   3.739   3.559
 7749SOL    HW124146   3.168   3.680   3.478
 7749SOL    HW224147   3.252   3.741   3.604
 7750SOL     OW24148   5.852   5.800   5.975
 7750SOL    HW124149   5.851   5.798   6.075
 7750SOL    HW224150   5.897   5.884   5.944
 7751SOL     OW24151   0.941   2.135   3.197
 7751SOL    HW124152   1.036   2.123   3.170
 7751SOL    HW224153   0.905   2.220   3.157
 7752SOL     OW24154   5.694   5.660   5.820
 7752SOL    HW124155   5.765   5.713   5.867
 7752SOL    HW224156   5.673   5.704   5.733
 7753SOL     OW24157   2.633   0.952   4.244
 7753SOL    HW124158   2.626   0.902   4.331
 7753SOL    HW224159   2.717   0.925   4.197
 7754SOL     OW24160   5.405   0.195   1.855
 7754SOL    HW124161   5.438   0.236   1.940
 7754SOL    HW224162   5.482   0.179   1.793
 7755SOL     OW24163   1.225   0.880   5.718
 7755SOL    HW124164   1.312   0.843   5.686
 7755SOL    HW224165   1.241   0.936   5.800
 7756SOL     OW24166   2.685   5.654   2.395
 7756SOL    HW124167   2.758   5.721   2.385
 7756SOL    HW224168   2.608   5.679   2.338
 7757SOL     OW24169   5.058   6.383   4.162
 7757SOL    HW124170   4.969   6.375   4.117
 7757SOL    HW224171   5.114   6.449   4.113
 7758SOL     OW24172   1.456   2.313   6.831
 7758SOL    HW124173   1.521   2.247   6.793
 7758SOL    HW224174   1.469   2.319   6.930
 7759SOL     OW24175   1.785   1.225   5.178
 7759SOL    HW124176   1.825   1.235   5.087
 7759SOL    HW224177   1.709   1.289   5.189
 7760SOL     OW24178   5.793   3.544   2.388
 7760SOL    HW124179   5.871   3.505   2.436
 7760SOL    HW224180   5.789   3.505   2.295
 7761SOL     OW24181   2.372   0.115   6.404
 7761SOL    HW124182   2.352   0.138   6.309
 7761SOL    HW224183   2.296   0.061   6.441
 7762SOL     OW24184   4.202   0.723   5.209
 7762SOL    HW124185   4.158   0.641   5.246
 7762SOL    HW224186   4.256   0.767   5.280
 7763SOL     OW24187   1.462   1.575   1.367
 7763SOL    HW124188   1.540   1.513   1.372
 7763SOL    HW224189   1.423   1.574   1.275
 7764SOL     OW24190   3.638   3.249   2.733
 7764SOL    HW124191   3.688   3.334   2.715
 7764SOL    HW224192   3.591   3.220   2.649
 7765SOL     OW24193   6.273   3.099   3.920
 7765SOL    HW124194   6.206   3.126   3.989
 7765SOL    HW224195   6.364   3.126   3.950
 7766SOL     OW24196   5.323   1.365   0.080
 7766SOL    HW124197   5.231   1.342   0.112
 7766SOL    HW224198   5.338   1.464   0.089
 7767SOL     OW24199   3.987   6.702   4.226
 7767SOL    HW124200   4.058   6.766   4.198
 7767SOL    HW224201   3.973   6.633   4.156
 7768SOL     OW24202   4.261   4.999   2.601
 7768SOL    HW124203   4.172   5.032   2.634
 7768SOL    HW224204   4.299   4.934   2.667
 7769SOL     OW24205   5.054   1.730   1.532
 7769SOL    HW124206   5.124   1.801   1.535
 7769SOL    HW224207   5.061   1.680   1.446
 7770SOL     OW24208   1.609   3.873   2.295
 7770SOL    HW124209   1.607   3.773   2.288
 7770SOL    HW224210   1.539   3.912   2.235
 7771SOL     OW24211   2.516   2.799   5.306
 7771SOL    HW124212   2.590   2.774   5.369
 7771SOL    HW224213   2.518   2.898   5.290
 7772SOL     OW24214   5.324   0.966   3.947
 7772SOL    HW124215   5.295   1.059   3.924
 7772SOL    HW224216   5.246   0.904   3.939
 7773SOL     OW24217   2.856   5.069   5.487
 7773SOL    HW124218   2.950   5.038   5.476
 7773SOL    HW224219   2.802   5.040   5.408
 7774SOL     OW24220   6.094   2.225   6.405
 7774SOL    HW124221   6.079   2.161   6.330
 7774SOL    HW224222   6.006   2.247   6.448
 7775SOL     OW24223   3.392   6.830   3.043
 7775SOL    HW124224   3.355   6.922   3.034
 7775SOL    HW224225   3.435   6.819   3.132
 7776SOL     OW24226   3.072   3.388   6.856
 7776SOL    HW124227   3.017   3.335   6.791
 7776SOL    HW224228   3.132   3.451   6.805
 7777SOL     OW24229   2.473   1.731   5.211
 7777SOL    HW124230   2.492   1.668   5.286
 7777SOL    HW224231   2.557   1.746   5.157
 7778SOL     OW24232   5.238   6.757   0.217
 7778SOL    HW124233   5.283   6.705   0.144
 7778SOL    HW224234   5.303   6.776   0.290
 7779SOL     OW24235   3.664   3.134   0.434
 7779SOL    HW124236   3.672   3.232   0.454
 7779SOL    HW224237   3.605   3.091   0.502
 7780SOL     OW24238   1.841   5.138   4.973
 7780SOL    HW124239   1.852   5.237   4.960
 7780SOL    HW224240   1.887   5.090   4.899
 7781SOL     OW24241   1.592   4.366   6.743
 7781SOL    HW124242   1.594   4.276   6.788
 7781SOL    HW224243   1.675   4.416   6.764
 7782SOL     OW24244   1.601   3.594   5.511
 7782SOL    HW124245   1.564   3.502   5.514
 7782SOL    HW224246   1.698   3.591   5.485
 7783SOL     OW24247   2.936   6.244   5.682
 7783SOL    HW124248   2.935   6.339   5.714
 7783SOL    HW224249   2.845   6.219   5.651
 7784SOL     OW24250   2.118   2.361   0.148
 7784SOL    HW124251   2.194   2.324   0.095
 7784SOL    HW224252   2.150   2.386   0.239
 7785SOL     OW24253   1.606   0.107   3.750
 7785SOL    HW124254   1.680   0.064   3.699
 7785SOL    HW224255   1.639   0.189   3.796
 7786SOL     OW24256   3.485   5.631   6.127
 7786SOL    HW124257   3.427   5.686   6.188
 7786SOL    HW224258   3.581   5.645   6.150
 7787SOL     OW24259   1.861   3.551   5.461
 7787SOL    HW124260   1.907   3.532   5.548
 7787SOL    HW224261   1.913   3.511   5.386
 7788SOL     OW24262   1.529   0.020   1.625
 7788SOL    HW124263   1.470   6.967   1.606
 7788SOL    HW224264   1.500   0.097   1.567
 7789SOL     OW24265   3.606   6.726   0.200
 7789SOL    HW124266   3.555   6.641   0.195
 7789SOL    HW224267   3.645   6.737   0.292
 7790SOL     OW24268   5.982   5.145   2.401
 7790SOL    HW124269   5.990   5.111   2.495
 7790SOL    HW224270   5.944   5.073   2.343
 7791SOL     OW24271   3.009   6.767   3.762
 7791SOL    HW124272   3.047   6.763   3.854
 7791SOL    HW224273   2.930   6.705   3.755
 7792SOL     OW24274   0.806   5.829   5.864
 7792SOL    HW124275   0.870   5.781   5.924
 7792SOL    HW224276   0.757   5.762   5.808
 7793SOL     OW24277   1.893   0.590   6.030
 7793SOL    HW124278   1.912   0.686   6.050
 7793SOL    HW224279   1.949   0.560   5.952
 7794SOL     OW24280   4.758   5.273   3.247
 7794SOL    HW124281   4.842   5.326   3.252
 7794SOL    HW224282   4.734   5.238   3.337
 7795SOL     OW24283   2.016   3.723   5.060
 7795SOL    HW124284   2.082   3.730   4.985
 7795SOL    HW224285   2.045   3.652   5.123
 7796SOL     OW24286   3.106   3.847   4.176
 7796SOL    HW124287   3.162   3.928   4.159
 7796SOL    HW224288   3.047   3.830   4.097
 7797SOL     OW24289   0.691   5.867   2.761
 7797SOL    HW124290   0.627   5.898   2.831
 7797SOL    HW224291   0.760   5.808   2.803
 7798SOL     OW24292   1.265   5.033   6.467
 7798SOL    HW124293   1.332   5.002   6.399
 7798SOL    HW224294   1.222   5.117   6.435
 7799SOL     OW24295   6.835   6.345   1.986
 7799SOL    HW124296   6.849   6.349   2.085
 7799SOL    HW224297   6.802   6.433   1.953
 7800SOL     OW24298   1.251   5.289   0.640
 7800SOL    HW124299   1.225   5.274   0.736
 7800SOL    HW224300   1.213   5.218   0.583
 7801SOL     OW24301   2.573   2.028   1.479
 7801SOL    HW124302   2.623   1.961   1.423
 7801SOL    HW224303   2.475   2.010   1.472
 7802SOL     OW24304   5.199   2.183   1.431
 7802SOL    HW124305   5.100   2.168   1.436
 7802SOL    HW224306   5.225   2.205   1.337
 7803SOL     OW24307   4.581   3.165   5.809
 7803SOL    HW124308   4.639   3.129   5.737
 7803SOL    HW224309   4.504   3.215   5.769
 7804SOL     OW24310   6.535   1.546   3.773
 7804SOL    HW124311   6.533   1.542   3.673
 7804SOL    HW224312   6.444   1.522   3.808
 7805SOL     OW24313   5.571   0.861   1.476
 7805SOL    HW124314   5.549   0.937   1.414
 7805SOL    HW224315   5.544   0.775   1.434
 7806SOL     OW24316   5.827   2.427   6.056
 7806SOL    HW124317   5.750   2.440   5.994
 7806SOL    HW224318   5.798   2.447   6.150
 7807SOL     OW24319   0.425   5.137   6.065
 7807SOL    HW124320   0.468   5.213   6.017
 7807SOL    HW224321   0.496   5.078   6.103
 7808SOL     OW24322   0.315   2.871   4.412
 7808SOL    HW124323   0.277   2.793   4.461
 7808SOL    HW224324   0.360   2.932   4.477
 7809SOL     OW24325   2.558   5.985   4.695
 7809SOL    HW124326   2.486   6.054   4.684
 7809SOL    HW224327   2.591   5.957   4.605
 7810SOL     OW24328   3.315   7.000   5.433
 7810SOL    HW124329   3.372   6.959   5.504
 7810SOL    HW224330   3.350   0.065   5.409
 7811SOL     OW24331   0.067   4.535   4.189
 7811SOL    HW124332   0.036   4.630   4.191
 7811SOL    HW224333   0.164   4.532   4.215
 7812SOL     OW24334   1.295   1.959   4.004
 7812SOL    HW124335   1.320   1.862   4.002
 7812SOL    HW224336   1.197   1.968   4.023
 7813SOL     OW24337   4.364   2.229   6.196
 7813SOL    HW124338   4.382   2.327   6.208
 7813SOL    HW224339   4.327   2.192   6.281
 7814SOL     OW24340   6.860   3.727   3.767
 7814SOL    HW124341   6.867   3.794   3.693
 7814SOL    HW224342   6.775   3.676   3.758
 7815SOL     OW24343   5.045   0.455   0.131
 7815SOL    HW124344   5.114   0.521   0.158
 7815SOL    HW224345   4.972   0.452   0.200
 7816SOL     OW24346   1.403   2.680   6.516
 7816SOL    HW124347   1.460   2.666   6.435
 7816SOL    HW224348   1.454   2.733   6.584
 7817SOL     OW24349   6.153   4.144   4.161
 7817SOL    HW124350   6.250   4.167   4.149
 7817SOL    HW224351   6.140   4.045   4.153
 7818SOL     OW24352   4.371   0.813   3.245
 7818SOL    HW124353   4.350   0.720   3.218
 7818SOL    HW224354   4.470   0.829   3.237
 7819SOL     OW24355   6.608   3.253   1.802
 7819SOL    HW124356   6.619   3.318   1.727
 7819SOL    HW224357   6.696   3.239   1.847
 7820SOL     OW24358   1.492   2.312   4.566
 7820SOL    HW124359   1.552   2.295   4.488
 7820SOL    HW224360   1.474   2.226   4.614
 7821SOL     OW24361   4.860   6.126   1.274
 7821SOL    HW124362   4.873   6.106   1.177
 7821SOL    HW224363   4.947   6.115   1.323
 7822SOL     OW24364   0.246   0.451   5.507
 7822SOL    HW124365   0.254   0.360   5.548
 7822SOL    HW224366   0.330   0.503   5.524
 7823SOL     OW24367   2.283   3.793   5.317
 7823SOL    HW124368   2.227   3.867   5.356
 7823SOL    HW224369   2.333   3.828   5.238
 7824SOL     OW24370   6.129   1.907   4.750
 7824SOL    HW124371   6.074   1.897   4.833
 7824SOL    HW224372   6.130   2.003   4.721
 7825SOL     OW24373   1.604   3.195   0.557
 7825SOL    HW124374   1.688   3.140   0.560
 7825SOL    HW224375   1.537   3.156   0.620
 7826SOL     OW24376   5.731   1.291   1.419
 7826SOL    HW124377   5.714   1.363   1.487
 7826SOL    HW224378   5.778   1.331   1.340
 7827SOL     OW24379   1.975   5.916   1.117
 7827SOL    HW124380   2.001   5.863   1.036
 7827SOL    HW224381   2.044   5.903   1.188
 7828SOL     OW24382   6.307   4.606   0.446
 7828SOL    HW124383   6.401   4.629   0.420
 7828SOL    HW224384   6.244   4.647   0.380
 7829SOL     OW24385   2.667   3.411   0.910
 7829SOL    HW124386   2.654   3.315   0.885
 7829SOL    HW224387   2.592   3.440   0.970
 7830SOL     OW24388   3.394   5.035   5.366
 7830SOL    HW124389   3.472   5.044   5.303
 7830SOL    HW224390   3.313   5.007   5.315
 7831SOL     OW24391   1.785   0.065   1.727
 7831SOL    HW124392   1.835   0.144   1.690
 7831SOL    HW224393   1.703   0.048   1.672
 7832SOL     OW24394   6.611   0.831   4.619
 7832SOL    HW124395   6.613   0.923   4.581
 7832SOL    HW224396   6.528   0.819   4.674
 7833SOL     OW24397   1.129   0.961   4.727
 7833SOL    HW124398   1.219   0.925   4.700
 7833SOL    HW224399   1.092   1.017   4.653
 7834SOL     OW24400   0.089   1.814   3.479
 7834SOL    HW124401   0.174   1.792   3.526
 7834SOL    HW224402   0.068   1.742   3.412
 7835SOL     OW24403   4.374   1.880   5.122
 7835SOL    HW124404   4.276   1.859   5.125
 7835SOL    HW224405   4.394   1.952   5.190
 7836SOL     OW24406   3.221   4.243   5.358
 7836SOL    HW124407   3.238   4.200   5.269
 7836SOL    HW224408   3.128   4.277   5.361
 7837SOL     OW24409   4.905   5.950   6.790
 7837SOL    HW124410   4.990   5.901   6.810
 7837SOL    HW224411   4.900   6.033   6.846
 7838SOL     OW24412   4.281   6.514   1.303
 7838SOL    HW124413   4.279   6.538   1.400
 7838SOL    HW224414   4.209   6.448   1.283
 7839SOL     OW24415   6.392   4.374   5.012
 7839SOL    HW124416   6.428   4.283   5.032
 7839SOL    HW224417   6.404   4.433   5.092
 7840SOL     OW24418   0.360   3.271   4.403
 7840SOL    HW124419   0.301   3.280   4.323
 7840SOL    HW224420   0.379   3.174   4.419
 7841SOL     OW24421   4.361   1.630   6.634
 7841SOL    HW124422   4.284   1.681   6.673
 7841SOL    HW224423   4.414   1.589   6.708
 7842SOL     OW24424   1.775   1.045   2.334
 7842SOL    HW124425   1.854   1.047   2.272
 7842SOL    HW224426   1.774   0.959   2.384
 7843SOL     OW24427   0.213   6.508   3.542
 7843SOL    HW124428   0.175   6.579   3.482
 7843SOL    HW224429   0.299   6.541   3.582
 7844SOL     OW24430   3.427   0.763   2.730
 7844SOL    HW124431   3.436   0.767   2.829
 7844SOL    HW224432   3.347   0.708   2.706
 7845SOL     OW24433   5.082   1.798   2.542
 7845SOL    HW124434   5.026   1.739   2.484
 7845SOL    HW224435   5.042   1.890   2.545
 7846SOL     OW24436   0.827   2.553   1.579
 7846SOL    HW124437   0.882   2.486   1.528
 7846SOL    HW224438   0.856   2.555   1.674
 7847SOL     OW24439   6.660   1.411   3.334
 7847SOL    HW124440   6.667   1.476   3.258
 7847SOL    HW224441   6.636   1.321   3.299
 7848SOL     OW24442   3.033   4.801   1.204
 7848SOL    HW124443   2.956   4.777   1.262
 7848SOL    HW224444   3.118   4.779   1.252
 7849SOL     OW24445   6.177   3.904   4.701
 7849SOL    HW124446   6.084   3.898   4.663
 7849SOL    HW224447   6.216   3.994   4.680
 7850SOL     OW24448   0.722   1.757   3.893
 7850SOL    HW124449   0.669   1.837   3.921
 7850SOL    HW224450   0.794   1.740   3.960
 7851SOL     OW24451   0.139   2.251   1.710
 7851SOL    HW124452   0.053   2.261   1.760
 7851SOL    HW224453   0.207   2.314   1.748
 7852SOL     OW24454   2.939   0.819   0.602
 7852SOL    HW124455   2.909   0.880   0.529
 7852SOL    HW224456   3.037   0.829   0.615
 7853SOL     OW24457   4.795   2.831   1.486
 7853SOL    HW124458   4.868   2.764   1.502
 7853SOL    HW224459   4.782   2.885   1.569
 7854SOL     OW24460   3.127   2.394   5.897
 7854SOL    HW124461   3.070   2.440   5.829
 7854SOL    HW224462   3.215   2.442   5.905
 7855SOL     OW24463   4.301   5.904   4.655
 7855SOL    HW124464   4.349   5.842   4.593
 7855SOL    HW224465   4.252   5.973   4.602
 7856SOL     OW24466   0.263   5.360   5.073
 7856SOL    HW124467   0.325   5.293   5.034
 7856SOL    HW224468   0.198   5.314   5.133
 7857SOL     OW24469   4.864   3.226   0.745
 7857SOL    HW124470   4.815   3.230   0.833
 7857SOL    HW224471   4.941   3.163   0.753
 7858SOL     OW24472   6.673   6.933   5.101
 7858SOL    HW124473   6.709   6.841   5.082
 7858SOL    HW224474   6.740   7.001   5.072
 7859SOL     OW24475   4.525   3.542   0.383
 7859SOL    HW124476   4.608   3.514   0.432
 7859SOL    HW224477   4.462   3.585   0.447
 7860SOL     OW24478   4.579   0.999   4.446
 7860SOL    HW124479   4.531   0.918   4.412
 7860SOL    HW224480   4.670   0.973   4.478
 7861SOL     OW24481   2.738   4.996   1.796
 7861SOL    HW124482   2.680   5.040   1.864
 7861SOL    HW224483   2.833   5.022   1.810
 7862SOL     OW24484   1.756   5.818   2.844
 7862SOL    HW124485   1.692   5.839   2.770
 7862SOL    HW224486   1.764   5.897   2.904
 7863SOL     OW24487   0.523   4.460   4.130
 7863SOL    HW124488   0.565   4.390   4.188
 7863SOL    HW224489   0.595   4.509   4.080
 7864SOL     OW24490   1.200   5.490   5.665
 7864SOL    HW124491   1.263   5.416   5.641
 7864SOL    HW224492   1.174   5.482   5.761
 7865SOL     OW24493   6.435   5.634   4.411
 7865SOL    HW124494   6.367   5.600   4.346
 7865SOL    HW224495   6.390   5.689   4.481
 7866SOL     OW24496   0.992   0.529   5.205
 7866SOL    HW124497   1.035   0.524   5.295
 7866SOL    HW224498   0.922   0.458   5.197
 7867SOL     OW24499   5.600   6.542   3.311
 7867SOL    HW124500   5.678   6.562   3.252
 7867SOL    HW224501   5.515   6.561   3.262
 7868SOL     OW24502   4.664   6.000   0.978
 7868SOL    HW124503   4.760   6.021   0.999
 7868SOL    HW224504   4.611   5.997   1.063
 7869SOL     OW24505   5.410   4.409   5.858
 7869SOL    HW124506   5.345   4.481   5.883
 7869SOL    HW224507   5.362   4.323   5.844
 7870SOL     OW24508   5.066   6.716   4.868
 7870SOL    HW124509   5.000   6.699   4.941
 7870SOL    HW224510   5.088   6.630   4.823
 7871SOL     OW24511   4.813   2.367   2.162
 7871SOL    HW124512   4.718   2.368   2.129
 7871SOL    HW224513   4.844   2.272   2.169
 7872SOL     OW24514   1.876   3.608   2.578
 7872SOL    HW124515   1.850   3.624   2.483
 7872SOL    HW224516   1.794   3.587   2.632
 7873SOL     OW24517   6.332   0.138   0.653
 7873SOL    HW124518   6.345   0.157   0.556
 7873SOL    HW224519   6.323   0.040   0.668
 7874SOL     OW24520   4.392   2.294   1.154
 7874SOL    HW124521   4.450   2.312   1.234
 7874SOL    HW224522   4.333   2.372   1.138
 7875SOL     OW24523   3.626   2.808   0.216
 7875SOL    HW124524   3.667   2.809   0.307
 7875SOL    HW224525   3.535   2.849   0.219
 7876SOL     OW24526   1.447   6.396   3.498
 7876SOL    HW124527   1.406   6.338   3.427
 7876SOL    HW224528   1.487   6.337   3.569
 7877SOL     OW24529   0.081   1.373   2.737
 7877SOL    HW124530   0.174   1.347   2.714
 7877SOL    HW224531   0.019   1.298   2.714
 7878SOL     OW24532   4.760   4.235   3.620
 7878SOL    HW124533   4.777   4.306   3.688
 7878SOL    HW224534   4.803   4.261   3.533
 7879SOL     OW24535   3.619   5.238   2.769
 7879SOL    HW124536   3.627   5.291   2.854
 7879SOL    HW224537   3.547   5.170   2.779
 7880SOL     OW24538   2.237   3.858   0.752
 7880SOL    HW124539   2.248   3.913   0.669
 7880SOL    HW224540   2.324   3.815   0.775
 7881SOL     OW24541   4.844   3.958   4.497
 7881SOL    HW124542   4.833   3.873   4.548
 7881SOL    HW224543   4.851   4.034   4.561
 7882SOL     OW24544   1.861   3.543   1.699
 7882SOL    HW124545   1.919   3.514   1.623
 7882SOL    HW224546   1.917   3.553   1.782
 7883SOL     OW24547   1.294   0.578   5.901
 7883SOL    HW124548   1.283   0.628   5.988
 7883SOL    HW224549   1.217   0.597   5.841
 7884SOL     OW24550   0.993   3.747   4.379
 7884SOL    HW124551   0.970   3.683   4.306
 7884SOL    HW224552   0.928   3.736   4.454
 7885SOL     OW24553   6.855   5.776   0.740
 7885SOL    HW124554   6.901   5.833   0.672
 7885SOL    HW224555   6.768   5.817   0.765
 7886SOL     OW24556   4.202   5.886   0.153
 7886SOL    HW124557   4.133   5.959   0.151
 7886SOL    HW224558   4.290   5.924   0.182
 7887SOL     OW24559   3.808   1.981   6.591
 7887SOL    HW124560   3.713   2.007   6.571
 7887SOL    HW224561   3.827   1.994   6.688
 7888SOL     OW24562   6.260   0.467   4.585
 7888SOL    HW124563   6.218   0.377   4.602
 7888SOL    HW224564   6.202   0.538   4.623
 7889SOL     OW24565   1.746   4.930   1.401
 7889SOL    HW124566   1.809   4.853   1.409
 7889SOL    HW224567   1.657   4.897   1.370
 7890SOL     OW24568   1.520   3.985   2.769
 7890SOL    HW124569   1.508   4.044   2.689
 7890SOL    HW224570   1.596   4.018   2.824
 7891SOL     OW24571   1.751   4.288   2.822
 7891SOL    HW124572   1.658   4.322   2.835
 7891SOL    HW224573   1.756   4.192   2.849
 7892SOL     OW24574   1.984   2.429   4.285
 7892SOL    HW124575   1.922   2.496   4.325
 7892SOL    HW224576   1.933   2.368   4.224
 7893SOL     OW24577   6.378   7.020   2.444
 7893SOL    HW124578   6.442   0.067   2.420
 7893SOL    HW224579   6.312   7.008   2.370
 7894SOL     OW24580   2.659   6.165   1.786
 7894SOL    HW124581   2.626   6.135   1.875
 7894SOL    HW224582   2.672   6.264   1.787
 7895SOL     OW24583   6.482   1.347   5.810
 7895SOL    HW124584   6.568   1.297   5.812
 7895SOL    HW224585   6.494   1.433   5.759
 7896SOL     OW24586   4.962   4.407   6.658
 7896SOL    HW124587   4.990   4.478   6.722
 7896SOL    HW224588   5.039   4.385   6.597
 7897SOL     OW24589   2.904   3.859   6.073
 7897SOL    HW124590   2.830   3.879   6.138
 7897SOL    HW224591   2.885   3.771   6.028
 7898SOL     OW24592   5.425   2.214   3.570
 7898SOL    HW124593   5.474   2.163   3.499
 7898SOL    HW224594   5.390   2.149   3.639
 7899SOL     OW24595   6.560   1.475   1.888
 7899SOL    HW124596   6.592   1.398   1.943
 7899SOL    HW224597   6.609   1.558   1.917
 7900SOL     OW24598   1.174   4.794   0.761
 7900SOL    HW124599   1.241   4.780   0.834
 7900SOL    HW224600   1.106   4.862   0.791
 7901SOL     OW24601   4.892   0.511   6.514
 7901SOL    HW124602   4.795   0.505   6.495
 7901SOL    HW224603   4.907   0.570   6.593
 7902SOL     OW24604   5.222   5.048   1.592
 7902SOL    HW124605   5.170   5.049   1.678
 7902SOL    HW224606   5.201   4.964   1.542
 7903SOL     OW24607   6.254   2.381   0.859
 7903SOL    HW124608   6.273   2.479   0.852
 7903SOL    HW224609   6.319   2.338   0.921
 7904SOL     OW24610   6.159   0.762   2.878
 7904SOL    HW124611   6.215   0.821   2.936
 7904SOL    HW224612   6.106   0.699   2.936
 7905SOL     OW24613   4.555   1.634   0.253
 7905SOL    HW124614   4.457   1.627   0.270
 7905SOL    HW224615   4.579   1.730   0.240
 7906SOL     OW24616   0.604   5.413   0.103
 7906SOL    HW124617   0.510   5.426   0.135
 7906SOL    HW224618   0.626   5.482   0.035
 7907SOL     OW24619   5.932   2.011   4.468
 7907SOL    HW124620   5.904   1.938   4.406
 7907SOL    HW224621   5.894   1.995   4.559
 7908SOL     OW24622   1.535   1.710   4.382
 7908SOL    HW124623   1.526   1.763   4.466
 7908SOL    HW224624   1.584   1.625   4.402
 7909SOL     OW24625   5.191   3.775   4.735
 7909SOL    HW124626   5.162   3.698   4.792
 7909SOL    HW224627   5.132   3.854   4.753
 7910SOL     OW24628   3.349   3.159   5.967
 7910SOL    HW124629   3.358   3.207   6.054
 7910SOL    HW224630   3.254   3.134   5.952
 7911SOL     OW24631   0.449   3.926   6.452
 7911SOL    HW124632   0.438   3.865   6.374
 7911SOL    HW224633   0.515   3.998   6.429
 7912SOL     OW24634   0.274   5.141   0.306
 7912SOL    HW124635   0.219   5.072   0.353
 7912SOL    HW224636   0.370   5.112   0.305
 7913SOL     OW24637   0.517   5.003   0.250
 7913SOL    HW124638   0.536   4.953   0.334
 7913SOL    HW224639   0.588   5.073   0.237
 7914SOL     OW24640   0.162   5.446   6.332
 7914SOL    HW124641   0.188   5.376   6.266
 7914SOL    HW224642   0.104   5.405   6.403
 7915SOL     OW24643   4.905   2.566   2.411
 7915SOL    HW124644   4.862   2.486   2.367
 7915SOL    HW224645   4.838   2.639   2.419
 7916SOL     OW24646   5.778   3.763   5.075
 7916SOL    HW124647   5.855   3.792   5.018
 7916SOL    HW224648   5.781   3.664   5.087
 7917SOL     OW24649   3.883   2.997   4.018
 7917SOL    HW124650   3.939   3.078   4.036
 7917SOL    HW224651   3.827   2.977   4.099
 7918SOL     OW24652   0.002   1.435   0.880
 7918SOL    HW124653   6.958   1.506   0.862
 7918SOL    HW224654   0.078   1.476   0.931
 7919SOL     OW24655   0.195   4.400   3.534
 7919SOL    HW124656   0.136   4.410   3.454
 7919SOL    HW224657   0.268   4.335   3.514
 7920SOL     OW24658   0.081   4.933   1.542
 7920SOL    HW124659   0.116   4.953   1.633
 7920SOL    HW224660   0.130   4.855   1.503
 7921SOL     OW24661   3.370   5.750   0.371
 7921SOL    HW124662   3.351   5.778   0.277
 7921SOL    HW224663   3.466   5.767   0.392
 7922SOL     OW24664   6.834   5.796   0.258
 7922SOL    HW124665   6.893   5.875   0.240
 7922SOL    HW224666   6.798   5.803   0.351
 7923SOL     OW24667   2.314   0.278   2.512
 7923SOL    HW124668   2.345   0.187   2.538
 7923SOL    HW224669   2.392   0.341   2.512
 7924SOL     OW24670   3.776   6.605   3.230
 7924SOL    HW124671   3.736   6.647   3.311
 7924SOL    HW224672   3.704   6.562   3.176
 7925SOL     OW24673   0.289   1.968   6.654
 7925SOL    HW124674   0.309   1.879   6.611
 7925SOL    HW224675   0.325   1.968   6.747
 7926SOL     OW24676   4.588   1.200   4.268
 7926SOL    HW124677   4.644   1.271   4.311
 7926SOL    HW224678   4.581   1.122   4.329
 7927SOL     OW24679   3.814   5.665   5.299
 7927SOL    HW124680   3.887   5.599   5.315
 7927SOL    HW224681   3.813   5.690   5.202
 7928SOL     OW24682   0.895   3.972   3.823
 7928SOL    HW124683   0.811   4.024   3.837
 7928SOL    HW224684   0.969   4.034   3.799
 7929SOL     OW24685   3.963   3.969   5.090
 7929SOL    HW124686   3.924   3.953   5.000
 7929SOL    HW224687   3.941   4.061   5.121
 7930SOL     OW24688   4.845   5.733   3.780
 7930SOL    HW124689   4.794   5.687   3.853
 7930SOL    HW224690   4.848   5.831   3.800
 7931SOL     OW24691   2.124   2.308   6.530
 7931SOL    HW124692   2.222   2.295   6.545
 7931SOL    HW224693   2.085   2.359   6.607
 7932SOL     OW24694   2.747   6.584   0.349
 7932SOL    HW124695   2.841   6.565   0.377
 7932SOL    HW224696   2.714   6.666   0.396
 7933SOL     OW24697   6.906   6.819   0.267
 7933SOL    HW124698   6.839   6.747   0.247
 7933SOL    HW224699   6.861   6.895   0.312
 7934SOL     OW24700   2.244   4.059   6.971
 7934SOL    HW124701   2.301   4.122   6.918
 7934SOL    HW224702   2.256   4.079   0.043
 7935SOL     OW24703   5.395   5.404   0.346
 7935SOL    HW124704   5.478   5.364   0.309
 7935SOL    HW224705   5.324   5.334   0.355
 7936SOL     OW24706   3.373   5.508   2.203
 7936SOL    HW124707   3.450   5.498   2.266
 7936SOL    HW224708   3.306   5.572   2.242
 7937SOL     OW24709   5.333   6.968   3.681
 7937SOL    HW124710   5.329   6.876   3.720
 7937SOL    HW224711   5.240   7.002   3.665
 7938SOL     OW24712   5.739   4.889   4.897
 7938SOL    HW124713   5.643   4.860   4.904
 7938SOL    HW224714   5.795   4.811   4.869
 7939SOL     OW24715   0.880   1.827   6.148
 7939SOL    HW124716   0.879   1.732   6.115
 7939SOL    HW224717   0.950   1.837   6.219
 7940SOL     OW24718   2.352   4.861   2.195
 7940SOL    HW124719   2.266   4.814   2.175
 7940SOL    HW224720   2.334   4.940   2.253
 7941SOL     OW24721   6.612   6.931   1.194
 7941SOL    HW124722   6.656   7.004   1.246
 7941SOL    HW224723   6.580   6.968   1.106
 7942SOL     OW24724   6.718   6.392   2.710
 7942SOL    HW124725   6.625   6.399   2.744
 7942SOL    HW224726   6.775   6.462   2.753
 7943SOL     OW24727   5.594   1.930   0.557
 7943SOL    HW124728   5.579   1.834   0.579
 7943SOL    HW224729   5.672   1.965   0.610
 7944SOL     OW24730   0.182   3.003   0.649
 7944SOL    HW124731   0.226   2.990   0.738
 7944SOL    HW224732   0.092   3.045   0.663
 7945SOL     OW24733   5.572   0.186   2.647
 7945SOL    HW124734   5.472   0.189   2.655
 7945SOL    HW224735   5.608   0.279   2.658
 7946SOL     OW24736   1.806   2.811   5.599
 7946SOL    HW124737   1.725   2.818   5.656
 7946SOL    HW224738   1.795   2.735   5.534
 7947SOL     OW24739   4.131   2.699   0.029
 7947SOL    HW124740   4.042   2.702   7.009
 7947SOL    HW224741   4.201   2.674   6.987
 7948SOL     OW24742   6.732   6.735   1.371
 7948SOL    HW124743   6.746   6.664   1.302
 7948SOL    HW224744   6.773   6.820   1.340
 7949SOL     OW24745   4.602   4.638   4.003
 7949SOL    HW124746   4.645   4.636   3.913
 7949SOL    HW224747   4.642   4.566   4.061
 7950SOL     OW24748   5.051   5.509   3.498
 7950SOL    HW124749   5.095   5.581   3.551
 7950SOL    HW224750   5.062   5.528   3.401
 7951SOL     OW24751   2.844   3.789   0.672
 7951SOL    HW124752   2.835   3.733   0.589
 7951SOL    HW224753   2.846   3.730   0.752
 7952SOL     OW24754   0.117   2.845   6.719
 7952SOL    HW124755   0.198   2.882   6.673
 7952SOL    HW224756   0.144   2.767   6.775
 7953SOL     OW24757   1.775   2.697   2.977
 7953SOL    HW124758   1.794   2.760   2.902
 7953SOL    HW224759   1.820   2.729   3.060
 7954SOL     OW24760   4.803   5.175   5.483
 7954SOL    HW124761   4.868   5.245   5.512
 7954SOL    HW224762   4.744   5.212   5.410
 7955SOL     OW24763   0.828   6.532   6.160
 7955SOL    HW124764   0.815   6.627   6.189
 7955SOL    HW224765   0.867   6.479   6.236
 7956SOL     OW24766   0.930   5.565   3.297
 7956SOL    HW124767   0.986   5.490   3.263
 7956SOL    HW224768   0.974   5.604   3.379
 7957SOL     OW24769   2.244   1.554   0.718
 7957SOL    HW124770   2.285   1.473   0.677
 7957SOL    HW224771   2.306   1.632   0.709
 7958SOL     OW24772   3.570   5.738   4.249
 7958SOL    HW124773   3.504   5.663   4.242
 7958SOL    HW224774   3.523   5.821   4.280
 7959SOL     OW24775   4.070   5.385   0.959
 7959SOL    HW124776   4.049   5.417   0.866
 7959SOL    HW224777   3.989   5.394   1.017
 7960SOL     OW24778   3.699   1.829   0.705
 7960SOL    HW124779   3.743   1.864   0.787
 7960SOL    HW224780   3.757   1.845   0.625
 7961SOL     OW24781   1.884   5.739   6.485
 7961SOL    HW124782   1.960   5.732   6.420
 7961SOL    HW224783   1.896   5.821   6.541
 7962SOL     OW24784   2.211   0.410   0.096
 7962SOL    HW124785   2.208   0.464   0.180
 7962SOL    HW224786   2.282   0.341   0.103
 7963SOL     OW24787   6.403   1.355   4.316
 7963SOL    HW124788   6.334   1.317   4.377
 7963SOL    HW224789   6.421   1.291   4.241
 7964SOL     OW24790   6.224   4.889   3.544
 7964SOL    HW124791   6.258   4.980   3.569
 7964SOL    HW224792   6.261   4.821   3.608
 7965SOL     OW24793   3.874   2.683   6.918
 7965SOL    HW124794   3.878   2.712   6.823
 7965SOL    HW224795   3.778   2.669   6.945
 7966SOL     OW24796   0.973   3.499   4.930
 7966SOL    HW124797   0.949   3.427   4.996
 7966SOL    HW224798   1.029   3.568   4.976
 7967SOL     OW24799   3.089   6.430   4.074
 7967SOL    HW124800   3.167   6.409   4.133
 7967SOL    HW224801   3.005   6.403   4.121
 7968SOL     OW24802   2.124   3.061   3.151
 7968SOL    HW124803   2.079   3.046   3.063
 7968SOL    HW224804   2.178   3.145   3.147
 7969SOL     OW24805   4.606   0.428   1.987
 7969SOL    HW124806   4.700   0.449   1.959
 7969SOL    HW224807   4.575   0.346   1.940
 7970SOL     OW24808   0.230   3.824   2.841
 7970SOL    HW124809   0.241   3.848   2.938
 7970SOL    HW224810   0.133   3.819   2.818
 7971SOL     OW24811   3.119   1.857   1.384
 7971SOL    HW124812   3.199   1.916   1.396
 7971SOL    HW224813   3.043   1.910   1.346
 7972SOL     OW24814   0.336   4.291   1.236
 7972SOL    HW124815   0.274   4.366   1.215
 7972SOL    HW224816   0.397   4.275   1.158
 7973SOL     OW24817   5.023   3.217   2.805
 7973SOL    HW124818   4.940   3.194   2.754
 7973SOL    HW224819   5.094   3.246   2.741
 7974SOL     OW24820   6.174   0.346   4.938
 7974SOL    HW124821   6.135   0.336   4.846
 7974SOL    HW224822   6.236   0.424   4.939
 7975SOL     OW24823   5.491   0.337   3.671
 7975SOL    HW124824   5.526   0.427   3.695
 7975SOL    HW224825   5.527   0.311   3.581
 7976SOL     OW24826   0.854   0.275   5.942
 7976SOL    HW124827   0.890   0.346   6.001
 7976SOL    HW224828   0.866   0.185   5.986
 7977SOL     OW24829   4.375   5.951   2.529
 7977SOL    HW124830   4.336   6.033   2.487
 7977SOL    HW224831   4.389   5.967   2.626
 7978SOL     OW24832   5.776   4.023   6.207
 7978SOL    HW124833   5.806   3.976   6.290
 7978SOL    HW224834   5.856   4.041   6.149
 7979SOL     OW24835   2.479   0.426   5.303
 7979SOL    HW124836   2.453   0.386   5.215
 7979SOL    HW224837   2.579   0.428   5.310
 7980SOL     OW24838   3.600   5.849   0.178
 7980SOL    HW124839   3.644   5.851   0.268
 7980SOL    HW224840   3.566   5.940   0.155
 7981SOL     OW24841   1.141   5.996   1.759
 7981SOL    HW124842   1.216   5.933   1.774
 7981SOL    HW224843   1.058   5.945   1.735
 7982SOL     OW24844   6.833   1.625   0.830
 7982SOL    HW124845   6.748   1.678   0.833
 7982SOL    HW224846   6.898   1.669   0.768
 7983SOL     OW24847   5.265   1.957   3.012
 7983SOL    HW124848   5.325   1.878   3.000
 7983SOL    HW224849   5.282   2.024   2.940
 7984SOL     OW24850   1.310   1.477   1.626
 7984SOL    HW124851   1.394   1.521   1.594
 7984SOL    HW224852   1.284   1.405   1.562
 7985SOL     OW24853   1.959   6.574   3.057
 7985SOL    HW124854   1.982   6.671   3.064
 7985SOL    HW224855   1.873   6.563   3.008
 7986SOL     OW24856   3.380   0.942   0.141
 7986SOL    HW124857   3.313   1.006   0.103
 7986SOL    HW224858   3.448   0.920   0.071
 7987SOL     OW24859   0.259   3.759   6.690
 7987SOL    HW124860   0.359   3.762   6.698
 7987SOL    HW224861   0.233   3.722   6.601
 7988SOL     OW24862   2.205   2.329   4.371
 7988SOL    HW124863   2.111   2.340   4.338
 7988SOL    HW224864   2.254   2.416   4.363
 7989SOL     OW24865   3.284   2.606   5.371
 7989SOL    HW124866   3.370   2.563   5.398
 7989SOL    HW224867   3.227   2.540   5.323
 7990SOL     OW24868   0.316   3.839   3.505
 7990SOL    HW124869   0.221   3.829   3.477
 7990SOL    HW224870   0.339   3.770   3.573
 7991SOL     OW24871   6.553   1.754   5.279
 7991SOL    HW124872   6.475   1.815   5.293
 7991SOL    HW224873   6.638   1.807   5.287
 7992SOL     OW24874   1.663   6.533   0.882
 7992SOL    HW124875   1.653   6.552   0.979
 7992SOL    HW224876   1.742   6.474   0.867
 7993SOL     OW24877   1.748   5.651   6.259
 7993SOL    HW124878   1.715   5.729   6.206
 7993SOL    HW224879   1.781   5.682   6.348
 7994SOL     OW24880   4.647   0.456   3.630
 7994SOL    HW124881   4.640   0.430   3.534
 7994SOL    HW224882   4.605   0.386   3.687
 7995SOL     OW24883   3.975   5.460   3.384
 7995SOL    HW124884   3.947   5.424   3.473
 7995SOL    HW224885   4.039   5.395   3.341
 7996SOL     OW24886   2.846   6.417   4.545
 7996SOL    HW124887   2.900   6.338   4.574
 7996SOL    HW224888   2.771   6.431   4.608
 7997SOL     OW24889   0.212   1.626   1.010
 7997SOL    HW124890   0.213   1.687   0.931
 7997SOL    HW224891   0.140   1.655   1.074
 7998SOL     OW24892   4.250   5.596   0.650
 7998SOL    HW124893   4.163   5.567   0.689
 7998SOL    HW224894   4.236   5.675   0.590
 7999SOL     OW24895   1.169   0.332   5.890
 7999SOL    HW124896   1.090   0.351   5.948
 7999SOL    HW224897   1.245   0.392   5.914
 8000SOL     OW24898   5.848   0.306   6.543
 8000SOL    HW124899   5.792   0.330   6.464
 8000SOL    HW224900   5.864   0.207   6.544
 8001SOL     OW24901   3.280   6.025   1.999
 8001SOL    HW124902   3.304   6.021   1.902
 8001SOL    HW224903   3.182   6.042   2.009
 8002SOL     OW24904   0.391   3.136   6.260
 8002SOL    HW124905   0.359   3.143   6.355
 8002SOL    HW224906   0.490   3.155   6.257
 8003SOL     OW24907   2.335   4.464   2.611
 8003SOL    HW124908   2.424   4.456   2.566
 8003SOL    HW224909   2.280   4.532   2.564
 8004SOL     OW24910   1.772   4.576   2.814
 8004SOL    HW124911   1.834   4.504   2.845
 8004SOL    HW224912   1.698   4.588   2.881
 8005SOL     OW24913   3.116   1.786   2.391
 8005SOL    HW124914   3.143   1.816   2.483
 8005SOL    HW224915   3.123   1.863   2.328
 8006SOL     OW24916   2.460   6.067   0.982
 8006SOL    HW124917   2.433   6.038   0.890
 8006SOL    HW224918   2.503   6.157   0.977
 8007SOL     OW24919   0.955   6.961   3.888
 8007SOL    HW124920   1.028   7.010   3.841
 8007SOL    HW224921   0.873   7.018   3.891
 8008SOL     OW24922   4.837   6.809   5.881
 8008SOL    HW124923   4.853   6.876   5.953
 8008SOL    HW224924   4.849   6.717   5.918
 8009SOL     OW24925   6.309   0.184   3.258
 8009SOL    HW124926   6.330   0.199   3.355
 8009SOL    HW224927   6.394   0.181   3.206
 8010SOL     OW24928   1.696   1.391   6.651
 8010SOL    HW124929   1.744   1.317   6.601
 8010SOL    HW224930   1.690   1.367   6.747
 8011SOL     OW24931   2.029   2.916   1.337
 8011SOL    HW124932   2.094   2.978   1.380
 8011SOL    HW224933   2.013   2.837   1.398
 8012SOL     OW24934   1.777   5.781   1.335
 8012SOL    HW124935   1.750   5.866   1.291
 8012SOL    HW224936   1.695   5.726   1.354
 8013SOL     OW24937   0.742   5.138   4.658
 8013SOL    HW124938   0.725   5.180   4.747
 8013SOL    HW224939   0.744   5.038   4.668
 8014SOL     OW24940   1.183   6.422   5.420
 8014SOL    HW124941   1.109   6.374   5.467
 8014SOL    HW224942   1.214   6.499   5.476
 8015SOL     OW24943   2.903   1.305   0.397
 8015SOL    HW124944   2.969   1.352   0.338
 8015SOL    HW224945   2.944   1.290   0.486
 8016SOL     OW24946   4.398   6.991   6.549
 8016SOL    HW124947   4.425   6.895   6.560
 8016SOL    HW224948   4.470   0.014   6.498
 8017SOL     OW24949   6.527   4.704   6.065
 8017SOL    HW124950   6.547   4.785   6.119
 8017SOL    HW224951   6.521   4.728   5.968
 8018SOL     OW24952   4.391   2.516   6.194
 8018SOL    HW124953   4.368   2.567   6.276
 8018SOL    HW224954   4.341   2.554   6.116
 8019SOL     OW24955   1.661   3.836   7.008
 8019SOL    HW124956   1.760   3.823   7.008
 8019SOL    HW224957   1.618   3.763   6.955
 8020SOL     OW24958   6.045   6.104   0.454
 8020SOL    HW124959   5.971   6.098   0.388
 8020SOL    HW224960   6.016   6.161   0.532
 8021SOL     OW24961   1.367   1.741   2.331
 8021SOL    HW124962   1.303   1.691   2.390
 8021SOL    HW224963   1.316   1.806   2.274
 8022SOL     OW24964   4.266   0.572   3.143
 8022SOL    HW124965   4.268   0.544   3.047
 8022SOL    HW224966   4.185   0.628   3.159
 8023SOL     OW24967   5.731   5.701   3.599
 8023SOL    HW124968   5.698   5.658   3.683
 8023SOL    HW224969   5.655   5.748   3.554
 8024SOL     OW24970   2.984   4.696   6.913
 8024SOL    HW124971   3.029   4.610   6.888
 8024SOL    HW224972   3.036   4.773   6.875
 8025SOL     OW24973   3.375   6.287   6.100
 8025SOL    HW124974   3.423   6.374   6.108
 8025SOL    HW224975   3.280   6.298   6.127
 8026SOL     OW24976   0.558   3.889   6.729
 8026SOL    HW124977   0.610   3.807   6.707
 8026SOL    HW224978   0.554   3.948   6.648
 8027SOL     OW24979   4.394   2.145   5.701
 8027SOL    HW124980   4.347   2.136   5.789
 8027SOL    HW224981   4.438   2.234   5.696
 8028SOL     OW24982   4.162   4.808   6.084
 8028SOL    HW124983   4.225   4.846   6.151
 8028SOL    HW224984   4.161   4.708   6.092
 8029SOL     OW24985   5.912   3.414   6.599
 8029SOL    HW124986   5.933   3.328   6.646
 8029SOL    HW224987   5.842   3.398   6.529
 8030SOL     OW24988   5.578   3.907   6.013
 8030SOL    HW124989   5.650   3.959   6.058
 8030SOL    HW224990   5.501   3.895   6.075
 8031SOL     OW24991   4.626   5.723   2.765
 8031SOL    HW124992   4.557   5.651   2.760
 8031SOL    HW224993   4.657   5.746   2.673
 8032SOL     OW24994   6.232   4.675   5.415
 8032SOL    HW124995   6.303   4.647   5.479
 8032SOL    HW224996   6.163   4.603   5.408
 8033SOL     OW24997   4.981   3.037   0.342
 8033SOL    HW124998   5.043   3.115   0.343
 8033SOL    HW224999   4.915   3.045   0.417
 8034SOL     OW25000   6.033   1.225   5.369
 8034SOL    HW125001   6.011   1.193   5.460
 8034SOL    HW225002   6.130   1.207   5.350
 8035SOL     OW25003   4.820   0.053   5.348
 8035SOL    HW125004   4.765   0.056   5.432
 8035SOL    HW225005   4.847   0.146   5.322
 8036SOL     OW25006   1.099   3.739   2.184
 8036SOL    HW125007   1.179   3.679   2.175
 8036SOL    HW225008   1.034   3.698   2.247
 8037SOL     OW25009   1.479   3.630   1.650
 8037SOL    HW125010   1.379   3.621   1.651
 8037SOL    HW225011   1.519   3.544   1.618
 8038SOL     OW25012   4.942   1.626   2.396
 8038SOL    HW125013   4.844   1.612   2.410
 8038SOL    HW225014   4.961   1.631   2.298
 8039SOL     OW25015   1.167   6.873   3.443
 8039SOL    HW125016   1.165   6.796   3.507
 8039SOL    HW225017   1.215   6.847   3.360
 8040SOL     OW25018   1.002   5.768   1.091
 8040SOL    HW125019   1.090   5.730   1.061
 8040SOL    HW225020   1.000   5.771   1.191
 8041SOL     OW25021   3.218   1.994   1.983
 8041SOL    HW125022   3.308   2.035   2.002
 8041SOL    HW225023   3.148   2.044   2.033
 8042SOL     OW25024   3.703   2.976   2.675
 8042SOL    HW125025   3.695   3.076   2.674
 8042SOL    HW225026   3.772   2.947   2.609
 8043SOL     OW25027   3.717   6.438   0.597
 8043SOL    HW125028   3.746   6.401   0.509
 8043SOL    HW225029   3.797   6.454   0.655
 8044SOL     OW25030   3.087   3.327   1.111
 8044SOL    HW125031   3.005   3.308   1.165
 8044SOL    HW225032   3.060   3.350   1.017
 8045SOL     OW25033   5.490   1.332   2.174
 8045SOL    HW125034   5.469   1.236   2.159
 8045SOL    HW225035   5.588   1.344   2.185
 8046SOL     OW25036   5.815   4.511   6.327
 8046SOL    HW125037   5.770   4.454   6.260
 8046SOL    HW225038   5.837   4.600   6.286
 8047SOL     OW25039   3.527   4.976   5.125
 8047SOL    HW125040   3.539   4.884   5.163
 8047SOL    HW225041   3.495   4.969   5.030
 8048SOL     OW25042   5.361   1.387   5.523
 8048SOL    HW125043   5.364   1.385   5.423
 8048SOL    HW225044   5.267   1.399   5.554
 8049SOL     OW25045   1.106   6.959   1.773
 8049SOL    HW125046   1.074   7.016   1.849
 8049SOL    HW225047   1.133   7.018   1.696
 8050SOL     OW25048   0.542   4.284   1.424
 8050SOL    HW125049   0.481   4.267   1.347
 8050SOL    HW225050   0.635   4.299   1.391
 8051SOL     OW25051   4.754   7.018   3.080
 8051SOL    HW125052   4.768   0.045   3.164
 8051SOL    HW225053   4.840   7.012   3.030
 8052SOL     OW25054   3.265   1.761   1.813
 8052SOL    HW125055   3.348   1.813   1.791
 8052SOL    HW225056   3.230   1.790   1.902
 8053SOL     OW25057   3.634   3.542   2.723
 8053SOL    HW125058   3.653   3.610   2.794
 8053SOL    HW225059   3.548   3.564   2.678
 8054SOL     OW25060   5.130   6.641   3.845
 8054SOL    HW125061   5.056   6.689   3.892
 8054SOL    HW225062   5.191   6.707   3.800
 8055SOL     OW25063   0.937   0.482   6.093
 8055SOL    HW125064   0.903   0.429   6.171
 8055SOL    HW225065   0.870   0.552   6.069
 8056SOL     OW25066   4.542   1.127   3.363
 8056SOL    HW125067   4.545   1.096   3.457
 8056SOL    HW225068   4.447   1.144   3.336
 8057SOL     OW25069   2.263   1.088   2.123
 8057SOL    HW125070   2.322   1.015   2.158
 8057SOL    HW225071   2.290   1.111   2.030
 8058SOL     OW25072   3.297   0.076   2.949
 8058SOL    HW125073   3.391   0.090   2.982
 8058SOL    HW225074   3.238   0.146   2.988
 8059SOL     OW25075   4.204   2.191   4.943
 8059SOL    HW125076   4.175   2.095   4.943
 8059SOL    HW225077   4.145   2.244   5.002
 8060SOL     OW25078   0.372   1.563   4.325
 8060SOL    HW125079   0.453   1.518   4.362
 8060SOL    HW225080   0.322   1.497   4.268
 8061SOL     OW25081   6.443   6.145   2.045
 8061SOL    HW125082   6.500   6.181   1.971
 8061SOL    HW225083   6.483   6.170   2.133
 8062SOL     OW25084   2.178   4.217   3.734
 8062SOL    HW125085   2.107   4.278   3.698
 8062SOL    HW225086   2.138   4.157   3.803
 8063SOL     OW25087   1.768   3.950   0.672
 8063SOL    HW125088   1.774   3.962   0.771
 8063SOL    HW225089   1.723   4.031   0.632
 8064SOL     OW25090   0.177   4.710   0.918
 8064SOL    HW125091   0.084   4.733   0.891
 8064SOL    HW225092   0.201   4.760   1.001
 8065SOL     OW25093   4.184   6.438   3.698
 8065SOL    HW125094   4.103   6.382   3.717
 8065SOL    HW225095   4.168   6.492   3.615
 8066SOL     OW25096   1.349   1.770   6.600
 8066SOL    HW125097   1.270   1.720   6.565
 8066SOL    HW225098   1.433   1.724   6.571
 8067SOL     OW25099   4.525   3.190   1.469
 8067SOL    HW125100   4.589   3.225   1.538
 8067SOL    HW225101   4.573   3.125   1.410
 8068SOL     OW25102   6.514   5.292   5.898
 8068SOL    HW125103   6.447   5.363   5.918
 8068SOL    HW225104   6.600   5.312   5.944
 8069SOL     OW25105   2.298   5.664   1.654
 8069SOL    HW125106   2.201   5.671   1.630
 8069SOL    HW225107   2.317   5.723   1.732
 8070SOL     OW25108   2.744   4.372   0.687
 8070SOL    HW125109   2.785   4.282   0.673
 8070SOL    HW225110   2.676   4.367   0.760
 8071SOL     OW25111   3.322   6.325   5.102
 8071SOL    HW125112   3.293   6.234   5.072
 8071SOL    HW225113   3.417   6.341   5.076
 8072SOL     OW25114   3.208   0.853   0.655
 8072SOL    HW125115   3.228   0.819   0.563
 8072SOL    HW225116   3.286   0.835   0.714
 8073SOL     OW25117   5.037   6.681   6.934
 8073SOL    HW125118   4.979   6.609   6.895
 8073SOL    HW225119   4.994   6.715   7.018
 8074SOL     OW25120   3.373   2.653   6.947
 8074SOL    HW125121   3.273   2.655   6.948
 8074SOL    HW225122   3.405   2.658   6.853
 8075SOL     OW25123   6.809   1.269   1.570
 8075SOL    HW125124   6.753   1.191   1.597
 8075SOL    HW225125   6.887   1.277   1.632
 8076SOL     OW25126   4.654   3.094   5.559
 8076SOL    HW125127   4.602   3.009   5.565
 8076SOL    HW225128   4.674   3.115   5.463
 8077SOL     OW25129   0.857   6.818   1.769
 8077SOL    HW125130   0.940   6.872   1.755
 8077SOL    HW225131   0.880   6.732   1.814
 8078SOL     OW25132   5.699   1.450   0.886
 8078SOL    HW125133   5.674   1.530   0.940
 8078SOL    HW225134   5.636   1.441   0.809
 8079SOL     OW25135   5.572   2.072   3.406
 8079SOL    HW125136   5.566   1.974   3.424
 8079SOL    HW225137   5.572   2.088   3.308
 8080SOL     OW25138   1.542   3.814   0.873
 8080SOL    HW125139   1.528   3.759   0.955
 8080SOL    HW225140   1.632   3.794   0.834
 8081SOL     OW25141   6.071   0.527   5.466
 8081SOL    HW125142   6.034   0.619   5.480
 8081SOL    HW225143   6.049   0.496   5.374
 8082SOL     OW25144   5.945   1.748   2.120
 8082SOL    HW125145   5.849   1.738   2.146
 8082SOL    HW225146   5.999   1.769   2.201
 8083SOL     OW25147   5.259   3.157   2.141
 8083SOL    HW125148   5.178   3.151   2.084
 8083SOL    HW225149   5.306   3.243   2.124
 8084SOL     OW25150   5.906   6.720   1.453
 8084SOL    HW125151   5.847   6.797   1.477
 8084SOL    HW225152   5.988   6.721   1.510
 8085SOL     OW25153   6.000   0.706   2.472
 8085SOL    HW125154   6.083   0.661   2.505
 8085SOL    HW225155   5.985   0.682   2.376
 8086SOL     OW25156   4.144   0.327   4.427
 8086SOL    HW125157   4.146   0.270   4.345
 8086SOL    HW225158   4.065   0.302   4.484
 8087SOL     OW25159   1.949   1.354   1.114
 8087SOL    HW125160   1.945   1.259   1.142
 8087SOL    HW225161   2.011   1.364   1.036
 8088SOL     OW25162   6.152   1.410   1.833
 8088SOL    HW125163   6.199   1.450   1.755
 8088SOL    HW225164   6.217   1.357   1.888
 8089SOL     OW25165   5.384   1.797   0.251
 8089SOL    HW125166   5.331   1.712   0.242
 8089SOL    HW225167   5.459   1.796   0.185
 8090SOL     OW25168   4.682   1.977   6.290
 8090SOL    HW125169   4.609   1.957   6.355
 8090SOL    HW225170   4.751   1.905   6.293
 8091SOL     OW25171   3.186   3.814   6.410
 8091SOL    HW125172   3.113   3.748   6.392
 8091SOL    HW225173   3.151   3.907   6.399
 8092SOL     OW25174   1.283   1.651   5.036
 8092SOL    HW125175   1.342   1.635   4.957
 8092SOL    HW225176   1.312   1.735   5.082
 8093SOL     OW25177   6.090   5.554   1.680
 8093SOL    HW125178   6.065   5.650   1.684
 8093SOL    HW225179   6.185   5.545   1.651
 8094SOL     OW25180   2.225   4.393   5.348
 8094SOL    HW125181   2.189   4.337   5.273
 8094SOL    HW225182   2.313   4.356   5.378
 8095SOL     OW25183   6.342   3.642   3.745
 8095SOL    HW125184   6.269   3.655   3.678
 8095SOL    HW225185   6.310   3.670   3.836
 8096SOL     OW25186   2.908   5.612   3.721
 8096SOL    HW125187   2.958   5.583   3.639
 8096SOL    HW225188   2.897   5.711   3.720
 8097SOL     OW25189   5.608   0.656   3.977
 8097SOL    HW125190   5.679   0.722   4.001
 8097SOL    HW225191   5.551   0.637   4.057
 8098SOL     OW25192   2.443   6.920   4.528
 8098SOL    HW125193   2.349   6.945   4.551
 8098SOL    HW225194   2.452   6.913   4.429
 8099SOL     OW25195   6.262   0.843   4.241
 8099SOL    HW125196   6.306   0.758   4.269
 8099SOL    HW225197   6.163   0.830   4.238
 8100SOL     OW25198   0.317   0.176   0.357
 8100SOL    HW125199   0.371   0.140   0.280
 8100SOL    HW225200   0.226   0.136   0.355
 8101SOL     OW25201   2.071   0.388   4.539
 8101SOL    HW125202   2.131   0.310   4.558
 8101SOL    HW225203   2.106   0.437   4.459
 8102SOL     OW25204   1.534   5.301   6.465
 8102SOL    HW125205   1.611   5.297   6.527
 8102SOL    HW225206   1.469   5.370   6.496
 8103SOL     OW25207   3.829   1.370   1.322
 8103SOL    HW125208   3.768   1.412   1.389
 8103SOL    HW225209   3.920   1.410   1.330
 8104SOL     OW25210   3.221   6.843   6.256
 8104SOL    HW125211   3.238   6.745   6.249
 8104SOL    HW225212   3.307   6.893   6.247
 8105SOL     OW25213   2.369   2.194   3.425
 8105SOL    HW125214   2.307   2.125   3.461
 8105SOL    HW225215   2.462   2.176   3.457
 8106SOL     OW25216   1.858   5.720   3.140
 8106SOL    HW125217   1.763   5.737   3.165
 8106SOL    HW225218   1.900   5.805   3.107
 8107SOL     OW25219   1.966   6.140   5.876
 8107SOL    HW125220   1.946   6.059   5.820
 8107SOL    HW225221   2.029   6.114   5.950
 8108SOL     OW25222   6.271   2.830   5.010
 8108SOL    HW125223   6.223   2.868   4.931
 8108SOL    HW225224   6.356   2.881   5.024
 8109SOL     OW25225   1.930   3.926   4.535
 8109SOL    HW125226   1.971   4.014   4.510
 8109SOL    HW225227   1.876   3.937   4.618
 8110SOL     OW25228   3.828   6.352   0.350
 8110SOL    HW125229   3.809   6.444   0.316
 8110SOL    HW225230   3.912   6.317   0.308
 8111SOL     OW25231   3.277   0.322   5.969
 8111SOL    HW125232   3.202   0.262   5.940
 8111SOL    HW225233   3.245   0.383   6.041
 8112SOL     OW25234   2.523   1.405   5.845
 8112SOL    HW125235   2.458   1.475   5.874
 8112SOL    HW225236   2.578   1.375   5.924
 8113SOL     OW25237   2.664   2.954   0.116
 8113SOL    HW125238   2.713   2.870   0.091
 8113SOL    HW225239   2.597   2.975   0.045
 8114SOL     OW25240   2.180   2.726   2.131
 8114SOL    HW125241   2.170   2.824   2.116
 8114SOL    HW225242   2.275   2.706   2.157
 8115SOL     OW25243   3.282   1.061   1.308
 8115SOL    HW125244   3.277   1.158   1.288
 8115SOL    HW225245   3.338   1.015   1.239
 8116SOL     OW25246   4.991   0.268   4.930
 8116SOL    HW125247   5.058   0.310   4.992
 8116SOL    HW225248   5.021   0.175   4.908
 8117SOL     OW25249   1.825   1.858   3.755
 8117SOL    HW125250   1.890   1.934   3.757
 8117SOL    HW225251   1.862   1.785   3.698
 8118SOL     OW25252   0.382   3.822   5.623
 8118SOL    HW125253   0.337   3.777   5.546
 8118SOL    HW225254   0.313   3.860   5.685
 8119SOL     OW25255   6.947   6.001   4.815
 8119SOL    HW125256   7.017   5.988   4.745
 8119SOL    HW225257   6.972   5.952   4.898
 8120SOL     OW25258   3.993   3.639   0.062
 8120SOL    HW125259   3.894   3.652   0.064
 8120SOL    HW225260   4.031   3.682   7.005
 8121SOL     OW25261   0.038   6.125   3.057
 8121SOL    HW125262   0.078   6.036   3.078
 8121SOL    HW225263   0.110   6.194   3.054
 8122SOL     OW25264   0.153   4.999   2.423
 8122SOL    HW125265   0.225   4.998   2.492
 8122SOL    HW225266   0.193   4.985   2.333
 8123SOL     OW25267   0.696   0.386   6.740
 8123SOL    HW125268   0.665   0.291   6.751
 8123SOL    HW225269   0.689   0.433   6.828
 8124SOL     OW25270   0.938   7.012   1.539
 8124SOL    HW125271   0.877   6.998   1.462
 8124SOL    HW225272   1.024   6.964   1.523
 8125SOL     OW25273   5.999   4.861   3.234
 8125SOL    HW125274   6.091   4.896   3.248
 8125SOL    HW225275   5.950   4.920   3.169
 8126SOL     OW25276   6.249   4.510   2.024
 8126SOL    HW125277   6.230   4.469   2.113
 8126SOL    HW225278   6.163   4.535   1.980
 8127SOL     OW25279   2.542   5.606   0.605
 8127SOL    HW125280   2.448   5.572   0.600
 8127SOL    HW225281   2.604   5.530   0.626
 8128SOL     OW25282   3.467   2.399   6.734
 8128SOL    HW125283   3.459   2.498   6.716
 8128SOL    HW225284   3.401   2.351   6.677
 8129SOL     OW25285   4.963   0.934   6.455
 8129SOL    HW125286   4.872   0.970   6.477
 8129SOL    HW225287   4.997   0.879   6.531
 8130SOL     OW25288   1.001   5.179   5.746
 8130SOL    HW125289   1.066   5.112   5.781
 8130SOL    HW225290   1.022   5.269   5.785
 8131SOL     OW25291   2.576   0.840   0.768
 8131SOL    HW125292   2.478   0.843   0.750
 8131SOL    HW225293   2.594   0.857   0.864
 8132SOL     OW25294   5.380   6.119   5.817
 8132SOL    HW125295   5.427   6.186   5.760
 8132SOL    HW225296   5.444   6.079   5.882
 8133SOL     OW25297   3.339   4.951   2.285
 8133SOL    HW125298   3.373   5.043   2.264
 8133SOL    HW225299   3.367   4.889   2.212
 8134SOL     OW25300   2.125   1.434   4.188
 8134SOL    HW125301   2.157   1.340   4.196
 8134SOL    HW225302   2.203   1.496   4.191
 8135SOL     OW25303   2.566   4.718   2.237
 8135SOL    HW125304   2.560   4.649   2.165
 8135SOL    HW225305   2.485   4.777   2.235
 8136SOL     OW25306   4.309   5.264   2.849
 8136SOL    HW125307   4.218   5.298   2.873
 8136SOL    HW225308   4.314   5.166   2.869
 8137SOL     OW25309   2.110   2.589   4.108
 8137SOL    HW125310   2.134   2.526   4.034
 8137SOL    HW225311   2.067   2.538   4.183
 8138SOL     OW25312   5.656   1.814   2.173
 8138SOL    HW125313   5.630   1.757   2.095
 8138SOL    HW225314   5.603   1.898   2.171
 8139SOL     OW25315   1.059   2.856   3.506
 8139SOL    HW125316   1.148   2.830   3.469
 8139SOL    HW225317   0.988   2.842   3.437
 8140SOL     OW25318   3.799   0.362   0.425
 8140SOL    HW125319   3.710   0.322   0.401
 8140SOL    HW225320   3.863   0.348   0.350
 8141SOL     OW25321   5.216   0.326   5.071
 8141SOL    HW125322   5.212   0.284   5.161
 8141SOL    HW225323   5.259   0.263   5.006
 8142SOL     OW25324   2.001   5.313   0.736
 8142SOL    HW125325   2.034   5.283   0.826
 8142SOL    HW225326   1.902   5.303   0.732
 8143SOL     OW25327   5.173   5.221   1.363
 8143SOL    HW125328   5.203   5.151   1.428
 8143SOL    HW225329   5.162   5.179   1.273
 8144SOL     OW25330   0.530   5.926   5.466
 8144SOL    HW125331   0.596   5.887   5.401
 8144SOL    HW225332   0.454   5.863   5.478
 8145SOL     OW25333   4.587   4.978   0.438
 8145SOL    HW125334   4.504   5.026   0.413
 8145SOL    HW225335   4.564   4.894   0.487
 8146SOL     OW25336   6.327   0.309   5.381
 8146SOL    HW125337   6.233   0.329   5.408
 8146SOL    HW225338   6.374   0.395   5.359
 8147SOL     OW25339   0.420   0.578   0.349
 8147SOL    HW125340   0.497   0.586   0.286
 8147SOL    HW225341   0.338   0.617   0.307
 8148SOL     OW25342   4.081   4.081   6.464
 8148SOL    HW125343   4.089   4.159   6.527
 8148SOL    HW225344   4.087   3.996   6.515
 8149SOL     OW25345   1.911   6.414   4.544
 8149SOL    HW125346   1.856   6.335   4.520
 8149SOL    HW225347   1.952   6.400   4.634
 8150SOL     OW25348   0.303   3.535   1.227
 8150SOL    HW125349   0.215   3.547   1.273
 8150SOL    HW225350   0.302   3.452   1.172
 8151SOL     OW25351   6.507   5.403   3.441
 8151SOL    HW125352   6.468   5.414   3.350
 8151SOL    HW225353   6.530   5.493   3.479
 8152SOL     OW25354   4.587   2.196   2.842
 8152SOL    HW125355   4.557   2.180   2.936
 8152SOL    HW225356   4.686   2.208   2.840
 8153SOL     OW25357   0.451   0.905   3.603
 8153SOL    HW125358   0.459   0.962   3.522
 8153SOL    HW225359   0.443   0.962   3.685
 8154SOL     OW25360   3.135   1.559   3.125
 8154SOL    HW125361   3.187   1.644   3.114
 8154SOL    HW225362   3.199   1.483   3.138
 8155SOL     OW25363   0.863   4.372   2.388
 8155SOL    HW125364   0.859   4.471   2.402
 8155SOL    HW225365   0.784   4.343   2.334
 8156SOL     OW25366   5.287   6.035   1.584
 8156SOL    HW125367   5.248   6.099   1.650
 8156SOL    HW225368   5.367   6.077   1.540
 8157SOL     OW25369   5.854   3.607   5.956
 8157SOL    HW125370   5.821   3.697   5.926
 8157SOL    HW225371   5.782   3.540   5.946
 8158SOL     OW25372   5.595   5.371   6.474
 8158SOL    HW125373   5.602   5.284   6.523
 8158SOL    HW225374   5.523   5.365   6.405
 8159SOL     OW25375   3.649   6.390   5.815
 8159SOL    HW125376   3.632   6.403   5.717
 8159SOL    HW225377   3.744   6.361   5.829
 8160SOL     OW25378   4.938   0.612   3.912
 8160SOL    HW125379   4.876   0.619   3.991
 8160SOL    HW225380   4.912   0.533   3.856
 8161SOL     OW25381   5.790   3.693   6.720
 8161SOL    HW125382   5.716   3.724   6.660
 8161SOL    HW225383   5.867   3.661   6.665
 8162SOL     OW25384   0.447   5.818   6.940
 8162SOL    HW125385   0.350   5.799   6.956
 8162SOL    HW225386   0.486   5.858   7.023
 8163SOL     OW25387   3.657   5.035   5.627
 8163SOL    HW125388   3.564   5.013   5.596
 8163SOL    HW225389   3.709   4.950   5.636
 8164SOL     OW25390   4.838   0.890   0.031
 8164SOL    HW125391   4.894   0.964   7.021
 8164SOL    HW225392   4.866   0.867   0.125
 8165SOL     OW25393   6.671   4.284   6.829
 8165SOL    HW125394   6.735   4.264   6.903
 8165SOL    HW225395   6.637   4.378   6.839
 8166SOL     OW25396   2.273   1.940   3.789
 8166SOL    HW125397   2.256   1.973   3.696
 8166SOL    HW225398   2.370   1.949   3.811
 8167SOL     OW25399   6.627   0.944   3.649
 8167SOL    HW125400   6.581   0.955   3.738
 8167SOL    HW225401   6.726   0.940   3.664
 8168SOL     OW25402   2.664   0.383   1.491
 8168SOL    HW125403   2.620   0.379   1.580
 8168SOL    HW225404   2.660   0.292   1.448
 8169SOL     OW25405   3.937   1.829   0.351
 8169SOL    HW125406   4.004   1.876   0.409
 8169SOL    HW225407   3.966   1.735   0.336
 8170SOL     OW25408   6.502   4.745   1.402
 8170SOL    HW125409   6.508   4.845   1.407
 8170SOL    HW225410   6.421   4.714   1.453
 8171SOL     OW25411   1.594   1.072   6.398
 8171SOL    HW125412   1.667   1.080   6.465
 8171SOL    HW225413   1.535   0.995   6.422
 8172SOL     OW25414   0.287   2.620   2.007
 8172SOL    HW125415   0.275   2.576   2.096
 8172SOL    HW225416   0.200   2.659   1.977
 8173SOL     OW25417   5.828   2.335   3.141
 8173SOL    HW125418   5.784   2.340   3.231
 8173SOL    HW225419   5.769   2.283   3.078
 8174SOL     OW25420   0.890   6.230   2.667
 8174SOL    HW125421   0.912   6.289   2.745
 8174SOL    HW225422   0.792   6.230   2.652
 8175SOL     OW25423   0.981   2.850   4.322
 8175SOL    HW125424   1.013   2.941   4.296
 8175SOL    HW225425   0.881   2.848   4.319
 8176SOL     OW25426   2.165   4.434   1.112
 8176SOL    HW125427   2.237   4.373   1.145
 8176SOL    HW225428   2.183   4.527   1.144
 8177SOL     OW25429   3.685   0.828   2.629
 8177SOL    HW125430   3.592   0.827   2.664
 8177SOL    HW225431   3.703   0.915   2.583
 8178SOL     OW25432   3.132   6.442   0.941
 8178SOL    HW125433   3.070   6.512   0.976
 8178SOL    HW225434   3.080   6.375   0.888
 8179SOL     OW25435   5.781   1.078   4.387
 8179SOL    HW125436   5.857   1.143   4.391
 8179SOL    HW225437   5.704   1.120   4.339
 8180SOL     OW25438   6.354   0.420   6.971
 8180SOL    HW125439   6.288   0.490   6.998
 8180SOL    HW225440   6.320   0.373   6.889
 8181SOL     OW25441   0.822   0.473   1.065
 8181SOL    HW125442   0.801   0.555   1.011
 8181SOL    HW225443   0.796   0.392   1.013
 8182SOL     OW25444   3.744   3.527   4.657
 8182SOL    HW125445   3.751   3.496   4.562
 8182SOL    HW225446   3.829   3.506   4.705
 8183SOL     OW25447   6.619   1.611   4.674
 8183SOL    HW125448   6.565   1.634   4.754
 8183SOL    HW225449   6.563   1.618   4.592
 8184SOL     OW25450   1.131   6.920   6.991
 8184SOL    HW125451   1.150   6.824   7.013
 8184SOL    HW225452   1.039   6.943   7.021
 8185SOL     OW25453   2.174   0.190   0.472
 8185SOL    HW125454   2.101   0.136   0.514
 8185SOL    HW225455   2.141   0.283   0.456
 8186SOL     OW25456   2.412   4.187   5.376
 8186SOL    HW125457   2.380   4.130   5.451
 8186SOL    HW225458   2.416   4.133   5.292
 8187SOL     OW25459   2.338   1.955   5.074
 8187SOL    HW125460   2.340   1.862   5.112
 8187SOL    HW225461   2.415   1.966   5.010
 8188SOL     OW25462   4.243   1.909   3.811
 8188SOL    HW125463   4.277   1.821   3.779
 8188SOL    HW225464   4.145   1.903   3.830
 8189SOL     OW25465   5.397   5.498   2.585
 8189SOL    HW125466   5.362   5.525   2.495
 8189SOL    HW225467   5.490   5.462   2.575
 8190SOL     OW25468   5.147   4.134   3.804
 8190SOL    HW125469   5.097   4.105   3.885
 8190SOL    HW225470   5.139   4.064   3.733
 8191SOL     OW25471   4.626   5.115   2.714
 8191SOL    HW125472   4.526   5.114   2.721
 8191SOL    HW225473   4.653   5.104   2.619
 8192SOL     OW25474   1.083   5.162   2.205
 8192SOL    HW125475   1.136   5.081   2.181
 8192SOL    HW225476   1.095   5.232   2.134
 8193SOL     OW25477   6.351   5.468   4.633
 8193SOL    HW125478   6.259   5.499   4.606
 8193SOL    HW225479   6.395   5.539   4.688
 8194SOL     OW25480   3.988   0.983   0.975
 8194SOL    HW125481   3.980   0.903   1.035
 8194SOL    HW225482   4.014   1.062   1.030
 8195SOL     OW25483   6.042   0.107   4.075
 8195SOL    HW125484   6.088   0.144   4.156
 8195SOL    HW225485   6.088   0.023   4.047
 8196SOL     OW25486   5.425   6.978   0.031
 8196SOL    HW125487   5.406   0.036   7.003
 8196SOL    HW225488   5.389   6.899   7.007
 8197SOL     OW25489   3.930   1.889   1.403
 8197SOL    HW125490   3.873   1.823   1.454
 8197SOL    HW225491   3.997   1.839   1.349
 8198SOL     OW25492   2.914   6.776   2.537
 8198SOL    HW125493   2.993   6.787   2.477
 8198SOL    HW225494   2.870   6.688   2.519
 8199SOL     OW25495   4.968   3.261   6.017
 8199SOL    HW125496   4.978   3.303   6.108
 8199SOL    HW225497   5.058   3.255   5.973
 8200SOL     OW25498   5.797   4.579   1.951
 8200SOL    HW125499   5.791   4.491   2.000
 8200SOL    HW225500   5.854   4.568   1.870
 8201SOL     OW25501   0.071   0.844   5.002
 8201SOL    HW125502   0.077   0.779   5.077
 8201SOL    HW225503   0.154   0.899   4.998
 8202SOL     OW25504   6.677   5.723   2.840
 8202SOL    HW125505   6.605   5.726   2.770
 8202SOL    HW225506   6.757   5.773   2.808
 8203SOL     OW25507   1.844   2.375   6.851
 8203SOL    HW125508   1.814   2.372   6.946
 8203SOL    HW225509   1.821   2.289   6.805
 8204SOL     OW25510   3.936   4.003   0.637
 8204SOL    HW125511   3.905   4.065   0.566
 8204SOL    HW225512   3.872   4.006   0.714
 8205SOL     OW25513   6.733   3.466   0.120
 8205SOL    HW125514   6.703   3.426   0.206
 8205SOL    HW225515   6.668   3.535   0.090
 8206SOL     OW25516   4.948   1.645   0.185
 8206SOL    HW125517   4.963   1.611   0.278
 8206SOL    HW225518   4.852   1.636   0.162
 8207SOL     OW25519   3.631   3.898   4.310
 8207SOL    HW125520   3.545   3.854   4.284
 8207SOL    HW225521   3.614   3.995   4.329
 8208SOL     OW25522   1.597   0.468   1.017
 8208SOL    HW125523   1.618   0.391   0.957
 8208SOL    HW225524   1.617   0.553   0.970
 8209SOL     OW25525   0.222   0.625   4.742
 8209SOL    HW125526   0.276   0.667   4.815
 8209SOL    HW225527   0.283   0.581   4.676
 8210SOL     OW25528   1.854   2.276   0.084
 8210SOL    HW125529   1.865   2.177   0.073
 8210SOL    HW225530   1.939   2.316   0.118
 8211SOL     OW25531   3.726   3.859   1.337
 8211SOL    HW125532   3.790   3.931   1.363
 8211SOL    HW225533   3.716   3.794   1.412
 8212SOL     OW25534   1.099   2.678   3.126
 8212SOL    HW125535   1.182   2.646   3.171
 8212SOL    HW225536   1.020   2.634   3.168
 8213SOL     OW25537   6.493   5.016   1.378
 8213SOL    HW125538   6.518   5.094   1.436
 8213SOL    HW225539   6.475   5.048   1.285
 8214SOL     OW25540   6.115   4.481   3.750
 8214SOL    HW125541   6.172   4.540   3.806
 8214SOL    HW225542   6.065   4.417   3.808
 8215SOL     OW25543   3.446   5.859   5.326
 8215SOL    HW125544   3.406   5.771   5.350
 8215SOL    HW225545   3.381   5.933   5.348
 8216SOL     OW25546   5.399   5.947   4.203
 8216SOL    HW125547   5.349   6.033   4.203
 8216SOL    HW225548   5.350   5.879   4.257
 8217SOL     OW25549   2.277   4.705   0.363
 8217SOL    HW125550   2.366   4.723   0.405
 8217SOL    HW225551   2.207   4.762   0.405
 8218SOL     OW25552   0.152   0.792   6.744
 8218SOL    HW125553   0.100   0.878   6.741
 8218SOL    HW225554   0.156   0.753   6.652
 8219SOL     OW25555   4.630   1.885   0.190
 8219SOL    HW125556   4.698   1.875   0.118
 8219SOL    HW225557   4.649   1.968   0.243
 8220SOL     OW25558   3.774   3.312   3.271
 8220SOL    HW125559   3.848   3.250   3.241
 8220SOL    HW225560   3.776   3.320   3.370
 8221SOL     OW25561   4.660   6.055   4.628
 8221SOL    HW125562   4.737   6.116   4.647
 8221SOL    HW225563   4.628   6.014   4.713
 8222SOL     OW25564   5.104   1.669   2.167
 8222SOL    HW125565   5.120   1.762   2.136
 8222SOL    HW225566   5.184   1.636   2.216
 8223SOL     OW25567   1.900   3.879   5.945
 8223SOL    HW125568   1.965   3.818   5.991
 8223SOL    HW225569   1.870   3.950   6.010
 8224SOL     OW25570   0.093   2.520   2.755
 8224SOL    HW125571   0.013   2.580   2.753
 8224SOL    HW225572   0.123   2.507   2.850
 8225SOL     OW25573   3.569   0.827   6.938
 8225SOL    HW125574   3.488   0.788   6.895
 8225SOL    HW225575   3.593   0.913   6.892
 8226SOL     OW25576   3.984   6.701   2.229
 8226SOL    HW125577   3.973   6.655   2.141
 8226SOL    HW225578   4.011   6.635   2.298
 8227SOL     OW25579   0.036   2.740   3.527
 8227SOL    HW125580   0.054   2.838   3.527
 8227SOL    HW225581   0.064   2.700   3.614
 8228SOL     OW25582   0.363   2.781   5.609
 8228SOL    HW125583   0.319   2.707   5.558
 8228SOL    HW225584   0.342   2.772   5.706
 8229SOL     OW25585   3.841   4.402   0.654
 8229SOL    HW125586   3.896   4.322   0.632
 8229SOL    HW225587   3.895   4.485   0.640
 8230SOL     OW25588   4.282   6.987   5.287
 8230SOL    HW125589   4.232   6.995   5.200
 8230SOL    HW225590   4.225   6.940   5.354
 8231SOL     OW25591   4.428   5.200   0.639
 8231SOL    HW125592   4.420   5.280   0.579
 8231SOL    HW225593   4.522   5.194   0.673
 8232SOL     OW25594   5.389   1.529   0.814
 8232SOL    HW125595   5.331   1.473   0.874
 8232SOL    HW225596   5.430   1.603   0.867
 8233SOL     OW25597   0.886   6.121   6.478
 8233SOL    HW125598   0.939   6.177   6.414
 8233SOL    HW225599   0.805   6.086   6.431
 8234SOL     OW25600   2.737   3.782   7.015
 8234SOL    HW125601   2.810   3.769   6.947
 8234SOL    HW225602   2.670   3.847   6.980
 8235SOL     OW25603   1.566   3.604   0.535
 8235SOL    HW125604   1.493   3.562   0.481
 8235SOL    HW225605   1.630   3.650   0.474
 8236SOL     OW25606   6.926   4.081   6.630
 8236SOL    HW125607   6.882   4.082   6.540
 8236SOL    HW225608   6.908   4.167   6.677
 8237SOL     OW25609   4.439   6.261   4.636
 8237SOL    HW125610   4.528   6.222   4.609
 8237SOL    HW225611   4.403   6.210   4.714
 8238SOL     OW25612   1.172   4.746   6.749
 8238SOL    HW125613   1.150   4.839   6.718
 8238SOL    HW225614   1.206   4.693   6.671
 8239SOL     OW25615   6.719   1.630   5.103
 8239SOL    HW125616   6.646   1.650   5.169
 8239SOL    HW225617   6.757   1.540   5.121
 8240SOL     OW25618   3.532   4.148   2.908
 8240SOL    HW125619   3.471   4.177   2.982
 8240SOL    HW225620   3.612   4.101   2.947
 8241SOL     OW25621   3.876   6.638   0.270
 8241SOL    HW125622   3.921   6.691   0.197
 8241SOL    HW225623   3.878   6.690   0.355
 8242SOL     OW25624   1.048   4.827   5.826
 8242SOL    HW125625   0.960   4.838   5.873
 8242SOL    HW225626   1.061   4.731   5.802
 8243SOL     OW25627   1.088   2.485   0.368
 8243SOL    HW125628   1.075   2.450   0.461
 8243SOL    HW225629   1.009   2.542   0.342
 8244SOL     OW25630   1.371   0.034   3.912
 8244SOL    HW125631   1.456   0.064   3.869
 8244SOL    HW225632   1.356   6.962   3.894
 8245SOL     OW25633   4.098   1.441   3.011
 8245SOL    HW125634   4.052   1.530   3.011
 8245SOL    HW225635   4.197   1.455   3.008
 8246SOL     OW25636   0.081   3.070   5.919
 8246SOL    HW125637   0.170   3.090   5.960
 8246SOL    HW225638   0.035   2.999   5.972
 8247SOL     OW25639   0.788   6.980   2.178
 8247SOL    HW125640   0.789   6.891   2.225
 8247SOL    HW225641   0.835   0.023   2.235
 8248SOL     OW25642   6.060   5.074   3.842
 8248SOL    HW125643   6.142   5.029   3.807
 8248SOL    HW225644   6.086   5.157   3.891
 8249SOL     OW25645   1.926   2.874   5.133
 8249SOL    HW125646   1.949   2.958   5.085
 8249SOL    HW225647   2.004   2.812   5.131
 8250SOL     OW25648   3.334   4.163   2.487
 8250SOL    HW125649   3.311   4.096   2.558
 8250SOL    HW225650   3.429   4.191   2.497
 8251SOL     OW25651   5.966   3.178   4.073
 8251SOL    HW125652   6.035   3.208   4.139
 8251SOL    HW225653   5.936   3.085   4.097
 8252SOL     OW25654   3.353   2.527   5.964
 8252SOL    HW125655   3.400   2.609   5.929
 8252SOL    HW225656   3.420   2.454   5.977
 8253SOL     OW25657   4.290   4.179   5.352
 8253SOL    HW125658   4.283   4.091   5.399
 8253SOL    HW225659   4.207   4.195   5.298
 8254SOL     OW25660   4.232   4.781   5.049
 8254SOL    HW125661   4.308   4.721   5.022
 8254SOL    HW225662   4.185   4.741   5.128
 8255SOL     OW25663   2.849   6.318   5.050
 8255SOL    HW125664   2.820   6.242   4.991
 8255SOL    HW225665   2.840   6.291   5.145
 8256SOL     OW25666   6.400   0.697   2.405
 8256SOL    HW125667   6.359   0.624   2.350
 8256SOL    HW225668   6.361   0.694   2.497
 8257SOL     OW25669   6.857   3.935   3.502
 8257SOL    HW125670   6.787   3.893   3.444
 8257SOL    HW225671   6.833   4.031   3.518
 8258SOL     OW25672   5.022   1.262   0.921
 8258SOL    HW125673   5.045   1.322   0.844
 8258SOL    HW225674   5.019   1.167   0.890
 8259SOL     OW25675   4.263   1.962   3.344
 8259SOL    HW125676   4.352   1.992   3.311
 8259SOL    HW225677   4.204   2.042   3.357
 8260SOL     OW25678   2.823   6.794   2.015
 8260SOL    HW125679   2.854   6.867   2.076
 8260SOL    HW225680   2.729   6.811   1.987
 8261SOL     OW25681   6.079   1.461   2.379
 8261SOL    HW125682   5.992   1.459   2.428
 8261SOL    HW225683   6.064   1.436   2.284
 8262SOL     OW25684   0.388   2.845   0.587
 8262SOL    HW125685   0.296   2.879   0.567
 8262SOL    HW225686   0.455   2.907   0.548
 8263SOL     OW25687   1.140   2.140   0.536
 8263SOL    HW125688   1.088   2.106   0.457
 8263SOL    HW225689   1.077   2.176   0.604
 8264SOL     OW25690   2.696   6.017   2.827
 8264SOL    HW125691   2.642   5.952   2.881
 8264SOL    HW225692   2.778   6.043   2.879
 8265SOL     OW25693   0.737   6.657   1.020
 8265SOL    HW125694   0.790   6.582   1.060
 8265SOL    HW225695   0.760   6.666   0.924
 8266SOL     OW25696   2.428   1.471   3.984
 8266SOL    HW125697   2.461   1.498   4.074
 8266SOL    HW225698   2.353   1.531   3.956
 8267SOL     OW25699   1.369   2.703   0.795
 8267SOL    HW125700   1.429   2.662   0.863
 8267SOL    HW225701   1.361   2.641   0.716
 8268SOL     OW25702   2.357   6.463   5.849
 8268SOL    HW125703   2.278   6.433   5.795
 8268SOL    HW225704   2.426   6.502   5.788
 8269SOL     OW25705   4.860   1.603   2.040
 8269SOL    HW125706   4.858   1.549   1.956
 8269SOL    HW225707   4.953   1.605   2.076
 8270SOL     OW25708   2.816   6.990   5.073
 8270SOL    HW125709   2.897   0.021   5.089
 8270SOL    HW225710   2.828   6.937   4.989
 8271SOL     OW25711   6.959   0.597   2.611
 8271SOL    HW125712   6.948   0.633   2.519
 8271SOL    HW225713   7.014   0.659   2.666
 8272SOL     OW25714   4.558   1.970   1.513
 8272SOL    HW125715   4.543   1.871   1.522
 8272SOL    HW225716   4.538   2.015   1.601
 8273SOL     OW25717   2.763   6.564   0.825
 8273SOL    HW125718   2.751   6.465   0.814
 8273SOL    HW225719   2.686   6.612   0.784
 8274SOL     OW25720   5.280   5.232   3.106
 8274SOL    HW125721   5.304   5.291   3.029
 8274SOL    HW225722   5.201   5.176   3.082
 8275SOL     OW25723   5.078   1.394   5.556
 8275SOL    HW125724   5.057   1.407   5.459
 8275SOL    HW225725   5.053   1.301   5.583
 8276SOL     OW25726   1.078   2.261   3.475
 8276SOL    HW125727   0.997   2.203   3.478
 8276SOL    HW225728   1.125   2.250   3.387
 8277SOL     OW25729   6.634   0.293   0.982
 8277SOL    HW125730   6.725   0.261   0.955
 8277SOL    HW225731   6.599   0.356   0.913
 8278SOL     OW25732   2.835   2.193   5.342
 8278SOL    HW125733   2.762   2.218   5.279
 8278SOL    HW225734   2.830   2.096   5.363
 8279SOL     OW25735   1.475   0.486   3.946
 8279SOL    HW125736   1.558   0.442   3.979
 8279SOL    HW225737   1.499   0.567   3.892
 8280SOL     OW25738   2.315   3.001   0.350
 8280SOL    HW125739   2.414   2.986   0.346
 8280SOL    HW225740   2.288   3.015   0.445
 8281SOL     OW25741   2.467   4.886   1.615
 8281SOL    HW125742   2.427   4.969   1.655
 8281SOL    HW225743   2.504   4.828   1.688
 8282SOL     OW25744   5.253   3.538   0.099
 8282SOL    HW125745   5.220   3.472   0.031
 8282SOL    HW225746   5.218   3.513   0.189
 8283SOL     OW25747   2.215   5.335   6.941
 8283SOL    HW125748   2.277   5.339   7.019
 8283SOL    HW225749   2.211   5.424   6.897
 8284SOL     OW25750   0.840   3.563   0.922
 8284SOL    HW125751   0.817   3.586   0.828
 8284SOL    HW225752   0.835   3.464   0.935
 8285SOL     OW25753   3.136   3.113   5.008
 8285SOL    HW125754   3.121   3.142   5.102
 8285SOL    HW225755   3.134   3.192   4.948
 8286SOL     OW25756   5.496   3.112   6.376
 8286SOL    HW125757   5.462   3.202   6.404
 8286SOL    HW225758   5.418   3.050   6.362
 8287SOL     OW25759   2.001   5.353   4.369
 8287SOL    HW125760   2.023   5.257   4.349
 8287SOL    HW225761   1.961   5.360   4.460
 8288SOL     OW25762   3.039   1.390   1.430
 8288SOL    HW125763   3.114   1.431   1.378
 8288SOL    HW225764   2.964   1.367   1.368
 8289SOL     OW25765   0.974   5.348   1.013
 8289SOL    HW125766   0.984   5.447   1.007
 8289SOL    HW225767   0.900   5.319   0.952
 8290SOL     OW25768   5.664   1.118   1.078
 8290SOL    HW125769   5.684   1.128   0.981
 8290SOL    HW225770   5.711   1.191   1.129
 8291SOL     OW25771   5.525   6.358   5.712
 8291SOL    HW125772   5.596   6.323   5.651
 8291SOL    HW225773   5.456   6.407   5.659
 8292SOL     OW25774   2.537   6.003   0.024
 8292SOL    HW125775   2.584   5.955   0.098
 8292SOL    HW225776   2.605   6.046   6.990
 8293SOL     OW25777   3.982   6.473   0.019
 8293SOL    HW125778   3.888   6.442   0.006
 8293SOL    HW225779   4.019   6.433   0.103
 8294SOL     OW25780   5.662   4.538   5.139
 8294SOL    HW125781   5.607   4.455   5.135
 8294SOL    HW225782   5.757   4.516   5.119
 8295SOL     OW25783   5.015   5.757   1.585
 8295SOL    HW125784   4.932   5.810   1.601
 8295SOL    HW225785   4.991   5.668   1.547
 8296SOL     OW25786   2.172   5.910   6.041
 8296SOL    HW125787   2.145   5.994   6.088
 8296SOL    HW225788   2.265   5.920   6.006
 8297SOL     OW25789   6.307   2.836   2.255
 8297SOL    HW125790   6.397   2.858   2.294
 8297SOL    HW225791   6.315   2.829   2.155
 8298SOL     OW25792   5.910   1.734   1.259
 8298SOL    HW125793   5.902   1.677   1.177
 8298SOL    HW225794   5.956   1.820   1.235
 8299SOL     OW25795   6.529   2.940   1.808
 8299SOL    HW125796   6.589   2.864   1.787
 8299SOL    HW225797   6.574   3.026   1.785
 8300SOL     OW25798   0.477   6.132   5.098
 8300SOL    HW125799   0.553   6.194   5.077
 8300SOL    HW225800   0.463   6.069   5.021
 8301SOL     OW25801   4.213   1.713   1.982
 8301SOL    HW125802   4.155   1.635   1.959
 8301SOL    HW225803   4.177   1.795   1.939
 8302SOL     OW25804   6.235   5.725   6.704
 8302SOL    HW125805   6.220   5.820   6.730
 8302SOL    HW225806   6.328   5.698   6.730
 8303SOL     OW25807   6.396   0.632   4.359
 8303SOL    HW125808   6.425   0.572   4.285
 8303SOL    HW225809   6.354   0.578   4.432
 8304SOL     OW25810   0.415   3.716   1.082
 8304SOL    HW125811   0.361   3.663   1.147
 8304SOL    HW225812   0.512   3.698   1.097
 8305SOL     OW25813   4.101   5.016   4.211
 8305SOL    HW125814   4.002   5.000   4.209
 8305SOL    HW225815   4.142   4.983   4.126
 8306SOL     OW25816   0.205   2.795   5.822
 8306SOL    HW125817   0.137   2.762   5.756
 8306SOL    HW225818   0.165   2.795   5.914
 8307SOL     OW25819   4.001   5.340   1.461
 8307SOL    HW125820   4.023   5.246   1.436
 8307SOL    HW225821   3.961   5.342   1.553
 8308SOL     OW25822   3.843   5.389   1.100
 8308SOL    HW125823   3.795   5.302   1.113
 8308SOL    HW225824   3.782   5.455   1.057
 8309SOL     OW25825   6.010   5.783   3.767
 8309SOL    HW125826   6.061   5.734   3.837
 8309SOL    HW225827   5.953   5.718   3.716
 8310SOL     OW25828   0.808   4.272   0.495
 8310SOL    HW125829   0.893   4.245   0.540
 8310SOL    HW225830   0.793   4.370   0.507
 8311SOL     OW25831   0.800   1.433   4.727
 8311SOL    HW125832   0.867   1.413   4.655
 8311SOL    HW225833   0.810   1.528   4.756
 8312SOL     OW25834   4.558   6.724   0.500
 8312SOL    HW125835   4.560   6.814   0.544
 8312SOL    HW225836   4.595   6.656   0.563
 8313SOL     OW25837   4.936   0.921   2.360
 8313SOL    HW125838   5.035   0.908   2.360
 8313SOL    HW225839   4.906   0.943   2.267
 8314SOL     OW25840   4.420   0.455   1.153
 8314SOL    HW125841   4.386   0.364   1.127
 8314SOL    HW225842   4.347   0.522   1.143
 8315SOL     OW25843   3.823   3.351   0.974
 8315SOL    HW125844   3.893   3.301   1.024
 8315SOL    HW225845   3.853   3.446   0.960
 8316SOL     OW25846   0.323   2.410   1.815
 8316SOL    HW125847   0.300   2.478   1.885
 8316SOL    HW225848   0.411   2.368   1.837
 8317SOL     OW25849   2.050   2.364   2.811
 8317SOL    HW125850   2.086   2.413   2.732
 8317SOL    HW225851   2.069   2.266   2.801
 8318SOL     OW25852   4.325   1.238   4.835
 8318SOL    HW125853   4.384   1.235   4.755
 8318SOL    HW225854   4.368   1.187   4.910
 8319SOL     OW25855   2.784   1.177   6.755
 8319SOL    HW125856   2.703   1.145   6.707
 8319SOL    HW225857   2.849   1.215   6.689
 8320SOL     OW25858   3.349   3.464   1.769
 8320SOL    HW125859   3.251   3.456   1.751
 8320SOL    HW225860   3.384   3.548   1.729
 8321SOL     OW25861   6.850   0.712   0.317
 8321SOL    HW125862   6.935   0.758   0.344
 8321SOL    HW225863   6.850   0.697   0.218
 8322SOL     OW25864   0.116   0.459   0.420
 8322SOL    HW125865   0.124   0.396   0.343
 8322SOL    HW225866   0.193   0.447   0.482
 8323SOL     OW25867   5.564   5.620   2.355
 8323SOL    HW125868   5.626   5.648   2.282
 8323SOL    HW225869   5.614   5.572   2.426
 8324SOL     OW25870   5.472   0.693   1.703
 8324SOL    HW125871   5.495   0.765   1.638
 8324SOL    HW225872   5.548   0.629   1.711
 8325SOL     OW25873   2.930   3.403   5.394
 8325SOL    HW125874   3.001   3.455   5.441
 8325SOL    HW225875   2.858   3.464   5.363
 8326SOL     OW25876   5.013   3.273   5.391
 8326SOL    HW125877   4.947   3.320   5.332
 8326SOL    HW225878   5.043   3.188   5.348
 8327SOL     OW25879   6.072   1.979   5.857
 8327SOL    HW125880   5.999   2.047   5.852
 8327SOL    HW225881   6.160   2.022   5.833
 8328SOL     OW25882   2.696   4.463   5.542
 8328SOL    HW125883   2.690   4.536   5.473
 8328SOL    HW225884   2.713   4.376   5.497
 8329SOL     OW25885   0.145   3.506   6.375
 8329SOL    HW125886   0.192   3.593   6.359
 8329SOL    HW225887   0.075   3.518   6.445
 8330SOL     OW25888   2.976   6.481   0.483
 8330SOL    HW125889   2.991   6.546   0.557
 8330SOL    HW225890   3.033   6.400   0.498
 8331SOL     OW25891   2.711   1.828   1.337
 8331SOL    HW125892   2.796   1.851   1.291
 8331SOL    HW225893   2.676   1.742   1.301
 8332SOL     OW25894   5.199   5.052   2.543
 8332SOL    HW125895   5.237   4.978   2.488
 8332SOL    HW225896   5.102   5.035   2.561
 8333SOL     OW25897   0.764   6.506   6.466
 8333SOL    HW125898   0.713   6.460   6.538
 8333SOL    HW225899   0.858   6.470   6.463
 8334SOL     OW25900   4.088   1.234   3.683
 8334SOL    HW125901   4.033   1.317   3.679
 8334SOL    HW225902   4.183   1.257   3.706
 8335SOL     OW25903   6.303   5.295   6.125
 8335SOL    HW125904   6.213   5.304   6.167
 8335SOL    HW225905   6.339   5.387   6.105
 8336SOL     OW25906   6.269   0.005   2.710
 8336SOL    HW125907   6.311   6.948   2.750
 8336SOL    HW225908   6.290   0.009   2.613
 8337SOL     OW25909   0.648   5.873   3.190
 8337SOL    HW125910   0.628   5.942   3.121
 8337SOL    HW225911   0.586   5.795   3.178
 8338SOL     OW25912   2.007   5.012   1.890
 8338SOL    HW125913   1.989   4.914   1.884
 8338SOL    HW225914   1.981   5.056   1.803
 8339SOL     OW25915   5.807   0.675   2.031
 8339SOL    HW125916   5.881   0.705   2.091
 8339SOL    HW225917   5.839   0.600   1.973
 8340SOL     OW25918   4.933   3.326   1.691
 8340SOL    HW125919   4.968   3.235   1.672
 8340SOL    HW225920   4.947   3.385   1.611
 8341SOL     OW25921   2.090   6.445   6.434
 8341SOL    HW125922   2.046   6.407   6.352
 8341SOL    HW225923   2.127   6.370   6.489
 8342SOL     OW25924   3.908   0.058   1.616
 8342SOL    HW125925   3.940   0.023   1.528
 8342SOL    HW225926   3.958   0.142   1.638
 8343SOL     OW25927   0.835   5.159   5.973
 8343SOL    HW125928   0.877   5.155   5.882
 8343SOL    HW225929   0.772   5.236   5.977
 8344SOL     OW25930   4.072   0.466   5.285
 8344SOL    HW125931   4.084   0.402   5.361
 8344SOL    HW225932   3.974   0.482   5.271
 8345SOL     OW25933   4.887   1.802   3.611
 8345SOL    HW125934   4.946   1.747   3.552
 8345SOL    HW225935   4.914   1.789   3.706
 8346SOL     OW25936   2.121   4.578   0.647
 8346SOL    HW125937   2.220   4.580   0.658
 8346SOL    HW225938   2.084   4.495   0.689
 8347SOL     OW25939   3.873   5.454   4.774
 8347SOL    HW125940   3.881   5.457   4.873
 8347SOL    HW225941   3.781   5.423   4.749
 8348SOL     OW25942   1.412   6.837   2.223
 8348SOL    HW125943   1.427   6.866   2.128
 8348SOL    HW225944   1.318   6.803   2.232
 8349SOL     OW25945   6.421   6.372   1.662
 8349SOL    HW125946   6.468   6.459   1.670
 8349SOL    HW225947   6.393   6.341   1.753
 8350SOL     OW25948   4.804   0.898   4.563
 8350SOL    HW125949   4.788   0.816   4.617
 8350SOL    HW225950   4.856   0.964   4.617
 8351SOL     OW25951   4.610   5.028   3.910
 8351SOL    HW125952   4.599   4.990   4.002
 8351SOL    HW225953   4.656   4.962   3.851
 8352SOL     OW25954   6.903   5.999   2.869
 8352SOL    HW125955   6.908   6.036   2.776
 8352SOL    HW225956   6.934   6.068   2.934
 8353SOL     OW25957   6.798   3.836   1.211
 8353SOL    HW125958   6.881   3.879   1.246
 8353SOL    HW225959   6.813   3.803   1.118
 8354SOL     OW25960   4.007   0.112   6.986
 8354SOL    HW125961   4.038   0.054   6.911
 8354SOL    HW225962   3.909   0.095   7.002
 8355SOL     OW25963   3.252   0.443   0.113
 8355SOL    HW125964   3.329   0.505   0.122
 8355SOL    HW225965   3.219   0.417   0.204
 8356SOL     OW25966   2.085   6.168   1.012
 8356SOL    HW125967   2.047   6.081   1.044
 8356SOL    HW225968   2.166   6.190   1.065
 8357SOL     OW25969   3.840   0.206   6.014
 8357SOL    HW125970   3.886   0.172   6.096
 8357SOL    HW225971   3.858   0.303   6.003
 8358SOL     OW25972   1.230   3.373   5.802
 8358SOL    HW125973   1.266   3.299   5.857
 8358SOL    HW225974   1.232   3.347   5.705
 8359SOL     OW25975   2.666   6.399   4.769
 8359SOL    HW125976   2.584   6.444   4.805
 8359SOL    HW225977   2.681   6.314   4.819
 8360SOL     OW25978   3.667   5.946   0.963
 8360SOL    HW125979   3.740   5.904   1.017
 8360SOL    HW225980   3.707   6.008   0.896
 8361SOL     OW25981   2.345   0.078   2.846
 8361SOL    HW125982   2.442   0.100   2.861
 8361SOL    HW225983   2.295   0.161   2.822
 8362SOL     OW25984   2.973   1.615   0.910
 8362SOL    HW125985   2.976   1.713   0.929
 8362SOL    HW225986   3.031   1.566   0.975
 8363SOL     OW25987   0.737   2.246   0.036
 8363SOL    HW125988   0.762   2.180   6.991
 8363SOL    HW225989   0.722   2.199   0.123
 8364SOL     OW25990   6.613   3.036   2.657
 8364SOL    HW125991   6.670   3.100   2.709
 8364SOL    HW225992   6.618   2.946   2.698
 8365SOL     OW25993   1.820   4.143   1.635
 8365SOL    HW125994   1.771   4.143   1.548
 8365SOL    HW225995   1.758   4.166   1.709
 8366SOL     OW25996   2.414   5.734   2.301
 8366SOL    HW125997   2.390   5.638   2.313
 8366SOL    HW225998   2.332   5.786   2.277
 8367SOL     OW25999   3.963   6.073   3.917
 8367SOL    HW126000   3.867   6.051   3.934
 8367SOL    HW226001   4.017   6.053   3.999
 8368SOL     OW26002   2.064   6.600   5.959
 8368SOL    HW126003   2.156   6.632   5.937
 8368SOL    HW226004   2.002   6.678   5.966
 8369SOL     OW26005   2.027   6.644   6.662
 8369SOL    HW126006   2.100   6.680   6.721
 8369SOL    HW226007   2.027   6.693   6.575
 8370SOL     OW26008   2.437   2.193   5.639
 8370SOL    HW126009   2.468   2.200   5.544
 8370SOL    HW226010   2.486   2.120   5.685
 8371SOL     OW26011   2.052   4.200   1.334
 8371SOL    HW126012   2.095   4.109   1.332
 8371SOL    HW226013   2.007   4.217   1.247
 8372SOL     OW26014   0.080   5.798   2.337
 8372SOL    HW126015   0.157   5.861   2.353
 8372SOL    HW226016   0.056   5.799   2.240
 8373SOL     OW26017   1.247   0.449   4.087
 8373SOL    HW126018   1.325   0.455   4.025
 8373SOL    HW226019   1.180   0.384   4.051
 8374SOL     OW26020   6.456   0.870   6.105
 8374SOL    HW126021   6.391   0.906   6.039
 8374SOL    HW226022   6.520   0.942   6.132
 8375SOL     OW26023   3.910   0.018   6.349
 8375SOL    HW126024   3.906   7.014   6.444
 8375SOL    HW226025   3.933   6.964   6.291
 8376SOL     OW26026   1.934   0.671   4.046
 8376SOL    HW126027   1.947   0.719   4.132
 8376SOL    HW226028   2.022   0.657   4.002
 8377SOL     OW26029   5.764   5.748   1.294
 8377SOL    HW126030   5.809   5.683   1.355
 8377SOL    HW226031   5.668   5.721   1.281
 8378SOL     OW26032   4.420   5.068   3.030
 8378SOL    HW126033   4.452   5.160   3.051
 8378SOL    HW226034   4.424   5.012   3.113
 8379SOL     OW26035   6.212   2.231   1.193
 8379SOL    HW126036   6.135   2.287   1.162
 8379SOL    HW226037   6.294   2.256   1.141
 8380SOL     OW26038   6.742   1.759   2.673
 8380SOL    HW126039   6.678   1.687   2.645
 8380SOL    HW226040   6.829   1.717   2.698
 8381SOL     OW26041   0.202   3.823   5.406
 8381SOL    HW126042   0.170   3.732   5.380
 8381SOL    HW226043   0.124   3.881   5.427
 8382SOL     OW26044   1.765   0.433   1.862
 8382SOL    HW126045   1.763   0.341   1.899
 8382SOL    HW226046   1.849   0.480   1.891
 8383SOL     OW26047   2.490   0.359   6.154
 8383SOL    HW126048   2.491   0.295   6.077
 8383SOL    HW226049   2.553   0.327   6.225
 8384SOL     OW26050   0.121   0.318   0.176
 8384SOL    HW126051   0.054   0.275   0.115
 8384SOL    HW226052   0.196   0.356   0.122
 8385SOL     OW26053   6.139   2.282   1.462
 8385SOL    HW126054   6.191   2.257   1.380
 8385SOL    HW226055   6.067   2.215   1.477
 8386SOL     OW26056   0.838   4.442   2.028
 8386SOL    HW126057   0.776   4.505   1.981
 8386SOL    HW226058   0.795   4.352   2.035
 8387SOL     OW26059   1.141   1.285   2.028
 8387SOL    HW126060   1.221   1.242   1.987
 8387SOL    HW226061   1.071   1.300   1.958
 8388SOL     OW26062   1.593   6.294   0.313
 8388SOL    HW126063   1.671   6.236   0.287
 8388SOL    HW226064   1.528   6.240   0.367
 8389SOL     OW26065   6.027   3.899   3.016
 8389SOL    HW126066   6.001   3.803   3.026
 8389SOL    HW226067   6.081   3.928   3.095
 8390SOL     OW26068   3.930   1.099   6.173
 8390SOL    HW126069   3.984   1.016   6.184
 8390SOL    HW226070   3.989   1.180   6.179
 8391SOL     OW26071   6.282   5.261   6.941
 8391SOL    HW126072   6.227   5.182   6.967
 8391SOL    HW226073   6.363   5.266   7.001
 8392SOL     OW26074   0.211   3.774   4.016
 8392SOL    HW126075   0.203   3.804   4.111
 8392SOL    HW226076   0.295   3.811   3.976
 8393SOL     OW26077   6.356   0.798   2.107
 8393SOL    HW126078   6.361   0.774   2.204
 8393SOL    HW226079   6.318   0.721   2.056
 8394SOL     OW26080   6.080   2.989   1.436
 8394SOL    HW126081   6.151   2.954   1.498
 8394SOL    HW226082   6.001   3.017   1.490
 8395SOL     OW26083   2.731   6.848   5.639
 8395SOL    HW126084   2.777   6.791   5.570
 8395SOL    HW226085   2.783   6.844   5.725
 8396SOL     OW26086   4.787   4.778   3.423
 8396SOL    HW126087   4.878   4.743   3.445
 8396SOL    HW226088   4.793   4.840   3.345
 8397SOL     OW26089   1.502   1.343   3.067
 8397SOL    HW126090   1.593   1.303   3.054
 8397SOL    HW226091   1.480   1.344   3.164
 8398SOL     OW26092   4.298   2.744   6.009
 8398SOL    HW126093   4.268   2.805   6.082
 8398SOL    HW226094   4.387   2.774   5.974
 8399SOL     OW26095   6.114   6.657   6.565
 8399SOL    HW126096   6.141   6.748   6.537
 8399SOL    HW226097   6.049   6.663   6.641
 8400SOL     OW26098   2.217   2.190   3.948
 8400SOL    HW126099   2.248   2.117   3.887
 8400SOL    HW226100   2.268   2.184   4.034
 8401SOL     OW26101   2.073   1.796   5.111
 8401SOL    HW126102   2.118   1.788   5.200
 8401SOL    HW226103   2.081   1.890   5.078
 8402SOL     OW26104   5.466   1.505   6.249
 8402SOL    HW126105   5.382   1.485   6.299
 8402SOL    HW226106   5.470   1.603   6.228
 8403SOL     OW26107   0.615   3.257   4.143
 8403SOL    HW126108   0.672   3.195   4.197
 8403SOL    HW226109   0.544   3.204   4.097
 8404SOL     OW26110   3.637   0.028   5.986
 8404SOL    HW126111   3.597   0.043   5.896
 8404SOL    HW226112   3.705   0.099   6.005
 8405SOL     OW26113   2.703   1.560   5.293
 8405SOL    HW126114   2.658   1.476   5.264
 8405SOL    HW226115   2.667   1.588   5.382
 8406SOL     OW26116   4.010   0.367   0.252
 8406SOL    HW126117   4.049   0.297   0.192
 8406SOL    HW226118   4.070   0.380   0.331
 8407SOL     OW26119   3.969   6.273   3.744
 8407SOL    HW126120   3.905   6.226   3.683
 8407SOL    HW226121   3.983   6.217   3.826
 8408SOL     OW26122   5.343   4.671   0.988
 8408SOL    HW126123   5.367   4.758   0.944
 8408SOL    HW226124   5.425   4.614   0.997
 8409SOL     OW26125   4.748   2.317   2.537
 8409SOL    HW126126   4.744   2.414   2.559
 8409SOL    HW226127   4.656   2.277   2.548
 8410SOL     OW26128   5.860   1.380   1.842
 8410SOL    HW126129   5.802   1.441   1.789
 8410SOL    HW226130   5.956   1.398   1.821
 8411SOL     OW26131   0.540   5.987   0.839
 8411SOL    HW126132   0.520   6.039   0.756
 8411SOL    HW226133   0.625   6.020   0.879
 8412SOL     OW26134   3.380   2.756   1.102
 8412SOL    HW126135   3.412   2.817   1.175
 8412SOL    HW226136   3.443   2.679   1.092
 8413SOL     OW26137   4.604   5.807   6.332
 8413SOL    HW126138   4.702   5.806   6.310
 8413SOL    HW226139   4.552   5.842   6.255
 8414SOL     OW26140   2.640   0.517   3.530
 8414SOL    HW126141   2.588   0.599   3.506
 8414SOL    HW226142   2.617   0.490   3.623
 8415SOL     OW26143   1.254   6.214   4.344
 8415SOL    HW126144   1.226   6.259   4.259
 8415SOL    HW226145   1.290   6.283   4.408
 8416SOL     OW26146   6.314   1.847   4.325
 8416SOL    HW126147   6.395   1.802   4.361
 8416SOL    HW226148   6.239   1.837   4.391
 8417SOL     OW26149   0.723   3.162   5.508
 8417SOL    HW126150   0.819   3.178   5.485
 8417SOL    HW226151   0.683   3.099   5.442
 8418SOL     OW26152   0.311   5.846   1.632
 8418SOL    HW126153   0.226   5.867   1.584
 8418SOL    HW226154   0.308   5.752   1.666
 8419SOL     OW26155   5.731   0.630   2.535
 8419SOL    HW126156   5.714   0.570   2.456
 8419SOL    HW226157   5.828   0.653   2.538
 8420SOL     OW26158   3.602   6.755   1.613
 8420SOL    HW126159   3.631   6.757   1.517
 8420SOL    HW226160   3.520   6.811   1.623
 8421SOL     OW26161   3.606   4.550   0.245
 8421SOL    HW126162   3.685   4.499   0.278
 8421SOL    HW226163   3.539   4.487   0.207
 8422SOL     OW26164   4.406   1.189   2.346
 8422SOL    HW126165   4.343   1.111   2.341
 8422SOL    HW226166   4.498   1.158   2.323
 8423SOL     OW26167   4.117   4.287   5.915
 8423SOL    HW126168   4.031   4.319   5.954
 8423SOL    HW226169   4.152   4.355   5.850
 8424SOL     OW26170   1.887   2.528   2.476
 8424SOL    HW126171   1.931   2.604   2.428
 8424SOL    HW226172   1.840   2.563   2.557
 8425SOL     OW26173   4.211   3.819   5.180
 8425SOL    HW126174   4.187   3.901   5.128
 8425SOL    HW226175   4.294   3.836   5.233
 8426SOL     OW26176   3.348   3.228   2.810
 8426SOL    HW126177   3.421   3.234   2.879
 8426SOL    HW226178   3.279   3.163   2.841
 8427SOL     OW26179   3.017   3.965   3.697
 8427SOL    HW126180   2.919   3.950   3.710
 8427SOL    HW226181   3.048   3.914   3.617
 8428SOL     OW26182   0.346   6.219   1.748
 8428SOL    HW126183   0.375   6.309   1.719
 8428SOL    HW226184   0.298   6.173   1.673
 8429SOL     OW26185   1.740   5.339   5.542
 8429SOL    HW126186   1.675   5.312   5.471
 8429SOL    HW226187   1.766   5.259   5.596
 8430SOL     OW26188   3.867   4.845   3.832
 8430SOL    HW126189   3.934   4.771   3.842
 8430SOL    HW226190   3.825   4.864   3.920
 8431SOL     OW26191   4.178   3.750   0.277
 8431SOL    HW126192   4.227   3.833   0.252
 8431SOL    HW226193   4.160   3.696   0.195
 8432SOL     OW26194   6.265   5.473   5.592
 8432SOL    HW126195   6.347   5.416   5.591
 8432SOL    HW226196   6.184   5.414   5.596
 8433SOL     OW26197   4.274   2.881   0.720
 8433SOL    HW126198   4.372   2.898   0.730
 8433SOL    HW226199   4.223   2.963   0.748
 8434SOL     OW26200   2.500   6.881   4.249
 8434SOL    HW126201   2.599   6.872   4.257
 8434SOL    HW226202   2.477   6.908   4.156
 8435SOL     OW26203   5.666   0.032   2.432
 8435SOL    HW126204   5.663   0.091   2.513
 8435SOL    HW226205   5.574   0.024   2.394
 8436SOL     OW26206   3.238   6.401   3.855
 8436SOL    HW126207   3.184   6.432   3.776
 8436SOL    HW226208   3.183   6.410   3.938
 8437SOL     OW26209   2.488   2.454   2.559
 8437SOL    HW126210   2.562   2.484   2.500
 8437SOL    HW226211   2.512   2.471   2.655
 8438SOL     OW26212   2.646   4.910   3.001
 8438SOL    HW126213   2.735   4.943   2.970
 8438SOL    HW226214   2.590   4.987   3.032
 8439SOL     OW26215   6.096   4.885   2.492
 8439SOL    HW126216   6.173   4.838   2.535
 8439SOL    HW226217   6.056   4.825   2.422
 8440SOL     OW26218   2.766   2.299   3.113
 8440SOL    HW126219   2.828   2.244   3.056
 8440SOL    HW226220   2.809   2.316   3.202
 8441SOL     OW26221   5.596   6.583   6.328
 8441SOL    HW126222   5.600   6.555   6.423
 8441SOL    HW226223   5.640   6.514   6.270
 8442SOL     OW26224   3.630   1.624   5.029
 8442SOL    HW126225   3.672   1.571   4.956
 8442SOL    HW226226   3.574   1.698   4.990
 8443SOL     OW26227   2.574   4.995   3.582
 8443SOL    HW126228   2.620   5.084   3.581
 8443SOL    HW226229   2.543   4.973   3.489
 8444SOL     OW26230   3.344   7.006   3.778
 8444SOL    HW126231   3.333   6.937   3.850
 8444SOL    HW226232   3.269   6.998   3.713
 8445SOL     OW26233   2.895   0.176   0.953
 8445SOL    HW126234   2.975   0.162   1.011
 8445SOL    HW226235   2.910   0.135   0.863
 8446SOL     OW26236   6.415   4.941   5.368
 8446SOL    HW126237   6.335   4.957   5.426
 8446SOL    HW226238   6.490   4.907   5.424
 8447SOL     OW26239   4.074   1.221   1.493
 8447SOL    HW126240   4.123   1.151   1.442
 8447SOL    HW226241   4.125   1.307   1.489
 8448SOL     OW26242   4.652   6.227   3.433
 8448SOL    HW126243   4.664   6.196   3.527
 8448SOL    HW226244   4.577   6.294   3.430
 8449SOL     OW26245   6.982   3.160   3.371
 8449SOL    HW126246   0.013   3.108   3.435
 8449SOL    HW226247   6.980   3.256   3.399
 8450SOL     OW26248   0.966   0.634   1.294
 8450SOL    HW126249   0.960   0.587   1.382
 8450SOL    HW226250   0.936   0.573   1.221
 8451SOL     OW26251   3.151   0.785   0.237
 8451SOL    HW126252   3.080   0.843   0.196
 8451SOL    HW226253   3.241   0.818   0.208
 8452SOL     OW26254   5.838   3.107   4.518
 8452SOL    HW126255   5.784   3.120   4.435
 8452SOL    HW226256   5.785   3.136   4.598
 8453SOL     OW26257   0.016   5.349   0.471
 8453SOL    HW126258   6.987   5.405   0.534
 8453SOL    HW226259   0.007   5.385   0.378
 8454SOL     OW26260   0.244   4.893   0.692
 8454SOL    HW126261   0.158   4.943   0.680
 8454SOL    HW226262   0.228   4.815   0.753
 8455SOL     OW26263   0.223   1.888   3.033
 8455SOL    HW126264   0.263   1.885   3.125
 8455SOL    HW226265   0.141   1.830   3.031
 8456SOL     OW26266   4.373   6.925   3.408
 8456SOL    HW126267   4.435   6.960   3.338
 8456SOL    HW226268   4.421   6.919   3.495
 8457SOL     OW26269   6.326   5.776   4.621
 8457SOL    HW126270   6.352   5.837   4.696
 8457SOL    HW226271   6.227   5.764   4.621
 8458SOL     OW26272   2.375   0.207   0.289
 8458SOL    HW126273   2.307   0.170   0.353
 8458SOL    HW226274   2.393   0.302   0.311
 8459SOL     OW26275   2.248   5.723   2.896
 8459SOL    HW126276   2.207   5.659   2.961
 8459SOL    HW226277   2.333   5.685   2.861
 8460SOL     OW26278   4.803   4.176   5.217
 8460SOL    HW126279   4.777   4.168   5.314
 8460SOL    HW226280   4.827   4.086   5.181
 8461SOL     OW26281   1.013   2.961   4.771
 8461SOL    HW126282   1.069   2.961   4.688
 8461SOL    HW226283   1.073   2.966   4.851
 8462SOL     OW26284   3.040   1.655   6.686
 8462SOL    HW126285   2.973   1.606   6.743
 8462SOL    HW226286   3.087   1.723   6.742
 8463SOL     OW26287   6.682   6.881   1.808
 8463SOL    HW126288   6.740   6.806   1.778
 8463SOL    HW226289   6.709   6.909   1.901
 8464SOL     OW26290   5.329   4.512   4.252
 8464SOL    HW126291   5.269   4.592   4.250
 8464SOL    HW226292   5.423   4.541   4.268
 8465SOL     OW26293   1.048   2.453   0.632
 8465SOL    HW126294   1.015   2.362   0.659
 8465SOL    HW226295   0.985   2.523   0.666
 8466SOL     OW26296   0.607   6.398   3.651
 8466SOL    HW126297   0.646   6.313   3.687
 8466SOL    HW226298   0.553   6.443   3.723
 8467SOL     OW26299   2.945   5.823   0.618
 8467SOL    HW126300   3.016   5.806   0.687
 8467SOL    HW226301   2.938   5.744   0.558
 8468SOL     OW26302   3.274   1.142   0.733
 8468SOL    HW126303   3.261   1.045   0.755
 8468SOL    HW226304   3.307   1.151   0.639
 8469SOL     OW26305   3.129   2.676   6.673
 8469SOL    HW126306   3.122   2.647   6.769
 8469SOL    HW226307   3.038   2.704   6.641
 8470SOL     OW26308   2.807   3.639   0.888
 8470SOL    HW126309   2.762   3.554   0.914
 8470SOL    HW226310   2.801   3.705   0.962
 8471SOL     OW26311   3.070   1.138   2.949
 8471SOL    HW126312   2.978   1.129   2.911
 8471SOL    HW226313   3.137   1.104   2.882
 8472SOL     OW26314   0.224   0.152   3.654
 8472SOL    HW126315   0.127   0.143   3.676
 8472SOL    HW226316   0.251   0.248   3.663
 8473SOL     OW26317   6.998   5.553   6.716
 8473SOL    HW126318   0.066   5.587   6.711
 8473SOL    HW226319   6.970   5.547   6.812
 8474SOL     OW26320   2.834   3.201   1.888
 8474SOL    HW126321   2.833   3.277   1.822
 8474SOL    HW226322   2.895   3.224   1.964
 8475SOL     OW26323   6.942   1.228   3.210
 8475SOL    HW126324   6.970   1.293   3.140
 8475SOL    HW226325   6.892   1.275   3.282
 8476SOL     OW26326   6.226   1.034   1.679
 8476SOL    HW126327   6.241   1.034   1.778
 8476SOL    HW226328   6.291   0.971   1.635
 8477SOL     OW26329   3.418   6.341   1.230
 8477SOL    HW126330   3.389   6.406   1.159
 8477SOL    HW226331   3.336   6.303   1.274
 8478SOL     OW26332   1.234   0.341   6.327
 8478SOL    HW126333   1.155   0.287   6.355
 8478SOL    HW226334   1.298   0.283   6.276
 8479SOL     OW26335   6.236   1.562   0.555
 8479SOL    HW126336   6.257   1.636   0.618
 8479SOL    HW226337   6.254   1.474   0.599
 8480SOL     OW26338   2.901   0.948   1.247
 8480SOL    HW126339   2.961   0.952   1.327
 8480SOL    HW226340   2.956   0.952   1.164
 8481SOL     OW26341   4.751   1.350   3.834
 8481SOL    HW126342   4.707   1.286   3.897
 8481SOL    HW226343   4.698   1.354   3.749
 8482SOL     OW26344   2.517   0.339   2.246
 8482SOL    HW126345   2.527   0.253   2.296
 8482SOL    HW226346   2.598   0.355   2.191
 8483SOL     OW26347   3.769   6.293   1.851
 8483SOL    HW126348   3.862   6.279   1.884
 8483SOL    HW226349   3.751   6.391   1.844
 8484SOL     OW26350   6.434   4.871   2.955
 8484SOL    HW126351   6.509   4.937   2.953
 8484SOL    HW226352   6.414   4.839   2.862
 8485SOL     OW26353   1.961   3.395   6.528
 8485SOL    HW126354   1.897   3.468   6.552
 8485SOL    HW226355   1.962   3.383   6.429
 8486SOL     OW26356   4.908   1.081   3.097
 8486SOL    HW126357   4.814   1.100   3.068
 8486SOL    HW226358   4.971   1.133   3.039
 8487SOL     OW26359   5.891   0.087   0.709
 8487SOL    HW126360   5.968   0.149   0.726
 8487SOL    HW226361   5.922   0.009   0.656
 8488SOL     OW26362   5.773   5.101   4.742
 8488SOL    HW126363   5.769   5.021   4.803
 8488SOL    HW226364   5.685   5.146   4.740
 8489SOL     OW26365   6.013   6.983   1.579
 8489SOL    HW126366   6.065   6.899   1.567
 8489SOL    HW226367   6.047   0.008   1.659
 8490SOL     OW26368   4.621   6.157   3.712
 8490SOL    HW126369   4.564   6.081   3.743
 8490SOL    HW226370   4.563   6.229   3.674
 8491SOL     OW26371   2.052   0.486   1.655
 8491SOL    HW126372   2.114   0.431   1.711
 8491SOL    HW226373   1.985   0.427   1.611
 8492SOL     OW26374   4.531   3.831   6.086
 8492SOL    HW126375   4.570   3.904   6.143
 8492SOL    HW226376   4.436   3.815   6.114
 8493SOL     OW26377   3.327   1.693   6.594
 8493SOL    HW126378   3.353   1.789   6.604
 8493SOL    HW226379   3.245   1.686   6.536
 8494SOL     OW26380   1.874   4.675   6.610
 8494SOL    HW126381   1.973   4.663   6.620
 8494SOL    HW226382   1.826   4.607   6.665
 8495SOL     OW26383   0.143   3.383   0.484
 8495SOL    HW126384   0.043   3.386   0.486
 8495SOL    HW226385   0.177   3.450   0.418
 8496SOL     OW26386   0.492   1.882   2.606
 8496SOL    HW126387   0.410   1.932   2.578
 8496SOL    HW226388   0.557   1.945   2.649
 8497SOL     OW26389   5.760   6.965   4.095
 8497SOL    HW126390   5.785   7.023   4.016
 8497SOL    HW226391   5.802   7.002   4.177
 8498SOL     OW26392   0.210   6.337   2.139
 8498SOL    HW126393   0.192   6.428   2.100
 8498SOL    HW226394   0.278   6.345   2.212
 8499SOL     OW26395   2.594   5.583   6.562
 8499SOL    HW126396   2.670   5.573   6.627
 8499SOL    HW226397   2.574   5.494   6.521
 8500SOL     OW26398   2.033   0.521   5.779
 8500SOL    HW126399   2.085   0.599   5.812
 8500SOL    HW226400   2.092   0.462   5.724
 8501SOL     OW26401   1.609   2.707   0.469
 8501SOL    HW126402   1.604   2.767   0.548
 8501SOL    HW226403   1.517   2.689   0.435
 8502SOL     OW26404   1.783   4.949   0.593
 8502SOL    HW126405   1.785   5.048   0.607
 8502SOL    HW226406   1.843   4.904   0.659
 8503SOL     OW26407   1.046   5.210   2.798
 8503SOL    HW126408   1.050   5.121   2.752
 8503SOL    HW226409   1.040   5.283   2.729
 8504SOL     OW26410   1.648   6.691   3.769
 8504SOL    HW126411   1.553   6.711   3.747
 8504SOL    HW226412   1.652   6.634   3.851
 8505SOL     OW26413   5.116   3.984   3.572
 8505SOL    HW126414   5.156   3.949   3.487
 8505SOL    HW226415   5.017   3.993   3.561
 8506SOL     OW26416   0.875   0.070   0.578
 8506SOL    HW126417   0.814   7.019   0.558
 8506SOL    HW226418   0.822   0.148   0.612
 8507SOL     OW26419   2.619   0.720   5.358
 8507SOL    HW126420   2.694   0.727   5.424
 8507SOL    HW226421   2.620   0.630   5.314
 8508SOL     OW26422   0.188   2.768   4.751
 8508SOL    HW126423   0.182   2.725   4.661
 8508SOL    HW226424   0.107   2.743   4.805
 8509SOL     OW26425   5.788   1.514   4.096
 8509SOL    HW126426   5.721   1.587   4.109
 8509SOL    HW226427   5.742   1.432   4.062
 8510SOL     OW26428   5.717   4.468   3.191
 8510SOL    HW126429   5.772   4.450   3.273
 8510SOL    HW226430   5.742   4.558   3.154
 8511SOL     OW26431   5.457   3.958   1.731
 8511SOL    HW126432   5.537   4.011   1.704
 8511SOL    HW226433   5.384   4.020   1.758
 8512SOL     OW26434   3.460   2.194   6.951
 8512SOL    HW126435   3.490   2.275   6.900
 8512SOL    HW226436   3.392   2.222   7.019
 8513SOL     OW26437   4.549   4.075   1.453
 8513SOL    HW126438   4.550   4.025   1.540
 8513SOL    HW226439   4.641   4.111   1.435
 8514SOL     OW26440   2.338   2.462   3.456
 8514SOL    HW126441   2.250   2.492   3.493
 8514SOL    HW226442   2.349   2.364   3.473
 8515SOL     OW26443   0.064   1.062   6.828
 8515SOL    HW126444   7.015   0.998   6.805
 8515SOL    HW226445   0.041   1.110   6.912
 8516SOL     OW26446   6.240   2.641   1.703
 8516SOL    HW126447   6.163   2.598   1.655
 8516SOL    HW226448   6.291   2.699   1.639
 8517SOL     OW26449   2.068   2.547   5.704
 8517SOL    HW126450   2.035   2.518   5.615
 8517SOL    HW226451   2.152   2.499   5.727
 8518SOL     OW26452   5.168   4.056   6.188
 8518SOL    HW126453   5.183   4.132   6.126
 8518SOL    HW226454   5.101   3.993   6.148
 8519SOL     OW26455   0.876   5.303   0.559
 8519SOL    HW126456   0.780   5.304   0.531
 8519SOL    HW226457   0.885   5.338   0.652
 8520SOL     OW26458   2.860   2.705   6.591
 8520SOL    HW126459   2.826   2.686   6.499
 8520SOL    HW226460   2.793   2.760   6.641
 8521SOL     OW26461   2.491   5.173   5.569
 8521SOL    HW126462   2.536   5.153   5.481
 8521SOL    HW226463   2.400   5.210   5.552
 8522SOL     OW26464   0.704   0.007   1.407
 8522SOL    HW126465   0.710   0.036   1.503
 8522SOL    HW226466   0.614   0.029   1.372
 8523SOL     OW26467   2.266   6.123   6.838
 8523SOL    HW126468   2.245   6.056   6.909
 8523SOL    HW226469   2.351   6.170   6.860
 8524SOL     OW26470   1.037   3.300   4.690
 8524SOL    HW126471   1.058   3.391   4.654
 8524SOL    HW226472   0.960   3.262   4.640
 8525SOL     OW26473   5.669   4.903   1.873
 8525SOL    HW126474   5.650   4.826   1.811
 8525SOL    HW226475   5.681   4.987   1.819
 8526SOL     OW26476   3.739   6.161   0.798
 8526SOL    HW126477   3.814   6.122   0.745
 8526SOL    HW226478   3.653   6.145   0.749
 8527SOL     OW26479   3.475   0.186   0.109
 8527SOL    HW126480   3.397   0.130   0.080
 8527SOL    HW226481   3.481   0.267   0.050
 8528SOL     OW26482   3.319   1.179   0.447
 8528SOL    HW126483   3.381   1.248   0.409
 8528SOL    HW226484   3.355   1.088   0.427
 8529SOL     OW26485   1.151   0.349   0.737
 8529SOL    HW126486   1.229   0.288   0.723
 8529SOL    HW226487   1.129   0.353   0.834
 8530SOL     OW26488   3.922   3.435   5.046
 8530SOL    HW126489   3.840   3.384   5.074
 8530SOL    HW226490   4.003   3.391   5.084
 8531SOL     OW26491   6.974   5.274   2.806
 8531SOL    HW126492   6.966   5.188   2.857
 8531SOL    HW226493   6.939   5.349   2.861
 8532SOL     OW26494   3.780   5.684   5.021
 8532SOL    HW126495   3.793   5.585   5.016
 8532SOL    HW226496   3.683   5.705   5.016
 8533SOL     OW26497   1.890   6.082   0.319
 8533SOL    HW126498   1.916   6.081   0.222
 8533SOL    HW226499   1.945   6.015   0.369
 8534SOL     OW26500   4.769   2.631   4.086
 8534SOL    HW126501   4.716   2.611   4.003
 8534SOL    HW226502   4.828   2.553   4.107
 8535SOL     OW26503   6.144   1.697   3.427
 8535SOL    HW126504   6.149   1.690   3.526
 8535SOL    HW226505   6.054   1.734   3.400
 8536SOL     OW26506   0.436   1.622   4.823
 8536SOL    HW126507   0.489   1.707   4.821
 8536SOL    HW226508   0.463   1.568   4.902
 8537SOL     OW26509   5.658   1.279   3.345
 8537SOL    HW126510   5.638   1.253   3.250
 8537SOL    HW226511   5.573   1.282   3.398
 8538SOL     OW26512   1.665   1.192   6.954
 8538SOL    HW126513   1.599   1.251   7.001
 8538SOL    HW226514   1.617   1.121   6.903
 8539SOL     OW26515   6.301   1.592   2.278
 8539SOL    HW126516   6.227   1.528   2.297
 8539SOL    HW226517   6.308   1.659   2.352
 8540SOL     OW26518   5.995   0.185   6.252
 8540SOL    HW126519   5.913   0.240   6.244
 8540SOL    HW226520   6.000   0.121   6.176
 8541SOL     OW26521   3.618   2.078   3.817
 8541SOL    HW126522   3.670   2.140   3.876
 8541SOL    HW226523   3.669   2.061   3.733
 8542SOL     OW26524   3.946   4.691   6.451
 8542SOL    HW126525   3.958   4.783   6.490
 8542SOL    HW226526   3.872   4.693   6.384
 8543SOL     OW26527   1.976   1.982   1.497
 8543SOL    HW126528   2.044   1.971   1.569
 8543SOL    HW226529   2.020   1.973   1.407
 8544SOL     OW26530   5.258   3.873   4.264
 8544SOL    HW126531   5.286   3.922   4.346
 8544SOL    HW226532   5.292   3.922   4.183
 8545SOL     OW26533   4.195   0.266   5.869
 8545SOL    HW126534   4.186   0.205   5.948
 8545SOL    HW226535   4.271   0.236   5.812
 8546SOL     OW26536   5.892   1.820   4.275
 8546SOL    HW126537   5.971   1.787   4.224
 8546SOL    HW226538   5.820   1.847   4.212
 8547SOL     OW26539   0.716   6.774   5.870
 8547SOL    HW126540   0.664   6.816   5.795
 8547SOL    HW226541   0.766   6.695   5.836
 8548SOL     OW26542   6.019   2.694   5.374
 8548SOL    HW126543   6.087   2.763   5.399
 8548SOL    HW226544   5.963   2.672   5.453
 8549SOL     OW26545   0.353   3.662   3.716
 8549SOL    HW126546   0.398   3.579   3.749
 8549SOL    HW226547   0.387   3.741   3.768
 8550SOL     OW26548   1.914   4.470   6.278
 8550SOL    HW126549   1.829   4.441   6.234
 8550SOL    HW226550   1.989   4.409   6.250
 8551SOL     OW26551   4.039   3.494   5.942
 8551SOL    HW126552   3.961   3.435   5.920
 8551SOL    HW226553   4.032   3.580   5.891
 8552SOL     OW26554   2.249   6.414   4.183
 8552SOL    HW126555   2.280   6.494   4.234
 8552SOL    HW226556   2.218   6.442   4.092
 8553SOL     OW26557   4.945   5.297   6.148
 8553SOL    HW126558   4.897   5.308   6.061
 8553SOL    HW226559   4.901   5.352   6.219
 8554SOL     OW26560   0.740   4.622   0.013
 8554SOL    HW126561   0.759   4.548   0.078
 8554SOL    HW226562   0.820   4.637   6.980
 8555SOL     OW26563   0.797   0.189   3.086
 8555SOL    HW126564   0.780   0.267   3.026
 8555SOL    HW226565   0.866   0.129   3.045
 8556SOL     OW26566   0.903   6.691   3.867
 8556SOL    HW126567   0.928   6.787   3.877
 8556SOL    HW226568   0.977   6.642   3.821
 8557SOL     OW26569   6.655   1.265   2.036
 8557SOL    HW126570   6.714   1.184   2.032
 8557SOL    HW226571   6.597   1.260   2.117
 8558SOL     OW26572   2.830   5.867   3.476
 8558SOL    HW126573   2.800   5.781   3.434
 8558SOL    HW226574   2.810   5.865   3.574
 8559SOL     OW26575   6.010   0.908   1.985
 8559SOL    HW126576   5.921   0.912   1.939
 8559SOL    HW226577   6.036   1.000   2.014
 8560SOL     OW26578   6.856   0.129   0.931
 8560SOL    HW126579   6.915   0.090   1.002
 8560SOL    HW226580   6.892   0.218   0.904
 8561SOL     OW26581   3.184   6.280   1.700
 8561SOL    HW126582   3.176   6.295   1.602
 8561SOL    HW226583   3.246   6.204   1.718
 8562SOL     OW26584   4.912   6.403   5.094
 8562SOL    HW126585   5.000   6.432   5.132
 8562SOL    HW226586   4.918   6.400   4.994
 8563SOL     OW26587   2.435   3.668   0.134
 8563SOL    HW126588   2.477   3.695   0.046
 8563SOL    HW226589   2.412   3.750   0.186
 8564SOL     OW26590   2.243   1.062   3.760
 8564SOL    HW126591   2.263   1.160   3.757
 8564SOL    HW226592   2.315   1.012   3.711
 8565SOL     OW26593   4.830   6.711   1.840
 8565SOL    HW126594   4.744   6.759   1.820
 8565SOL    HW226595   4.825   6.618   1.803
 8566SOL     OW26596   1.009   0.794   2.338
 8566SOL    HW126597   0.984   0.865   2.273
 8566SOL    HW226598   1.080   0.828   2.399
 8567SOL     OW26599   0.006   2.011   2.017
 8567SOL    HW126600   0.099   2.041   2.037
 8567SOL    HW226601   6.974   2.023   2.097
 8568SOL     OW26602   4.375   0.428   6.059
 8568SOL    HW126603   4.436   0.398   5.986
 8568SOL    HW226604   4.296   0.476   6.020
 8569SOL     OW26605   5.044   1.656   5.707
 8569SOL    HW126606   5.134   1.700   5.701
 8569SOL    HW226607   5.053   1.560   5.680
 8570SOL     OW26608   1.067   2.358   5.910
 8570SOL    HW126609   1.058   2.314   5.820
 8570SOL    HW226610   0.983   2.408   5.931
 8571SOL     OW26611   0.291   5.653   6.056
 8571SOL    HW126612   0.221   5.632   5.989
 8571SOL    HW226613   0.348   5.572   6.072
 8572SOL     OW26614   3.187   5.232   6.679
 8572SOL    HW126615   3.101   5.198   6.716
 8572SOL    HW226616   3.175   5.257   6.583
 8573SOL     OW26617   3.460   6.254   6.561
 8573SOL    HW126618   3.489   6.206   6.644
 8573SOL    HW226619   3.539   6.265   6.500
 8574SOL     OW26620   6.760   5.182   5.596
 8574SOL    HW126621   6.735   5.156   5.503
 8574SOL    HW226622   6.836   5.126   5.628
 8575SOL     OW26623   3.706   2.281   6.598
 8575SOL    HW126624   3.761   2.311   6.521
 8575SOL    HW226625   3.633   2.347   6.616
 8576SOL     OW26626   0.902   6.776   1.280
 8576SOL    HW126627   0.981   6.714   1.276
 8576SOL    HW226628   0.847   6.754   1.361
 8577SOL     OW26629   6.260   5.176   4.173
 8577SOL    HW126630   6.222   5.103   4.230
 8577SOL    HW226631   6.360   5.166   4.170
 8578SOL     OW26632   5.165   0.812   4.832
 8578SOL    HW126633   5.137   0.743   4.765
 8578SOL    HW226634   5.147   0.903   4.795
 8579SOL     OW26635   1.505   6.437   3.801
 8579SOL    HW126636   1.562   6.388   3.735
 8579SOL    HW226637   1.564   6.488   3.864
 8580SOL     OW26638   2.351   6.925   2.163
 8580SOL    HW126639   2.319   6.937   2.257
 8580SOL    HW226640   2.297   6.982   2.102
 8581SOL     OW26641   3.477   2.799   1.730
 8581SOL    HW126642   3.545   2.730   1.754
 8581SOL    HW226643   3.458   2.857   1.809
 8582SOL     OW26644   4.269   4.700   1.865
 8582SOL    HW126645   4.329   4.779   1.852
 8582SOL    HW226646   4.212   4.687   1.784
 8583SOL     OW26647   5.944   0.981   5.937
 8583SOL    HW126648   5.883   0.947   6.009
 8583SOL    HW226649   5.971   1.075   5.958
 8584SOL     OW26650   0.524   3.850   6.184
 8584SOL    HW126651   0.554   3.929   6.132
 8584SOL    HW226652   0.560   3.767   6.143
 8585SOL     OW26653   6.777   6.699   6.773
 8585SOL    HW126654   6.801   6.636   6.700
 8585SOL    HW226655   6.847   6.696   6.845
 8586SOL     OW26656   2.578   6.732   3.821
 8586SOL    HW126657   2.668   6.689   3.822
 8586SOL    HW226658   2.565   6.782   3.736
 8587SOL     OW26659   1.501   0.071   3.088
 8587SOL    HW126660   1.507   0.135   3.011
 8587SOL    HW226661   1.549   7.012   3.065
 8588SOL     OW26662   2.759   0.459   6.828
 8588SOL    HW126663   2.733   0.456   6.731
 8588SOL    HW226664   2.819   0.537   6.844
 8589SOL     OW26665   4.538   2.541   4.304
 8589SOL    HW126666   4.452   2.502   4.337
 8589SOL    HW226667   4.597   2.563   4.381
 8590SOL     OW26668   6.735   5.887   4.525
 8590SOL    HW126669   6.721   5.836   4.610
 8590SOL    HW226670   6.672   5.964   4.521
 8591SOL     OW26671   0.898   5.491   6.106
 8591SOL    HW126672   0.837   5.478   6.028
 8591SOL    HW226673   0.887   5.414   6.169
 8592SOL     OW26674   6.392   4.264   0.357
 8592SOL    HW126675   6.463   4.254   0.287
 8592SOL    HW226676   6.432   4.302   0.440
 8593SOL     OW26677   1.180   6.831   2.700
 8593SOL    HW126678   1.131   6.748   2.724
 8593SOL    HW226679   1.123   6.888   2.641
 8594SOL     OW26680   3.472   3.616   5.412
 8594SOL    HW126681   3.568   3.588   5.405
 8594SOL    HW226682   3.460   3.705   5.368
 8595SOL     OW26683   2.281   1.414   2.555
 8595SOL    HW126684   2.380   1.419   2.559
 8595SOL    HW226685   2.251   1.318   2.561
 8596SOL     OW26686   5.864   5.452   2.355
 8596SOL    HW126687   5.886   5.358   2.382
 8596SOL    HW226688   5.947   5.501   2.332
 8597SOL     OW26689   4.012   2.484   1.265
 8597SOL    HW126690   3.961   2.489   1.351
 8597SOL    HW226691   3.985   2.403   1.214
 8598SOL     OW26692   0.480   5.395   1.388
 8598SOL    HW126693   0.389   5.427   1.361
 8598SOL    HW226694   0.537   5.473   1.411
 8599SOL     OW26695   1.068   3.109   4.020
 8599SOL    HW126696   1.112   3.042   3.961
 8599SOL    HW226697   1.133   3.141   4.089
 8600SOL     OW26698   5.351   4.906   6.570
 8600SOL    HW126699   5.285   4.930   6.641
 8600SOL    HW226700   5.377   4.810   6.580
 8601SOL     OW26701   0.923   0.563   4.852
 8601SOL    HW126702   0.890   0.554   4.946
 8601SOL    HW226703   0.883   0.645   4.810
 8602SOL     OW26704   2.389   6.477   2.722
 8602SOL    HW126705   2.312   6.445   2.777
 8602SOL    HW226706   2.371   6.570   2.690
 8603SOL     OW26707   3.486   4.319   0.129
 8603SOL    HW126708   3.409   4.290   0.071
 8603SOL    HW226709   3.486   4.265   0.213
 8604SOL     OW26710   6.591   2.875   3.096
 8604SOL    HW126711   6.576   2.973   3.109
 8604SOL    HW226712   6.592   2.854   2.998
 8605SOL     OW26713   3.297   4.910   4.545
 8605SOL    HW126714   3.215   4.866   4.583
 8605SOL    HW226715   3.278   4.943   4.453
 8606SOL     OW26716   2.306   4.741   5.516
 8606SOL    HW126717   2.306   4.674   5.442
 8606SOL    HW226718   2.253   4.706   5.593
 8607SOL     OW26719   2.786   4.767   0.948
 8607SOL    HW126720   2.749   4.790   0.858
 8607SOL    HW226721   2.879   4.802   0.957
 8608SOL     OW26722   4.478   5.297   3.174
 8608SOL    HW126723   4.436   5.359   3.240
 8608SOL    HW226724   4.577   5.295   3.187
 8609SOL     OW26725   4.538   0.490   4.212
 8609SOL    HW126726   4.470   0.514   4.143
 8609SOL    HW226727   4.504   0.416   4.270
 8610SOL     OW26728   1.107   0.584   2.728
 8610SOL    HW126729   1.019   0.628   2.712
 8610SOL    HW226730   1.166   0.596   2.649
 8611SOL     OW26731   1.691   2.570   3.796
 8611SOL    HW126732   1.737   2.625   3.867
 8611SOL    HW226733   1.697   2.618   3.709
 8612SOL     OW26734   3.013   3.159   0.144
 8612SOL    HW126735   2.999   3.125   0.237
 8612SOL    HW226736   2.925   3.173   0.100
 8613SOL     OW26737   2.321   1.946   1.474
 8613SOL    HW126738   2.281   1.939   1.566
 8613SOL    HW226739   2.249   1.943   1.406
 8614SOL     OW26740   0.927   3.321   3.140
 8614SOL    HW126741   1.026   3.320   3.150
 8614SOL    HW226742   0.902   3.287   3.050
 8615SOL     OW26743   5.045   1.842   4.988
 8615SOL    HW126744   4.956   1.871   5.024
 8615SOL    HW226745   5.113   1.914   5.006
 8616SOL     OW26746   1.545   5.375   1.204
 8616SOL    HW126747   1.515   5.454   1.257
 8616SOL    HW226748   1.608   5.320   1.260
 8617SOL     OW26749   5.881   1.484   0.516
 8617SOL    HW126750   5.939   1.422   0.463
 8617SOL    HW226751   5.925   1.573   0.524
 8618SOL     OW26752   5.191   6.748   1.148
 8618SOL    HW126753   5.143   6.793   1.072
 8618SOL    HW226754   5.267   6.805   1.178
 8619SOL     OW26755   3.363   5.102   1.330
 8619SOL    HW126756   3.294   5.132   1.396
 8619SOL    HW226757   3.424   5.036   1.373
 8620SOL     OW26758   6.552   6.941   3.334
 8620SOL    HW126759   6.621   7.011   3.350
 8620SOL    HW226760   6.461   6.979   3.351
 8621SOL     OW26761   5.871   2.042   3.445
 8621SOL    HW126762   5.906   2.108   3.511
 8621SOL    HW226763   5.772   2.032   3.457
 8622SOL     OW26764   4.623   4.720   0.599
 8622SOL    HW126765   4.723   4.728   0.601
 8622SOL    HW226766   4.595   4.675   0.514
 8623SOL     OW26767   0.187   4.306   2.776
 8623SOL    HW126768   0.215   4.230   2.718
 8623SOL    HW226769   0.150   4.270   2.862
 8624SOL     OW26770   1.140   4.391   3.802
 8624SOL    HW126771   1.070   4.455   3.834
 8624SOL    HW226772   1.137   4.387   3.702
 8625SOL     OW26773   4.749   0.698   4.780
 8625SOL    HW126774   4.663   0.687   4.830
 8625SOL    HW226775   4.822   0.721   4.844
 8626SOL     OW26776   3.353   2.962   4.561
 8626SOL    HW126777   3.256   2.954   4.541
 8626SOL    HW226778   3.367   2.961   4.660
 8627SOL     OW26779   1.123   0.296   2.744
 8627SOL    HW126780   1.151   0.230   2.813
 8627SOL    HW226781   1.163   0.385   2.765
 8628SOL     OW26782   6.366   6.697   1.884
 8628SOL    HW126783   6.421   6.766   1.837
 8628SOL    HW226784   6.269   6.713   1.865
 8629SOL     OW26785   1.637   5.521   4.529
 8629SOL    HW126786   1.633   5.486   4.623
 8629SOL    HW226787   1.632   5.444   4.465
 8630SOL     OW26788   5.929   3.929   4.472
 8630SOL    HW126789   5.864   3.895   4.404
 8630SOL    HW226790   5.981   4.005   4.432
 8631SOL     OW26791   3.679   5.568   6.582
 8631SOL    HW126792   3.767   5.539   6.545
 8631SOL    HW226793   3.605   5.525   6.530
 8632SOL     OW26794   3.744   6.412   3.519
 8632SOL    HW126795   3.825   6.458   3.557
 8632SOL    HW226796   3.669   6.478   3.512
 8633SOL     OW26797   5.493   0.947   4.784
 8633SOL    HW126798   5.581   0.905   4.765
 8633SOL    HW226799   5.455   0.984   4.699
 8634SOL     OW26800   6.223   3.021   0.854
 8634SOL    HW126801   6.132   3.017   0.893
 8634SOL    HW226802   6.240   3.112   0.815
 8635SOL     OW26803   5.647   3.760   5.799
 8635SOL    HW126804   5.567   3.703   5.782
 8635SOL    HW226805   5.636   3.807   5.887
 8636SOL     OW26806   5.520   5.216   6.926
 8636SOL    HW126807   5.489   5.275   6.852
 8636SOL    HW226808   5.576   5.142   6.888
 8637SOL     OW26809   2.121   0.656   0.324
 8637SOL    HW126810   2.152   0.739   0.369
 8637SOL    HW226811   2.037   0.674   0.273
 8638SOL     OW26812   1.783   3.235   0.073
 8638SOL    HW126813   1.700   3.218   0.126
 8638SOL    HW226814   1.779   3.326   0.033
 8639SOL     OW26815   6.077   2.718   1.920
 8639SOL    HW126816   6.108   2.660   1.845
 8639SOL    HW226817   5.986   2.753   1.900
 8640SOL     OW26818   4.784   3.955   0.505
 8640SOL    HW126819   4.819   3.908   0.423
 8640SOL    HW226820   4.822   3.913   0.587
 8641SOL     OW26821   6.962   4.215   4.795
 8641SOL    HW126822   6.871   4.246   4.824
 8641SOL    HW226823   6.979   4.244   4.701
 8642SOL     OW26824   4.465   0.490   2.755
 8642SOL    HW126825   4.461   0.413   2.691
 8642SOL    HW226826   4.560   0.520   2.766
 8643SOL     OW26827   4.561   0.130   6.844
 8643SOL    HW126828   4.477   0.112   6.793
 8643SOL    HW226829   4.541   0.190   6.921
 8644SOL     OW26830   4.512   2.447   5.850
 8644SOL    HW126831   4.574   2.427   5.775
 8644SOL    HW226832   4.563   2.453   5.935
 8645SOL     OW26833   5.153   4.647   1.614
 8645SOL    HW126834   5.197   4.565   1.580
 8645SOL    HW226835   5.173   4.724   1.554
 8646SOL     OW26836   6.252   1.394   1.347
 8646SOL    HW126837   6.174   1.418   1.405
 8646SOL    HW226838   6.258   1.294   1.338
 8647SOL     OW26839   3.350   4.755   6.535
 8647SOL    HW126840   3.429   4.813   6.553
 8647SOL    HW226841   3.278   4.808   6.490
 8648SOL     OW26842   5.869   1.181   4.819
 8648SOL    HW126843   5.783   1.174   4.870
 8648SOL    HW226844   5.869   1.266   4.767
 8649SOL     OW26845   5.840   5.250   5.923
 8649SOL    HW126846   5.822   5.321   5.991
 8649SOL    HW226847   5.754   5.203   5.900
 8650SOL     OW26848   1.857   4.360   4.599
 8650SOL    HW126849   1.906   4.339   4.514
 8650SOL    HW226850   1.769   4.312   4.599
 8651SOL     OW26851   3.635   0.598   0.427
 8651SOL    HW126852   3.726   0.557   0.423
 8651SOL    HW226853   3.597   0.585   0.518
 8652SOL     OW26854   1.303   3.819   2.709
 8652SOL    HW126855   1.384   3.876   2.725
 8652SOL    HW226856   1.222   3.865   2.745
 8653SOL     OW26857   5.787   2.042   5.868
 8653SOL    HW126858   5.794   2.128   5.818
 8653SOL    HW226859   5.781   1.966   5.804
 8654SOL     OW26860   1.524   6.191   1.987
 8654SOL    HW126861   1.473   6.276   2.004
 8654SOL    HW226862   1.529   6.175   1.889
 8655SOL     OW26863   5.861   0.871   3.907
 8655SOL    HW126864   5.826   0.855   3.815
 8655SOL    HW226865   5.958   0.844   3.911
 8656SOL     OW26866   6.835   1.086   0.826
 8656SOL    HW126867   6.890   1.004   0.809
 8656SOL    HW226868   6.828   1.101   0.924
 8657SOL     OW26869   4.392   4.409   0.160
 8657SOL    HW126870   4.460   4.336   0.160
 8657SOL    HW226871   4.437   4.496   0.137
 8658SOL     OW26872   5.213   5.810   0.321
 8658SOL    HW126873   5.159   5.885   0.282
 8658SOL    HW226874   5.310   5.833   0.317
 8659SOL     OW26875   4.261   1.058   3.283
 8659SOL    HW126876   4.179   1.042   3.337
 8659SOL    HW226877   4.313   0.972   3.276
 8660SOL     OW26878   5.258   3.494   0.857
 8660SOL    HW126879   5.285   3.436   0.934
 8660SOL    HW226880   5.174   3.542   0.880
 8661SOL     OW26881   5.394   4.137   0.824
 8661SOL    HW126882   5.475   4.081   0.841
 8661SOL    HW226883   5.356   4.168   0.912
 8662SOL     OW26884   5.086   6.184   1.725
 8662SOL    HW126885   4.993   6.149   1.712
 8662SOL    HW226886   5.101   6.262   1.666
 8663SOL     OW26887   2.456   5.800   1.099
 8663SOL    HW126888   2.464   5.897   1.079
 8663SOL    HW226889   2.427   5.787   1.194
 8664SOL     OW26890   3.670   5.622   1.005
 8664SOL    HW126891   3.609   5.687   0.959
 8664SOL    HW226892   3.732   5.672   1.066
 8665SOL     OW26893   5.750   5.788   5.316
 8665SOL    HW126894   5.770   5.875   5.271
 8665SOL    HW226895   5.689   5.734   5.258
 8666SOL     OW26896   5.803   1.996   5.126
 8666SOL    HW126897   5.769   2.086   5.098
 8666SOL    HW226898   5.762   1.970   5.214
 8667SOL     OW26899   4.463   2.432   2.770
 8667SOL    HW126900   4.522   2.352   2.760
 8667SOL    HW226901   4.505   2.510   2.724
 8668SOL     OW26902   5.227   3.250   3.049
 8668SOL    HW126903   5.162   3.186   3.088
 8668SOL    HW226904   5.183   3.303   2.977
 8669SOL     OW26905   2.497   6.560   6.706
 8669SOL    HW126906   2.428   6.595   6.642
 8669SOL    HW226907   2.453   6.508   6.778
 8670SOL     OW26908   3.643   4.316   5.890
 8670SOL    HW126909   3.609   4.360   5.974
 8670SOL    HW226910   3.597   4.228   5.877
 8671SOL     OW26911   5.941   1.827   3.290
 8671SOL    HW126912   5.881   1.754   3.323
 8671SOL    HW226913   5.907   1.915   3.323
 8672SOL     OW26914   2.357   5.467   3.581
 8672SOL    HW126915   2.437   5.515   3.617
 8672SOL    HW226916   2.342   5.383   3.633
 8673SOL     OW26917   6.766   1.551   6.716
 8673SOL    HW126918   6.669   1.577   6.718
 8673SOL    HW226919   6.802   1.565   6.624
 8674SOL     OW26920   6.734   5.824   1.504
 8674SOL    HW126921   6.645   5.827   1.550
 8674SOL    HW226922   6.766   5.729   1.500
 8675SOL     OW26923   3.787   1.873   4.752
 8675SOL    HW126924   3.767   1.786   4.796
 8675SOL    HW226925   3.704   1.929   4.750
 8676SOL     OW26926   4.046   6.580   3.225
 8676SOL    HW126927   3.949   6.558   3.227
 8676SOL    HW226928   4.083   6.563   3.134
 8677SOL     OW26929   2.434   6.346   5.146
 8677SOL    HW126930   2.489   6.418   5.103
 8677SOL    HW226931   2.339   6.376   5.152
 8678SOL     OW26932   6.914   0.372   0.858
 8678SOL    HW126933   6.862   0.442   0.809
 8678SOL    HW226934   7.002   0.358   0.812
 8679SOL     OW26935   6.422   3.352   4.649
 8679SOL    HW126936   6.381   3.427   4.700
 8679SOL    HW226937   6.508   3.325   4.691
 8680SOL     OW26938   0.661   3.990   1.530
 8680SOL    HW126939   0.650   3.909   1.472
 8680SOL    HW226940   0.602   4.063   1.496
 8681SOL     OW26941   4.729   5.057   0.213
 8681SOL    HW126942   4.729   5.156   0.223
 8681SOL    HW226943   4.708   5.014   0.301
 8682SOL     OW26944   4.172   6.521   1.982
 8682SOL    HW126945   4.192   6.465   1.902
 8682SOL    HW226946   4.140   6.462   2.057
 8683SOL     OW26947   1.425   2.660   2.082
 8683SOL    HW126948   1.503   2.721   2.094
 8683SOL    HW226949   1.456   2.565   2.090
 8684SOL     OW26950   0.806   2.789   4.833
 8684SOL    HW126951   0.881   2.843   4.795
 8684SOL    HW226952   0.732   2.784   4.766
 8685SOL     OW26953   1.499   2.479   5.606
 8685SOL    HW126954   1.415   2.526   5.633
 8685SOL    HW226955   1.486   2.434   5.517
 8686SOL     OW26956   6.920   1.073   1.382
 8686SOL    HW126957   7.003   1.054   1.331
 8686SOL    HW226958   6.904   1.172   1.385
 8687SOL     OW26959   3.662   5.742   2.535
 8687SOL    HW126960   3.593   5.761   2.605
 8687SOL    HW226961   3.694   5.648   2.544
 8688SOL     OW26962   3.172   6.238   0.222
 8688SOL    HW126963   3.169   6.138   0.216
 8688SOL    HW226964   3.104   6.277   0.160
 8689SOL     OW26965   3.857   4.871   0.307
 8689SOL    HW126966   3.798   4.914   0.376
 8689SOL    HW226967   3.906   4.942   0.257
 8690SOL     OW26968   1.654   2.620   3.305
 8690SOL    HW126969   1.618   2.540   3.354
 8690SOL    HW226970   1.754   2.619   3.307
 8691SOL     OW26971   4.237   2.521   6.506
 8691SOL    HW126972   4.217   2.434   6.551
 8691SOL    HW226973   4.160   2.584   6.519
 8692SOL     OW26974   4.030   2.247   2.541
 8692SOL    HW126975   4.037   2.166   2.483
 8692SOL    HW226976   4.117   2.261   2.589
 8693SOL     OW26977   5.639   1.617   1.222
 8693SOL    HW126978   5.687   1.691   1.269
 8693SOL    HW226979   5.613   1.546   1.288
 8694SOL     OW26980   4.183   1.535   5.385
 8694SOL    HW126981   4.186   1.442   5.422
 8694SOL    HW226982   4.220   1.535   5.293
 8695SOL     OW26983   4.708   3.144   6.057
 8695SOL    HW126984   4.659   3.163   5.972
 8695SOL    HW226985   4.806   3.137   6.037
 8696SOL     OW26986   2.905   5.620   0.434
 8696SOL    HW126987   2.806   5.616   0.419
 8696SOL    HW226988   2.939   5.529   0.458
 8697SOL     OW26989   6.235   3.535   0.603
 8697SOL    HW126990   6.323   3.545   0.556
 8697SOL    HW226991   6.194   3.624   0.616
 8698SOL     OW26992   6.158   5.641   3.955
 8698SOL    HW126993   6.195   5.579   3.885
 8698SOL    HW226994   6.150   5.592   4.042
 8699SOL     OW26995   1.556   2.761   5.726
 8699SOL    HW126996   1.578   2.776   5.822
 8699SOL    HW226997   1.534   2.665   5.711
 8700SOL     OW26998   1.686   1.287   4.814
 8700SOL    HW126999   1.756   1.351   4.847
 8700SOL    HW227000   1.687   1.284   4.714
 8701SOL     OW27001   1.593   0.575   6.798
 8701SOL    HW127002   1.550   0.626   6.723
 8701SOL    HW227003   1.663   0.514   6.761
 8702SOL     OW27004   5.427   5.058   0.161
 8702SOL    HW127005   5.444   5.125   0.090
 8702SOL    HW227006   5.370   5.098   0.233
 8703SOL     OW27007   2.674   5.246   1.197
 8703SOL    HW127008   2.662   5.342   1.221
 8703SOL    HW227009   2.705   5.239   1.102
 8704SOL     OW27010   6.115   3.800   2.589
 8704SOL    HW127011   6.181   3.834   2.656
 8704SOL    HW227012   6.023   3.830   2.614
 8705SOL     OW27013   5.097   0.982   0.860
 8705SOL    HW127014   5.024   0.967   0.793
 8705SOL    HW227015   5.124   0.895   0.900
 8706SOL     OW27016   4.792   1.760   6.395
 8706SOL    HW127017   4.801   1.816   6.477
 8706SOL    HW227018   4.726   1.686   6.412
 8707SOL     OW27019   5.581   1.957   6.794
 8707SOL    HW127020   5.594   1.986   6.699
 8707SOL    HW227021   5.525   1.874   6.795
 8708SOL     OW27022   4.096   1.970   1.958
 8708SOL    HW127023   4.061   1.939   2.047
 8708SOL    HW227024   4.117   2.068   1.963
 8709SOL     OW27025   6.624   6.142   6.324
 8709SOL    HW127026   6.594   6.180   6.237
 8709SOL    HW227027   6.716   6.177   6.345
 8710SOL     OW27028   2.067   3.728   3.251
 8710SOL    HW127029   2.160   3.741   3.219
 8710SOL    HW227030   2.029   3.644   3.212
 8711SOL     OW27031   0.178   5.411   2.712
 8711SOL    HW127032   0.133   5.470   2.646
 8711SOL    HW227033   0.113   5.343   2.746
 8712SOL     OW27034   3.995   2.118   4.236
 8712SOL    HW127035   4.053   2.124   4.318
 8712SOL    HW227036   4.037   2.168   4.161
 8713SOL     OW27037   0.482   4.323   3.898
 8713SOL    HW127038   0.467   4.350   3.993
 8713SOL    HW227039   0.418   4.371   3.839
 8714SOL     OW27040   0.026   1.382   6.288
 8714SOL    HW127041   0.011   1.323   6.367
 8714SOL    HW227042   6.963   1.415   6.254
 8715SOL     OW27043   5.305   0.198   0.810
 8715SOL    HW127044   5.377   0.267   0.809
 8715SOL    HW227045   5.293   0.165   0.904
 8716SOL     OW27046   0.850   0.293   1.413
 8716SOL    HW127047   0.849   0.302   1.513
 8716SOL    HW227048   0.759   0.315   1.377
 8717SOL     OW27049   3.746   3.414   3.010
 8717SOL    HW127050   3.655   3.450   2.991
 8717SOL    HW227051   3.743   3.362   3.096
 8718SOL     OW27052   0.719   3.468   5.385
 8718SOL    HW127053   0.698   3.417   5.468
 8718SOL    HW227054   0.742   3.563   5.410
 8719SOL     OW27055   1.755   6.689   6.242
 8719SOL    HW127056   1.724   6.759   6.177
 8719SOL    HW227057   1.676   6.649   6.288
 8720SOL     OW27058   6.888   4.944   5.685
 8720SOL    HW127059   6.859   4.973   5.777
 8720SOL    HW227060   6.987   4.928   5.685
 8721SOL     OW27061   5.902   2.143   3.808
 8721SOL    HW127062   5.842   2.062   3.811
 8721SOL    HW227063   5.988   2.119   3.764
 8722SOL     OW27064   3.965   0.681   0.609
 8722SOL    HW127065   3.979   0.678   0.510
 8722SOL    HW227066   3.889   0.741   0.631
 8723SOL     OW27067   5.152   5.698   1.148
 8723SOL    HW127068   5.211   5.747   1.213
 8723SOL    HW227069   5.140   5.604   1.179
 8724SOL     OW27070   5.918   6.969   5.252
 8724SOL    HW127071   5.941   6.872   5.266
 8724SOL    HW227072   5.959   7.023   5.325
 8725SOL     OW27073   2.525   6.933   6.429
 8725SOL    HW127074   2.502   0.002   6.406
 8725SOL    HW227075   2.485   6.871   6.361
 8726SOL     OW27076   6.624   0.909   1.868
 8726SOL    HW127077   6.683   0.948   1.939
 8726SOL    HW227078   6.649   0.947   1.780
 8727SOL     OW27079   0.088   6.241   1.837
 8727SOL    HW127080   0.038   6.309   1.784
 8727SOL    HW227081   0.185   6.245   1.813
 8728SOL     OW27082   3.903   0.288   4.551
 8728SOL    HW127083   3.818   0.238   4.539
 8728SOL    HW227084   3.941   0.269   4.641
 8729SOL     OW27085   4.437   5.971   3.422
 8729SOL    HW127086   4.347   6.000   3.390
 8729SOL    HW227087   4.506   6.034   3.385
 8730SOL     OW27088   6.591   4.611   2.244
 8730SOL    HW127089   6.664   4.553   2.207
 8730SOL    HW227090   6.617   4.707   2.235
 8731SOL     OW27091   2.155   1.873   2.642
 8731SOL    HW127092   2.156   1.798   2.576
 8731SOL    HW227093   2.245   1.880   2.686
 8732SOL     OW27094   5.151   4.099   1.312
 8732SOL    HW127095   5.172   4.161   1.388
 8732SOL    HW227096   5.169   4.005   1.340
 8733SOL     OW27097   1.217   5.625   3.001
 8733SOL    HW127098   1.263   5.625   3.090
 8733SOL    HW227099   1.140   5.689   3.003
 8734SOL     OW27100   1.023   4.813   1.461
 8734SOL    HW127101   1.006   4.898   1.510
 8734SOL    HW227102   0.936   4.766   1.444
 8735SOL     OW27103   0.730   1.600   6.989
 8735SOL    HW127104   0.717   1.557   6.900
 8735SOL    HW227105   0.790   1.544   0.020
 8736SOL     OW27106   0.442   6.694   6.661
 8736SOL    HW127107   0.470   6.684   6.565
 8736SOL    HW227108   0.522   6.686   6.720
 8737SOL     OW27109   2.596   6.873   5.959
 8737SOL    HW127110   2.692   6.875   5.932
 8737SOL    HW227111   2.551   6.957   5.927
 8738SOL     OW27112   2.188   4.727   3.548
 8738SOL    HW127113   2.251   4.658   3.584
 8738SOL    HW227114   2.130   4.760   3.622
 8739SOL     OW27115   6.311   4.869   5.759
 8739SOL    HW127116   6.389   4.808   5.745
 8739SOL    HW227117   6.244   4.856   5.685
 8740SOL     OW27118   4.960   0.932   5.218
 8740SOL    HW127119   4.943   0.877   5.299
 8740SOL    HW227120   5.058   0.938   5.202
 8741SOL     OW27121   2.436   0.749   1.898
 8741SOL    HW127122   2.410   0.840   1.931
 8741SOL    HW227123   2.429   0.747   1.798
 8742SOL     OW27124   5.840   6.245   1.437
 8742SOL    HW127125   5.863   6.267   1.342
 8742SOL    HW227126   5.830   6.329   1.490
 8743SOL     OW27127   1.959   6.741   2.762
 8743SOL    HW127128   2.017   6.756   2.682
 8743SOL    HW227129   1.874   6.698   2.733
 8744SOL     OW27130   3.820   2.642   5.820
 8744SOL    HW127131   3.747   2.580   5.793
 8744SOL    HW227132   3.854   2.690   5.739
 8745SOL     OW27133   6.002   2.281   5.627
 8745SOL    HW127134   6.099   2.306   5.627
 8745SOL    HW227135   5.991   2.192   5.582
 8746SOL     OW27136   4.532   4.305   5.320
 8746SOL    HW127137   4.589   4.236   5.276
 8746SOL    HW227138   4.445   4.264   5.348
 8747SOL     OW27139   0.285   3.172   2.887
 8747SOL    HW127140   0.232   3.132   2.962
 8747SOL    HW227141   0.306   3.102   2.819
 8748SOL     OW27142   0.132   1.652   5.726
 8748SOL    HW127143   0.145   1.561   5.688
 8748SOL    HW227144   0.162   1.654   5.821
 8749SOL     OW27145   3.104   0.114   5.853
 8749SOL    HW127146   3.106   0.152   5.761
 8749SOL    HW227147   3.013   0.129   5.893
 8750SOL     OW27148   3.072   3.211   5.289
 8750SOL    HW127149   3.154   3.206   5.346
 8750SOL    HW227150   3.017   3.290   5.315
 8751SOL     OW27151   6.408   0.288   2.577
 8751SOL    HW127152   6.494   0.238   2.590
 8751SOL    HW227153   6.395   0.352   2.653
 8752SOL     OW27154   2.901   4.356   6.694
 8752SOL    HW127155   2.913   4.369   6.596
 8752SOL    HW227156   2.815   4.398   6.723
 8753SOL     OW27157   4.767   1.868   4.999
 8753SOL    HW127158   4.793   1.776   5.028
 8753SOL    HW227159   4.672   1.868   4.967
 8754SOL     OW27160   1.531   1.885   5.784
 8754SOL    HW127161   1.616   1.833   5.782
 8754SOL    HW227162   1.520   1.926   5.875
 8755SOL     OW27163   2.453   1.195   6.513
 8755SOL    HW127164   2.445   1.112   6.458
 8755SOL    HW227165   2.463   1.274   6.453
 8756SOL     OW27166   2.173   3.864   3.030
 8756SOL    HW127167   2.175   3.935   2.959
 8756SOL    HW227168   2.187   3.775   2.988
 8757SOL     OW27169   5.463   6.913   5.625
 8757SOL    HW127170   5.460   6.861   5.540
 8757SOL    HW227171   5.420   6.861   5.698
 8758SOL     OW27172   4.814   6.151   1.726
 8758SOL    HW127173   4.782   6.097   1.804
 8758SOL    HW227174   4.736   6.188   1.676
 8759SOL     OW27175   4.149   2.301   6.664
 8759SOL    HW127176   4.205   2.309   6.747
 8759SOL    HW227177   4.084   2.226   6.674
 8760SOL     OW27178   2.064   1.690   4.804
 8760SOL    HW127179   2.001   1.754   4.760
 8760SOL    HW227180   2.068   1.709   4.902
 8761SOL     OW27181   4.105   0.670   1.421
 8761SOL    HW127182   4.104   0.692   1.518
 8761SOL    HW227183   4.186   0.615   1.400
 8762SOL     OW27184   0.676   3.900   2.813
 8762SOL    HW127185   0.618   3.893   2.732
 8762SOL    HW227186   0.681   3.810   2.857
 8763SOL     OW27187   6.171   5.485   5.282
 8763SOL    HW127188   6.119   5.564   5.250
 8763SOL    HW227189   6.119   5.437   5.353
 8764SOL     OW27190   5.090   0.684   4.573
 8764SOL    HW127191   5.004   0.634   4.579
 8764SOL    HW227192   5.075   0.770   4.524
 8765SOL     OW27193   6.445   7.009   4.953
 8765SOL    HW127194   6.472   6.995   4.858
 8765SOL    HW227195   6.515   6.971   5.013
 8766SOL     OW27196   4.044   5.087   2.708
 8766SOL    HW127197   3.959   5.048   2.672
 8766SOL    HW227198   4.021   5.155   2.779
 8767SOL     OW27199   4.225   0.107   3.199
 8767SOL    HW127200   4.201   0.010   3.197
 8767SOL    HW227201   4.286   0.128   3.123
 8768SOL     OW27202   1.022   2.917   0.437
 8768SOL    HW127203   1.019   2.880   0.530
 8768SOL    HW227204   1.098   2.874   0.387
 8769SOL     OW27205   1.280   0.103   4.357
 8769SOL    HW127206   1.214   0.044   4.312
 8769SOL    HW227207   1.311   0.173   4.293
 8770SOL     OW27208   4.857   4.196   2.118
 8770SOL    HW127209   4.942   4.185   2.068
 8770SOL    HW227210   4.876   4.218   2.214
 8771SOL     OW27211   0.973   0.329   5.657
 8771SOL    HW127212   1.008   0.321   5.751
 8771SOL    HW227213   0.969   0.239   5.615
 8772SOL     OW27214   5.982   6.682   0.304
 8772SOL    HW127215   6.024   6.592   0.297
 8772SOL    HW227216   6.049   6.752   0.280
 8773SOL     OW27217   4.707   1.918   3.431
 8773SOL    HW127218   4.696   1.980   3.509
 8773SOL    HW227219   4.757   1.837   3.460
 8774SOL     OW27220   2.405   1.535   0.414
 8774SOL    HW127221   2.366   1.623   0.387
 8774SOL    HW227222   2.500   1.530   0.386
 8775SOL     OW27223   6.336   0.582   4.936
 8775SOL    HW127224   6.359   0.633   4.853
 8775SOL    HW227225   6.419   0.538   4.973
 8776SOL     OW27226   2.900   3.454   4.871
 8776SOL    HW127227   2.807   3.421   4.852
 8776SOL    HW227228   2.911   3.546   4.834
 8777SOL     OW27229   0.293   4.019   1.248
 8777SOL    HW127230   0.364   3.992   1.184
 8777SOL    HW227231   0.277   4.118   1.240
 8778SOL     OW27232   6.489   2.623   4.322
 8778SOL    HW127233   6.543   2.540   4.340
 8778SOL    HW227234   6.397   2.611   4.359
 8779SOL     OW27235   2.445   5.252   1.898
 8779SOL    HW127236   2.531   5.206   1.923
 8779SOL    HW227237   2.419   5.315   1.970
 8780SOL     OW27238   1.223   5.555   3.703
 8780SOL    HW127239   1.309   5.588   3.663
 8780SOL    HW227240   1.218   5.456   3.693
 8781SOL     OW27241   6.388   2.471   4.078
 8781SOL    HW127242   6.420   2.513   4.163
 8781SOL    HW227243   6.423   2.377   4.072
 8782SOL     OW27244   5.557   0.776   1.964
 8782SOL    HW127245   5.641   0.727   1.989
 8782SOL    HW227246   5.518   0.734   1.882
 8783SOL     OW27247   6.186   3.308   3.737
 8783SOL    HW127248   6.201   3.244   3.813
 8783SOL    HW227249   6.267   3.366   3.726
 8784SOL     OW27250   5.054   4.029   4.894
 8784SOL    HW127251   5.055   4.106   4.959
 8784SOL    HW227252   4.979   3.967   4.917
 8785SOL     OW27253   6.218   3.309   7.007
 8785SOL    HW127254   6.187   3.235   6.948
 8785SOL    HW227255   6.145   3.335   0.045
 8786SOL     OW27256   2.793   6.163   0.117
 8786SOL    HW127257   2.870   6.220   0.089
 8786SOL    HW227258   2.787   6.083   0.057
 8787SOL     OW27259   1.643   2.805   2.184
 8787SOL    HW127260   1.710   2.788   2.112
 8787SOL    HW227261   1.628   2.904   2.192
 8788SOL     OW27262   6.642   2.106   5.609
 8788SOL    HW127263   6.572   2.060   5.663
 8788SOL    HW227264   6.610   2.118   5.515
 8789SOL     OW27265   6.092   6.893   5.765
 8789SOL    HW127266   6.063   6.817   5.823
 8789SOL    HW227267   6.149   6.859   5.690
 8790SOL     OW27268   0.015   1.417   0.257
 8790SOL    HW127269   0.012   1.459   0.166
 8790SOL    HW227270   6.994   1.476   0.323
 8791SOL     OW27271   5.505   6.923   4.962
 8791SOL    HW127272   5.445   6.949   4.887
 8791SOL    HW227273   5.458   6.939   5.049
 8792SOL     OW27274   3.917   6.081   3.114
 8792SOL    HW127275   3.871   6.009   3.165
 8792SOL    HW227276   3.901   6.169   3.159
 8793SOL     OW27277   1.600   5.470   3.593
 8793SOL    HW127278   1.698   5.491   3.601
 8793SOL    HW227279   1.548   5.555   3.597
 8794SOL     OW27280   3.755   6.449   2.251
 8794SOL    HW127281   3.674   6.418   2.200
 8794SOL    HW227282   3.829   6.383   2.237
 8795SOL     OW27283   1.454   6.583   4.893
 8795SOL    HW127284   1.442   6.510   4.961
 8795SOL    HW227285   1.532   6.640   4.919
 8796SOL     OW27286   3.799   0.530   5.282
 8796SOL    HW127287   3.804   0.627   5.256
 8796SOL    HW227288   3.748   0.522   5.368
 8797SOL     OW27289   0.964   6.973   5.187
 8797SOL    HW127290   0.972   0.028   5.128
 8797SOL    HW227291   1.029   6.903   5.157
 8798SOL     OW27292   5.337   4.910   5.342
 8798SOL    HW127293   5.350   4.932   5.439
 8798SOL    HW227294   5.397   4.834   5.317
 8799SOL     OW27295   1.813   4.641   3.291
 8799SOL    HW127296   1.892   4.587   3.319
 8799SOL    HW227297   1.745   4.641   3.364
 8800SOL     OW27298   6.023   3.856   4.977
 8800SOL    HW127299   6.008   3.856   4.878
 8800SOL    HW227300   6.097   3.792   4.999
 8801SOL     OW27301   1.695   1.289   4.512
 8801SOL    HW127302   1.611   1.336   4.483
 8801SOL    HW227303   1.770   1.314   4.451
 8802SOL     OW27304   1.396   0.501   0.566
 8802SOL    HW127305   1.354   0.416   0.597
 8802SOL    HW227306   1.328   0.557   0.519
 8803SOL     OW27307   1.526   5.252   5.940
 8803SOL    HW127308   1.569   5.334   5.902
 8803SOL    HW227309   1.545   5.245   6.037
 8804SOL     OW27310   2.966   0.550   2.165
 8804SOL    HW127311   3.016   0.636   2.182
 8804SOL    HW227312   3.031   0.474   2.164
 8805SOL     OW27313   2.665   0.415   4.119
 8805SOL    HW127314   2.610   0.358   4.181
 8805SOL    HW227315   2.664   0.509   4.150
 8806SOL     OW27316   1.607   5.149   1.816
 8806SOL    HW127317   1.634   5.196   1.900
 8806SOL    HW227318   1.567   5.060   1.840
 8807SOL     OW27319   6.670   5.808   6.233
 8807SOL    HW127320   6.631   5.898   6.254
 8807SOL    HW227321   6.619   5.737   6.283
 8808SOL     OW27322   5.329   1.905   1.131
 8808SOL    HW127323   5.368   1.880   1.043
 8808SOL    HW227324   5.247   1.960   1.117
 8809SOL     OW27325   5.477   4.330   2.558
 8809SOL    HW127326   5.519   4.268   2.492
 8809SOL    HW227327   5.421   4.278   2.622
 8810SOL     OW27328   5.496   1.682   5.842
 8810SOL    HW127329   5.529   1.591   5.868
 8810SOL    HW227330   5.437   1.718   5.914
 8811SOL     OW27331   3.081   1.676   3.664
 8811SOL    HW127332   3.042   1.702   3.575
 8811SOL    HW227333   3.121   1.757   3.708
 8812SOL     OW27334   1.485   0.771   0.617
 8812SOL    HW127335   1.460   0.675   0.625
 8812SOL    HW227336   1.547   0.784   0.540
 8813SOL     OW27337   1.165   4.853   1.227
 8813SOL    HW127338   1.110   4.821   1.304
 8813SOL    HW227339   1.109   4.912   1.169
 8814SOL     OW27340   6.560   0.849   0.805
 8814SOL    HW127341   6.534   0.920   0.870
 8814SOL    HW227342   6.659   0.834   0.809
 8815SOL     OW27343   6.728   6.517   0.583
 8815SOL    HW127344   6.642   6.466   0.588
 8815SOL    HW227345   6.708   6.614   0.568
 8816SOL     OW27346   2.059   0.414   0.411
 8816SOL    HW127347   1.969   0.418   0.453
 8816SOL    HW227348   2.078   0.500   0.363
 8817SOL     OW27349   0.470   6.129   5.879
 8817SOL    HW127350   0.456   6.057   5.948
 8817SOL    HW227351   0.527   6.093   5.805
 8818SOL     OW27352   0.640   3.532   3.593
 8818SOL    HW127353   0.643   3.600   3.666
 8818SOL    HW227354   0.584   3.454   3.622
 8819SOL     OW27355   4.284   5.639   3.992
 8819SOL    HW127356   4.190   5.674   3.988
 8819SOL    HW227357   4.343   5.708   4.034
 8820SOL     OW27358   2.473   1.855   4.203
 8820SOL    HW127359   2.460   1.954   4.201
 8820SOL    HW227360   2.570   1.833   4.198
 8821SOL     OW27361   2.607   6.063   0.519
 8821SOL    HW127362   2.603   6.161   0.498
 8821SOL    HW227363   2.564   6.046   0.608
 8822SOL     OW27364   1.105   0.397   3.345
 8822SOL    HW127365   1.009   0.378   3.325
 8822SOL    HW227366   1.162   0.368   3.268
 8823SOL     OW27367   1.917   0.573   0.769
 8823SOL    HW127368   1.989   0.506   0.787
 8823SOL    HW227369   1.885   0.611   0.856
 8824SOL     OW27370   1.514   3.566   1.032
 8824SOL    HW127371   1.518   3.467   1.015
 8824SOL    HW227372   1.419   3.594   1.044
 8825SOL     OW27373   1.751   0.733   3.550
 8825SOL    HW127374   1.784   0.706   3.640
 8825SOL    HW227375   1.759   0.832   3.540
 8826SOL     OW27376   6.276   2.458   0.586
 8826SOL    HW127377   6.274   2.403   0.670
 8826SOL    HW227378   6.275   2.397   0.507
 8827SOL     OW27379   3.198   1.807   2.974
 8827SOL    HW127380   3.121   1.807   2.909
 8827SOL    HW227381   3.226   1.901   2.992
 8828SOL     OW27382   4.514   5.479   4.347
 8828SOL    HW127383   4.531   5.395   4.295
 8828SOL    HW227384   4.558   5.472   4.437
 8829SOL     OW27385   0.354   2.562   0.043
 8829SOL    HW127386   0.329   2.584   0.137
 8829SOL    HW227387   0.369   2.464   0.035
 8830SOL     OW27388   0.627   1.186   1.235
 8830SOL    HW127389   0.686   1.108   1.214
 8830SOL    HW227390   0.604   1.233   1.151
 8831SOL     OW27391   5.434   1.294   3.541
 8831SOL    HW127392   5.475   1.234   3.610
 8831SOL    HW227393   5.360   1.245   3.494
 8832SOL     OW27394   6.044   5.972   2.796
 8832SOL    HW127395   6.106   5.903   2.834
 8832SOL    HW227396   6.059   6.059   2.843
 8833SOL     OW27397   1.833   6.619   5.647
 8833SOL    HW127398   1.851   6.567   5.731
 8833SOL    HW227399   1.894   6.587   5.574
 8834SOL     OW27400   5.374   4.013   4.475
 8834SOL    HW127401   5.416   3.951   4.542
 8834SOL    HW227402   5.308   4.073   4.521
 8835SOL     OW27403   6.312   1.020   5.911
 8835SOL    HW127404   6.322   0.924   5.884
 8835SOL    HW227405   6.311   1.078   5.829
 8836SOL     OW27406   4.694   1.105   6.820
 8836SOL    HW127407   4.649   1.039   6.880
 8836SOL    HW227408   4.633   1.182   6.802
 8837SOL     OW27409   0.419   6.693   2.440
 8837SOL    HW127410   0.448   6.759   2.371
 8837SOL    HW227411   0.473   6.705   2.523
 8838SOL     OW27412   3.013   4.889   2.928
 8838SOL    HW127413   2.953   4.866   3.005
 8838SOL    HW227414   3.000   4.985   2.903
 8839SOL     OW27415   5.182   5.529   2.136
 8839SOL    HW127416   5.242   5.536   2.056
 8839SOL    HW227417   5.119   5.453   2.123
 8840SOL     OW27418   6.560   2.148   2.136
 8840SOL    HW127419   6.622   2.218   2.171
 8840SOL    HW227420   6.543   2.080   2.207
 8841SOL     OW27421   1.419   0.917   4.725
 8841SOL    HW127422   1.459   0.975   4.796
 8841SOL    HW227423   1.492   0.874   4.672
 8842SOL     OW27424   3.528   3.031   0.652
 8842SOL    HW127425   3.435   3.067   0.645
 8842SOL    HW227426   3.536   2.978   0.737
 8843SOL     OW27427   1.887   3.384   4.981
 8843SOL    HW127428   1.827   3.421   5.053
 8843SOL    HW227429   1.849   3.408   4.891
 8844SOL     OW27430   5.309   1.402   0.591
 8844SOL    HW127431   5.349   1.420   0.681
 8844SOL    HW227432   5.371   1.434   0.519
 8845SOL     OW27433   4.277   4.279   6.919
 8845SOL    HW127434   4.332   4.252   6.840
 8845SOL    HW227435   4.334   4.281   7.001
 8846SOL     OW27436   2.081   5.469   3.675
 8846SOL    HW127437   2.174   5.466   3.638
 8846SOL    HW227438   2.084   5.458   3.774
 8847SOL     OW27439   2.802   0.686   2.658
 8847SOL    HW127440   2.871   0.744   2.615
 8847SOL    HW227441   2.719   0.738   2.674
 8848SOL     OW27442   2.630   0.894   1.721
 8848SOL    HW127443   2.547   0.847   1.690
 8848SOL    HW227444   2.631   0.988   1.685
 8849SOL     OW27445   2.937   6.432   3.042
 8849SOL    HW127446   2.865   6.365   3.027
 8849SOL    HW227447   2.956   6.480   2.957
 8850SOL     OW27448   1.306   1.771   0.318
 8850SOL    HW127449   1.239   1.768   0.392
 8850SOL    HW227450   1.258   1.778   0.230
 8851SOL     OW27451   1.805   4.054   2.268
 8851SOL    HW127452   1.772   4.144   2.240
 8851SOL    HW227453   1.728   3.994   2.285
 8852SOL     OW27454   0.949   1.641   5.336
 8852SOL    HW127455   1.001   1.578   5.394
 8852SOL    HW227456   1.002   1.663   5.255
 8853SOL     OW27457   2.768   0.951   1.980
 8853SOL    HW127458   2.673   0.947   1.952
 8853SOL    HW227459   2.822   0.885   1.927
 8854SOL     OW27460   1.878   2.992   4.316
 8854SOL    HW127461   1.903   2.921   4.382
 8854SOL    HW227462   1.844   3.072   4.365
 8855SOL     OW27463   6.156   4.988   1.279
 8855SOL    HW127464   6.199   5.045   1.208
 8855SOL    HW227465   6.181   5.023   1.369
 8856SOL     OW27466   6.954   6.177   6.544
 8856SOL    HW127467   7.020   6.249   6.566
 8856SOL    HW227468   6.995   6.114   6.477
 8857SOL     OW27469   6.854   2.073   4.868
 8857SOL    HW127470   6.791   2.078   4.790
 8857SOL    HW227471   6.844   1.983   4.912
 8858SOL     OW27472   0.312   4.920   4.631
 8858SOL    HW127473   0.259   4.856   4.576
 8858SOL    HW227474   0.311   5.010   4.587
 8859SOL     OW27475   1.127   1.025   4.034
 8859SOL    HW127476   1.112   1.067   3.945
 8859SOL    HW227477   1.050   0.966   4.057
 8860SOL     OW27478   6.628   2.537   1.785
 8860SOL    HW127479   6.547   2.523   1.841
 8860SOL    HW227480   6.627   2.473   1.708
 8861SOL     OW27481   3.924   0.924   0.061
 8861SOL    HW127482   3.857   0.854   0.086
 8861SOL    HW227483   3.991   0.933   0.134
 8862SOL     OW27484   5.353   6.691   3.676
 8862SOL    HW127485   5.415   6.623   3.713
 8862SOL    HW227486   5.332   6.669   3.581
 8863SOL     OW27487   1.875   5.149   3.152
 8863SOL    HW127488   1.965   5.177   3.185
 8863SOL    HW227489   1.855   5.057   3.185
 8864SOL     OW27490   4.307   3.893   6.471
 8864SOL    HW127491   4.361   3.821   6.516
 8864SOL    HW227492   4.290   3.867   6.376
 8865SOL     OW27493   3.444   0.683   5.400
 8865SOL    HW127494   3.422   0.594   5.442
 8865SOL    HW227495   3.385   0.697   5.320
 8866SOL     OW27496   4.964   6.977   2.902
 8866SOL    HW127497   4.952   6.878   2.906
 8866SOL    HW227498   5.056   6.999   2.872
 8867SOL     OW27499   6.376   4.008   3.927
 8867SOL    HW127500   6.351   3.936   3.992
 8867SOL    HW227501   6.417   4.084   3.977
 8868SOL     OW27502   6.534   3.777   2.529
 8868SOL    HW127503   6.555   3.867   2.567
 8868SOL    HW227504   6.541   3.708   2.602
 8869SOL     OW27505   3.924   5.925   5.186
 8869SOL    HW127506   4.009   5.877   5.164
 8869SOL    HW227507   3.924   6.015   5.142
 8870SOL     OW27508   1.799   6.501   1.583
 8870SOL    HW127509   1.844   6.412   1.589
 8870SOL    HW227510   1.814   6.551   1.668
 8871SOL     OW27511   2.034   0.944   3.407
 8871SOL    HW127512   1.937   0.953   3.386
 8871SOL    HW227513   2.045   0.925   3.505
 8872SOL     OW27514   1.134   5.238   6.355
 8872SOL    HW127515   1.035   5.241   6.366
 8872SOL    HW227516   1.172   5.330   6.364
 8873SOL     OW27517   1.413   6.794   1.610
 8873SOL    HW127518   1.502   6.767   1.574
 8873SOL    HW227519   1.387   6.731   1.683
 8874SOL     OW27520   1.462   5.937   2.006
 8874SOL    HW127521   1.476   6.036   2.000
 8874SOL    HW227522   1.491   5.904   2.096
 8875SOL     OW27523   0.215   3.292   4.148
 8875SOL    HW127524   0.200   3.353   4.070
 8875SOL    HW227525   0.127   3.265   4.187
 8876SOL     OW27526   2.649   0.844   6.675
 8876SOL    HW127527   2.586   0.908   6.718
 8876SOL    HW227528   2.699   0.794   6.745
 8877SOL     OW27529   1.627   3.638   3.106
 8877SOL    HW127530   1.650   3.701   3.180
 8877SOL    HW227531   1.621   3.688   3.020
 8878SOL     OW27532   3.502   4.963   0.629
 8878SOL    HW127533   3.515   4.954   0.728
 8878SOL    HW227534   3.418   4.917   0.602
 8879SOL     OW27535   6.391   4.742   2.038
 8879SOL    HW127536   6.483   4.749   2.076
 8879SOL    HW227537   6.351   4.653   2.062
 8880SOL     OW27538   4.160   6.115   4.554
 8880SOL    HW127539   4.143   6.207   4.517
 8880SOL    HW227540   4.162   6.120   4.654
 8881SOL     OW27541   4.858   5.365   4.471
 8881SOL    HW127542   4.917   5.288   4.498
 8881SOL    HW227543   4.915   5.441   4.442
 8882SOL     OW27544   3.748   0.650   0.805
 8882SOL    HW127545   3.779   0.556   0.795
 8882SOL    HW227546   3.649   0.655   0.789
 8883SOL     OW27547   1.045   6.049   5.960
 8883SOL    HW127548   0.952   6.078   5.983
 8883SOL    HW227549   1.070   6.084   5.869
 8884SOL     OW27550   6.292   4.022   5.165
 8884SOL    HW127551   6.207   3.971   5.156
 8884SOL    HW227552   6.345   4.015   5.080
 8885SOL     OW27553   5.126   4.944   0.574
 8885SOL    HW127554   5.105   4.945   0.477
 8885SOL    HW227555   5.202   4.881   0.592
 8886SOL     OW27556   3.999   5.681   6.301
 8886SOL    HW127557   4.049   5.653   6.219
 8886SOL    HW227558   4.057   5.742   6.356
 8887SOL     OW27559   3.807   1.952   0.961
 8887SOL    HW127560   3.789   2.008   1.043
 8887SOL    HW227561   3.906   1.945   0.948
 8888SOL     OW27562   2.348   2.167   4.210
 8888SOL    HW127563   2.447   2.161   4.213
 8888SOL    HW227564   2.315   2.226   4.284
 8889SOL     OW27565   6.562   6.302   6.111
 8889SOL    HW127566   6.636   6.256   6.063
 8889SOL    HW227567   6.572   6.401   6.102
 8890SOL     OW27568   0.656   6.396   6.712
 8890SOL    HW127569   0.737   6.336   6.714
 8890SOL    HW227570   0.602   6.382   6.795
 8891SOL     OW27571   4.288   4.007   0.230
 8891SOL    HW127572   4.313   4.055   0.146
 8891SOL    HW227573   4.363   3.949   0.260
 8892SOL     OW27574   3.915   4.846   3.558
 8892SOL    HW127575   3.835   4.853   3.500
 8892SOL    HW227576   3.886   4.837   3.654
 8893SOL     OW27577   1.616   5.940   5.300
 8893SOL    HW127578   1.540   5.880   5.272
 8893SOL    HW227579   1.700   5.911   5.254
 8894SOL     OW27580   4.066   1.657   6.989
 8894SOL    HW127581   4.078   1.735   0.026
 8894SOL    HW227582   4.070   1.689   6.894
 8895SOL     OW27583   0.650   2.407   1.086
 8895SOL    HW127584   0.653   2.493   1.036
 8895SOL    HW227585   0.555   2.385   1.109
 8896SOL     OW27586   1.906   2.847   4.773
 8896SOL    HW127587   1.980   2.780   4.778
 8896SOL    HW227588   1.824   2.810   4.816
 8897SOL     OW27589   2.099   3.869   3.475
 8897SOL    HW127590   2.082   3.833   3.383
 8897SOL    HW227591   2.129   3.965   3.468
 8898SOL     OW27592   5.790   3.897   1.964
 8898SOL    HW127593   5.835   3.932   2.046
 8898SOL    HW227594   5.837   3.813   1.934
 8899SOL     OW27595   0.263   4.601   6.703
 8899SOL    HW127596   0.180   4.571   6.657
 8899SOL    HW227597   0.280   4.545   6.783
 8900SOL     OW27598   5.780   2.468   3.400
 8900SOL    HW127599   5.781   2.558   3.442
 8900SOL    HW227600   5.853   2.412   3.439
 8901SOL     OW27601   1.240   1.624   3.599
 8901SOL    HW127602   1.200   1.657   3.513
 8901SOL    HW227603   1.250   1.701   3.663
 8902SOL     OW27604   1.726   5.590   6.680
 8902SOL    HW127605   1.641   5.550   6.646
 8902SOL    HW227606   1.779   5.626   6.603
 8903SOL     OW27607   1.206   2.198   4.750
 8903SOL    HW127608   1.156   2.112   4.763
 8903SOL    HW227609   1.291   2.179   4.700
 8904SOL     OW27610   0.962   1.824   3.532
 8904SOL    HW127611   1.021   1.775   3.468
 8904SOL    HW227612   0.954   1.919   3.503
 8905SOL     OW27613   1.549   3.455   2.743
 8905SOL    HW127614   1.534   3.526   2.812
 8905SOL    HW227615   1.603   3.381   2.783
 8906SOL     OW27616   1.294   5.924   1.236
 8906SOL    HW127617   1.263   5.894   1.326
 8906SOL    HW227618   1.240   6.003   1.207
 8907SOL     OW27619   2.793   2.727   5.420
 8907SOL    HW127620   2.861   2.799   5.406
 8907SOL    HW227621   2.835   2.638   5.405
 8908SOL     OW27622   1.712   4.973   6.837
 8908SOL    HW127623   1.735   5.016   6.924
 8908SOL    HW227624   1.752   5.026   6.762
 8909SOL     OW27625   2.912   1.223   6.504
 8909SOL    HW127626   2.962   1.139   6.483
 8909SOL    HW227627   2.931   1.291   6.433
 8910SOL     OW27628   0.114   3.137   5.273
 8910SOL    HW127629   0.153   3.087   5.350
 8910SOL    HW227630   0.071   3.072   5.209
 8911SOL     OW27631   5.550   2.902   4.644
 8911SOL    HW127632   5.470   2.880   4.699
 8911SOL    HW227633   5.581   2.995   4.665
 8912SOL     OW27634   3.137   3.180   6.213
 8912SOL    HW127635   3.201   3.221   6.277
 8912SOL    HW227636   3.127   3.083   6.234
 8913SOL     OW27637   4.802   4.994   6.703
 8913SOL    HW127638   4.741   4.980   6.625
 8913SOL    HW227639   4.756   4.966   6.787
 8914SOL     OW27640   4.950   6.985   4.734
 8914SOL    HW127641   4.975   6.978   4.638
 8914SOL    HW227642   4.967   6.898   4.780
 8915SOL     OW27643   1.425   2.063   4.627
 8915SOL    HW127644   1.440   2.018   4.715
 8915SOL    HW227645   1.376   2.001   4.566
 8916SOL     OW27646   6.034   2.334   6.785
 8916SOL    HW127647   5.993   2.286   6.708
 8916SOL    HW227648   6.115   2.383   6.754
 8917SOL     OW27649   5.435   2.396   0.842
 8917SOL    HW127650   5.524   2.380   0.799
 8917SOL    HW227651   5.374   2.320   0.822
 8918SOL     OW27652   1.287   5.549   0.594
 8918SOL    HW127653   1.266   5.457   0.627
 8918SOL    HW227654   1.350   5.594   0.659
 8919SOL     OW27655   5.183   4.674   6.415
 8919SOL    HW127656   5.184   4.764   6.458
 8919SOL    HW227657   5.103   4.666   6.356
 8920SOL     OW27658   0.571   2.130   6.639
 8920SOL    HW127659   0.651   2.069   6.634
 8920SOL    HW227660   0.593   2.210   6.695
 8921SOL     OW27661   1.477   2.737   1.550
 8921SOL    HW127662   1.464   2.640   1.529
 8921SOL    HW227663   1.498   2.748   1.647
 8922SOL     OW27664   3.936   6.249   2.174
 8922SOL    HW127665   3.926   6.170   2.234
 8922SOL    HW227666   3.966   6.220   2.083
 8923SOL     OW27667   1.307   1.224   5.294
 8923SOL    HW127668   1.322   1.200   5.390
 8923SOL    HW227669   1.255   1.150   5.250
 8924SOL     OW27670   5.047   5.650   5.147
 8924SOL    HW127671   5.084   5.558   5.159
 8924SOL    HW227672   4.954   5.654   5.184
 8925SOL     OW27673   6.871   0.014   2.446
 8925SOL    HW127674   6.815   6.968   2.404
 8925SOL    HW227675   6.873   0.095   2.386
 8926SOL     OW27676   6.592   3.431   4.972
 8926SOL    HW127677   6.568   3.527   4.987
 8926SOL    HW227678   6.547   3.375   5.042
 8927SOL     OW27679   6.429   1.913   4.919
 8927SOL    HW127680   6.329   1.909   4.928
 8927SOL    HW227681   6.466   1.821   4.930
 8928SOL     OW27682   1.238   6.961   6.236
 8928SOL    HW127683   1.301   0.011   6.216
 8928SOL    HW227684   1.287   6.888   6.284
 8929SOL     OW27685   6.584   2.176   5.013
 8929SOL    HW127686   6.658   2.206   4.953
 8929SOL    HW227687   6.546   2.091   4.977
 8930SOL     OW27688   0.826   3.200   3.362
 8930SOL    HW127689   0.834   3.258   3.281
 8930SOL    HW227690   0.732   3.203   3.396
 8931SOL     OW27691   3.115   3.120   1.692
 8931SOL    HW127692   3.086   3.119   1.788
 8931SOL    HW227693   3.210   3.089   1.685
 8932SOL     OW27694   6.998   2.275   2.592
 8932SOL    HW127695   6.966   2.329   2.670
 8932SOL    HW227696   7.023   2.336   2.517
 8933SOL     OW27697   3.172   2.611   6.402
 8933SOL    HW127698   3.195   2.606   6.499
 8933SOL    HW227699   3.170   2.706   6.373
 8934SOL     OW27700   3.616   4.762   5.268
 8934SOL    HW127701   3.710   4.786   5.292
 8934SOL    HW227702   3.582   4.693   5.331
 8935SOL     OW27703   0.417   4.511   6.925
 8935SOL    HW127704   0.476   4.432   6.941
 8935SOL    HW227705   0.345   4.513   6.995
 8936SOL     OW27706   1.611   4.162   0.540
 8936SOL    HW127707   1.534   4.161   0.604
 8936SOL    HW227708   1.577   4.145   0.447
 8937SOL     OW27709   0.421   0.307   4.842
 8937SOL    HW127710   0.326   0.290   4.868
 8937SOL    HW227711   0.437   0.272   4.750
 8938SOL     OW27712   0.438   5.541   0.492
 8938SOL    HW127713   0.387   5.470   0.443
 8938SOL    HW227714   0.376   5.613   0.521
 8939SOL     OW27715   4.733   2.813   4.301
 8939SOL    HW127716   4.755   2.760   4.219
 8939SOL    HW227717   4.634   2.816   4.314
 8940SOL     OW27718   0.276   1.163   3.935
 8940SOL    HW127719   0.205   1.229   3.961
 8940SOL    HW227720   0.284   1.093   4.006
 8941SOL     OW27721   5.580   2.494   5.192
 8941SOL    HW127722   5.643   2.554   5.142
 8941SOL    HW227723   5.596   2.503   5.290
 8942SOL     OW27724   0.919   4.129   5.301
 8942SOL    HW127725   0.976   4.075   5.363
 8942SOL    HW227726   0.842   4.168   5.352
 8943SOL     OW27727   3.590   4.084   0.329
 8943SOL    HW127728   3.551   4.101   0.419
 8943SOL    HW227729   3.685   4.115   0.328
 8944SOL     OW27730   4.956   5.148   4.928
 8944SOL    HW127731   5.035   5.177   4.874
 8944SOL    HW227732   4.985   5.130   5.022
 8945SOL     OW27733   2.067   0.888   3.699
 8945SOL    HW127734   2.147   0.946   3.708
 8945SOL    HW227735   2.096   0.792   3.691
 8946SOL     OW27736   2.813   1.486   4.797
 8946SOL    HW127737   2.814   1.467   4.895
 8946SOL    HW227738   2.851   1.408   4.747
 8947SOL     OW27739   1.611   4.076   5.181
 8947SOL    HW127740   1.705   4.090   5.152
 8947SOL    HW227741   1.602   3.986   5.225
 8948SOL     OW27742   6.296   5.887   3.997
 8948SOL    HW127743   6.265   5.792   4.000
 8948SOL    HW227744   6.220   5.947   4.021
 8949SOL     OW27745   2.261   6.956   0.527
 8949SOL    HW127746   2.221   0.022   0.531
 8949SOL    HW227747   2.289   6.927   0.619
 8950SOL     OW27748   5.119   3.199   5.768
 8950SOL    HW127749   5.168   3.283   5.745
 8950SOL    HW227750   5.043   3.186   5.704
 8951SOL     OW27751   0.611   2.369   5.030
 8951SOL    HW127752   0.539   2.439   5.031
 8951SOL    HW227753   0.679   2.393   4.962
 8952SOL     OW27754   1.155   6.904   2.055
 8952SOL    HW127755   1.081   6.960   2.018
 8952SOL    HW227756   1.127   6.808   2.054
 8953SOL     OW27757   0.793   3.926   6.578
 8953SOL    HW127758   0.828   4.007   6.624
 8953SOL    HW227759   0.869   3.871   6.543
 8954SOL     OW27760   0.442   6.399   6.421
 8954SOL    HW127761   0.538   6.412   6.396
 8954SOL    HW227762   0.434   6.328   6.491
 8955SOL     OW27763   0.542   4.538   2.465
 8955SOL    HW127764   0.507   4.504   2.552
 8955SOL    HW227765   0.518   4.474   2.392
 8956SOL     OW27766   0.096   1.966   0.245
 8956SOL    HW127767   0.149   2.044   0.212
 8956SOL    HW227768   0.000   1.993   0.255
 8957SOL     OW27769   3.172   4.320   1.697
 8957SOL    HW127770   3.116   4.382   1.751
 8957SOL    HW227771   3.116   4.278   1.625
 8958SOL     OW27772   0.980   0.250   4.366
 8958SOL    HW127773   1.004   0.345   4.349
 8958SOL    HW227774   0.970   0.235   4.464
 8959SOL     OW27775   1.592   4.583   1.319
 8959SOL    HW127776   1.571   4.679   1.300
 8959SOL    HW227777   1.621   4.574   1.414
 8960SOL     OW27778   4.800   5.883   2.121
 8960SOL    HW127779   4.728   5.919   2.180
 8960SOL    HW227780   4.813   5.786   2.139
 8961SOL     OW27781   2.471   2.686   4.659
 8961SOL    HW127782   2.431   2.617   4.599
 8961SOL    HW227783   2.530   2.747   4.605
 8962SOL     OW27784   6.492   6.623   2.571
 8962SOL    HW127785   6.492   6.701   2.508
 8962SOL    HW227786   6.520   6.541   2.522
 8963SOL     OW27787   4.883   6.633   4.238
 8963SOL    HW127788   4.859   6.636   4.335
 8963SOL    HW227789   4.963   6.690   4.221
 8964SOL     OW27790   6.133   3.713   3.549
 8964SOL    HW127791   6.059   3.659   3.508
 8964SOL    HW227792   6.096   3.799   3.583
 8965SOL     OW27793   2.042   5.189   0.490
 8965SOL    HW127794   2.035   5.204   0.589
 8965SOL    HW227795   2.051   5.091   0.472
 8966SOL     OW27796   1.448   4.147   5.392
 8966SOL    HW127797   1.488   4.123   5.304
 8966SOL    HW227798   1.493   4.095   5.465
 8967SOL     OW27799   3.557   6.391   1.495
 8967SOL    HW127800   3.509   6.375   1.409
 8967SOL    HW227801   3.586   6.304   1.535
 8968SOL     OW27802   5.185   4.590   2.569
 8968SOL    HW127803   5.201   4.605   2.471
 8968SOL    HW227804   5.248   4.647   2.622
 8969SOL     OW27805   6.335   0.143   3.861
 8969SOL    HW127806   6.283   0.175   3.782
 8969SOL    HW227807   6.361   0.221   3.918
 8970SOL     OW27808   3.006   2.705   0.242
 8970SOL    HW127809   3.077   2.773   0.226
 8970SOL    HW227810   3.026   2.655   0.326
 8971SOL     OW27811   4.252   5.479   2.082
 8971SOL    HW127812   4.163   5.478   2.127
 8971SOL    HW227813   4.273   5.572   2.052
 8972SOL     OW27814   4.789   5.453   6.325
 8972SOL    HW127815   4.717   5.459   6.255
 8972SOL    HW227816   4.752   5.482   6.413
 8973SOL     OW27817   1.138   3.228   2.207
 8973SOL    HW127818   1.065   3.252   2.272
 8973SOL    HW227819   1.098   3.212   2.117
 8974SOL     OW27820   1.585   4.414   5.948
 8974SOL    HW127821   1.546   4.331   5.989
 8974SOL    HW227822   1.628   4.391   5.861
 8975SOL     OW27823   2.723   6.939   6.632
 8975SOL    HW127824   2.694   6.870   6.700
 8975SOL    HW227825   2.659   6.937   6.555
 8976SOL     OW27826   0.979   5.299   5.123
 8976SOL    HW127827   0.891   5.322   5.081
 8976SOL    HW227828   0.964   5.257   5.212
 8977SOL     OW27829   5.876   1.364   6.722
 8977SOL    HW127830   5.935   1.435   6.685
 8977SOL    HW227831   5.931   1.283   6.745
 8978SOL     OW27832   5.777   6.762   6.461
 8978SOL    HW127833   5.849   6.692   6.465
 8978SOL    HW227834   5.692   6.720   6.431
 8979SOL     OW27835   1.400   3.093   4.374
 8979SOL    HW127836   1.437   3.140   4.454
 8979SOL    HW227837   1.474   3.055   4.319
 8980SOL     OW27838   2.417   3.298   5.319
 8980SOL    HW127839   2.319   3.316   5.311
 8980SOL    HW227840   2.439   3.213   5.272
 8981SOL     OW27841   3.715   1.292   5.426
 8981SOL    HW127842   3.774   1.347   5.367
 8981SOL    HW227843   3.674   1.350   5.495
 8982SOL     OW27844   1.341   2.448   0.658
 8982SOL    HW127845   1.389   2.445   0.570
 8982SOL    HW227846   1.245   2.422   0.645
 8983SOL     OW27847   2.339   6.746   6.309
 8983SOL    HW127848   2.386   6.710   6.228
 8983SOL    HW227849   2.264   6.805   6.280
 8984SOL     OW27850   0.770   0.114   3.975
 8984SOL    HW127851   0.800   0.179   4.045
 8984SOL    HW227852   0.680   0.140   3.941
 8985SOL     OW27853   3.315   2.658   0.300
 8985SOL    HW127854   3.268   2.735   0.258
 8985SOL    HW227855   3.252   2.608   0.359
 8986SOL     OW27856   4.206   5.612   2.678
 8986SOL    HW127857   4.171   5.705   2.687
 8986SOL    HW227858   4.186   5.577   2.587
 8987SOL     OW27859   4.326   6.775   1.974
 8987SOL    HW127860   4.396   6.767   2.045
 8987SOL    HW227861   4.267   6.694   1.975
 8988SOL     OW27862   1.411   4.847   4.909
 8988SOL    HW127863   1.334   4.786   4.888
 8988SOL    HW227864   1.470   4.803   4.977
 8989SOL     OW27865   5.077   3.743   0.395
 8989SOL    HW127866   5.059   3.757   0.492
 8989SOL    HW227867   5.145   3.809   0.363
 8990SOL     OW27868   1.828   5.706   4.506
 8990SOL    HW127869   1.912   5.667   4.544
 8990SOL    HW227870   1.754   5.639   4.511
 8991SOL     OW27871   1.630   2.479   4.731
 8991SOL    HW127872   1.723   2.463   4.699
 8991SOL    HW227873   1.566   2.429   4.673
 8992SOL     OW27874   4.484   1.180   0.715
 8992SOL    HW127875   4.419   1.117   0.672
 8992SOL    HW227876   4.440   1.269   0.729
 8993SOL     OW27877   4.750   2.403   1.178
 8993SOL    HW127878   4.735   2.356   1.265
 8993SOL    HW227879   4.737   2.501   1.191
 8994SOL     OW27880   1.260   3.706   5.492
 8994SOL    HW127881   1.255   3.760   5.576
 8994SOL    HW227882   1.356   3.686   5.471
 8995SOL     OW27883   1.472   2.532   0.016
 8995SOL    HW127884   1.385   2.492   7.012
 8995SOL    HW227885   1.482   2.623   7.002
 8996SOL     OW27886   5.080   4.557   6.863
 8996SOL    HW127887   5.039   4.471   6.895
 8996SOL    HW227888   5.179   4.547   6.857
 8997SOL     OW27889   5.056   1.991   6.068
 8997SOL    HW127890   5.076   1.933   6.147
 8997SOL    HW227891   4.957   2.005   6.061
 8998SOL     OW27892   6.368   3.836   4.179
 8998SOL    HW127893   6.312   3.820   4.259
 8998SOL    HW227894   6.465   3.830   4.203
 8999SOL     OW27895   5.172   6.580   5.960
 8999SOL    HW127896   5.228   6.628   6.027
 8999SOL    HW227897   5.204   6.485   5.952
 9000SOL     OW27898   1.253   3.159   1.471
 9000SOL    HW127899   1.289   3.238   1.520
 9000SOL    HW227900   1.281   3.075   1.519
 9001SOL     OW27901   1.250   4.696   2.185
 9001SOL    HW127902   1.156   4.666   2.170
 9001SOL    HW227903   1.313   4.633   2.139
 9002SOL     OW27904   1.927   5.156   5.412
 9002SOL    HW127905   1.873   5.128   5.491
 9002SOL    HW227906   1.867   5.174   5.335
 9003SOL     OW27907   5.916   4.042   1.624
 9003SOL    HW127908   5.834   3.990   1.599
 9003SOL    HW227909   5.996   3.982   1.621
 9004SOL     OW27910   4.192   5.989   0.763
 9004SOL    HW127911   4.251   5.955   0.836
 9004SOL    HW227912   4.208   6.086   0.749
 9005SOL     OW27913   6.783   2.443   5.209
 9005SOL    HW127914   6.727   2.402   5.281
 9005SOL    HW227915   6.796   2.376   5.135
 9006SOL     OW27916   2.180   5.456   1.172
 9006SOL    HW127917   2.164   5.541   1.121
 9006SOL    HW227918   2.114   5.449   1.247
 9007SOL     OW27919   3.420   0.875   3.152
 9007SOL    HW127920   3.370   0.899   3.236
 9007SOL    HW227921   3.514   0.852   3.175
 9008SOL     OW27922   1.218   5.365   3.167
 9008SOL    HW127923   1.235   5.460   3.194
 9008SOL    HW227924   1.186   5.313   3.247
 9009SOL     OW27925   2.583   5.783   0.857
 9009SOL    HW127926   2.583   5.693   0.813
 9009SOL    HW227927   2.529   5.779   0.941
 9010SOL     OW27928   1.519   6.334   4.255
 9010SOL    HW127929   1.435   6.387   4.244
 9010SOL    HW227930   1.547   6.295   4.167
 9011SOL     OW27931   4.812   1.485   1.269
 9011SOL    HW127932   4.816   1.534   1.182
 9011SOL    HW227933   4.897   1.433   1.282
 9012SOL     OW27934   2.064   4.557   6.953
 9012SOL    HW127935   2.048   4.552   6.854
 9012SOL    HW227936   2.054   4.466   6.993
 9013SOL     OW27937   0.032   0.165   6.115
 9013SOL    HW127938   0.122   0.184   6.154
 9013SOL    HW227939   0.033   0.188   6.017
 9014SOL     OW27940   6.767   2.145   0.845
 9014SOL    HW127941   6.860   2.166   0.816
 9014SOL    HW227942   6.729   2.223   0.896
 9015SOL     OW27943   4.540   2.196   1.717
 9015SOL    HW127944   4.457   2.145   1.739
 9015SOL    HW227945   4.541   2.282   1.767
 9016SOL     OW27946   0.081   6.508   6.337
 9016SOL    HW127947   0.111   6.604   6.342
 9016SOL    HW227948   7.015   6.504   6.296
 9017SOL     OW27949   4.931   1.590   4.101
 9017SOL    HW127950   4.944   1.602   4.002
 9017SOL    HW227951   4.835   1.566   4.118
 9018SOL     OW27952   2.942   3.002   6.547
 9018SOL    HW127953   2.900   2.947   6.475
 9018SOL    HW227954   2.947   2.949   6.632
 9019SOL     OW27955   1.428   5.109   2.272
 9019SOL    HW127956   1.364   5.145   2.339
 9019SOL    HW227957   1.378   5.063   2.199
 9020SOL     OW27958   0.044   4.137   0.653
 9020SOL    HW127959   0.079   4.046   0.629
 9020SOL    HW227960   7.000   4.128   0.725
 9021SOL     OW27961   7.004   0.558   3.552
 9021SOL    HW127962   0.051   0.489   3.553
 9021SOL    HW227963   0.018   0.647   3.573
 9022SOL     OW27964   2.929   0.940   0.190
 9022SOL    HW127965   2.871   0.950   0.271
 9022SOL    HW227966   2.893   0.996   0.115
 9023SOL     OW27967   3.337   2.925   2.372
 9023SOL    HW127968   3.280   2.927   2.454
 9023SOL    HW227969   3.279   2.924   2.291
 9024SOL     OW27970   1.280   3.633   5.844
 9024SOL    HW127971   1.207   3.691   5.807
 9024SOL    HW227972   1.257   3.537   5.831
 9025SOL     OW27973   0.593   5.293   0.677
 9025SOL    HW127974   0.547   5.205   0.693
 9025SOL    HW227975   0.525   5.363   0.655
 9026SOL     OW27976   3.296   3.171   1.016
 9026SOL    HW127977   3.228   3.244   1.026
 9026SOL    HW227978   3.253   3.083   1.037
 9027SOL     OW27979   0.683   2.976   2.699
 9027SOL    HW127980   0.613   3.022   2.645
 9027SOL    HW227981   0.769   2.972   2.648
 9028SOL     OW27982   2.960   2.985   5.401
 9028SOL    HW127983   2.983   3.066   5.346
 9028SOL    HW227984   3.040   2.925   5.406
 9029SOL     OW27985   3.718   6.879   5.156
 9029SOL    HW127986   3.627   6.881   5.113
 9029SOL    HW227987   3.785   6.920   5.094
 9030SOL     OW27988   2.075   2.159   3.253
 9030SOL    HW127989   2.121   2.247   3.240
 9030SOL    HW227990   1.983   2.175   3.289
 9031SOL     OW27991   4.262   5.947   4.360
 9031SOL    HW127992   4.200   5.871   4.378
 9031SOL    HW227993   4.233   6.026   4.415
 9032SOL     OW27994   4.572   3.804   1.028
 9032SOL    HW127995   4.472   3.803   1.034
 9032SOL    HW227996   4.601   3.754   0.947
 9033SOL     OW27997   0.097   4.379   2.506
 9033SOL    HW127998   0.004   4.395   2.474
 9033SOL    HW227999   0.124   4.451   2.570
 9034SOL     OW28000   3.129   6.246   4.453
 9034SOL    HW128001   3.081   6.254   4.540
 9034SOL    HW228002   3.198   6.319   4.447
 9035SOL     OW28003   2.493   4.398   0.058
 9035SOL    HW128004   2.405   4.411   0.104
 9035SOL    HW228005   2.486   4.322   7.019
 9036SOL     OW28006   1.837   3.220   5.642
 9036SOL    HW128007   1.913   3.213   5.708
 9036SOL    HW228008   1.862   3.172   5.558
 9037SOL     OW28009   1.230   4.351   4.806
 9037SOL    HW128010   1.195   4.285   4.872
 9037SOL    HW228011   1.265   4.303   4.726
 9038SOL     OW28012   4.458   1.065   6.424
 9038SOL    HW128013   4.413   1.117   6.496
 9038SOL    HW228014   4.425   0.971   6.425
 9039SOL     OW28015   2.183   4.968   6.110
 9039SOL    HW128016   2.109   5.009   6.162
 9039SOL    HW228017   2.147   4.899   6.048
 9040SOL     OW28018   2.719   2.286   2.700
 9040SOL    HW128019   2.666   2.365   2.729
 9040SOL    HW228020   2.784   2.313   2.629
 9041SOL     OW28021   1.048   2.084   1.431
 9041SOL    HW128022   1.130   2.079   1.488
 9041SOL    HW228023   0.987   2.008   1.455
 9042SOL     OW28024   4.361   0.020   4.791
 9042SOL    HW128025   4.374   0.012   4.692
 9042SOL    HW228026   4.305   6.969   4.824
 9043SOL     OW28027   1.935   0.841   6.366
 9043SOL    HW128028   1.872   0.774   6.405
 9043SOL    HW228029   1.923   0.845   6.267
 9044SOL     OW28030   6.510   0.366   0.701
 9044SOL    HW128031   6.452   0.447   0.711
 9044SOL    HW228032   6.453   0.285   0.690
 9045SOL     OW28033   3.334   1.340   2.703
 9045SOL    HW128034   3.282   1.422   2.683
 9045SOL    HW228035   3.426   1.365   2.733
 9046SOL     OW28036   3.366   4.148   3.115
 9046SOL    HW128037   3.439   4.176   3.179
 9046SOL    HW228038   3.278   4.150   3.163
 9047SOL     OW28039   1.755   3.724   4.950
 9047SOL    HW128040   1.838   3.739   5.004
 9047SOL    HW228041   1.767   3.642   4.894
 9048SOL     OW28042   6.425   3.033   6.217
 9048SOL    HW128043   6.455   2.978   6.139
 9048SOL    HW228044   6.432   3.130   6.194
 9049SOL     OW28045   4.144   6.594   5.481
 9049SOL    HW128046   4.182   6.577   5.391
 9049SOL    HW228047   4.186   6.533   5.548
 9050SOL     OW28048   0.721   3.966   0.854
 9050SOL    HW128049   0.673   3.889   0.814
 9050SOL    HW228050   0.772   4.015   0.782
 9051SOL     OW28051   3.287   0.075   1.353
 9051SOL    HW128052   3.365   0.040   1.405
 9051SOL    HW228053   3.301   0.173   1.335
 9052SOL     OW28054   2.158   2.439   3.904
 9052SOL    HW128055   2.186   2.345   3.920
 9052SOL    HW228056   2.234   2.491   3.863
 9053SOL     OW28057   1.753   1.234   2.536
 9053SOL    HW128058   1.757   1.310   2.471
 9053SOL    HW228059   1.706   1.156   2.493
 9054SOL     OW28060   2.982   5.631   4.118
 9054SOL    HW128061   2.989   5.601   4.213
 9054SOL    HW228062   2.959   5.553   4.060
 9055SOL     OW28063   5.513   2.580   4.606
 9055SOL    HW128064   5.521   2.523   4.524
 9055SOL    HW228065   5.556   2.669   4.588
 9056SOL     OW28066   0.810   2.492   1.296
 9056SOL    HW128067   0.758   2.575   1.311
 9056SOL    HW228068   0.766   2.438   1.224
 9057SOL     OW28069   4.732   2.788   5.483
 9057SOL    HW128070   4.752   2.842   5.401
 9057SOL    HW228071   4.773   2.697   5.474
 9058SOL     OW28072   1.663   0.442   1.620
 9058SOL    HW128073   1.727   0.403   1.554
 9058SOL    HW228074   1.701   0.435   1.712
 9059SOL     OW28075   0.919   2.406   2.796
 9059SOL    HW128076   0.989   2.477   2.800
 9059SOL    HW228077   0.921   2.353   2.880
 9060SOL     OW28078   6.005   2.996   4.337
 9060SOL    HW128079   6.074   3.062   4.307
 9060SOL    HW228080   5.948   3.038   4.408
 9061SOL     OW28081   2.387   5.426   2.374
 9061SOL    HW128082   2.440   5.365   2.314
 9061SOL    HW228083   2.445   5.458   2.449
 9062SOL     OW28084   1.131   6.546   2.594
 9062SOL    HW128085   1.198   6.474   2.574
 9062SOL    HW228086   1.131   6.564   2.693
 9063SOL     OW28087   3.016   0.259   4.154
 9063SOL    HW128088   2.964   0.287   4.235
 9063SOL    HW228089   3.079   0.332   4.128
 9064SOL     OW28090   6.150   2.852   6.066
 9064SOL    HW128091   6.198   2.765   6.065
 9064SOL    HW228092   6.143   2.885   6.161
 9065SOL     OW28093   4.011   0.315   6.779
 9065SOL    HW128094   4.106   0.344   6.776
 9065SOL    HW228095   3.996   0.257   6.858
 9066SOL     OW28096   5.327   6.833   0.732
 9066SOL    HW128097   5.328   6.927   0.698
 9066SOL    HW228098   5.419   6.807   0.762
 9067SOL     OW28099   1.074   0.816   3.806
 9067SOL    HW128100   1.140   0.841   3.734
 9067SOL    HW228101   1.012   0.893   3.823
 9068SOL     OW28102   1.802   6.151   4.521
 9068SOL    HW128103   1.707   6.169   4.546
 9068SOL    HW228104   1.806   6.068   4.465
 9069SOL     OW28105   1.380   2.949   1.169
 9069SOL    HW128106   1.333   2.898   1.241
 9069SOL    HW228107   1.399   3.042   1.200
 9070SOL     OW28108   1.414   3.530   5.223
 9070SOL    HW128109   1.358   3.487   5.294
 9070SOL    HW228110   1.366   3.523   5.135
 9071SOL     OW28111   6.684   6.346   1.345
 9071SOL    HW128112   6.714   6.346   1.440
 9071SOL    HW228113   6.738   6.412   1.292
 9072SOL     OW28114   0.364   2.508   1.098
 9072SOL    HW128115   0.304   2.492   1.019
 9072SOL    HW228116   0.310   2.514   1.181
 9073SOL     OW28117   2.497   0.064   2.559
 9073SOL    HW128118   2.568   0.086   2.626
 9073SOL    HW228119   2.539   0.038   2.473
 9074SOL     OW28120   1.041   0.436   2.367
 9074SOL    HW128121   1.098   0.358   2.393
 9074SOL    HW228122   0.997   0.417   2.279
 9075SOL     OW28123   0.086   1.662   2.567
 9075SOL    HW128124   0.081   1.566   2.595
 9075SOL    HW228125   0.127   1.715   2.641
 9076SOL     OW28126   6.685   1.213   6.434
 9076SOL    HW128127   6.634   1.298   6.445
 9076SOL    HW228128   6.654   1.166   6.351
 9077SOL     OW28129   4.324   0.072   1.096
 9077SOL    HW128130   4.361   0.117   1.015
 9077SOL    HW228131   4.328   6.998   1.084
 9078SOL     OW28132   3.509   3.464   4.787
 9078SOL    HW128133   3.596   3.463   4.737
 9078SOL    HW228134   3.479   3.559   4.799
 9079SOL     OW28135   2.650   0.694   4.809
 9079SOL    HW128136   2.552   0.716   4.809
 9079SOL    HW228137   2.680   0.679   4.903
 9080SOL     OW28138   5.128   2.887   6.559
 9080SOL    HW128139   5.057   2.842   6.505
 9080SOL    HW228140   5.151   2.831   6.639
 9081SOL     OW28141   4.868   6.747   2.565
 9081SOL    HW128142   4.930   6.739   2.487
 9081SOL    HW228143   4.821   6.836   2.561
 9082SOL     OW28144   1.792   0.325   4.936
 9082SOL    HW128145   1.833   0.335   5.027
 9082SOL    HW228146   1.818   0.404   4.880
 9083SOL     OW28147   4.270   4.860   5.782
 9083SOL    HW128148   4.293   4.823   5.872
 9083SOL    HW228149   4.274   4.960   5.785
 9084SOL     OW28150   3.241   3.732   2.931
 9084SOL    HW128151   3.235   3.635   2.957
 9084SOL    HW228152   3.149   3.770   2.923
 9085SOL     OW28153   2.369   0.275   0.773
 9085SOL    HW128154   2.446   0.339   0.768
 9085SOL    HW228155   2.372   0.214   0.695
 9086SOL     OW28156   0.798   4.383   0.221
 9086SOL    HW128157   0.817   4.355   0.315
 9086SOL    HW228158   0.764   4.305   0.168
 9087SOL     OW28159   4.548   2.724   1.692
 9087SOL    HW128160   4.631   2.671   1.673
 9087SOL    HW228161   4.572   2.805   1.745
 9088SOL     OW28162   6.444   0.088   1.028
 9088SOL    HW128163   6.519   0.151   1.009
 9088SOL    HW228164   6.363   0.140   1.056
 9089SOL     OW28165   5.149   6.725   5.281
 9089SOL    HW128166   5.084   6.738   5.356
 9089SOL    HW228167   5.105   6.674   5.207
 9090SOL     OW28168   5.857   1.419   5.663
 9090SOL    HW128169   5.899   1.328   5.665
 9090SOL    HW228170   5.787   1.422   5.592
 9091SOL     OW28171   2.806   3.558   6.687
 9091SOL    HW128172   2.818   3.479   6.747
 9091SOL    HW228173   2.838   3.641   6.733
 9092SOL     OW28174   6.503   0.921   0.136
 9092SOL    HW128175   6.534   0.941   0.043
 9092SOL    HW228176   6.579   0.936   0.200
 9093SOL     OW28177   1.911   6.032   5.137
 9093SOL    HW128178   1.873   6.087   5.062
 9093SOL    HW228179   1.975   5.965   5.099
 9094SOL     OW28180   6.396   4.473   2.363
 9094SOL    HW128181   6.450   4.528   2.299
 9094SOL    HW228182   6.367   4.389   2.318
 9095SOL     OW28183   4.831   4.598   6.017
 9095SOL    HW128184   4.806   4.694   6.005
 9095SOL    HW228185   4.827   4.551   5.929
 9096SOL     OW28186   6.364   5.382   3.161
 9096SOL    HW128187   6.266   5.401   3.172
 9096SOL    HW228188   6.413   5.468   3.147
 9097SOL     OW28189   2.396   1.753   7.005
 9097SOL    HW128190   2.365   1.839   0.021
 9097SOL    HW228191   2.336   1.678   0.008
 9098SOL     OW28192   2.702   2.099   5.054
 9098SOL    HW128193   2.786   2.122   5.004
 9098SOL    HW228194   2.640   2.177   5.053
 9099SOL     OW28195   2.496   3.287   6.784
 9099SOL    HW128196   2.443   3.299   6.700
 9099SOL    HW228197   2.592   3.276   6.761
 9100SOL     OW28198   0.934   3.780   2.490
 9100SOL    HW128199   1.026   3.747   2.470
 9100SOL    HW228200   0.895   3.725   2.564
 9101SOL     OW28201   2.384   0.861   2.251
 9101SOL    HW128202   2.335   0.781   2.216
 9101SOL    HW228203   2.448   0.832   2.323
 9102SOL     OW28204   3.815   6.910   1.776
 9102SOL    HW128205   3.855   6.988   1.727
 9102SOL    HW228206   3.772   6.848   1.711
 9103SOL     OW28207   5.431   1.737   6.814
 9103SOL    HW128208   5.499   1.675   6.774
 9103SOL    HW228209   5.344   1.725   6.767
 9104SOL     OW28210   6.870   6.701   2.096
 9104SOL    HW128211   6.793   6.651   2.057
 9104SOL    HW228212   6.837   6.766   2.165
 9105SOL     OW28213   1.361   6.945   5.069
 9105SOL    HW128214   1.410   6.950   4.982
 9105SOL    HW228215   1.279   6.888   5.058
 9106SOL     OW28216   0.672   3.449   6.864
 9106SOL    HW128217   0.680   3.514   6.940
 9106SOL    HW228218   0.685   3.498   6.777
 9107SOL     OW28219   2.094   1.042   6.745
 9107SOL    HW128220   2.102   0.947   6.776
 9107SOL    HW228221   2.113   1.047   6.647
 9108SOL     OW28222   5.008   4.447   5.362
 9108SOL    HW128223   4.953   4.504   5.422
 9108SOL    HW228224   5.056   4.378   5.416
 9109SOL     OW28225   5.051   2.572   2.940
 9109SOL    HW128226   5.065   2.573   2.841
 9109SOL    HW228227   5.131   2.611   2.985
 9110SOL     OW28228   1.162   5.614   4.654
 9110SOL    HW128229   1.155   5.660   4.566
 9110SOL    HW228230   1.236   5.547   4.651
 9111SOL     OW28231   4.669   2.728   6.356
 9111SOL    HW128232   4.763   2.708   6.330
 9111SOL    HW228233   4.639   2.813   6.311
 9112SOL     OW28234   1.418   4.901   2.826
 9112SOL    HW128235   1.510   4.904   2.864
 9112SOL    HW228236   1.423   4.907   2.726
 9113SOL     OW28237   5.426   2.144   3.982
 9113SOL    HW128238   5.453   2.230   3.939
 9113SOL    HW228239   5.412   2.159   4.080
 9114SOL     OW28240   0.917   6.044   4.036
 9114SOL    HW128241   0.928   5.958   3.986
 9114SOL    HW228242   0.930   6.121   3.973
 9115SOL     OW28243   6.281   5.382   3.594
 9115SOL    HW128244   6.326   5.375   3.505
 9115SOL    HW228245   6.301   5.471   3.635
 9116SOL     OW28246   0.241   0.119   3.034
 9116SOL    HW128247   0.318   0.180   3.051
 9116SOL    HW228248   0.273   0.024   3.035
 9117SOL     OW28249   4.346   1.805   6.244
 9117SOL    HW128250   4.282   1.753   6.301
 9117SOL    HW228251   4.295   1.869   6.187
 9118SOL     OW28252   6.141   3.799   0.648
 9118SOL    HW128253   6.049   3.831   0.626
 9118SOL    HW228254   6.209   3.857   0.602
 9119SOL     OW28255   3.988   6.989   1.320
 9119SOL    HW128256   4.027   6.916   1.264
 9119SOL    HW228257   4.048   0.043   1.318
 9120SOL     OW28258   6.536   2.956   5.971
 9120SOL    HW128259   6.617   3.015   5.969
 9120SOL    HW228260   6.565   2.861   5.985
 9121SOL     OW28261   4.021   0.128   5.668
 9121SOL    HW128262   4.022   0.199   5.738
 9121SOL    HW228263   4.024   0.038   5.712
 9122SOL     OW28264   2.156   3.907   1.928
 9122SOL    HW128265   2.160   3.874   2.022
 9122SOL    HW228266   2.161   4.007   1.927
 9123SOL     OW28267   1.492   0.765   3.478
 9123SOL    HW128268   1.484   0.864   3.464
 9123SOL    HW228269   1.578   0.745   3.524
 9124SOL     OW28270   3.634   5.375   1.827
 9124SOL    HW128271   3.595   5.284   1.837
 9124SOL    HW228272   3.560   5.442   1.818
 9125SOL     OW28273   3.992   5.387   0.470
 9125SOL    HW128274   4.043   5.303   0.488
 9125SOL    HW228275   3.924   5.370   0.399
 9126SOL     OW28276   4.727   4.409   0.596
 9126SOL    HW128277   4.739   4.310   0.608
 9126SOL    HW228278   4.812   4.449   0.562
 9127SOL     OW28279   6.618   2.899   5.096
 9127SOL    HW128280   6.588   2.806   5.077
 9127SOL    HW228281   6.687   2.926   5.029
 9128SOL     OW28282   6.117   3.037   4.752
 9128SOL    HW128283   6.109   3.054   4.850
 9128SOL    HW228284   6.128   3.124   4.704
 9129SOL     OW28285   1.654   2.172   0.771
 9129SOL    HW128286   1.606   2.084   0.759
 9129SOL    HW228287   1.587   2.245   0.783
 9130SOL     OW28288   1.564   4.060   5.756
 9130SOL    HW128289   1.631   4.133   5.772
 9130SOL    HW228290   1.589   3.980   5.810
 9131SOL     OW28291   5.367   2.901   0.227
 9131SOL    HW128292   5.357   2.838   0.149
 9131SOL    HW228293   5.298   2.879   0.296
 9132SOL     OW28294   1.113   4.760   4.225
 9132SOL    HW128295   1.127   4.850   4.267
 9132SOL    HW228296   1.115   4.689   4.295
 9133SOL     OW28297   3.078   0.492   1.057
 9133SOL    HW128298   3.090   0.553   0.978
 9133SOL    HW228299   3.034   0.543   1.131
 9134SOL     OW28300   4.444   5.458   0.506
 9134SOL    HW128301   4.529   5.469   0.557
 9134SOL    HW228302   4.368   5.496   0.559
 9135SOL     OW28303   0.921   6.414   2.150
 9135SOL    HW128304   0.864   6.417   2.231
 9135SOL    HW228305   0.920   6.322   2.111
 9136SOL     OW28306   4.763   4.944   5.985
 9136SOL    HW128307   4.727   4.910   5.898
 9136SOL    HW228308   4.807   5.032   5.970
 9137SOL     OW28309   4.697   6.100   5.873
 9137SOL    HW128310   4.766   6.173   5.870
 9137SOL    HW228311   4.632   6.119   5.946
 9138SOL     OW28312   1.863   3.209   0.787
 9138SOL    HW128313   1.782   3.255   0.823
 9138SOL    HW228314   1.890   3.252   0.700
 9139SOL     OW28315   0.374   0.970   1.210
 9139SOL    HW128316   0.343   0.877   1.231
 9139SOL    HW228317   0.399   0.975   1.113
 9140SOL     OW28318   0.166   4.733   1.901
 9140SOL    HW128319   0.260   4.724   1.934
 9140SOL    HW228320   0.155   4.821   1.855
 9141SOL     OW28321   0.203   5.886   6.192
 9141SOL    HW128322   0.204   5.917   6.097
 9141SOL    HW228323   0.246   5.796   6.197
 9142SOL     OW28324   0.700   3.346   2.941
 9142SOL    HW128325   0.643   3.285   2.995
 9142SOL    HW228326   0.652   3.371   2.857
 9143SOL     OW28327   6.829   4.005   1.565
 9143SOL    HW128328   6.741   3.982   1.607
 9143SOL    HW228329   6.844   3.947   1.485
 9144SOL     OW28330   3.072   5.141   4.677
 9144SOL    HW128331   3.044   5.060   4.626
 9144SOL    HW228332   3.155   5.180   4.635
 9145SOL     OW28333   1.636   6.541   6.435
 9145SOL    HW128334   1.681   6.584   6.513
 9145SOL    HW228335   1.607   6.449   6.461
 9146SOL     OW28336   6.154   3.122   3.523
 9146SOL    HW128337   6.111   3.036   3.550
 9146SOL    HW228338   6.151   3.187   3.600
 9147SOL     OW28339   5.912   6.748   4.343
 9147SOL    HW128340   5.829   6.753   4.399
 9147SOL    HW228341   5.991   6.729   4.402
 9148SOL     OW28342   6.400   0.280   1.808
 9148SOL    HW128343   6.392   0.371   1.848
 9148SOL    HW228344   6.493   0.245   1.823
 9149SOL     OW28345   5.972   3.023   0.978
 9149SOL    HW128346   5.989   2.924   0.984
 9149SOL    HW228347   5.886   3.045   1.024
 9150SOL     OW28348   2.592   4.140   0.417
 9150SOL    HW128349   2.634   4.138   0.326
 9150SOL    HW228350   2.541   4.225   0.428
 9151SOL     OW28351   1.982   3.962   3.732
 9151SOL    HW128352   1.932   4.038   3.689
 9151SOL    HW228353   1.993   3.888   3.666
 9152SOL     OW28354   2.098   3.630   3.940
 9152SOL    HW128355   2.108   3.661   3.846
 9152SOL    HW228356   2.005   3.599   3.956
 9153SOL     OW28357   0.731   2.483   6.480
 9153SOL    HW128358   0.779   2.530   6.555
 9153SOL    HW228359   0.759   2.387   6.478
 9154SOL     OW28360   5.860   5.406   3.144
 9154SOL    HW128361   5.875   5.386   3.047
 9154SOL    HW228362   5.797   5.484   3.152
 9155SOL     OW28363   1.682   5.220   2.403
 9155SOL    HW128364   1.751   5.285   2.372
 9155SOL    HW228365   1.681   5.140   2.343
 9156SOL     OW28366   6.683   3.085   1.103
 9156SOL    HW128367   6.710   3.154   1.170
 9156SOL    HW228368   6.676   2.996   1.149
 9157SOL     OW28369   3.678   4.241   6.422
 9157SOL    HW128370   3.722   4.283   6.502
 9157SOL    HW228371   3.718   4.151   6.406
 9158SOL     OW28372   6.899   3.841   4.026
 9158SOL    HW128373   6.933   3.797   3.943
 9158SOL    HW228374   6.823   3.902   4.002
 9159SOL     OW28375   2.891   0.531   3.463
 9159SOL    HW128376   2.795   0.523   3.488
 9159SOL    HW228377   2.943   0.565   3.542
 9160SOL     OW28378   0.554   4.756   6.824
 9160SOL    HW128379   0.464   4.773   6.784
 9160SOL    HW228380   0.547   4.682   6.891
 9161SOL     OW28381   5.871   4.363   2.089
 9161SOL    HW128382   5.935   4.377   2.165
 9161SOL    HW228383   5.916   4.309   2.018
 9162SOL     OW28384   4.317   1.756   2.420
 9162SOL    HW128385   4.238   1.780   2.364
 9162SOL    HW228386   4.323   1.656   2.429
 9163SOL     OW28387   0.586   2.424   2.283
 9163SOL    HW128388   0.659   2.492   2.275
 9163SOL    HW228389   0.598   2.372   2.368
 9164SOL     OW28390   2.417   0.270   6.793
 9164SOL    HW128391   2.338   0.226   6.751
 9164SOL    HW228392   2.389   0.355   6.836
 9165SOL     OW28393   4.690   2.529   5.374
 9165SOL    HW128394   4.781   2.502   5.342
 9165SOL    HW228395   4.624   2.519   5.300
 9166SOL     OW28396   4.498   5.712   1.724
 9166SOL    HW128397   4.410   5.720   1.769
 9166SOL    HW228398   4.534   5.620   1.737
 9167SOL     OW28399   0.540   1.509   6.295
 9167SOL    HW128400   0.559   1.607   6.289
 9167SOL    HW228401   0.443   1.495   6.314
 9168SOL     OW28402   6.452   5.199   4.953
 9168SOL    HW128403   6.496   5.143   5.023
 9168SOL    HW228404   6.390   5.264   4.998
 9169SOL     OW28405   6.534   6.094   6.720
 9169SOL    HW128406   6.576   6.184   6.709
 9169SOL    HW228407   6.462   6.083   6.651
 9170SOL     OW28408   1.613   1.884   6.263
 9170SOL    HW128409   1.553   1.804   6.273
 9170SOL    HW228410   1.682   1.884   6.335
 9171SOL     OW28411   2.758   4.822   0.674
 9171SOL    HW128412   2.840   4.765   0.678
 9171SOL    HW228413   2.687   4.775   0.622
 9172SOL     OW28414   5.215   1.321   4.799
 9172SOL    HW128415   5.202   1.237   4.851
 9172SOL    HW228416   5.312   1.347   4.800
 9173SOL     OW28417   6.641   2.797   3.836
 9173SOL    HW128418   6.655   2.820   3.740
 9173SOL    HW228419   6.558   2.743   3.846
 9174SOL     OW28420   0.830   5.976   0.234
 9174SOL    HW128421   0.929   5.971   0.252
 9174SOL    HW228422   0.798   6.069   0.254
 9175SOL     OW28423   2.041   6.994   0.150
 9175SOL    HW128424   2.035   6.976   0.248
 9175SOL    HW228425   2.137   6.992   0.121
 9176SOL     OW28426   2.032   0.848   3.089
 9176SOL    HW128427   2.107   0.842   3.155
 9176SOL    HW228428   1.945   0.828   3.135
 9177SOL     OW28429   0.863   4.201   4.097
 9177SOL    HW128430   0.803   4.195   4.016
 9177SOL    HW228431   0.829   4.139   4.168
 9178SOL     OW28432   2.485   6.285   6.869
 9178SOL    HW128433   2.507   6.295   6.966
 9178SOL    HW228434   2.401   6.333   6.847
 9179SOL     OW28435   3.838   6.426   5.381
 9179SOL    HW128436   3.738   6.426   5.374
 9179SOL    HW228437   3.873   6.518   5.364
 9180SOL     OW28438   6.965   1.381   4.462
 9180SOL    HW128439   7.012   1.447   4.520
 9180SOL    HW228440   6.908   1.321   4.519
 9181SOL     OW28441   4.226   1.774   3.540
 9181SOL    HW128442   4.274   1.695   3.502
 9181SOL    HW228443   4.241   1.854   3.482
 9182SOL     OW28444   1.756   1.248   3.048
 9182SOL    HW128445   1.805   1.161   3.034
 9182SOL    HW228446   1.823   1.322   3.054
 9183SOL     OW28447   5.031   2.555   6.935
 9183SOL    HW128448   5.087   2.579   7.014
 9183SOL    HW228449   4.934   2.557   6.961
 9184SOL     OW28450   3.409   3.361   0.703
 9184SOL    HW128451   3.367   3.271   0.697
 9184SOL    HW228452   3.503   3.352   0.735
 9185SOL     OW28453   0.572   0.835   6.724
 9185SOL    HW128454   0.543   0.931   6.722
 9185SOL    HW228455   0.533   0.791   6.804
 9186SOL     OW28456   5.017   0.053   6.660
 9186SOL    HW128457   5.013   0.112   6.580
 9186SOL    HW228458   5.021   0.109   6.743
 9187SOL     OW28459   4.928   1.698   6.749
 9187SOL    HW128460   4.899   1.604   6.766
 9187SOL    HW228461   4.889   1.730   6.663
 9188SOL     OW28462   1.177   0.115   1.387
 9188SOL    HW128463   1.219   0.092   1.299
 9188SOL    HW228464   1.077   0.110   1.379
 9189SOL     OW28465   2.850   1.274   3.271
 9189SOL    HW128466   2.811   1.263   3.362
 9189SOL    HW228467   2.889   1.186   3.241
 9190SOL     OW28468   6.093   3.476   5.249
 9190SOL    HW128469   6.004   3.481   5.294
 9190SOL    HW228470   6.165   3.498   5.315
 9191SOL     OW28471   5.524   6.357   6.819
 9191SOL    HW128472   5.582   6.350   6.900
 9191SOL    HW228473   5.523   6.269   6.772
 9192SOL     OW28474   0.114   4.051   6.105
 9192SOL    HW128475   0.189   4.048   6.039
 9192SOL    HW228476   0.028   4.064   6.056
 9193SOL     OW28477   3.721   3.435   3.913
 9193SOL    HW128478   3.656   3.497   3.869
 9193SOL    HW228479   3.696   3.340   3.893
 9194SOL     OW28480   3.131   5.648   2.550
 9194SOL    HW128481   3.065   5.665   2.623
 9194SOL    HW228482   3.090   5.585   2.483
 9195SOL     OW28483   0.420   3.480   3.272
 9195SOL    HW128484   0.408   3.475   3.173
 9195SOL    HW228485   0.510   3.516   3.294
 9196SOL     OW28486   3.650   0.572   3.642
 9196SOL    HW128487   3.647   0.657   3.696
 9196SOL    HW228488   3.577   0.511   3.673
 9197SOL     OW28489   2.728   3.346   0.096
 9197SOL    HW128490   2.638   3.311   0.120
 9197SOL    HW228491   2.752   3.315   0.004
 9198SOL     OW28492   5.682   3.888   5.540
 9198SOL    HW128493   5.676   3.839   5.627
 9198SOL    HW228494   5.768   3.865   5.495
 9199SOL     OW28495   1.713   3.905   6.372
 9199SOL    HW128496   1.693   3.986   6.317
 9199SOL    HW228497   1.703   3.823   6.315
 9200SOL     OW28498   0.066   6.870   0.793
 9200SOL    HW128499   7.002   6.894   0.831
 9200SOL    HW228500   0.097   6.944   0.732
 9201SOL     OW28501   6.878   4.300   1.872
 9201SOL    HW128502   6.928   4.245   1.805
 9201SOL    HW228503   6.781   4.304   1.846
 9202SOL     OW28504   2.423   4.876   4.115
 9202SOL    HW128505   2.508   4.839   4.152
 9202SOL    HW228506   2.439   4.910   4.022
 9203SOL     OW28507   5.946   1.404   6.287
 9203SOL    HW128508   5.899   1.375   6.204
 9203SOL    HW228509   5.991   1.492   6.271
 9204SOL     OW28510   5.645   3.640   3.332
 9204SOL    HW128511   5.690   3.681   3.252
 9204SOL    HW228512   5.667   3.542   3.335
 9205SOL     OW28513   5.570   3.067   2.984
 9205SOL    HW128514   5.615   3.042   3.070
 9205SOL    HW228515   5.583   3.164   2.966
 9206SOL     OW28516   2.156   6.083   3.540
 9206SOL    HW128517   2.151   6.118   3.447
 9206SOL    HW228518   2.157   5.983   3.539
 9207SOL     OW28519   4.296   6.244   6.050
 9207SOL    HW128520   4.242   6.325   6.076
 9207SOL    HW228521   4.391   6.257   6.079
 9208SOL     OW28522   4.884   3.410   2.492
 9208SOL    HW128523   4.853   3.327   2.539
 9208SOL    HW228524   4.926   3.472   2.557
 9209SOL     OW28525   4.221   1.085   2.787
 9209SOL    HW128526   4.233   1.128   2.697
 9209SOL    HW228527   4.208   0.986   2.775
 9210SOL     OW28528   2.088   6.754   1.460
 9210SOL    HW128529   2.086   6.674   1.400
 9210SOL    HW228530   2.034   6.827   1.418
 9211SOL     OW28531   5.028   1.834   6.319
 9211SOL    HW128532   4.941   1.790   6.342
 9211SOL    HW228533   5.028   1.928   6.352
 9212SOL     OW28534   4.544   4.901   4.435
 9212SOL    HW128535   4.527   4.881   4.338
 9212SOL    HW228536   4.642   4.902   4.452
 9213SOL     OW28537   6.091   0.424   4.175
 9213SOL    HW128538   6.108   0.442   4.079
 9213SOL    HW228539   6.024   0.489   4.210
 9214SOL     OW28540   1.933   2.807   4.504
 9214SOL    HW128541   2.024   2.771   4.484
 9214SOL    HW228542   1.928   2.835   4.600
 9215SOL     OW28543   0.413   3.560   3.000
 9215SOL    HW128544   0.496   3.541   2.949
 9215SOL    HW228545   0.404   3.659   3.012
 9216SOL     OW28546   2.399   5.845   5.137
 9216SOL    HW128547   2.458   5.808   5.208
 9216SOL    HW228548   2.383   5.942   5.154
 9217SOL     OW28549   5.062   1.577   6.150
 9217SOL    HW128550   5.138   1.589   6.214
 9217SOL    HW228551   5.015   1.491   6.170
 9218SOL     OW28552   5.656   6.501   6.595
 9218SOL    HW128553   5.604   6.463   6.672
 9218SOL    HW228554   5.749   6.522   6.626
 9219SOL     OW28555   3.737   2.632   5.331
 9219SOL    HW128556   3.833   2.604   5.341
 9219SOL    HW228557   3.734   2.723   5.289
 9220SOL     OW28558   1.685   6.241   2.768
 9220SOL    HW128559   1.604   6.291   2.739
 9220SOL    HW228560   1.757   6.250   2.699
 9221SOL     OW28561   2.664   0.648   6.441
 9221SOL    HW128562   2.638   0.694   6.526
 9221SOL    HW228563   2.662   0.549   6.455
 9222SOL     OW28564   1.866   4.653   3.626
 9222SOL    HW128565   1.771   4.650   3.595
 9222SOL    HW228566   1.868   4.675   3.724
 9223SOL     OW28567   1.683   4.208   4.826
 9223SOL    HW128568   1.654   4.158   4.744
 9223SOL    HW228569   1.607   4.216   4.889
 9224SOL     OW28570   1.609   4.620   3.914
 9224SOL    HW128571   1.602   4.706   3.964
 9224SOL    HW228572   1.532   4.612   3.851
 9225SOL     OW28573   3.886   6.740   6.494
 9225SOL    HW128574   3.930   6.724   6.406
 9225SOL    HW228575   3.840   6.656   6.524
 9226SOL     OW28576   1.089   6.522   0.932
 9226SOL    HW128577   1.089   6.542   1.030
 9226SOL    HW228578   1.013   6.462   0.910
 9227SOL     OW28579   2.009   5.589   0.699
 9227SOL    HW128580   1.926   5.637   0.672
 9227SOL    HW228581   1.988   5.494   0.720
 9228SOL     OW28582   1.828   2.699   5.344
 9228SOL    HW128583   1.743   2.655   5.315
 9228SOL    HW228584   1.861   2.759   5.272
 9229SOL     OW28585   0.483   4.239   6.990
 9229SOL    HW128586   0.403   4.272   0.015
 9229SOL    HW228587   0.456   4.216   6.896
 9230SOL     OW28588   4.911   2.388   4.121
 9230SOL    HW128589   4.951   2.343   4.041
 9230SOL    HW228590   4.979   2.394   4.193
 9231SOL     OW28591   0.985   5.547   5.390
 9231SOL    HW128592   0.973   5.606   5.309
 9231SOL    HW228593   1.060   5.484   5.375
 9232SOL     OW28594   1.864   5.530   1.769
 9232SOL    HW128595   1.886   5.461   1.838
 9232SOL    HW228596   1.771   5.563   1.784
 9233SOL     OW28597   0.494   6.809   0.957
 9233SOL    HW128598   0.568   6.776   1.015
 9233SOL    HW228599   0.457   6.734   0.903
 9234SOL     OW28600   2.142   4.991   0.984
 9234SOL    HW128601   2.141   4.957   0.890
 9234SOL    HW228602   2.063   4.955   1.034
 9235SOL     OW28603   2.379   2.638   3.240
 9235SOL    HW128604   2.374   2.583   3.323
 9235SOL    HW228605   2.447   2.597   3.178
 9236SOL     OW28606   1.746   3.107   6.848
 9236SOL    HW128607   1.749   3.175   6.922
 9236SOL    HW228608   1.811   3.034   6.867
 9237SOL     OW28609   5.996   5.474   3.690
 9237SOL    HW128610   6.067   5.425   3.639
 9237SOL    HW228611   5.907   5.454   3.650
 9238SOL     OW28612   1.695   3.421   5.199
 9238SOL    HW128613   1.648   3.417   5.287
 9238SOL    HW228614   1.654   3.493   5.143
 9239SOL     OW28615   0.113   4.720   0.107
 9239SOL    HW128616   0.182   4.658   0.142
 9239SOL    HW228617   0.140   4.753   0.016
 9240SOL     OW28618   4.902   2.819   3.169
 9240SOL    HW128619   4.830   2.753   3.186
 9240SOL    HW228620   4.893   2.855   3.076
 9241SOL     OW28621   0.013   6.243   0.505
 9241SOL    HW128622   6.984   6.202   0.578
 9241SOL    HW228623   0.083   6.179   0.475
 9242SOL     OW28624   1.372   2.336   1.927
 9242SOL    HW128625   1.432   2.310   1.852
 9242SOL    HW228626   1.427   2.353   2.009
 9243SOL     OW28627   0.323   0.269   1.487
 9243SOL    HW128628   0.395   0.281   1.555
 9243SOL    HW228629   0.364   0.241   1.400
 9244SOL     OW28630   3.479   6.277   5.324
 9244SOL    HW128631   3.451   6.338   5.250
 9244SOL    HW228632   3.555   6.220   5.293
 9245SOL     OW28633   0.932   4.097   3.113
 9245SOL    HW128634   0.921   4.122   3.016
 9245SOL    HW228635   1.021   4.054   3.126
 9246SOL     OW28636   6.381   6.912   4.267
 9246SOL    HW128637   6.349   6.860   4.347
 9246SOL    HW228638   6.304   6.926   4.204
 9247SOL     OW28639   3.516   5.830   3.027
 9247SOL    HW128640   3.479   5.916   2.992
 9247SOL    HW228641   3.472   5.808   3.114
 9248SOL     OW28642   2.497   1.652   4.861
 9248SOL    HW128643   2.550   1.618   4.784
 9248SOL    HW228644   2.550   1.721   4.911
 9249SOL     OW28645   3.741   4.737   1.575
 9249SOL    HW128646   3.700   4.698   1.658
 9249SOL    HW228647   3.789   4.822   1.598
 9250SOL     OW28648   6.636   4.284   4.552
 9250SOL    HW128649   6.632   4.244   4.644
 9250SOL    HW228650   6.643   4.383   4.559
 9251SOL     OW28651   4.165   2.857   1.114
 9251SOL    HW128652   4.120   2.822   1.032
 9251SOL    HW228653   4.213   2.782   1.161
 9252SOL     OW28654   4.179   0.632   4.852
 9252SOL    HW128655   4.125   0.698   4.800
 9252SOL    HW228656   4.247   0.681   4.907
 9253SOL     OW28657   0.307   4.602   5.391
 9253SOL    HW128658   0.399   4.606   5.428
 9253SOL    HW228659   0.307   4.634   5.296
 9254SOL     OW28660   5.829   4.487   2.459
 9254SOL    HW128661   5.868   4.403   2.497
 9254SOL    HW228662   5.738   4.502   2.497
 9255SOL     OW28663   6.367   3.490   6.858
 9255SOL    HW128664   6.287   3.526   6.811
 9255SOL    HW228665   6.338   3.427   6.930
 9256SOL     OW28666   1.887   6.843   1.847
 9256SOL    HW128667   1.877   6.913   1.776
 9256SOL    HW228668   1.967   6.865   1.903
 9257SOL     OW28669   6.858   5.560   3.449
 9257SOL    HW128670   6.799   5.480   3.442
 9257SOL    HW228671   6.937   5.549   3.389
 9258SOL     OW28672   3.324   3.177   0.191
 9258SOL    HW128673   3.301   3.199   0.286
 9258SOL    HW228674   3.408   3.123   0.189
 9259SOL     OW28675   1.638   1.413   6.328
 9259SOL    HW128676   1.646   1.363   6.414
 9259SOL    HW228677   1.722   1.400   6.274
 9260SOL     OW28678   5.821   3.134   5.724
 9260SOL    HW128679   5.851   3.063   5.788
 9260SOL    HW228680   5.866   3.220   5.747
 9261SOL     OW28681   3.955   1.618   0.706
 9261SOL    HW128682   3.945   1.696   0.769
 9261SOL    HW228683   4.051   1.595   0.697
 9262SOL     OW28684   6.875   6.707   4.705
 9262SOL    HW128685   6.860   6.706   4.804
 9262SOL    HW228686   6.854   6.797   4.668
 9263SOL     OW28687   2.843   5.150   2.914
 9263SOL    HW128688   2.804   5.181   2.828
 9263SOL    HW228689   2.938   5.180   2.921
 9264SOL     OW28690   5.640   3.242   6.728
 9264SOL    HW128691   5.577   3.318   6.740
 9264SOL    HW228692   5.732   3.271   6.755
 9265SOL     OW28693   4.057   1.958   6.849
 9265SOL    HW128694   4.065   1.949   6.948
 9265SOL    HW228695   4.001   2.039   6.828
 9266SOL     OW28696   0.608   4.685   1.656
 9266SOL    HW128697   0.561   4.618   1.599
 9266SOL    HW228698   0.556   4.699   1.740
 9267SOL     OW28699   1.019   1.134   3.787
 9267SOL    HW128700   1.021   1.226   3.827
 9267SOL    HW228701   0.935   1.123   3.734
 9268SOL     OW28702   0.650   7.013   1.690
 9268SOL    HW128703   0.718   6.947   1.723
 9268SOL    HW228704   0.580   6.966   1.637
 9269SOL     OW28705   5.021   0.157   0.108
 9269SOL    HW128706   4.976   0.182   0.022
 9269SOL    HW228707   5.062   0.238   0.149
 9270SOL     OW28708   3.471   1.099   6.167
 9270SOL    HW128709   3.439   1.027   6.105
 9270SOL    HW228710   3.445   1.188   6.130
 9271SOL     OW28711   1.118   0.327   6.837
 9271SOL    HW128712   1.097   0.230   6.823
 9271SOL    HW228713   1.213   0.345   6.811
 9272SOL     OW28714   6.423   6.661   6.259
 9272SOL    HW128715   6.353   6.672   6.190
 9272SOL    HW228716   6.503   6.616   6.218
 9273SOL     OW28717   5.464   5.856   3.949
 9273SOL    HW128718   5.470   5.877   4.046
 9273SOL    HW228719   5.460   5.756   3.937
 9274SOL     OW28720   0.784   3.228   0.624
 9274SOL    HW128721   0.789   3.164   0.547
 9274SOL    HW228722   0.711   3.294   0.608
 9275SOL     OW28723   1.042   6.357   1.316
 9275SOL    HW128724   1.080   6.269   1.345
 9275SOL    HW228725   1.023   6.413   1.397
 9276SOL     OW28726   3.271   4.888   0.498
 9276SOL    HW128727   3.175   4.891   0.469
 9276SOL    HW228728   3.330   4.908   0.420
 9277SOL     OW28729   4.557   4.692   2.733
 9277SOL    HW128730   4.529   4.614   2.678
 9277SOL    HW228731   4.591   4.765   2.674
 9278SOL     OW28732   0.298   0.356   4.308
 9278SOL    HW128733   0.275   0.453   4.319
 9278SOL    HW228734   0.354   0.345   4.225
 9279SOL     OW28735   3.580   5.871   1.632
 9279SOL    HW128736   3.570   5.858   1.533
 9279SOL    HW228737   3.497   5.913   1.669
 9280SOL     OW28738   1.419   1.405   2.685
 9280SOL    HW128739   1.386   1.383   2.594
 9280SOL    HW228740   1.437   1.320   2.736
 9281SOL     OW28741   3.934   3.497   6.212
 9281SOL    HW128742   3.848   3.447   6.202
 9281SOL    HW228743   3.987   3.489   6.127
 9282SOL     OW28744   3.273   0.646   4.278
 9282SOL    HW128745   3.238   0.655   4.185
 9282SOL    HW228746   3.369   0.674   4.281
 9283SOL     OW28747   5.620   0.112   6.301
 9283SOL    HW128748   5.704   0.111   6.356
 9283SOL    HW228749   5.633   0.171   6.221
 9284SOL     OW28750   3.377   3.877   5.312
 9284SOL    HW128751   3.291   3.828   5.319
 9284SOL    HW228752   3.368   3.952   5.246
 9285SOL     OW28753   5.971   3.071   2.575
 9285SOL    HW128754   6.037   3.072   2.500
 9285SOL    HW228755   5.950   2.977   2.600
 9286SOL     OW28756   4.958   6.420   0.795
 9286SOL    HW128757   4.996   6.384   0.880
 9286SOL    HW228758   5.003   6.507   0.773
 9287SOL     OW28759   2.677   4.594   5.817
 9287SOL    HW128760   2.724   4.551   5.740
 9287SOL    HW228761   2.730   4.673   5.848
 9288SOL     OW28762   4.348   2.267   4.144
 9288SOL    HW128763   4.341   2.168   4.150
 9288SOL    HW228764   4.439   2.293   4.111
 9289SOL     OW28765   4.568   6.715   5.860
 9289SOL    HW128766   4.566   6.671   5.771
 9289SOL    HW228767   4.656   6.762   5.873
 9290SOL     OW28768   5.645   0.686   4.888
 9290SOL    HW128769   5.639   0.616   4.816
 9290SOL    HW228770   5.557   0.694   4.934
 9291SOL     OW28771   1.178   6.032   5.132
 9291SOL    HW128772   1.203   6.127   5.151
 9291SOL    HW228773   1.101   6.006   5.191
 9292SOL     OW28774   1.270   1.374   5.800
 9292SOL    HW128775   1.305   1.327   5.718
 9292SOL    HW228776   1.334   1.361   5.876
 9293SOL     OW28777   4.789   2.858   5.741
 9293SOL    HW128778   4.864   2.923   5.741
 9293SOL    HW228779   4.772   2.825   5.648
 9294SOL     OW28780   5.051   0.742   0.525
 9294SOL    HW128781   5.051   0.642   0.527
 9294SOL    HW228782   5.142   0.775   0.502
 9295SOL     OW28783   0.409   0.758   5.303
 9295SOL    HW128784   0.341   0.830   5.290
 9295SOL    HW228785   0.499   0.793   5.278
 9296SOL     OW28786   2.929   3.996   0.963
 9296SOL    HW128787   3.008   4.009   1.023
 9296SOL    HW228788   2.868   3.927   1.002
 9297SOL     OW28789   6.875   6.047   3.327
 9297SOL    HW128790   6.788   6.026   3.372
 9297SOL    HW228791   6.872   6.140   3.289
 9298SOL     OW28792   1.326   6.451   6.052
 9298SOL    HW128793   1.417   6.463   6.013
 9298SOL    HW228794   1.270   6.396   5.989
 9299SOL     OW28795   1.663   2.226   3.957
 9299SOL    HW128796   1.655   2.310   4.011
 9299SOL    HW228797   1.722   2.242   3.878
 9300SOL     OW28798   1.453   6.303   5.025
 9300SOL    HW128799   1.402   6.292   5.110
 9300SOL    HW228800   1.486   6.213   4.994
 9301SOL     OW28801   0.693   4.148   4.534
 9301SOL    HW128802   0.636   4.134   4.615
 9301SOL    HW228803   0.790   4.149   4.561
 9302SOL     OW28804   2.220   2.962   4.850
 9302SOL    HW128805   2.301   2.964   4.909
 9302SOL    HW228806   2.196   2.867   4.830
 9303SOL     OW28807   3.144   3.826   0.017
 9303SOL    HW128808   3.143   3.749   0.081
 9303SOL    HW228809   3.239   3.850   7.019
 9304SOL     OW28810   4.956   4.823   1.035
 9304SOL    HW128811   4.933   4.726   1.019
 9304SOL    HW228812   5.024   4.852   0.968
 9305SOL     OW28813   2.470   1.400   0.661
 9305SOL    HW128814   2.461   1.457   0.580
 9305SOL    HW228815   2.514   1.452   0.735
 9306SOL     OW28816   0.221   3.864   4.846
 9306SOL    HW128817   0.239   3.887   4.750
 9306SOL    HW228818   0.300   3.816   4.884
 9307SOL     OW28819   2.204   3.433   0.832
 9307SOL    HW128820   2.226   3.442   0.735
 9307SOL    HW228821   2.184   3.337   0.852
 9308SOL     OW28822   1.517   4.275   1.489
 9308SOL    HW128823   1.534   4.249   1.394
 9308SOL    HW228824   1.430   4.236   1.518
 9309SOL     OW28825   5.136   5.931   5.517
 9309SOL    HW128826   5.232   5.921   5.490
 9309SOL    HW228827   5.104   5.848   5.562
 9310SOL     OW28828   4.175   5.739   5.841
 9310SOL    HW128829   4.111   5.720   5.767
 9310SOL    HW228830   4.253   5.790   5.806
 9311SOL     OW28831   4.473   3.625   1.422
 9311SOL    HW128832   4.422   3.544   1.394
 9311SOL    HW228833   4.410   3.700   1.442
 9312SOL     OW28834   1.345   1.955   0.943
 9312SOL    HW128835   1.408   1.944   0.867
 9312SOL    HW228836   1.257   1.915   0.920
 9313SOL     OW28837   1.364   0.682   1.945
 9313SOL    HW128838   1.375   0.617   1.869
 9313SOL    HW228839   1.275   0.667   1.989
 9314SOL     OW28840   5.104   2.617   0.994
 9314SOL    HW128841   5.049   2.697   0.972
 9314SOL    HW228842   5.103   2.553   0.916
 9315SOL     OW28843   5.623   1.241   6.739
 9315SOL    HW128844   5.694   1.299   6.700
 9315SOL    HW228845   5.600   1.274   6.831
 9316SOL     OW28846   5.530   0.552   5.628
 9316SOL    HW128847   5.615   0.529   5.677
 9316SOL    HW228848   5.552   0.572   5.532
 9317SOL     OW28849   3.005   5.413   3.893
 9317SOL    HW128850   2.966   5.465   3.817
 9317SOL    HW228851   3.092   5.373   3.865
 9318SOL     OW28852   5.477   5.839   0.313
 9318SOL    HW128853   5.512   5.790   0.393
 9318SOL    HW228854   5.498   5.787   0.231
 9319SOL     OW28855   2.748   4.187   1.221
 9319SOL    HW128856   2.695   4.140   1.151
 9319SOL    HW228857   2.829   4.133   1.244
 9320SOL     OW28858   5.543   0.474   6.067
 9320SOL    HW128859   5.540   0.573   6.072
 9320SOL    HW228860   5.451   0.439   6.048
 9321SOL     OW28861   0.001   3.016   5.622
 9321SOL    HW128862   7.019   3.024   5.721
 9321SOL    HW228863   0.085   3.061   5.591
 9322SOL     OW28864   5.991   4.014   5.572
 9322SOL    HW128865   5.926   4.082   5.537
 9322SOL    HW228866   6.004   3.942   5.505
 9323SOL     OW28867   1.387   3.769   3.531
 9323SOL    HW128868   1.393   3.687   3.589
 9323SOL    HW228869   1.302   3.818   3.551
 9324SOL     OW28870   1.029   4.197   0.645
 9324SOL    HW128871   1.080   4.242   0.718
 9324SOL    HW228872   1.092   4.161   0.576
 9325SOL     OW28873   1.944   5.383   1.979
 9325SOL    HW128874   2.039   5.401   1.952
 9325SOL    HW228875   1.932   5.284   1.993
 9326SOL     OW28876   3.827   4.186   0.422
 9326SOL    HW128877   3.806   4.283   0.412
 9326SOL    HW228878   3.905   4.163   0.364
 9327SOL     OW28879   4.701   0.422   3.363
 9327SOL    HW128880   4.635   0.447   3.292
 9327SOL    HW228881   4.737   0.505   3.405
 9328SOL     OW28882   3.255   6.849   4.790
 9328SOL    HW128883   3.172   6.803   4.758
 9328SOL    HW228884   3.251   6.946   4.766
 9329SOL     OW28885   7.007   6.112   6.086
 9329SOL    HW128886   0.025   6.048   6.022
 9329SOL    HW228887   0.047   6.182   6.114
 9330SOL     OW28888   6.949   6.999   6.621
 9330SOL    HW128889   6.866   6.950   6.597
 9330SOL    HW228890   6.936   0.072   6.609
 9331SOL     OW28891   1.363   3.235   5.055
 9331SOL    HW128892   1.276   3.192   5.028
 9331SOL    HW228893   1.360   3.332   5.033
 9332SOL     OW28894   3.829   5.755   0.628
 9332SOL    HW128895   3.894   5.756   0.552
 9332SOL    HW228896   3.862   5.814   0.701
 9333SOL     OW28897   3.713   5.013   0.478
 9333SOL    HW128898   3.635   5.005   0.539
 9333SOL    HW228899   3.793   5.045   0.530
 9334SOL     OW28900   4.960   6.401   4.812
 9334SOL    HW128901   4.889   6.468   4.793
 9334SOL    HW228902   4.935   6.313   4.771
 9335SOL     OW28903   2.117   1.902   1.268
 9335SOL    HW128904   2.086   1.936   1.180
 9335SOL    HW228905   2.178   1.824   1.254
 9336SOL     OW28906   6.382   0.798   5.363
 9336SOL    HW128907   6.362   0.831   5.270
 9336SOL    HW228908   6.357   0.868   5.429
 9337SOL     OW28909   4.664   6.702   6.716
 9337SOL    HW128910   4.702   6.772   6.657
 9337SOL    HW228911   4.628   6.627   6.661
 9338SOL     OW28912   0.315   6.467   0.311
 9338SOL    HW128913   0.218   6.471   0.286
 9338SOL    HW228914   0.324   6.421   0.400
 9339SOL     OW28915   5.651   5.035   6.783
 9339SOL    HW128916   5.714   4.958   6.787
 9339SOL    HW228917   5.641   5.066   6.688
 9340SOL     OW28918   3.647   6.186   2.484
 9340SOL    HW128919   3.624   6.282   2.502
 9340SOL    HW228920   3.579   6.146   2.424
 9341SOL     OW28921   5.622   4.243   6.700
 9341SOL    HW128922   5.640   4.148   6.728
 9341SOL    HW228923   5.679   4.305   6.754
 9342SOL     OW28924   2.899   0.325   4.399
 9342SOL    HW128925   2.806   0.294   4.416
 9342SOL    HW228926   2.963   0.266   4.448
 9343SOL     OW28927   4.772   4.129   1.849
 9343SOL    HW128928   4.678   4.101   1.869
 9343SOL    HW228929   4.817   4.156   1.934
 9344SOL     OW28930   5.430   4.871   6.056
 9344SOL    HW128931   5.464   4.788   6.100
 9344SOL    HW228932   5.330   4.870   6.054
 9345SOL     OW28933   6.948   6.026   0.190
 9345SOL    HW128934   6.877   6.061   0.250
 9345SOL    HW228935   6.916   6.029   0.095
 9346SOL     OW28936   5.291   6.584   2.457
 9346SOL    HW128937   5.350   6.524   2.510
 9346SOL    HW228938   5.244   6.648   2.519
 9347SOL     OW28939   3.716   5.802   1.352
 9347SOL    HW128940   3.628   5.761   1.325
 9347SOL    HW228941   3.777   5.730   1.385
 9348SOL     OW28942   2.364   6.344   3.140
 9348SOL    HW128943   2.419   6.414   3.187
 9348SOL    HW228944   2.338   6.378   3.049
 9349SOL     OW28945   6.352   5.780   2.675
 9349SOL    HW128946   6.335   5.702   2.736
 9349SOL    HW228947   6.409   5.751   2.598
 9350SOL     OW28948   6.626   1.343   4.792
 9350SOL    HW128949   6.610   1.430   4.745
 9350SOL    HW228950   6.722   1.317   4.782
 9351SOL     OW28951   2.322   1.176   5.935
 9351SOL    HW128952   2.405   1.224   5.964
 9351SOL    HW228953   2.300   1.201   5.841
 9352SOL     OW28954   1.614   2.514   5.303
 9352SOL    HW128955   1.668   2.479   5.379
 9352SOL    HW228956   1.518   2.488   5.315
 9353SOL     OW28957   1.715   4.188   1.881
 9353SOL    HW128958   1.798   4.160   1.928
 9353SOL    HW228959   1.677   4.270   1.925
 9354SOL     OW28960   6.343   1.788   1.148
 9354SOL    HW128961   6.409   1.753   1.215
 9354SOL    HW228962   6.305   1.713   1.095
 9355SOL     OW28963   6.635   1.216   4.445
 9355SOL    HW128964   6.577   1.151   4.397
 9355SOL    HW228965   6.622   1.307   4.406
 9356SOL     OW28966   4.254   4.968   2.326
 9356SOL    HW128967   4.225   5.059   2.296
 9356SOL    HW228968   4.252   4.964   2.426
 9357SOL     OW28969   2.498   3.499   0.345
 9357SOL    HW128970   2.589   3.460   0.357
 9357SOL    HW228971   2.485   3.524   0.249
 9358SOL     OW28972   5.706   4.085   1.797
 9358SOL    HW128973   5.707   4.008   1.861
 9358SOL    HW228974   5.797   4.098   1.758
 9359SOL     OW28975   0.094   3.923   6.345
 9359SOL    HW128976   0.122   3.979   6.423
 9359SOL    HW228977   0.097   3.979   6.261
 9360SOL     OW28978   1.788   0.239   5.444
 9360SOL    HW128979   1.739   0.152   5.454
 9360SOL    HW228980   1.885   0.221   5.428
 9361SOL     OW28981   3.136   6.305   2.867
 9361SOL    HW128982   3.154   6.360   2.785
 9361SOL    HW228983   3.207   6.322   2.935
 9362SOL     OW28984   2.349   1.039   1.861
 9362SOL    HW128985   2.293   1.046   1.779
 9362SOL    HW228986   2.423   1.107   1.857
 9363SOL     OW28987   3.437   5.552   1.768
 9363SOL    HW128988   3.355   5.570   1.823
 9363SOL    HW228989   3.414   5.556   1.671
 9364SOL     OW28990   4.519   2.581   6.514
 9364SOL    HW128991   4.420   2.582   6.500
 9364SOL    HW228992   4.562   2.646   6.451
 9365SOL     OW28993   2.656   2.376   5.173
 9365SOL    HW128994   2.584   2.429   5.130
 9365SOL    HW228995   2.728   2.438   5.205
 9366SOL     OW28996   3.275   1.766   0.051
 9366SOL    HW128997   3.353   1.787   7.017
 9366SOL    HW228998   3.283   1.819   0.136
 9367SOL     OW28999   0.407   5.363   4.314
 9367SOL    HW129000   0.341   5.439   4.318
 9367SOL    HW229001   0.413   5.319   4.403
 9368SOL     OW29002   3.750   2.071   2.398
 9368SOL    HW129003   3.745   2.042   2.303
 9368SOL    HW229004   3.845   2.093   2.421
 9369SOL     OW29005   6.731   1.703   6.281
 9369SOL    HW129006   6.742   1.781   6.342
 9369SOL    HW229007   6.645   1.657   6.301
 9370SOL     OW29008   5.551   1.199   3.066
 9370SOL    HW129009   5.520   1.287   3.029
 9370SOL    HW229010   5.642   1.178   3.032
 9371SOL     OW29011   1.594   5.546   0.046
 9371SOL    HW129012   1.603   5.540   6.972
 9371SOL    HW229013   1.555   5.461   0.082
 9372SOL     OW29014   5.584   6.525   2.901
 9372SOL    HW129015   5.642   6.444   2.910
 9372SOL    HW229016   5.640   6.603   2.874
 9373SOL     OW29017   4.466   1.883   2.805
 9373SOL    HW129018   4.410   1.839   2.875
 9373SOL    HW229019   4.561   1.887   2.836
 9374SOL     OW29020   5.654   2.578   0.450
 9374SOL    HW129021   5.620   2.636   0.376
 9374SOL    HW229022   5.749   2.553   0.432
 9375SOL     OW29023   6.913   1.420   3.524
 9375SOL    HW129024   6.916   1.380   3.616
 9375SOL    HW229025   6.818   1.425   3.494
 9376SOL     OW29026   3.045   3.798   0.484
 9376SOL    HW129027   3.101   3.879   0.468
 9376SOL    HW229028   2.973   3.819   0.549
 9377SOL     OW29029   0.160   5.217   3.644
 9377SOL    HW129030   0.159   5.185   3.549
 9377SOL    HW229031   0.239   5.177   3.692
 9378SOL     OW29032   2.041   0.025   5.796
 9378SOL    HW129033   2.041   0.000   5.699
 9378SOL    HW229034   2.135   0.028   5.830
 9379SOL     OW29035   5.019   4.574   4.913
 9379SOL    HW129036   5.066   4.556   5.000
 9379SOL    HW229037   4.949   4.644   4.927
 9380SOL     OW29038   6.103   5.847   5.386
 9380SOL    HW129039   6.142   5.829   5.476
 9380SOL    HW229040   6.056   5.935   5.387
 9381SOL     OW29041   2.960   3.083   5.654
 9381SOL    HW129042   2.943   3.031   5.571
 9381SOL    HW229043   2.878   3.136   5.677
 9382SOL     OW29044   3.705   1.595   3.122
 9382SOL    HW129045   3.650   1.516   3.095
 9382SOL    HW229046   3.647   1.676   3.126
 9383SOL     OW29047   3.643   5.986   4.820
 9383SOL    HW129048   3.618   5.930   4.899
 9383SOL    HW229049   3.667   5.927   4.743
 9384SOL     OW29050   4.479   6.348   1.810
 9384SOL    HW129051   4.383   6.334   1.835
 9384SOL    HW229052   4.485   6.371   1.713
 9385SOL     OW29053   3.938   1.628   2.442
 9385SOL    HW129054   3.847   1.595   2.415
 9385SOL    HW229055   3.936   1.655   2.538
 9386SOL     OW29056   3.182   5.964   4.372
 9386SOL    HW129057   3.154   6.051   4.414
 9386SOL    HW229058   3.172   5.971   4.273
 9387SOL     OW29059   4.408   0.197   0.897
 9387SOL    HW129060   4.502   0.163   0.903
 9387SOL    HW229061   4.391   0.233   0.805
 9388SOL     OW29062   1.574   5.981   3.003
 9388SOL    HW129063   1.501   6.011   2.942
 9388SOL    HW229064   1.547   5.895   3.047
 9389SOL     OW29065   2.849   0.428   4.906
 9389SOL    HW129066   2.824   0.484   4.986
 9389SOL    HW229067   2.873   0.489   4.830
 9390SOL     OW29068   3.598   5.971   3.408
 9390SOL    HW129069   3.623   6.024   3.327
 9390SOL    HW229070   3.518   6.012   3.451
 9391SOL     OW29071   2.118   1.098   5.672
 9391SOL    HW129072   2.080   1.109   5.580
 9391SOL    HW229073   2.212   1.063   5.665
 9392SOL     OW29074   0.451   6.919   4.499
 9392SOL    HW129075   0.522   6.964   4.554
 9392SOL    HW229076   0.421   6.981   4.427
 9393SOL     OW29077   3.921   1.559   4.427
 9393SOL    HW129078   3.888   1.650   4.451
 9393SOL    HW229079   4.019   1.562   4.410
 9394SOL     OW29080   6.231   2.505   3.400
 9394SOL    HW129081   6.226   2.529   3.497
 9394SOL    HW229082   6.197   2.581   3.345
 9395SOL     OW29083   2.494   2.301   0.503
 9395SOL    HW129084   2.584   2.257   0.511
 9395SOL    HW229085   2.472   2.349   0.588
 9396SOL     OW29086   0.652   6.441   4.976
 9396SOL    HW129087   0.746   6.408   4.967
 9396SOL    HW229088   0.646   6.501   5.057
 9397SOL     OW29089   2.680   6.970   0.074
 9397SOL    HW129090   2.690   0.036   0.113
 9397SOL    HW229091   2.770   6.936   0.046
 9398SOL     OW29092   1.974   0.464   6.391
 9398SOL    HW129093   2.014   0.415   6.314
 9398SOL    HW229094   2.047   0.509   6.443
 9399SOL     OW29095   0.417   2.221   0.096
 9399SOL    HW129096   0.503   2.204   0.144
 9399SOL    HW229097   0.414   2.166   0.012
 9400SOL     OW29098   5.334   3.520   1.587
 9400SOL    HW129099   5.288   3.544   1.502
 9400SOL    HW229100   5.319   3.593   1.654
 9401SOL     OW29101   2.875   6.152   3.712
 9401SOL    HW129102   2.869   6.225   3.781
 9401SOL    HW229103   2.911   6.069   3.754
 9402SOL     OW29104   1.550   4.648   5.821
 9402SOL    HW129105   1.562   4.555   5.854
 9402SOL    HW229106   1.461   4.683   5.851
 9403SOL     OW29107   4.663   1.797   3.010
 9403SOL    HW129108   4.706   1.828   3.095
 9403SOL    HW229109   4.588   1.735   3.032
 9404SOL     OW29110   1.044   4.177   6.380
 9404SOL    HW129111   1.072   4.160   6.286
 9404SOL    HW229112   1.112   4.234   6.425
 9405SOL     OW29113   6.497   6.779   2.336
 9405SOL    HW129114   6.441   6.740   2.263
 9405SOL    HW229115   6.462   6.869   2.362
 9406SOL     OW29116   6.908   1.664   6.011
 9406SOL    HW129117   6.828   1.688   6.066
 9406SOL    HW229118   6.879   1.619   5.927
 9407SOL     OW29119   2.770   6.277   2.587
 9407SOL    HW129120   2.819   6.362   2.606
 9407SOL    HW229121   2.835   6.204   2.567
 9408SOL     OW29122   3.829   1.746   5.717
 9408SOL    HW129123   3.867   1.777   5.804
 9408SOL    HW229124   3.893   1.766   5.643
 9409SOL     OW29125   5.157   4.537   5.157
 9409SOL    HW129126   5.250   4.501   5.167
 9409SOL    HW229127   5.097   4.496   5.226
 9410SOL     OW29128   3.732   5.580   1.673
 9410SOL    HW129129   3.692   5.496   1.708
 9410SOL    HW229130   3.676   5.658   1.701
 9411SOL     OW29131   3.389   4.401   1.106
 9411SOL    HW129132   3.469   4.344   1.123
 9411SOL    HW229133   3.325   4.392   1.183
 9412SOL     OW29134   0.172   3.305   1.363
 9412SOL    HW129135   0.209   3.368   1.431
 9412SOL    HW229136   0.245   3.242   1.333
 9413SOL     OW29137   4.283   5.317   4.983
 9413SOL    HW129138   4.228   5.248   4.936
 9413SOL    HW229139   4.350   5.355   4.920
 9414SOL     OW29140   3.384   1.841   3.594
 9414SOL    HW129141   3.355   1.935   3.612
 9414SOL    HW229142   3.456   1.842   3.524
 9415SOL     OW29143   2.380   6.732   2.572
 9415SOL    HW129144   2.390   6.641   2.531
 9415SOL    HW229145   2.445   6.794   2.529
 9416SOL     OW29146   0.800   1.493   2.122
 9416SOL    HW129147   0.863   1.570   2.127
 9416SOL    HW229148   0.706   1.526   2.125
 9417SOL     OW29149   3.103   0.603   5.694
 9417SOL    HW129150   3.087   0.612   5.793
 9417SOL    HW229151   3.200   0.592   5.677
 9418SOL     OW29152   3.252   6.902   0.555
 9418SOL    HW129153   3.277   6.858   0.468
 9418SOL    HW229154   3.152   6.908   0.562
 9419SOL     OW29155   3.282   6.123   5.405
 9419SOL    HW129156   3.349   6.178   5.355
 9419SOL    HW229157   3.325   6.084   5.487
 9420SOL     OW29158   0.574   2.001   4.577
 9420SOL    HW129159   0.647   2.067   4.597
 9420SOL    HW229160   0.509   2.042   4.512
 9421SOL     OW29161   2.140   6.346   5.143
 9421SOL    HW129162   2.107   6.316   5.232
 9421SOL    HW229163   2.139   6.446   5.139
 9422SOL     OW29164   5.303   0.158   2.711
 9422SOL    HW129165   5.278   0.131   2.804
 9422SOL    HW229166   5.281   0.084   2.648
 9423SOL     OW29167   3.913   0.427   3.197
 9423SOL    HW129168   3.858   0.432   3.114
 9423SOL    HW229169   3.954   0.336   3.205
 9424SOL     OW29170   4.685   0.688   5.125
 9424SOL    HW129171   4.778   0.708   5.096
 9424SOL    HW229172   4.626   0.676   5.045
 9425SOL     OW29173   7.005   3.602   6.589
 9425SOL    HW129174   6.907   3.610   6.571
 9425SOL    HW229175   7.024   3.625   6.684
 9426SOL     OW29176   3.127   1.548   0.089
 9426SOL    HW129177   3.131   1.506   0.180
 9426SOL    HW229178   3.207   1.606   0.075
 9427SOL     OW29179   2.748   4.967   5.229
 9427SOL    HW129180   2.718   4.991   5.136
 9427SOL    HW229181   2.808   4.887   5.224
 9428SOL     OW29182   5.092   0.500   1.519
 9428SOL    HW129183   5.156   0.521   1.592
 9428SOL    HW229184   5.033   0.579   1.502
 9429SOL     OW29185   1.402   4.582   1.693
 9429SOL    HW129186   1.446   4.632   1.768
 9429SOL    HW229187   1.472   4.540   1.635
 9430SOL     OW29188   7.007   6.116   2.187
 9430SOL    HW129189   6.955   6.075   2.112
 9430SOL    HW229190   0.064   6.160   2.151
 9431SOL     OW29191   6.091   4.808   0.784
 9431SOL    HW129192   6.161   4.857   0.836
 9431SOL    HW229193   6.015   4.784   0.845
 9432SOL     OW29194   0.241   0.433   3.383
 9432SOL    HW129195   0.329   0.436   3.335
 9432SOL    HW229196   0.170   0.475   3.326
 9433SOL     OW29197   3.470   4.969   3.876
 9433SOL    HW129198   3.397   4.980   3.943
 9433SOL    HW229199   3.440   4.907   3.803
 9434SOL     OW29200   6.088   4.491   3.491
 9434SOL    HW129201   6.093   4.465   3.588
 9434SOL    HW229202   6.045   4.581   3.483
 9435SOL     OW29203   0.865   1.572   3.700
 9435SOL    HW129204   0.922   1.642   3.657
 9435SOL    HW229205   0.796   1.617   3.757
 9436SOL     OW29206   0.946   4.635   1.701
 9436SOL    HW129207   0.999   4.716   1.676
 9436SOL    HW229208   0.848   4.656   1.694
 9437SOL     OW29209   1.107   6.578   3.715
 9437SOL    HW129210   1.063   6.492   3.689
 9437SOL    HW229211   1.180   6.599   3.650
 9438SOL     OW29212   1.253   6.425   1.583
 9438SOL    HW129213   1.190   6.501   1.570
 9438SOL    HW229214   1.245   6.362   1.505
 9439SOL     OW29215   0.398   2.941   1.686
 9439SOL    HW129216   0.409   2.869   1.754
 9439SOL    HW229217   0.481   2.947   1.630
 9440SOL     OW29218   4.799   6.118   4.009
 9440SOL    HW129219   4.729   6.089   3.944
 9440SOL    HW229220   4.780   6.212   4.038
 9441SOL     OW29221   1.573   5.169   5.022
 9441SOL    HW129222   1.672   5.163   5.011
 9441SOL    HW229223   1.528   5.152   4.935
 9442SOL     OW29224   6.160   2.748   0.249
 9442SOL    HW129225   6.134   2.672   0.190
 9442SOL    HW229226   6.256   2.739   0.275
 9443SOL     OW29227   2.277   4.747   1.175
 9443SOL    HW129228   2.299   4.835   1.132
 9443SOL    HW229229   2.262   4.761   1.272
 9444SOL     OW29230   0.658   4.091   6.399
 9444SOL    HW129231   0.734   4.037   6.435
 9444SOL    HW229232   0.636   4.165   6.462
 9445SOL     OW29233   5.314   3.449   2.093
 9445SOL    HW129234   5.334   3.419   1.999
 9445SOL    HW229235   5.234   3.509   2.092
 9446SOL     OW29236   6.703   6.797   3.629
 9446SOL    HW129237   6.787   6.764   3.585
 9446SOL    HW229238   6.624   6.772   3.574
 9447SOL     OW29239   5.817   3.364   3.538
 9447SOL    HW129240   5.885   3.419   3.489
 9447SOL    HW229241   5.827   3.378   3.636
 9448SOL     OW29242   5.755   6.406   5.893
 9448SOL    HW129243   5.680   6.394   5.828
 9448SOL    HW229244   5.745   6.493   5.940
 9449SOL     OW29245   7.012   5.993   6.355
 9449SOL    HW129246   0.072   5.942   6.351
 9449SOL    HW229247   7.009   6.060   6.280
 9450SOL     OW29248   3.423   4.983   4.873
 9450SOL    HW129249   3.459   4.993   4.781
 9450SOL    HW229250   3.329   4.948   4.868
 9451SOL     OW29251   4.248   6.037   6.337
 9451SOL    HW129252   4.239   6.034   6.237
 9451SOL    HW229253   4.217   5.951   6.376
 9452SOL     OW29254   1.233   2.895   0.912
 9452SOL    HW129255   1.282   2.819   0.870
 9452SOL    HW229256   1.268   2.910   1.004
 9453SOL     OW29257   2.067   4.543   3.353
 9453SOL    HW129258   2.110   4.606   3.418
 9453SOL    HW229259   2.137   4.482   3.315
 9454SOL     OW29260   1.641   3.491   6.073
 9454SOL    HW129261   1.595   3.495   5.984
 9454SOL    HW229262   1.642   3.396   6.106
 9455SOL     OW29263   3.682   1.591   2.649
 9455SOL    HW129264   3.608   1.657   2.634
 9455SOL    HW229265   3.746   1.628   2.717
 9456SOL     OW29266   6.923   4.504   6.819
 9456SOL    HW129267   6.916   4.588   6.874
 9456SOL    HW229268   6.854   4.505   6.747
 9457SOL     OW29269   1.909   3.574   6.017
 9457SOL    HW129270   1.818   3.535   6.026
 9457SOL    HW229271   1.957   3.531   5.940
 9458SOL     OW29272   1.025   3.580   6.343
 9458SOL    HW129273   1.014   3.651   6.273
 9458SOL    HW229274   0.944   3.579   6.402
 9459SOL     OW29275   6.093   4.592   2.622
 9459SOL    HW129276   6.095   4.511   2.682
 9459SOL    HW229277   6.014   4.585   2.561
 9460SOL     OW29278   0.272   1.694   4.555
 9460SOL    HW129279   0.314   1.642   4.480
 9460SOL    HW229280   0.320   1.675   4.640
 9461SOL     OW29281   6.855   1.779   3.566
 9461SOL    HW129282   6.941   1.795   3.519
 9461SOL    HW229283   6.780   1.781   3.500
 9462SOL     OW29284   2.184   4.058   2.821
 9462SOL    HW129285   2.240   4.139   2.804
 9462SOL    HW229286   2.165   4.013   2.734
 9463SOL     OW29287   0.461   0.994   1.475
 9463SOL    HW129288   0.432   0.998   1.379
 9463SOL    HW229289   0.554   1.028   1.483
 9464SOL     OW29290   5.417   6.603   0.560
 9464SOL    HW129291   5.434   6.683   0.503
 9464SOL    HW229292   5.322   6.605   0.593
 9465SOL     OW29293   0.134   6.772   3.128
 9465SOL    HW129294   0.227   6.792   3.098
 9465SOL    HW229295   0.133   6.756   3.226
 9466SOL     OW29296   3.899   3.693   5.168
 9466SOL    HW129297   3.945   3.625   5.111
 9466SOL    HW229298   3.941   3.782   5.154
 9467SOL     OW29299   0.624   2.746   1.638
 9467SOL    HW129300   0.575   2.735   1.724
 9467SOL    HW229301   0.671   2.662   1.615
 9468SOL     OW29302   5.617   2.219   6.206
 9468SOL    HW129303   5.662   2.271   6.278
 9468SOL    HW229304   5.683   2.157   6.164
 9469SOL     OW29305   5.855   5.560   1.429
 9469SOL    HW129306   5.785   5.491   1.447
 9469SOL    HW229307   5.924   5.558   1.501
 9470SOL     OW29308   5.614   2.779   6.297
 9470SOL    HW129309   5.542   2.848   6.294
 9470SOL    HW229310   5.702   2.823   6.313
 9471SOL     OW29311   6.137   2.166   4.843
 9471SOL    HW129312   6.078   2.233   4.888
 9471SOL    HW229313   6.209   2.138   4.906
 9472SOL     OW29314   6.947   3.947   4.276
 9472SOL    HW129315   0.020   3.967   4.287
 9472SOL    HW229316   6.925   3.939   4.179
 9473SOL     OW29317   3.383   5.918   6.113
 9473SOL    HW129318   3.458   5.855   6.092
 9473SOL    HW229319   3.411   6.012   6.090
 9474SOL     OW29320   6.433   3.640   0.918
 9474SOL    HW129321   6.434   3.615   0.821
 9474SOL    HW229322   6.416   3.559   0.974
 9475SOL     OW29323   2.820   3.022   0.484
 9475SOL    HW129324   2.900   3.078   0.501
 9475SOL    HW229325   2.831   2.933   0.527
 9476SOL     OW29326   3.768   3.703   4.918
 9476SOL    HW129327   3.678   3.702   4.876
 9476SOL    HW229328   3.766   3.654   5.005
 9477SOL     OW29329   6.976   3.500   2.163
 9477SOL    HW129330   0.032   3.472   2.111
 9477SOL    HW229331   6.929   3.418   2.198
 9478SOL     OW29332   6.043   3.360   6.071
 9478SOL    HW129333   6.091   3.445   6.051
 9478SOL    HW229334   6.048   3.300   5.991
 9479SOL     OW29335   5.762   6.410   6.184
 9479SOL    HW129336   5.821   6.374   6.256
 9479SOL    HW229337   5.779   6.361   6.098
 9480SOL     OW29338   4.555   4.635   6.852
 9480SOL    HW129339   4.491   4.562   6.874
 9480SOL    HW229340   4.524   4.721   6.892
 9481SOL     OW29341   5.920   3.850   1.396
 9481SOL    HW129342   5.991   3.829   1.463
 9481SOL    HW229343   5.831   3.855   1.442
 9482SOL     OW29344   6.269   1.459   3.389
 9482SOL    HW129345   6.351   1.460   3.447
 9482SOL    HW229346   6.246   1.553   3.363
 9483SOL     OW29347   1.515   1.504   0.946
 9483SOL    HW129348   1.544   1.559   1.025
 9483SOL    HW229349   1.509   1.408   0.974
 9484SOL     OW29350   4.595   1.378   3.628
 9484SOL    HW129351   4.571   1.303   3.567
 9484SOL    HW229352   4.600   1.463   3.576
 9485SOL     OW29353   0.924   0.036   1.966
 9485SOL    HW129354   0.863   7.016   2.032
 9485SOL    HW229355   0.873   0.104   1.914
 9486SOL     OW29356   2.010   5.152   1.299
 9486SOL    HW129357   2.055   5.114   1.218
 9486SOL    HW229358   2.073   5.150   1.377
 9487SOL     OW29359   2.886   3.551   3.293
 9487SOL    HW129360   2.844   3.496   3.221
 9487SOL    HW229361   2.986   3.539   3.290
 9488SOL     OW29362   2.845   6.347   1.129
 9488SOL    HW129363   2.818   6.354   1.225
 9488SOL    HW229364   2.891   6.431   1.101
 9489SOL     OW29365   3.556   3.986   1.623
 9489SOL    HW129366   3.539   3.912   1.689
 9489SOL    HW229367   3.479   4.049   1.623
 9490SOL     OW29368   6.584   6.089   0.020
 9490SOL    HW129369   6.594   5.990   0.032
 9490SOL    HW229370   6.571   6.110   6.948
 9491SOL     OW29371   0.169   4.665   3.663
 9491SOL    HW129372   0.077   4.704   3.656
 9491SOL    HW229373   0.165   4.566   3.646
 9492SOL     OW29374   3.361   3.668   2.699
 9492SOL    HW129375   3.329   3.707   2.613
 9492SOL    HW229376   3.301   3.699   2.774
 9493SOL     OW29377   3.833   5.240   3.939
 9493SOL    HW129378   3.930   5.217   3.951
 9493SOL    HW229379   3.806   5.221   3.845
 9494SOL     OW29380   3.819   4.296   0.938
 9494SOL    HW129381   3.853   4.203   0.951
 9494SOL    HW229382   3.873   4.342   0.869
 9495SOL     OW29383   6.147   2.413   4.241
 9495SOL    HW129384   6.188   2.418   4.150
 9495SOL    HW229385   6.190   2.480   4.301
 9496SOL     OW29386   5.371   4.915   0.862
 9496SOL    HW129387   5.301   4.986   0.857
 9496SOL    HW229388   5.403   4.893   0.769
 9497SOL     OW29389   5.313   4.700   0.178
 9497SOL    HW129390   5.350   4.737   0.093
 9497SOL    HW229391   5.314   4.771   0.248
 9498SOL     OW29392   5.649   0.677   6.297
 9498SOL    HW129393   5.613   0.719   6.214
 9498SOL    HW229394   5.712   0.740   6.342
 9499SOL     OW29395   2.317   3.137   5.915
 9499SOL    HW129396   2.387   3.138   5.987
 9499SOL    HW229397   2.335   3.210   5.850
 9500SOL     OW29398   3.528   7.017   1.783
 9500SOL    HW129399   3.624   6.990   1.785
 9500SOL    HW229400   3.509   0.050   1.863
 9501SOL     OW29401   2.778   1.366   4.364
 9501SOL    HW129402   2.704   1.342   4.301
 9501SOL    HW229403   2.779   1.465   4.378
 9502SOL     OW29404   0.470   1.899   4.826
 9502SOL    HW129405   0.523   1.926   4.746
 9502SOL    HW229406   0.433   1.980   4.871
 9503SOL     OW29407   0.738   1.313   1.472
 9503SOL    HW129408   0.833   1.287   1.458
 9503SOL    HW229409   0.687   1.301   1.387
 9504SOL     OW29410   0.675   2.127   1.073
 9504SOL    HW129411   0.700   2.223   1.087
 9504SOL    HW229412   0.715   2.071   1.145
 9505SOL     OW29413   5.582   3.926   3.365
 9505SOL    HW129414   5.656   3.974   3.318
 9505SOL    HW229415   5.606   3.829   3.374
 9506SOL     OW29416   0.332   3.195   6.522
 9506SOL    HW129417   0.402   3.261   6.549
 9506SOL    HW229418   0.247   3.243   6.500
 9507SOL     OW29419   1.882   1.320   3.903
 9507SOL    HW129420   1.897   1.407   3.950
 9507SOL    HW229421   1.942   1.314   3.823
 9508SOL     OW29422   6.307   2.752   0.555
 9508SOL    HW129423   6.342   2.802   0.634
 9508SOL    HW229424   6.272   2.663   0.585
 9509SOL     OW29425   1.018   6.934   5.432
 9509SOL    HW129426   1.040   6.837   5.444
 9509SOL    HW229427   0.982   6.949   5.340
 9510SOL     OW29428   0.604   4.092   1.787
 9510SOL    HW129429   0.528   4.154   1.770
 9510SOL    HW229430   0.643   4.062   1.699
 9511SOL     OW29431   1.083   1.440   6.902
 9511SOL    HW129432   1.173   1.470   6.933
 9511SOL    HW229433   1.021   1.433   6.980
 9512SOL     OW29434   5.864   2.003   2.993
 9512SOL    HW129435   5.941   1.975   3.051
 9512SOL    HW229436   5.812   2.075   3.039
 9513SOL     OW29437   1.246   3.007   5.187
 9513SOL    HW129438   1.319   3.076   5.190
 9513SOL    HW229439   1.287   2.915   5.190
 9514SOL     OW29440   1.402   3.659   6.669
 9514SOL    HW129441   1.331   3.722   6.702
 9514SOL    HW229442   1.485   3.711   6.648
 9515SOL     OW29443   1.707   5.968   0.509
 9515SOL    HW129444   1.763   5.965   0.592
 9515SOL    HW229445   1.759   6.012   0.436
 9516SOL     OW29446   4.987   3.462   4.630
 9516SOL    HW129447   5.003   3.475   4.728
 9516SOL    HW229448   5.070   3.487   4.580
 9517SOL     OW29449   1.185   5.136   0.038
 9517SOL    HW129450   1.143   5.116   0.126
 9517SOL    HW229451   1.278   5.098   0.035
 9518SOL     OW29452   0.873   1.967   0.014
 9518SOL    HW129453   0.786   1.924   7.015
 9518SOL    HW229454   0.884   1.967   0.113
 9519SOL     OW29455   3.792   3.418   3.526
 9519SOL    HW129456   3.882   3.436   3.566
 9519SOL    HW229457   3.755   3.502   3.486
 9520SOL     OW29458   7.013   1.603   3.347
 9520SOL    HW129459   6.941   1.610   3.278
 9520SOL    HW229460   6.980   1.553   3.426
 9521SOL     OW29461   3.702   3.673   1.539
 9521SOL    HW129462   3.679   3.703   1.632
 9521SOL    HW229463   3.801   3.661   1.531
 9522SOL     OW29464   3.878   5.789   3.019
 9522SOL    HW129465   3.924   5.774   3.107
 9522SOL    HW229466   3.779   5.790   3.033
 9523SOL     OW29467   2.569   5.158   5.009
 9523SOL    HW129468   2.538   5.063   5.014
 9523SOL    HW229469   2.599   5.178   4.915
 9524SOL     OW29470   1.548   2.554   0.985
 9524SOL    HW129471   1.525   2.553   1.082
 9524SOL    HW229472   1.539   2.462   0.947
 9525SOL     OW29473   1.183   2.121   5.096
 9525SOL    HW129474   1.116   2.187   5.130
 9525SOL    HW229475   1.269   2.169   5.077
 9526SOL     OW29476   6.071   4.625   1.842
 9526SOL    HW129477   6.029   4.615   1.751
 9526SOL    HW229478   6.023   4.697   1.892
 9527SOL     OW29479   2.673   0.633   5.080
 9527SOL    HW129480   2.582   0.658   5.114
 9527SOL    HW229481   2.743   0.668   5.142
 9528SOL     OW29482   5.829   1.357   1.125
 9528SOL    HW129483   5.918   1.380   1.084
 9528SOL    HW229484   5.757   1.367   1.056
 9529SOL     OW29485   5.789   4.052   0.120
 9529SOL    HW129486   5.728   4.099   0.183
 9529SOL    HW229487   5.874   4.030   0.167
 9530SOL     OW29488   0.795   4.607   4.036
 9530SOL    HW129489   0.855   4.531   4.011
 9530SOL    HW229490   0.777   4.663   3.955
 9531SOL     OW29491   4.587   4.350   2.782
 9531SOL    HW129492   4.651   4.282   2.747
 9531SOL    HW229493   4.541   4.394   2.705
 9532SOL     OW29494   0.360   5.339   1.073
 9532SOL    HW129495   0.433   5.388   1.025
 9532SOL    HW229496   0.338   5.386   1.158
 9533SOL     OW29497   1.144   5.301   3.739
 9533SOL    HW129498   1.140   5.234   3.813
 9533SOL    HW229499   1.056   5.307   3.693
 9534SOL     OW29500   5.858   4.377   4.967
 9534SOL    HW129501   5.831   4.308   4.900
 9534SOL    HW229502   5.947   4.416   4.940
 9535SOL     OW29503   1.911   0.851   6.094
 9535SOL    HW129504   1.972   0.911   6.043
 9535SOL    HW229505   1.820   0.892   6.099
 9536SOL     OW29506   3.184   3.667   5.791
 9536SOL    HW129507   3.208   3.758   5.755
 9536SOL    HW229508   3.168   3.604   5.715
 9537SOL     OW29509   2.868   1.155   4.837
 9537SOL    HW129510   2.882   1.210   4.920
 9537SOL    HW229511   2.921   1.194   4.762
 9538SOL     OW29512   4.863   0.545   4.584
 9538SOL    HW129513   4.794   0.596   4.634
 9538SOL    HW229514   4.823   0.507   4.501
 9539SOL     OW29515   2.918   3.687   4.736
 9539SOL    HW129516   2.941   3.728   4.648
 9539SOL    HW229517   2.913   3.758   4.806
 9540SOL     OW29518   5.577   5.033   4.256
 9540SOL    HW129519   5.658   5.003   4.204
 9540SOL    HW229520   5.528   4.953   4.289
 9541SOL     OW29521   2.399   0.960   6.355
 9541SOL    HW129522   2.385   0.865   6.330
 9541SOL    HW229523   2.352   1.019   6.290
 9542SOL     OW29524   5.347   4.935   4.664
 9542SOL    HW129525   5.391   4.879   4.594
 9542SOL    HW229526   5.381   4.910   4.754
 9543SOL     OW29527   3.825   0.642   6.373
 9543SOL    HW129528   3.879   0.717   6.411
 9543SOL    HW229529   3.838   0.560   6.428
 9544SOL     OW29530   5.645   3.159   4.279
 9544SOL    HW129531   5.606   3.233   4.224
 9544SOL    HW229532   5.634   3.072   4.231
 9545SOL     OW29533   5.705   5.175   2.731
 9545SOL    HW129534   5.679   5.079   2.726
 9545SOL    HW229535   5.674   5.214   2.818
 9546SOL     OW29536   4.138   1.040   5.856
 9546SOL    HW129537   4.215   1.093   5.891
 9546SOL    HW229538   4.137   0.950   5.901
 9547SOL     OW29539   2.431   5.242   3.677
 9547SOL    HW129540   2.506   5.189   3.637
 9547SOL    HW229541   2.451   5.263   3.772
 9548SOL     OW29542   6.957   5.151   4.563
 9548SOL    HW129543   6.908   5.237   4.549
 9548SOL    HW229544   6.935   5.114   4.653
 9549SOL     OW29545   2.902   1.178   1.968
 9549SOL    HW129546   2.853   1.091   1.959
 9549SOL    HW229547   2.840   1.254   1.949
 9550SOL     OW29548   6.974   0.989   0.069
 9550SOL    HW129549   7.001   0.968   0.163
 9550SOL    HW229550   6.914   0.916   0.036
 9551SOL     OW29551   5.284   2.893   6.039
 9551SOL    HW129552   5.216   2.928   5.974
 9551SOL    HW229553   5.375   2.897   5.997
 9552SOL     OW29554   2.321   5.795   5.703
 9552SOL    HW129555   2.232   5.756   5.726
 9552SOL    HW229556   2.312   5.894   5.689
 9553SOL     OW29557   5.581   2.355   0.582
 9553SOL    HW129558   5.540   2.294   0.515
 9553SOL    HW229559   5.609   2.440   0.537
 9554SOL     OW29560   1.707   6.470   3.389
 9554SOL    HW129561   1.697   6.563   3.355
 9554SOL    HW229562   1.623   6.441   3.435
 9555SOL     OW29563   0.118   1.108   3.406
 9555SOL    HW129564   0.064   1.148   3.332
 9555SOL    HW229565   0.160   1.023   3.375
 9556SOL     OW29566   1.283   3.686   1.093
 9556SOL    HW129567   1.199   3.633   1.102
 9556SOL    HW229568   1.261   3.780   1.067
 9557SOL     OW29569   5.658   6.896   1.481
 9557SOL    HW129570   5.638   6.887   1.384
 9557SOL    HW229571   5.646   6.991   1.509
 9558SOL     OW29572   5.934   5.772   5.607
 9558SOL    HW129573   5.930   5.674   5.625
 9558SOL    HW229574   5.924   5.788   5.508
 9559SOL     OW29575   0.638   4.908   0.566
 9559SOL    HW129576   0.577   4.963   0.623
 9559SOL    HW229577   0.594   4.821   0.544
 9560SOL     OW29578   2.154   1.194   2.478
 9560SOL    HW129579   2.194   1.114   2.433
 9560SOL    HW229580   2.091   1.241   2.416
 9561SOL     OW29581   0.759   0.984   1.415
 9561SOL    HW129582   0.784   0.900   1.462
 9561SOL    HW229583   0.761   0.969   1.316
 9562SOL     OW29584   2.918   0.176   4.814
 9562SOL    HW129585   2.852   0.105   4.788
 9562SOL    HW229586   2.869   0.261   4.834
 9563SOL     OW29587   6.897   6.900   7.014
 9563SOL    HW129588   6.903   6.896   0.089
 9563SOL    HW229589   6.979   6.860   6.974
 9564SOL     OW29590   2.585   0.817   0.415
 9564SOL    HW129591   2.595   0.745   0.484
 9564SOL    HW229592   2.583   0.906   0.460
 9565SOL     OW29593   3.866   1.075   5.176
 9565SOL    HW129594   3.853   1.165   5.217
 9565SOL    HW229595   3.828   1.005   5.237
 9566SOL     OW29596   3.276   5.743   0.046
 9566SOL    HW129597   3.190   5.762   7.023
 9566SOL    HW229598   3.336   5.690   7.012
 9567SOL     OW29599   4.920   4.625   0.654
 9567SOL    HW129600   4.998   4.680   0.683
 9567SOL    HW229601   4.911   4.545   0.713
 9568SOL     OW29602   4.659   1.817   6.832
 9568SOL    HW129603   4.610   1.893   6.788
 9568SOL    HW229604   4.758   1.831   6.822
 9569SOL     OW29605   6.915   1.831   2.458
 9569SOL    HW129606   7.002   1.782   2.465
 9569SOL    HW229607   6.843   1.779   2.505
 9570SOL     OW29608   0.551   3.288   1.759
 9570SOL    HW129609   0.611   3.364   1.734
 9570SOL    HW229610   0.589   3.202   1.726
 9571SOL     OW29611   3.598   2.872   5.600
 9571SOL    HW129612   3.510   2.884   5.554
 9571SOL    HW229613   3.670   2.916   5.546
 9572SOL     OW29614   1.770   4.976   2.074
 9572SOL    HW129615   1.697   5.042   2.055
 9572SOL    HW229616   1.733   4.884   2.074
 9573SOL     OW29617   0.910   2.478   6.690
 9573SOL    HW129618   0.914   2.413   6.767
 9573SOL    HW229619   0.981   2.454   6.624
 9574SOL     OW29620   3.787   2.890   2.970
 9574SOL    HW129621   3.770   2.962   2.903
 9574SOL    HW229622   3.761   2.802   2.931
 9575SOL     OW29623   0.920   1.046   1.807
 9575SOL    HW129624   0.854   0.978   1.775
 9575SOL    HW229625   0.976   1.077   1.731
 9576SOL     OW29626   2.137   1.946   0.302
 9576SOL    HW129627   2.056   1.893   0.329
 9576SOL    HW229628   2.146   2.025   0.363
 9577SOL     OW29629   0.755   0.715   6.013
 9577SOL    HW129630   0.770   0.784   5.943
 9577SOL    HW229631   0.715   0.633   5.971
 9578SOL     OW29632   1.236   3.788   2.466
 9578SOL    HW129633   1.254   3.866   2.405
 9578SOL    HW229634   1.282   3.803   2.553
 9579SOL     OW29635   0.531   5.006   3.609
 9579SOL    HW129636   0.514   4.925   3.666
 9579SOL    HW229637   0.474   5.081   3.640
 9580SOL     OW29638   4.567   3.683   0.771
 9580SOL    HW129639   4.510   3.703   0.691
 9580SOL    HW229640   4.658   3.653   0.740
 9581SOL     OW29641   0.703   0.056   6.394
 9581SOL    HW129642   0.637   7.007   6.404
 9581SOL    HW229643   0.653   0.143   6.389
 9582SOL     OW29644   4.457   5.221   5.200
 9582SOL    HW129645   4.554   5.248   5.203
 9582SOL    HW229646   4.424   5.229   5.106
 9583SOL     OW29647   3.064   3.749   1.395
 9583SOL    HW129648   3.127   3.822   1.368
 9583SOL    HW229649   3.067   3.738   1.494
 9584SOL     OW29650   6.937   5.230   6.091
 9584SOL    HW129651   0.007   5.256   6.079
 9584SOL    HW229652   6.882   5.312   6.112
 9585SOL     OW29653   6.274   6.635   3.583
 9585SOL    HW129654   6.198   6.599   3.530
 9585SOL    HW229655   6.346   6.666   3.520
 9586SOL     OW29656   5.029   4.922   2.263
 9586SOL    HW129657   5.013   4.824   2.269
 9586SOL    HW229658   4.967   4.971   2.324
 9587SOL     OW29659   0.948   0.148   1.211
 9587SOL    HW129660   0.882   0.083   1.176
 9587SOL    HW229661   0.907   0.202   1.285
 9588SOL     OW29662   6.563   6.615   1.606
 9588SOL    HW129663   6.642   6.621   1.545
 9588SOL    HW229664   6.560   6.697   1.664
 9589SOL     OW29665   1.768   5.193   7.000
 9589SOL    HW129666   1.701   5.254   6.958
 9589SOL    HW229667   1.847   5.246   0.006
 9590SOL     OW29668   5.906   3.271   1.732
 9590SOL    HW129669   5.989   3.260   1.786
 9590SOL    HW229670   5.826   3.250   1.788
 9591SOL     OW29671   3.036   5.149   5.710
 9591SOL    HW129672   3.045   5.054   5.738
 9591SOL    HW229673   2.945   5.165   5.672
 9592SOL     OW29674   2.785   4.374   0.179
 9592SOL    HW129675   2.843   4.327   0.246
 9592SOL    HW229676   2.737   4.306   0.123
 9593SOL     OW29677   0.436   1.091   6.369
 9593SOL    HW129678   0.340   1.074   6.394
 9593SOL    HW229679   0.447   1.080   6.271
 9594SOL     OW29680   1.792   5.165   3.484
 9594SOL    HW129681   1.753   5.250   3.447
 9594SOL    HW229682   1.738   5.087   3.454
 9595SOL     OW29683   0.547   2.810   4.665
 9595SOL    HW129684   0.476   2.777   4.727
 9595SOL    HW229685   0.543   2.759   4.579
 9596SOL     OW29686   0.815   5.293   6.335
 9596SOL    HW129687   0.849   5.219   6.393
 9596SOL    HW229688   0.716   5.302   6.346
 9597SOL     OW29689   6.938   4.302   1.352
 9597SOL    HW129690   6.864   4.339   1.410
 9597SOL    HW229691   7.017   4.364   1.357
 9598SOL     OW29692   1.538   4.876   3.196
 9598SOL    HW129693   1.570   4.867   3.290
 9598SOL    HW229694   1.612   4.911   3.139
 9599SOL     OW29695   2.804   0.570   4.500
 9599SOL    HW129696   2.856   0.501   4.450
 9599SOL    HW229697   2.739   0.614   4.437
 9600SOL     OW29698   3.233   6.609   0.112
 9600SOL    HW129699   3.201   6.530   0.060
 9600SOL    HW229700   3.159   6.643   0.170
 9601SOL     OW29701   4.966   3.944   1.005
 9601SOL    HW129702   4.908   3.925   1.084
 9601SOL    HW229703   5.059   3.914   1.024
 9602SOL     OW29704   6.038   3.977   6.106
 9602SOL    HW129705   6.131   3.944   6.122
 9602SOL    HW229706   6.011   3.960   6.011
 9603SOL     OW29707   4.655   1.440   4.981
 9603SOL    HW129708   4.664   1.448   5.080
 9603SOL    HW229709   4.584   1.501   4.948
 9604SOL     OW29710   4.857   0.461   0.317
 9604SOL    HW129711   4.818   0.369   0.319
 9604SOL    HW229712   4.786   0.528   0.337
 9605SOL     OW29713   0.891   5.970   3.373
 9605SOL    HW129714   0.882   5.924   3.461
 9605SOL    HW229715   0.860   5.909   3.300
 9606SOL     OW29716   1.929   6.008   0.038
 9606SOL    HW129717   1.991   5.993   6.987
 9606SOL    HW229718   1.891   5.921   0.068
 9607SOL     OW29719   1.679   1.661   6.579
 9607SOL    HW129720   1.687   1.683   6.676
 9607SOL    HW229721   1.700   1.565   6.564
 9608SOL     OW29722   6.881   5.326   2.157
 9608SOL    HW129723   6.918   5.404   2.108
 9608SOL    HW229724   6.953   5.284   2.213
 9609SOL     OW29725   1.920   3.771   7.002
 9609SOL    HW129726   1.946   3.794   6.908
 9609SOL    HW229727   1.995   3.720   0.020
 9610SOL     OW29728   1.605   4.901   3.458
 9610SOL    HW129729   1.566   4.896   3.550
 9610SOL    HW229730   1.702   4.879   3.462
 9611SOL     OW29731   1.172   6.190   6.959
 9611SOL    HW129732   1.241   6.191   0.007
 9611SOL    HW229733   1.105   6.263   6.977
 9612SOL     OW29734   0.225   4.205   1.484
 9612SOL    HW129735   0.262   4.238   1.397
 9612SOL    HW229736   0.298   4.201   1.552
 9613SOL     OW29737   5.161   0.412   3.673
 9613SOL    HW129738   5.072   0.380   3.706
 9613SOL    HW229739   5.220   0.433   3.751
 9614SOL     OW29740   3.623   2.562   1.478
 9614SOL    HW129741   3.620   2.605   1.569
 9614SOL    HW229742   3.532   2.527   1.456
 9615SOL     OW29743   2.665   6.676   0.098
 9615SOL    HW129744   2.689   6.622   0.179
 9615SOL    HW229745   2.611   6.756   0.126
 9616SOL     OW29746   3.653   3.749   1.103
 9616SOL    HW129747   3.686   3.799   1.182
 9616SOL    HW229748   3.622   3.813   1.033
 9617SOL     OW29749   1.329   3.747   3.157
 9617SOL    HW129750   1.405   3.785   3.210
 9617SOL    HW229751   1.366   3.693   3.081
 9618SOL     OW29752   4.262   6.713   6.637
 9618SOL    HW129753   4.203   6.736   6.560
 9618SOL    HW229754   4.327   6.642   6.609
 9619SOL     OW29755   1.754   6.652   6.713
 9619SOL    HW129756   1.724   6.723   6.777
 9619SOL    HW229757   1.854   6.652   6.707
 9620SOL     OW29758   4.418   1.234   6.193
 9620SOL    HW129759   4.454   1.227   6.286
 9620SOL    HW229760   4.453   1.157   6.138
 9621SOL     OW29761   1.084   1.337   2.305
 9621SOL    HW129762   1.104   1.328   2.207
 9621SOL    HW229763   1.017   1.267   2.331
 9622SOL     OW29764   0.088   1.049   0.696
 9622SOL    HW129765   0.047   1.107   0.626
 9622SOL    HW229766   0.098   1.101   0.780
 9623SOL     OW29767   2.891   3.925   5.526
 9623SOL    HW129768   2.873   3.913   5.428
 9623SOL    HW229769   2.806   3.910   5.577
 9624SOL     OW29770   6.700   4.053   2.316
 9624SOL    HW129771   6.732   3.960   2.334
 9624SOL    HW229772   6.710   4.109   2.399
 9625SOL     OW29773   5.019   5.512   6.729
 9625SOL    HW129774   5.006   5.468   6.818
 9625SOL    HW229775   5.030   5.442   6.659
 9626SOL     OW29776   3.873   4.349   6.844
 9626SOL    HW129777   3.804   4.321   6.910
 9626SOL    HW229778   3.830   4.359   6.754
 9627SOL     OW29779   0.094   5.960   4.586
 9627SOL    HW129780   0.029   5.995   4.519
 9627SOL    HW229781   0.187   5.976   4.553
 9628SOL     OW29782   4.859   4.961   7.014
 9628SOL    HW129783   4.819   4.997   0.073
 9628SOL    HW229784   4.854   4.862   7.014
 9629SOL     OW29785   0.343   0.003   1.895
 9629SOL    HW129786   0.252   0.034   1.923
 9629SOL    HW229787   0.403   7.025   1.974
 9630SOL     OW29788   6.581   6.964   5.368
 9630SOL    HW129789   6.634   6.955   5.283
 9630SOL    HW229790   6.486   6.983   5.346
 9631SOL     OW29791   0.015   6.753   6.550
 9631SOL    HW129792   0.006   6.846   6.587
 9631SOL    HW229793   0.078   6.700   6.606
 9632SOL     OW29794   0.955   0.002   2.958
 9632SOL    HW129795   0.954   6.931   2.983
 9632SOL    HW229796   1.048   0.037   2.962
 9633SOL     OW29797   5.202   4.581   5.880
 9633SOL    HW129798   5.194   4.664   5.935
 9633SOL    HW229799   5.174   4.601   5.786
 9634SOL     OW29800   1.305   5.428   4.004
 9634SOL    HW129801   1.241   5.454   3.931
 9634SOL    HW229802   1.280   5.338   4.040
 9635SOL     OW29803   1.784   4.543   5.641
 9635SOL    HW129804   1.734   4.507   5.562
 9635SOL    HW229805   1.808   4.638   5.625
 9636SOL     OW29806   4.270   1.680   5.956
 9636SOL    HW129807   4.329   1.739   5.902
 9636SOL    HW229808   4.204   1.736   6.006
 9637SOL     OW29809   2.280   1.905   6.422
 9637SOL    HW129810   2.310   1.953   6.505
 9637SOL    HW229811   2.301   1.961   6.342
 9638SOL     OW29812   6.523   3.465   6.642
 9638SOL    HW129813   6.461   3.498   6.714
 9638SOL    HW229814   6.563   3.544   6.595
 9639SOL     OW29815   3.418   1.667   2.273
 9639SOL    HW129816   3.345   1.734   2.283
 9639SOL    HW229817   3.408   1.596   2.344
 9640SOL     OW29818   2.202   2.839   3.305
 9640SOL    HW129819   2.268   2.769   3.277
 9640SOL    HW229820   2.176   2.894   3.226
 9641SOL     OW29821   3.954   6.460   0.901
 9641SOL    HW129822   4.010   6.401   0.959
 9641SOL    HW229823   3.857   6.437   0.913
 9642SOL     OW29824   3.510   6.633   5.176
 9642SOL    HW129825   3.525   6.682   5.262
 9642SOL    HW229826   3.454   6.690   5.115
 9643SOL     OW29827   5.161   4.982   4.016
 9643SOL    HW129828   5.120   4.918   3.951
 9643SOL    HW229829   5.186   5.066   3.968
 9644SOL     OW29830   1.342   4.386   5.403
 9644SOL    HW129831   1.398   4.455   5.450
 9644SOL    HW229832   1.395   4.302   5.391
 9645SOL     OW29833   3.477   5.524   3.604
 9645SOL    HW129834   3.471   5.557   3.698
 9645SOL    HW229835   3.519   5.433   3.603
 9646SOL     OW29836   2.735   4.828   2.068
 9646SOL    HW129837   2.751   4.743   2.017
 9646SOL    HW229838   2.681   4.810   2.149
 9647SOL     OW29839   5.681   5.354   1.510
 9647SOL    HW129840   5.723   5.291   1.445
 9647SOL    HW229841   5.649   5.304   1.590
 9648SOL     OW29842   4.164   1.402   6.957
 9648SOL    HW129843   4.133   1.494   6.936
 9648SOL    HW229844   4.089   1.337   6.945
 9649SOL     OW29845   2.927   6.577   0.059
 9649SOL    HW129846   2.836   6.617   0.044
 9649SOL    HW229847   2.964   6.611   0.146
 9650SOL     OW29848   5.552   4.975   2.399
 9650SOL    HW129849   5.625   4.964   2.333
 9650SOL    HW229850   5.582   4.943   2.489
 9651SOL     OW29851   6.910   0.721   6.242
 9651SOL    HW129852   6.840   0.752   6.306
 9651SOL    HW229853   6.892   0.626   6.215
 9652SOL     OW29854   2.117   4.914   0.568
 9652SOL    HW129855   2.210   4.910   0.605
 9652SOL    HW229856   2.055   4.861   0.625
 9653SOL     OW29857   4.130   5.729   4.431
 9653SOL    HW129858   4.111   5.681   4.346
 9653SOL    HW229859   4.058   5.708   4.498
 9654SOL     OW29860   3.098   2.998   1.355
 9654SOL    HW129861   3.171   2.988   1.423
 9654SOL    HW229862   3.139   3.011   1.264
 9655SOL     OW29863   0.038   1.654   6.716
 9655SOL    HW129864   0.004   1.678   6.625
 9655SOL    HW229865   6.996   1.680   6.785
 9656SOL     OW29866   2.755   2.196   0.876
 9656SOL    HW129867   2.722   2.290   0.886
 9656SOL    HW229868   2.685   2.132   0.909
 9657SOL     OW29869   6.272   0.475   3.906
 9657SOL    HW129870   6.293   0.570   3.882
 9657SOL    HW229871   6.174   0.467   3.928
 9658SOL     OW29872   6.097   2.310   2.917
 9658SOL    HW129873   6.020   2.298   2.980
 9658SOL    HW229874   6.150   2.390   2.945
 9659SOL     OW29875   6.151   4.423   0.566
 9659SOL    HW129876   6.067   4.467   0.536
 9659SOL    HW229877   6.230   4.471   0.528
 9660SOL     OW29878   0.716   5.754   0.357
 9660SOL    HW129879   0.722   5.671   0.301
 9660SOL    HW229880   0.771   5.827   0.316
 9661SOL     OW29881   3.679   6.710   2.015
 9661SOL    HW129882   3.677   6.680   2.111
 9661SOL    HW229883   3.590   6.691   1.973
 9662SOL     OW29884   5.955   2.331   5.007
 9662SOL    HW129885   5.873   2.294   5.050
 9662SOL    HW229886   5.936   2.424   4.974
 9663SOL     OW29887   0.867   5.572   4.271
 9663SOL    HW129888   0.807   5.503   4.313
 9663SOL    HW229889   0.812   5.651   4.243
 9664SOL     OW29890   6.490   6.695   3.407
 9664SOL    HW129891   6.525   6.783   3.377
 9664SOL    HW229892   6.532   6.622   3.353
 9665SOL     OW29893   5.266   5.637   5.387
 9665SOL    HW129894   5.175   5.615   5.422
 9665SOL    HW229895   5.284   5.585   5.304
 9666SOL     OW29896   5.531   4.206   2.153
 9666SOL    HW129897   5.439   4.231   2.185
 9666SOL    HW229898   5.585   4.171   2.230
 9667SOL     OW29899   3.333   3.027   4.032
 9667SOL    HW129900   3.279   3.036   4.115
 9667SOL    HW229901   3.276   3.047   3.952
 9668SOL     OW29902   6.230   0.946   0.080
 9668SOL    HW129903   6.215   0.882   0.005
 9668SOL    HW229904   6.325   0.939   0.111
 9669SOL     OW29905   0.624   0.416   1.291
 9669SOL    HW129906   0.533   0.458   1.299
 9669SOL    HW229907   0.664   0.441   1.202
 9670SOL     OW29908   5.068   5.051   6.113
 9670SOL    HW129909   5.021   5.135   6.139
 9670SOL    HW229910   5.120   5.016   6.191
 9671SOL     OW29911   0.582   5.386   6.271
 9671SOL    HW129912   0.557   5.372   6.175
 9671SOL    HW229913   0.649   5.460   6.278
 9672SOL     OW29914   1.513   6.519   4.624
 9672SOL    HW129915   1.502   6.548   4.719
 9672SOL    HW229916   1.603   6.549   4.591
 9673SOL     OW29917   5.086   4.292   6.966
 9673SOL    HW129918   5.170   4.301   7.020
 9673SOL    HW229919   5.102   4.230   6.890
 9674SOL     OW29920   2.550   6.151   3.375
 9674SOL    HW129921   2.545   6.147   3.275
 9674SOL    HW229922   2.512   6.238   3.407
 9675SOL     OW29923   5.583   1.689   0.960
 9675SOL    HW129924   5.593   1.639   1.046
 9675SOL    HW229925   5.612   1.784   0.973
 9676SOL     OW29926   1.345   3.176   5.956
 9676SOL    HW129927   1.370   3.197   6.051
 9676SOL    HW229928   1.424   3.135   5.909
 9677SOL     OW29929   2.632   5.096   6.035
 9677SOL    HW129930   2.649   5.194   6.023
 9677SOL    HW229931   2.561   5.082   6.104
 9678SOL     OW29932   3.261   3.846   2.498
 9678SOL    HW129933   3.288   3.900   2.578
 9678SOL    HW229934   3.266   3.903   2.416
 9679SOL     OW29935   1.706   1.367   2.310
 9679SOL    HW129936   1.681   1.411   2.224
 9679SOL    HW229937   1.679   1.271   2.308
 9680SOL     OW29938   6.445   0.294   4.057
 9680SOL    HW129939   6.354   0.316   4.089
 9680SOL    HW229940   6.468   0.351   3.979
 9681SOL     OW29941   2.814   1.053   0.781
 9681SOL    HW129942   2.778   1.081   0.870
 9681SOL    HW229943   2.847   0.958   0.788
 9682SOL     OW29944   4.981   4.992   3.695
 9682SOL    HW129945   4.995   5.090   3.711
 9682SOL    HW229946   4.977   4.975   3.596
 9683SOL     OW29947   3.068   5.072   0.574
 9683SOL    HW129948   3.064   4.976   0.546
 9683SOL    HW229949   3.139   5.119   0.521
 9684SOL     OW29950   0.189   2.718   5.155
 9684SOL    HW129951   0.286   2.744   5.153
 9684SOL    HW229952   0.171   2.653   5.081
 9685SOL     OW29953   2.126   3.151   0.829
 9685SOL    HW129954   2.029   3.170   0.812
 9685SOL    HW229955   2.138   3.124   0.925
 9686SOL     OW29956   5.721   1.984   1.098
 9686SOL    HW129957   5.746   2.081   1.097
 9686SOL    HW229958   5.801   1.929   1.076
 9687SOL     OW29959   2.323   0.643   4.129
 9687SOL    HW129960   2.325   0.741   4.145
 9687SOL    HW229961   2.274   0.623   4.044
 9688SOL     OW29962   6.899   2.465   3.669
 9688SOL    HW129963   6.855   2.496   3.585
 9688SOL    HW229964   6.973   2.401   3.647
 9689SOL     OW29965   1.944   6.205   1.399
 9689SOL    HW129966   2.036   6.174   1.378
 9689SOL    HW229967   1.887   6.199   1.317
 9690SOL     OW29968   5.479   5.665   6.656
 9690SOL    HW129969   5.578   5.677   6.646
 9690SOL    HW229970   5.435   5.755   6.653
 9691SOL     OW29971   2.606   4.327   1.415
 9691SOL    HW129972   2.672   4.287   1.351
 9691SOL    HW229973   2.513   4.312   1.381
 9692SOL     OW29974   2.763   5.039   2.655
 9692SOL    HW129975   2.758   5.059   2.557
 9692SOL    HW229976   2.805   4.949   2.668
 9693SOL     OW29977   5.936   5.165   1.862
 9693SOL    HW129978   5.956   5.068   1.853
 9693SOL    HW229979   5.970   5.214   1.782
 9694SOL     OW29980   2.658   1.332   6.072
 9694SOL    HW129981   2.663   1.241   6.030
 9694SOL    HW229982   2.616   1.324   6.162
 9695SOL     OW29983   6.598   4.030   1.282
 9695SOL    HW129984   6.646   3.942   1.278
 9695SOL    HW229985   6.569   4.048   1.376
 9696SOL     OW29986   5.079   2.146   1.022
 9696SOL    HW129987   4.996   2.202   1.031
 9696SOL    HW229988   5.154   2.189   1.072
 9697SOL     OW29989   6.974   5.384   7.002
 9697SOL    HW129990   6.878   5.397   6.979
 9697SOL    HW229991   6.984   5.370   0.075
 9698SOL     OW29992   5.328   0.902   5.863
 9698SOL    HW129993   5.250   0.842   5.850
 9698SOL    HW229994   5.304   0.974   5.929
 9699SOL     OW29995   0.067   4.436   6.597
 9699SOL    HW129996   7.010   4.442   6.653
 9699SOL    HW229997   0.041   4.418   6.502
 9700SOL     OW29998   4.075   5.501   5.361
 9700SOL    HW129999   4.162   5.491   5.312
 9700SOL    HW230000   4.089   5.560   5.441
 9701SOL     OW30001   3.581   5.287   4.480
 9701SOL    HW130002   3.624   5.271   4.569
 9701SOL    HW230003   3.642   5.342   4.423
 9702SOL     OW30004   5.768   0.296   0.074
 9702SOL    HW130005   5.733   0.203   0.059
 9702SOL    HW230006   5.762   0.318   0.171
 9703SOL     OW30007   3.976   5.723   3.631
 9703SOL    HW130008   3.880   5.734   3.603
 9703SOL    HW230009   3.992   5.629   3.659
 9704SOL     OW30010   3.180   1.343   2.152
 9704SOL    HW130011   3.276   1.368   2.161
 9704SOL    HW230012   3.143   1.384   2.069
 9705SOL     OW30013   5.234   5.568   0.690
 9705SOL    HW130014   5.263   5.472   0.699
 9705SOL    HW230015   5.231   5.610   0.781
 9706SOL     OW30016   0.908   2.653   0.765
 9706SOL    HW130017   0.830   2.679   0.823
 9706SOL    HW230018   0.985   2.714   0.784
 9707SOL     OW30019   6.367   4.331   1.435
 9707SOL    HW130020   6.357   4.244   1.484
 9707SOL    HW230021   6.439   4.386   1.479
 9708SOL     OW30022   1.310   2.155   3.268
 9708SOL    HW130023   1.400   2.196   3.261
 9708SOL    HW230024   1.268   2.151   3.177
 9709SOL     OW30025   6.144   5.447   2.979
 9709SOL    HW130026   6.047   5.454   3.003
 9709SOL    HW230027   6.171   5.350   2.977
 9710SOL     OW30028   0.503   1.719   2.390
 9710SOL    HW130029   0.517   1.756   2.482
 9710SOL    HW230030   0.520   1.790   2.322
 9711SOL     OW30031   1.713   3.226   6.048
 9711SOL    HW130032   1.797   3.175   6.031
 9711SOL    HW230033   1.640   3.189   5.990
 9712SOL     OW30034   5.347   3.988   4.923
 9712SOL    HW130035   5.255   4.011   4.891
 9712SOL    HW230036   5.377   3.903   4.881
 9713SOL     OW30037   0.975   4.922   3.758
 9713SOL    HW130038   0.943   4.913   3.664
 9713SOL    HW230039   0.934   5.003   3.800
 9714SOL     OW30040   1.947   1.456   1.673
 9714SOL    HW130041   1.993   1.397   1.607
 9714SOL    HW230042   1.891   1.524   1.624
 9715SOL     OW30043   6.323   4.734   5.113
 9715SOL    HW130044   6.298   4.771   5.203
 9715SOL    HW230045   6.379   4.651   5.126
 9716SOL     OW30046   4.305   2.623   6.873
 9716SOL    HW130047   4.247   2.555   6.828
 9716SOL    HW230048   4.332   2.693   6.807
 9717SOL     OW30049   6.152   5.392   5.866
 9717SOL    HW130050   6.186   5.298   5.873
 9717SOL    HW230051   6.151   5.434   5.956
 9718SOL     OW30052   4.830   2.897   1.762
 9718SOL    HW130053   4.770   2.941   1.829
 9718SOL    HW230054   4.918   2.877   1.806
 9719SOL     OW30055   0.623   2.089   0.267
 9719SOL    HW130056   0.546   2.048   0.317
 9719SOL    HW230057   0.691   2.122   0.332
 9720SOL     OW30058   0.554   5.760   1.622
 9720SOL    HW130059   0.616   5.778   1.698
 9720SOL    HW230060   0.460   5.783   1.649
 9721SOL     OW30061   0.662   2.703   1.010
 9721SOL    HW130062   0.589   2.711   0.942
 9721SOL    HW230063   0.624   2.722   1.101
 9722SOL     OW30064   0.302   6.899   3.553
 9722SOL    HW130065   0.344   6.829   3.611
 9722SOL    HW230066   0.259   6.968   3.610
 9723SOL     OW30067   1.927   5.867   3.433
 9723SOL    HW130068   1.961   5.841   3.343
 9723SOL    HW230069   1.998   5.847   3.502
 9724SOL     OW30070   2.685   2.932   0.783
 9724SOL    HW130071   2.764   2.953   0.840
 9724SOL    HW230072   2.694   2.839   0.746
 9725SOL     OW30073   4.014   3.826   6.514
 9725SOL    HW130074   4.041   3.731   6.525
 9725SOL    HW230075   3.931   3.831   6.458
 9726SOL     OW30076   4.491   6.716   4.399
 9726SOL    HW130077   4.391   6.715   4.395
 9726SOL    HW230078   4.523   6.644   4.461
 9727SOL     OW30079   1.040   3.569   5.432
 9727SOL    HW130080   1.109   3.633   5.466
 9727SOL    HW230081   0.951   3.614   5.430
 9728SOL     OW30082   0.879   6.720   6.627
 9728SOL    HW130083   0.890   6.807   6.579
 9728SOL    HW230084   0.810   6.665   6.581
 9729SOL     OW30085   0.961   4.644   2.176
 9729SOL    HW130086   0.911   4.650   2.262
 9729SOL    HW230087   0.929   4.564   2.124
 9730SOL     OW30088   0.349   3.567   2.470
 9730SOL    HW130089   0.446   3.590   2.480
 9730SOL    HW230090   0.303   3.577   2.559
 9731SOL     OW30091   4.370   4.343   0.743
 9731SOL    HW130092   4.270   4.353   0.743
 9731SOL    HW230093   4.395   4.259   0.791
 9732SOL     OW30094   5.086   5.767   2.940
 9732SOL    HW130095   5.051   5.771   2.846
 9732SOL    HW230096   5.023   5.816   3.000
 9733SOL     OW30097   5.134   4.960   5.700
 9733SOL    HW130098   5.211   4.967   5.637
 9733SOL    HW230099   5.125   5.045   5.751
 9734SOL     OW30100   5.011   2.096   3.695
 9734SOL    HW130101   5.002   2.125   3.600
 9734SOL    HW230102   4.984   2.000   3.703
 9735SOL     OW30103   1.683   4.323   2.322
 9735SOL    HW130104   1.712   4.413   2.288
 9735SOL    HW230105   1.726   4.305   2.410
 9736SOL     OW30106   6.336   1.685   6.032
 9736SOL    HW130107   6.388   1.770   6.016
 9736SOL    HW230108   6.244   1.696   5.996
 9737SOL     OW30109   6.093   3.145   5.002
 9737SOL    HW130110   6.103   3.240   4.974
 9737SOL    HW230111   6.160   3.124   5.074
 9738SOL     OW30112   1.494   0.160   3.345
 9738SOL    HW130113   1.585   0.203   3.349
 9738SOL    HW230114   1.490   0.099   3.267
 9739SOL     OW30115   7.007   5.529   2.018
 9739SOL    HW130116   0.058   5.593   2.005
 9739SOL    HW230117   6.922   5.572   1.987
 9740SOL     OW30118   6.965   3.418   3.408
 9740SOL    HW130119   6.905   3.497   3.394
 9740SOL    HW230120   0.035   3.448   3.409
 9741SOL     OW30121   4.482   1.438   2.447
 9741SOL    HW130122   4.437   1.355   2.412
 9741SOL    HW230123   4.539   1.477   2.376
 9742SOL     OW30124   4.318   6.988   2.937
 9742SOL    HW130125   4.314   0.062   2.936
 9742SOL    HW230126   4.317   6.953   2.843
 9743SOL     OW30127   1.761   2.036   4.837
 9743SOL    HW130128   1.759   2.119   4.781
 9743SOL    HW230129   1.669   2.017   4.871
 9744SOL     OW30130   0.194   6.933   2.753
 9744SOL    HW130131   0.099   6.942   2.726
 9744SOL    HW230132   0.200   6.905   2.849
 9745SOL     OW30133   0.098   2.532   6.039
 9745SOL    HW130134   0.112   2.617   6.090
 9745SOL    HW230135   0.183   2.480   6.035
 9746SOL     OW30136   6.074   1.670   6.253
 9746SOL    HW130137   6.013   1.732   6.302
 9746SOL    HW230138   6.077   1.696   6.156
 9747SOL     OW30139   1.765   0.664   1.474
 9747SOL    HW130140   1.820   0.695   1.552
 9747SOL    HW230141   1.684   0.616   1.508
 9748SOL     OW30142   1.272   1.005   4.416
 9748SOL    HW130143   1.272   1.061   4.333
 9748SOL    HW230144   1.200   1.037   4.478
 9749SOL     OW30145   2.086   2.017   4.961
 9749SOL    HW130146   2.184   2.035   4.964
 9749SOL    HW230147   2.060   1.980   4.872
 9750SOL     OW30148   4.758   5.200   3.529
 9750SOL    HW130149   4.828   5.231   3.593
 9750SOL    HW230150   4.668   5.206   3.573
 9751SOL     OW30151   2.108   2.134   0.485
 9751SOL    HW130152   2.025   2.143   0.540
 9751SOL    HW230153   2.135   2.224   0.450
 9752SOL     OW30154   4.576   0.828   6.933
 9752SOL    HW130155   4.501   0.857   6.993
 9752SOL    HW230156   4.663   0.860   6.971
 9753SOL     OW30157   5.703   5.884   4.795
 9753SOL    HW130158   5.660   5.804   4.835
 9753SOL    HW230159   5.771   5.855   4.727
 9754SOL     OW30160   0.969   1.540   0.438
 9754SOL    HW130161   1.034   1.516   0.366
 9754SOL    HW230162   0.877   1.548   0.399
 9755SOL     OW30163   4.387   3.297   5.452
 9755SOL    HW130164   4.384   3.397   5.446
 9755SOL    HW230165   4.428   3.270   5.539
 9756SOL     OW30166   6.119   3.203   0.337
 9756SOL    HW130167   6.019   3.202   0.331
 9756SOL    HW230168   6.149   3.142   0.411
 9757SOL     OW30169   5.196   3.075   3.454
 9757SOL    HW130170   5.154   3.080   3.363
 9757SOL    HW230171   5.134   3.027   3.516
 9758SOL     OW30172   1.993   6.695   6.400
 9758SOL    HW130173   1.915   6.709   6.339
 9758SOL    HW230174   2.014   6.597   6.405
 9759SOL     OW30175   2.424   6.620   0.484
 9759SOL    HW130176   2.425   6.686   0.409
 9759SOL    HW230177   2.330   6.591   0.501
 9760SOL     OW30178   5.039   3.611   5.254
 9760SOL    HW130179   4.949   3.590   5.215
 9760SOL    HW230180   5.027   3.660   5.340
 9761SOL     OW30181   5.986   6.111   2.244
 9761SOL    HW130182   6.012   6.084   2.337
 9761SOL    HW230183   5.987   6.030   2.185
 9762SOL     OW30184   2.703   2.231   4.739
 9762SOL    HW130185   2.779   2.218   4.803
 9762SOL    HW230186   2.683   2.145   4.693
 9763SOL     OW30187   4.279   2.349   1.711
 9763SOL    HW130188   4.269   2.310   1.619
 9763SOL    HW230189   4.240   2.285   1.778
 9764SOL     OW30190   0.922   2.569   3.315
 9764SOL    HW130191   0.839   2.610   3.352
 9764SOL    HW230192   0.980   2.537   3.389
 9765SOL     OW30193   6.609   2.403   4.490
 9765SOL    HW130194   6.581   2.316   4.450
 9765SOL    HW230195   6.674   2.386   4.564
 9766SOL     OW30196   2.675   0.460   3.036
 9766SOL    HW130197   2.588   0.488   2.997
 9766SOL    HW230198   2.744   0.453   2.964
 9767SOL     OW30199   5.215   1.970   5.312
 9767SOL    HW130200   5.125   1.930   5.323
 9767SOL    HW230201   5.232   1.989   5.215
 9768SOL     OW30202   4.820   1.842   1.933
 9768SOL    HW130203   4.907   1.887   1.947
 9768SOL    HW230204   4.820   1.754   1.981
 9769SOL     OW30205   1.967   1.233   1.999
 9769SOL    HW130206   1.974   1.174   2.080
 9769SOL    HW230207   2.058   1.247   1.961
 9770SOL     OW30208   5.922   6.699   6.733
 9770SOL    HW130209   5.848   6.750   6.688
 9770SOL    HW230210   5.901   6.690   6.830
 9771SOL     OW30211   3.976   4.679   1.414
 9771SOL    HW130212   3.884   4.678   1.452
 9771SOL    HW230213   3.971   4.696   1.315
 9772SOL     OW30214   0.689   6.459   1.842
 9772SOL    HW130215   0.684   6.419   1.933
 9772SOL    HW230216   0.598   6.491   1.815
 9773SOL     OW30217   5.140   6.737   4.145
 9773SOL    HW130218   5.219   6.677   4.137
 9773SOL    HW230219   5.154   6.819   4.089
 9774SOL     OW30220   6.209   5.285   2.309
 9774SOL    HW130221   6.274   5.317   2.378
 9774SOL    HW230222   6.123   5.260   2.353
 9775SOL     OW30223   2.753   1.498   4.075
 9775SOL    HW130224   2.717   1.421   4.022
 9775SOL    HW230225   2.689   1.520   4.149
 9776SOL     OW30226   6.835   5.915   4.284
 9776SOL    HW130227   6.796   5.995   4.238
 9776SOL    HW230228   6.815   5.920   4.382
 9777SOL     OW30229   5.386   5.243   6.314
 9777SOL    HW130230   5.467   5.186   6.302
 9777SOL    HW230231   5.316   5.192   6.364
 9778SOL     OW30232   6.241   0.308   3.677
 9778SOL    HW130233   6.246   0.384   3.742
 9778SOL    HW230234   6.169   0.326   3.610
 9779SOL     OW30235   2.678   1.946   4.683
 9779SOL    HW130236   2.616   1.957   4.761
 9779SOL    HW230237   2.645   1.872   4.625
 9780SOL     OW30238   1.996   1.706   0.682
 9780SOL    HW130239   2.064   1.755   0.736
 9780SOL    HW230240   2.027   1.613   0.666
 9781SOL     OW30241   2.033   4.436   3.592
 9781SOL    HW130242   2.047   4.439   3.493
 9781SOL    HW230243   1.963   4.502   3.618
 9782SOL     OW30244   6.999   0.748   1.551
 9782SOL    HW130245   6.941   0.688   1.495
 9782SOL    HW230246   0.006   0.697   1.631
 9783SOL     OW30247   4.977   1.504   1.753
 9783SOL    HW130248   5.005   1.592   1.715
 9783SOL    HW230249   4.928   1.452   1.682
 9784SOL     OW30250   5.167   1.189   4.150
 9784SOL    HW130251   5.236   1.147   4.209
 9784SOL    HW230252   5.085   1.132   4.148
 9785SOL     OW30253   0.343   3.973   4.633
 9785SOL    HW130254   0.419   4.020   4.678
 9785SOL    HW230255   0.374   3.932   4.548
 9786SOL     OW30256   1.841   5.022   5.949
 9786SOL    HW130257   1.770   4.987   6.010
 9786SOL    HW230258   1.877   5.108   5.985
 9787SOL     OW30259   5.064   3.758   1.284
 9787SOL    HW130260   5.108   3.795   1.203
 9787SOL    HW230261   4.966   3.749   1.268
 9788SOL     OW30262   0.522   0.651   4.053
 9788SOL    HW130263   0.584   0.694   3.987
 9788SOL    HW230264   0.477   0.722   4.107
 9789SOL     OW30265   2.235   5.833   6.688
 9789SOL    HW130266   2.233   5.889   6.605
 9789SOL    HW230267   2.269   5.742   6.665
 9790SOL     OW30268   5.708   3.513   5.026
 9790SOL    HW130269   5.772   3.463   4.968
 9790SOL    HW230270   5.626   3.534   4.974
 9791SOL     OW30271   0.763   0.976   2.548
 9791SOL    HW130272   0.778   0.974   2.450
 9791SOL    HW230273   0.690   0.911   2.572
 9792SOL     OW30274   4.864   5.225   1.799
 9792SOL    HW130275   4.849   5.179   1.712
 9792SOL    HW230276   4.943   5.185   1.845
 9793SOL     OW30277   5.956   5.842   3.183
 9793SOL    HW130278   5.953   5.787   3.099
 9793SOL    HW230279   5.870   5.890   3.195
 9794SOL     OW30280   6.245   3.568   6.491
 9794SOL    HW130281   6.200   3.482   6.469
 9794SOL    HW230282   6.232   3.589   6.588
 9795SOL     OW30283   1.100   2.669   4.029
 9795SOL    HW130284   1.111   2.766   4.007
 9795SOL    HW230285   1.161   2.646   4.105
 9796SOL     OW30286   3.129   4.276   0.741
 9796SOL    HW130287   3.033   4.268   0.769
 9796SOL    HW230288   3.137   4.251   0.644
 9797SOL     OW30289   3.775   3.820   0.324
 9797SOL    HW130290   3.723   3.864   0.397
 9797SOL    HW230291   3.870   3.849   0.329
 9798SOL     OW30292   2.302   0.615   0.560
 9798SOL    HW130293   2.320   0.530   0.609
 9798SOL    HW230294   2.322   0.693   0.619
 9799SOL     OW30295   3.208   3.438   2.693
 9799SOL    HW130296   3.269   3.508   2.655
 9799SOL    HW230297   3.261   3.357   2.715
 9800SOL     OW30298   3.745   5.930   5.850
 9800SOL    HW130299   3.740   6.001   5.780
 9800SOL    HW230300   3.734   5.840   5.808
 9801SOL     OW30301   4.055   4.927   0.011
 9801SOL    HW130302   3.999   5.000   6.996
 9801SOL    HW230303   4.021   4.838   7.006
 9802SOL     OW30304   6.877   2.871   1.948
 9802SOL    HW130305   6.918   2.962   1.960
 9802SOL    HW230306   6.827   2.846   2.031
 9803SOL     OW30307   6.155   0.574   6.506
 9803SOL    HW130308   6.174   0.601   6.411
 9803SOL    HW230309   6.095   0.494   6.506
 9804SOL     OW30310   0.275   5.458   3.752
 9804SOL    HW130311   0.228   5.466   3.840
 9804SOL    HW230312   0.221   5.399   3.691
 9805SOL     OW30313   1.340   5.684   6.824
 9805SOL    HW130314   1.300   5.748   6.758
 9805SOL    HW230315   1.316   5.713   6.917
 9806SOL     OW30316   0.756   2.000   1.311
 9806SOL    HW130317   0.811   1.929   1.354
 9806SOL    HW230318   0.716   2.059   1.382
 9807SOL     OW30319   2.904   2.374   6.583
 9807SOL    HW130320   2.838   2.443   6.614
 9807SOL    HW230321   2.962   2.414   6.512
 9808SOL     OW30322   5.521   0.836   5.659
 9808SOL    HW130323   5.528   0.737   5.655
 9808SOL    HW230324   5.474   0.863   5.743
 9809SOL     OW30325   0.645   1.773   6.298
 9809SOL    HW130326   0.727   1.819   6.266
 9809SOL    HW230327   0.566   1.834   6.288
 9810SOL     OW30328   2.562   2.464   3.101
 9810SOL    HW130329   2.495   2.390   3.095
 9810SOL    HW230330   2.653   2.428   3.087
 9811SOL     OW30331   6.419   5.845   3.727
 9811SOL    HW130332   6.371   5.791   3.658
 9811SOL    HW230333   6.374   5.832   3.816
 9812SOL     OW30334   3.966   2.131   6.454
 9812SOL    HW130335   3.914   2.216   6.458
 9812SOL    HW230336   3.914   2.058   6.499
 9813SOL     OW30337   6.275   5.819   0.013
 9813SOL    HW130338   6.262   5.870   6.953
 9813SOL    HW230339   6.259   5.722   7.022
 9814SOL     OW30340   0.160   0.699   6.181
 9814SOL    HW130341   0.066   0.735   6.175
 9814SOL    HW230342   0.222   0.761   6.134
 9815SOL     OW30343   6.577   1.791   1.308
 9815SOL    HW130344   6.546   1.884   1.287
 9815SOL    HW230345   6.657   1.769   1.252
 9816SOL     OW30346   6.390   1.136   6.808
 9816SOL    HW130347   6.362   1.214   6.752
 9816SOL    HW230348   6.355   1.052   6.767
 9817SOL     OW30349   2.918   5.793   1.860
 9817SOL    HW130350   2.880   5.873   1.813
 9817SOL    HW230351   2.968   5.736   1.795
 9818SOL     OW30352   1.985   1.427   3.390
 9818SOL    HW130353   1.975   1.521   3.357
 9818SOL    HW230354   2.010   1.367   3.313
 9819SOL     OW30355   5.843   4.252   4.708
 9819SOL    HW130356   5.758   4.289   4.670
 9819SOL    HW230357   5.920   4.283   4.651
 9820SOL     OW30358   2.846   2.576   6.320
 9820SOL    HW130359   2.919   2.517   6.286
 9820SOL    HW230360   2.758   2.541   6.289
 9821SOL     OW30361   4.301   1.708   1.491
 9821SOL    HW130362   4.398   1.705   1.513
 9821SOL    HW230363   4.251   1.646   1.553
 9822SOL     OW30364   3.915   5.978   4.496
 9822SOL    HW130365   3.840   5.951   4.556
 9822SOL    HW230366   3.999   5.932   4.523
 9823SOL     OW30367   1.354   0.620   2.249
 9823SOL    HW130368   1.281   0.611   2.183
 9823SOL    HW230369   1.442   0.601   2.205
 9824SOL     OW30370   2.675   5.977   5.341
 9824SOL    HW130371   2.628   6.064   5.325
 9824SOL    HW230372   2.700   5.971   5.438
 9825SOL     OW30373   5.484   6.061   4.771
 9825SOL    HW130374   5.572   6.015   4.788
 9825SOL    HW230375   5.412   6.016   4.824
 9826SOL     OW30376   3.499   6.792   5.727
 9826SOL    HW130377   3.553   6.745   5.796
 9826SOL    HW230378   3.414   6.743   5.711
 9827SOL     OW30379   1.982   5.383   2.748
 9827SOL    HW130380   2.013   5.348   2.836
 9827SOL    HW230381   2.059   5.419   2.697
 9828SOL     OW30382   3.512   2.100   4.906
 9828SOL    HW130383   3.456   2.178   4.934
 9828SOL    HW230384   3.532   2.106   4.809
 9829SOL     OW30385   5.267   6.326   5.972
 9829SOL    HW130386   5.337   6.367   6.030
 9829SOL    HW230387   5.304   6.244   5.928
 9830SOL     OW30388   5.687   1.363   2.476
 9830SOL    HW130389   5.705   1.266   2.488
 9830SOL    HW230390   5.706   1.390   2.382
 9831SOL     OW30391   0.321   4.412   2.315
 9831SOL    HW130392   0.263   4.404   2.396
 9831SOL    HW230393   0.307   4.333   2.256
 9832SOL     OW30394   4.806   4.919   4.528
 9832SOL    HW130395   4.808   4.820   4.515
 9832SOL    HW230396   4.787   4.939   4.625
 9833SOL     OW30397   3.355   4.066   3.506
 9833SOL    HW130398   3.430   4.108   3.456
 9833SOL    HW230399   3.272   4.069   3.450
 9834SOL     OW30400   2.647   5.459   5.659
 9834SOL    HW130401   2.594   5.413   5.588
 9834SOL    HW230402   2.740   5.422   5.660
 9835SOL     OW30403   3.948   3.933   3.952
 9835SOL    HW130404   3.857   3.893   3.958
 9835SOL    HW230405   3.984   3.948   4.045
 9836SOL     OW30406   1.008   4.665   5.504
 9836SOL    HW130407   0.932   4.698   5.448
 9836SOL    HW230408   1.077   4.736   5.514
 9837SOL     OW30409   5.535   2.086   2.163
 9837SOL    HW130410   5.596   2.147   2.114
 9837SOL    HW230411   5.442   2.097   2.129
 9838SOL     OW30412   1.374   6.454   1.270
 9838SOL    HW130413   1.352   6.358   1.289
 9838SOL    HW230414   1.416   6.495   1.351
 9839SOL     OW30415   4.943   1.007   4.142
 9839SOL    HW130416   4.928   0.908   4.146
 9839SOL    HW230417   4.887   1.047   4.070
 9840SOL     OW30418   5.237   1.153   6.913
 9840SOL    HW130419   5.262   1.229   6.973
 9840SOL    HW230420   5.138   1.145   6.909
 9841SOL     OW30421   0.174   5.203   3.383
 9841SOL    HW130422   0.110   5.209   3.306
 9841SOL    HW230423   0.255   5.151   3.355
 9842SOL     OW30424   3.691   3.367   0.551
 9842SOL    HW130425   3.654   3.460   0.557
 9842SOL    HW230426   3.688   3.324   0.641
 9843SOL     OW30427   6.219   0.193   1.610
 9843SOL    HW130428   6.276   0.186   1.528
 9843SOL    HW230429   6.275   0.224   1.687
 9844SOL     OW30430   5.849   0.470   4.512
 9844SOL    HW130431   5.864   0.374   4.535
 9844SOL    HW230432   5.845   0.480   4.412
 9845SOL     OW30433   1.277   2.272   2.372
 9845SOL    HW130434   1.218   2.288   2.293
 9845SOL    HW230435   1.236   2.202   2.431
 9846SOL     OW30436   5.023   1.662   0.719
 9846SOL    HW130437   5.108   1.713   0.735
 9846SOL    HW230438   4.949   1.702   0.773
 9847SOL     OW30439   3.898   3.096   1.958
 9847SOL    HW130440   3.916   3.070   1.863
 9847SOL    HW230441   3.952   3.176   1.981
 9848SOL     OW30442   3.362   4.105   5.562
 9848SOL    HW130443   3.328   4.163   5.488
 9848SOL    HW230444   3.430   4.042   5.526
 9849SOL     OW30445   1.171   0.595   6.526
 9849SOL    HW130446   1.137   0.682   6.489
 9849SOL    HW230447   1.116   0.520   6.490
 9850SOL     OW30448   0.455   0.401   4.084
 9850SOL    HW130449   0.467   0.368   3.991
 9850SOL    HW230450   0.478   0.498   4.089
 9851SOL     OW30451   2.890   5.334   4.722
 9851SOL    HW130452   2.934   5.420   4.696
 9851SOL    HW230453   2.940   5.258   4.680
 9852SOL     OW30454   1.401   2.059   6.366
 9852SOL    HW130455   1.392   2.060   6.465
 9852SOL    HW230456   1.489   2.019   6.341
 9853SOL     OW30457   0.078   4.069   4.971
 9853SOL    HW130458   0.148   4.008   4.934
 9853SOL    HW230459   0.014   4.094   4.898
 9854SOL     OW30460   1.086   5.716   5.717
 9854SOL    HW130461   1.144   5.795   5.698
 9854SOL    HW230462   1.113   5.639   5.659
 9855SOL     OW30463   0.815   3.625   0.656
 9855SOL    HW130464   0.799   3.573   0.572
 9855SOL    HW230465   0.839   3.720   0.633
 9856SOL     OW30466   5.806   5.093   3.863
 9856SOL    HW130467   5.789   5.179   3.910
 9856SOL    HW230468   5.904   5.082   3.847
 9857SOL     OW30469   5.500   2.984   3.485
 9857SOL    HW130470   5.437   3.034   3.545
 9857SOL    HW230471   5.503   2.888   3.513
 9858SOL     OW30472   1.175   6.575   2.149
 9858SOL    HW130473   1.200   6.633   2.227
 9858SOL    HW230474   1.089   6.528   2.170
 9859SOL     OW30475   6.903   5.086   4.867
 9859SOL    HW130476   6.965   5.009   4.852
 9859SOL    HW230477   6.810   5.059   4.839
 9860SOL     OW30478   1.974   2.264   5.022
 9860SOL    HW130479   1.880   2.262   5.054
 9860SOL    HW230480   2.015   2.173   5.032
 9861SOL     OW30481   3.396   1.352   3.772
 9861SOL    HW130482   3.437   1.297   3.845
 9861SOL    HW230483   3.350   1.432   3.812
 9862SOL     OW30484   2.401   4.274   1.209
 9862SOL    HW130485   2.387   4.210   1.285
 9862SOL    HW230486   2.454   4.228   1.137
 9863SOL     OW30487   3.071   5.740   0.841
 9863SOL    HW130488   3.166   5.711   0.857
 9863SOL    HW230489   3.025   5.753   0.929
 9864SOL     OW30490   2.796   6.569   5.270
 9864SOL    HW130491   2.887   6.609   5.284
 9864SOL    HW230492   2.790   6.481   5.317
 9865SOL     OW30493   0.378   7.010   5.458
 9865SOL    HW130494   0.390   0.075   5.499
 9865SOL    HW230495   0.405   7.013   5.362
 9866SOL     OW30496   6.109   4.474   4.912
 9866SOL    HW130497   6.103   4.573   4.925
 9866SOL    HW230498   6.191   4.440   4.958
 9867SOL     OW30499   4.876   2.062   2.491
 9867SOL    HW130500   4.813   1.984   2.488
 9867SOL    HW230501   4.825   2.145   2.513
 9868SOL     OW30502   1.156   4.346   3.539
 9868SOL    HW130503   1.069   4.300   3.524
 9868SOL    HW230504   1.230   4.280   3.534
 9869SOL     OW30505   0.144   2.475   1.335
 9869SOL    HW130506   0.120   2.378   1.332
 9869SOL    HW230507   0.214   2.489   1.406
 9870SOL     OW30508   4.077   1.409   2.057
 9870SOL    HW130509   4.165   1.446   2.086
 9870SOL    HW230510   4.089   1.353   1.975
 9871SOL     OW30511   6.812   3.164   5.445
 9871SOL    HW130512   6.811   3.115   5.358
 9871SOL    HW230513   6.858   3.108   5.514
 9872SOL     OW30514   2.445   5.360   5.126
 9872SOL    HW130515   2.437   5.430   5.055
 9872SOL    HW230516   2.472   5.274   5.085
 9873SOL     OW30517   1.868   2.164   5.848
 9873SOL    HW130518   1.792   2.213   5.804
 9873SOL    HW230519   1.876   2.192   5.943
 9874SOL     OW30520   1.219   2.991   4.560
 9874SOL    HW130521   1.228   3.078   4.608
 9874SOL    HW230522   1.282   2.990   4.481
 9875SOL     OW30523   0.421   6.375   0.990
 9875SOL    HW130524   0.363   6.305   0.948
 9875SOL    HW230525   0.422   6.456   0.931
 9876SOL     OW30526   3.338   0.212   3.289
 9876SOL    HW130527   3.412   0.279   3.283
 9876SOL    HW230528   3.366   0.136   3.348
 9877SOL     OW30529   7.002   4.360   4.561
 9877SOL    HW130530   6.967   4.361   4.467
 9877SOL    HW230531   0.060   4.415   4.566
 9878SOL     OW30532   1.975   3.030   0.056
 9878SOL    HW130533   2.058   3.068   0.096
 9878SOL    HW230534   1.896   3.082   0.088
 9879SOL     OW30535   1.424   4.681   6.160
 9879SOL    HW130536   1.507   4.650   6.207
 9879SOL    HW230537   1.347   4.678   6.223
 9880SOL     OW30538   2.576   1.230   0.185
 9880SOL    HW130539   2.573   1.140   0.143
 9880SOL    HW230540   2.590   1.221   0.283
 9881SOL     OW30541   5.340   0.614   4.548
 9881SOL    HW130542   5.242   0.612   4.568
 9881SOL    HW230543   5.359   0.558   4.467
 9882SOL     OW30544   4.037   3.225   4.852
 9882SOL    HW130545   4.023   3.319   4.820
 9882SOL    HW230546   4.053   3.165   4.773
 9883SOL     OW30547   1.694   5.716   2.144
 9883SOL    HW130548   1.782   5.752   2.114
 9883SOL    HW230549   1.657   5.775   2.216
 9884SOL     OW30550   1.405   3.055   0.307
 9884SOL    HW130551   1.478   3.119   0.332
 9884SOL    HW230552   1.317   3.092   0.337
 9885SOL     OW30553   0.077   2.956   4.079
 9885SOL    HW130554   0.022   3.031   4.042
 9885SOL    HW230555   0.072   2.957   4.179
 9886SOL     OW30556   5.578   6.149   1.798
 9886SOL    HW130557   5.535   6.201   1.724
 9886SOL    HW230558   5.600   6.211   1.873
 9887SOL     OW30559   4.351   6.722   0.319
 9887SOL    HW130560   4.405   6.717   0.404
 9887SOL    HW230561   4.262   6.680   0.334
 9888SOL     OW30562   5.649   5.386   2.557
 9888SOL    HW130563   5.687   5.313   2.614
 9888SOL    HW230564   5.655   5.359   2.461
 9889SOL     OW30565   6.829   4.846   2.998
 9889SOL    HW130566   6.914   4.804   3.031
 9889SOL    HW230567   6.760   4.842   3.070
 9890SOL     OW30568   6.524   2.572   0.688
 9890SOL    HW130569   6.442   2.549   0.636
 9890SOL    HW230570   6.593   2.501   0.676
 9891SOL     OW30571   5.125   5.049   0.852
 9891SOL    HW130572   5.069   5.128   0.877
 9891SOL    HW230573   5.098   5.015   0.762
 9892SOL     OW30574   2.206   5.071   3.673
 9892SOL    HW130575   2.264   5.152   3.683
 9892SOL    HW230576   2.137   5.088   3.603
 9893SOL     OW30577   5.812   5.555   2.696
 9893SOL    HW130578   5.862   5.622   2.642
 9893SOL    HW230579   5.729   5.528   2.647
 9894SOL     OW30580   3.843   1.905   5.965
 9894SOL    HW130581   3.831   1.850   6.048
 9894SOL    HW230582   3.768   1.887   5.902
 9895SOL     OW30583   5.311   2.216   6.461
 9895SOL    HW130584   5.254   2.261   6.392
 9895SOL    HW230585   5.291   2.254   6.551
 9896SOL     OW30586   3.403   3.586   0.892
 9896SOL    HW130587   3.458   3.565   0.972
 9896SOL    HW230588   3.406   3.509   0.828
 9897SOL     OW30589   4.689   1.363   3.065
 9897SOL    HW130590   4.627   1.290   3.094
 9897SOL    HW230591   4.730   1.406   3.145
 9898SOL     OW30592   1.275   4.868   5.408
 9898SOL    HW130593   1.253   4.883   5.312
 9898SOL    HW230594   1.199   4.900   5.465
 9899SOL     OW30595   5.523   4.548   2.148
 9899SOL    HW130596   5.476   4.561   2.060
 9899SOL    HW230597   5.528   4.450   2.169
 9900SOL     OW30598   1.731   1.990   3.456
 9900SOL    HW130599   1.654   1.934   3.485
 9900SOL    HW230600   1.709   2.035   3.369
 9901SOL     OW30601   1.907   2.022   6.527
 9901SOL    HW130602   1.986   2.059   6.575
 9901SOL    HW230603   1.927   1.930   6.496
 9902SOL     OW30604   3.489   3.809   0.751
 9902SOL    HW130605   3.419   3.849   0.691
 9902SOL    HW230606   3.451   3.728   0.796
 9903SOL     OW30607   4.562   0.976   2.319
 9903SOL    HW130608   4.499   0.923   2.375
 9903SOL    HW230609   4.643   0.921   2.299
 9904SOL     OW30610   6.476   3.186   0.005
 9904SOL    HW130611   6.395   3.241   0.027
 9904SOL    HW230612   6.496   3.125   0.083
 9905SOL     OW30613   1.353   6.036   6.772
 9905SOL    HW130614   1.291   6.103   6.814
 9905SOL    HW230615   1.349   6.045   6.672
 9906SOL     OW30616   1.699   2.739   6.243
 9906SOL    HW130617   1.702   2.803   6.320
 9906SOL    HW230618   1.639   2.663   6.267
 9907SOL     OW30619   2.658   5.643   3.402
 9907SOL    HW130620   2.566   5.637   3.363
 9907SOL    HW230621   2.665   5.580   3.480
 9908SOL     OW30622   0.721   3.589   6.355
 9908SOL    HW130623   0.768   3.536   6.285
 9908SOL    HW230624   0.657   3.652   6.312
 9909SOL     OW30625   2.586   1.513   2.530
 9909SOL    HW130626   2.561   1.610   2.530
 9909SOL    HW230627   2.666   1.499   2.589
 9910SOL     OW30628   0.339   5.070   1.100
 9910SOL    HW130629   0.246   5.035   1.085
 9910SOL    HW230630   0.341   5.168   1.080
 9911SOL     OW30631   4.960   4.993   2.641
 9911SOL    HW130632   4.937   4.998   2.738
 9911SOL    HW230633   4.913   4.915   2.599
 9912SOL     OW30634   4.253   0.593   2.490
 9912SOL    HW130635   4.227   0.650   2.412
 9912SOL    HW230636   4.177   0.531   2.512
 9913SOL     OW30637   5.637   2.798   2.292
 9913SOL    HW130638   5.678   2.736   2.360
 9913SOL    HW230639   5.584   2.745   2.227
 9914SOL     OW30640   1.761   0.712   5.486
 9914SOL    HW130641   1.845   0.756   5.454
 9914SOL    HW230642   1.783   0.623   5.526
 9915SOL     OW30643   5.652   3.461   3.906
 9915SOL    HW130644   5.598   3.497   3.830
 9915SOL    HW230645   5.744   3.438   3.874
 9916SOL     OW30646   2.143   3.154   2.606
 9916SOL    HW130647   2.175   3.244   2.635
 9916SOL    HW230648   2.161   3.087   2.678
 9917SOL     OW30649   3.489   3.724   4.905
 9917SOL    HW130650   3.456   3.812   4.869
 9917SOL    HW230651   3.506   3.733   5.003
 9918SOL     OW30652   2.144   1.622   6.608
 9918SOL    HW130653   2.218   1.688   6.601
 9918SOL    HW230654   2.179   1.530   6.595
 9919SOL     OW30655   1.424   5.745   2.467
 9919SOL    HW130656   1.450   5.774   2.375
 9919SOL    HW230657   1.492   5.777   2.533
 9920SOL     OW30658   3.930   0.048   1.971
 9920SOL    HW130659   3.909   6.993   1.915
 9920SOL    HW230660   3.943   0.020   2.066
 9921SOL     OW30661   5.936   0.105   3.340
 9921SOL    HW130662   5.976   0.101   3.249
 9921SOL    HW230663   5.883   0.021   3.357
 9922SOL     OW30664   4.622   4.785   1.176
 9922SOL    HW130665   4.522   4.790   1.180
 9922SOL    HW230666   4.653   4.793   1.081
 9923SOL     OW30667   6.334   2.275   6.498
 9923SOL    HW130668   6.379   2.347   6.445
 9923SOL    HW230669   6.240   2.264   6.467
 9924SOL     OW30670   5.820   1.477   2.697
 9924SOL    HW130671   5.765   1.446   2.619
 9924SOL    HW230672   5.888   1.543   2.666
 9925SOL     OW30673   2.420   3.614   5.789
 9925SOL    HW130674   2.512   3.639   5.818
 9925SOL    HW230675   2.385   3.685   5.727
 9926SOL     OW30676   1.856   1.843   0.950
 9926SOL    HW130677   1.807   1.902   1.014
 9926SOL    HW230678   1.942   1.887   0.924
 9927SOL     OW30679   1.131   2.057   2.482
 9927SOL    HW130680   1.101   2.070   2.577
 9927SOL    HW230681   1.110   1.963   2.453
 9928SOL     OW30682   0.476   4.727   1.876
 9928SOL    HW130683   0.511   4.706   1.968
 9928SOL    HW230684   0.493   4.823   1.855
 9929SOL     OW30685   3.406   4.460   5.398
 9929SOL    HW130686   3.331   4.396   5.382
 9929SOL    HW230687   3.448   4.441   5.487
 9930SOL     OW30688   0.192   0.778   5.790
 9930SOL    HW130689   0.121   0.839   5.825
 9930SOL    HW230690   0.238   0.822   5.713
 9931SOL     OW30691   1.271   6.520   4.474
 9931SOL    HW130692   1.287   6.603   4.422
 9931SOL    HW230693   1.343   6.509   4.542
 9932SOL     OW30694   1.532   1.897   0.737
 9932SOL    HW130695   1.460   1.876   0.671
 9932SOL    HW230696   1.609   1.835   0.724
 9933SOL     OW30697   2.462   0.217   3.562
 9933SOL    HW130698   2.404   0.239   3.483
 9933SOL    HW230699   2.408   0.167   3.630
 9934SOL     OW30700   6.153   1.172   6.608
 9934SOL    HW130701   6.093   1.183   6.688
 9934SOL    HW230702   6.182   1.077   6.602
 9935SOL     OW30703   2.752   2.187   0.473
 9935SOL    HW130704   2.828   2.184   0.538
 9935SOL    HW230705   2.769   2.120   0.400
 9936SOL     OW30706   5.156   4.853   5.964
 9936SOL    HW130707   5.107   4.915   6.026
 9936SOL    HW230708   5.128   4.871   5.870
 9937SOL     OW30709   6.765   0.196   2.717
 9937SOL    HW130710   6.693   0.153   2.771
 9937SOL    HW230711   6.806   0.128   2.655
 9938SOL     OW30712   6.217   1.240   4.481
 9938SOL    HW130713   6.280   1.295   4.537
 9938SOL    HW230714   6.174   1.171   4.538
 9939SOL     OW30715   1.639   3.391   1.629
 9939SOL    HW130716   1.689   3.330   1.568
 9939SOL    HW230717   1.702   3.454   1.673
 9940SOL     OW30718   6.793   0.192   2.997
 9940SOL    HW130719   6.875   0.215   2.944
 9940SOL    HW230720   6.813   0.115   3.058
 9941SOL     OW30721   3.927   5.397   5.898
 9941SOL    HW130722   4.011   5.377   5.949
 9941SOL    HW230723   3.867   5.316   5.900
 9942SOL     OW30724   4.818   4.979   2.882
 9942SOL    HW130725   4.779   5.003   2.971
 9942SOL    HW230726   4.758   5.013   2.809
 9943SOL     OW30727   1.618   3.836   6.635
 9943SOL    HW130728   1.650   3.852   6.542
 9943SOL    HW230729   1.670   3.894   6.698
 9944SOL     OW30730   1.706   5.254   6.658
 9944SOL    HW130731   1.799   5.248   6.693
 9944SOL    HW230732   1.644   5.282   6.732
 9945SOL     OW30733   6.144   3.651   6.749
 9945SOL    HW130734   6.185   3.742   6.759
 9945SOL    HW230735   6.083   3.633   6.826
 9946SOL     OW30736   6.179   1.030   3.148
 9946SOL    HW130737   6.202   1.127   3.156
 9946SOL    HW230738   6.085   1.020   3.116
 9947SOL     OW30739   1.062   2.535   4.328
 9947SOL    HW130740   1.136   2.518   4.393
 9947SOL    HW230741   1.047   2.633   4.319
 9948SOL     OW30742   6.813   6.749   4.376
 9948SOL    HW130743   6.818   6.796   4.288
 9948SOL    HW230744   6.739   6.683   4.375
 9949SOL     OW30745   6.672   4.188   5.264
 9949SOL    HW130746   6.618   4.105   5.277
 9949SOL    HW230747   6.667   4.245   5.346
 9950SOL     OW30748   6.339   4.575   6.382
 9950SOL    HW130749   6.397   4.498   6.357
 9950SOL    HW230750   6.374   4.658   6.340
 9951SOL     OW30751   0.905   3.194   2.764
 9951SOL    HW130752   0.889   3.272   2.823
 9951SOL    HW230753   0.832   3.127   2.776
 9952SOL     OW30754   0.928   3.913   1.547
 9952SOL    HW130755   0.984   3.982   1.594
 9952SOL    HW230756   0.835   3.949   1.535
 9953SOL     OW30757   6.366   2.742   3.467
 9953SOL    HW130758   6.295   2.735   3.396
 9953SOL    HW230759   6.322   2.761   3.555
 9954SOL     OW30760   2.955   1.618   5.189
 9954SOL    HW130761   2.940   1.695   5.126
 9954SOL    HW230762   2.870   1.567   5.200
 9955SOL     OW30763   4.229   3.425   0.692
 9955SOL    HW130764   4.141   3.410   0.647
 9955SOL    HW230765   4.302   3.385   0.637
 9956SOL     OW30766   1.089   4.388   2.906
 9956SOL    HW130767   1.158   4.332   2.951
 9956SOL    HW230768   1.132   4.471   2.869
 9957SOL     OW30769   5.568   0.373   1.600
 9957SOL    HW130770   5.478   0.371   1.556
 9957SOL    HW230771   5.639   0.363   1.531
 9958SOL     OW30772   3.716   4.817   6.277
 9958SOL    HW130773   3.661   4.733   6.275
 9958SOL    HW230774   3.662   4.893   6.241
 9959SOL     OW30775   4.825   4.011   1.397
 9959SOL    HW130776   4.837   3.991   1.495
 9959SOL    HW230777   4.885   4.087   1.371
 9960SOL     OW30778   6.447   6.490   1.344
 9960SOL    HW130779   6.403   6.480   1.433
 9960SOL    HW230780   6.535   6.443   1.346
 9961SOL     OW30781   1.265   4.153   1.445
 9961SOL    HW130782   1.307   4.105   1.367
 9961SOL    HW230783   1.187   4.100   1.478
 9962SOL     OW30784   3.611   6.158   1.647
 9962SOL    HW130785   3.665   6.188   1.725
 9962SOL    HW230786   3.668   6.105   1.584
 9963SOL     OW30787   2.614   2.272   0.216
 9963SOL    HW130788   2.641   2.197   0.156
 9963SOL    HW230789   2.642   2.252   0.310
 9964SOL     OW30790   4.523   4.622   5.438
 9964SOL    HW130791   4.481   4.538   5.472
 9964SOL    HW230792   4.574   4.667   5.511
 9965SOL     OW30793   3.228   5.878   5.001
 9965SOL    HW130794   3.230   5.779   5.005
 9965SOL    HW230795   3.153   5.912   5.058
 9966SOL     OW30796   2.785   4.828   2.415
 9966SOL    HW130797   2.777   4.776   2.330
 9966SOL    HW230798   2.768   4.767   2.493
 9967SOL     OW30799   6.118   6.591   2.647
 9967SOL    HW130800   6.090   6.683   2.619
 9967SOL    HW230801   6.037   6.536   2.667
 9968SOL     OW30802   4.731   5.474   6.977
 9968SOL    HW130803   4.794   5.407   6.937
 9968SOL    HW230804   4.760   5.566   6.951
 9969SOL     OW30805   0.993   4.474   4.674
 9969SOL    HW130806   1.052   4.427   4.739
 9969SOL    HW230807   0.920   4.520   4.723
 9970SOL     OW30808   5.025   5.384   1.558
 9970SOL    HW130809   4.981   5.332   1.631
 9970SOL    HW230810   5.070   5.321   1.494
 9971SOL     OW30811   1.263   2.838   1.386
 9971SOL    HW130812   1.214   2.751   1.379
 9971SOL    HW230813   1.337   2.829   1.453
 9972SOL     OW30814   3.098   3.792   0.837
 9972SOL    HW130815   3.031   3.866   0.844
 9972SOL    HW230816   3.102   3.742   0.924
 9973SOL     OW30817   4.311   2.373   4.393
 9973SOL    HW130818   4.322   2.342   4.298
 9973SOL    HW230819   4.226   2.337   4.430
 9974SOL     OW30820   6.768   2.698   3.208
 9974SOL    HW130821   6.692   2.752   3.172
 9974SOL    HW230822   6.845   2.758   3.229
 9975SOL     OW30823   1.005   5.203   6.867
 9975SOL    HW130824   0.935   5.139   6.899
 9975SOL    HW230825   1.074   5.214   6.938
 9976SOL     OW30826   1.351   5.259   5.626
 9976SOL    HW130827   1.349   5.179   5.686
 9976SOL    HW230828   1.446   5.283   5.606
 9977SOL     OW30829   5.394   5.313   5.062
 9977SOL    HW130830   5.432   5.221   5.068
 9977SOL    HW230831   5.407   5.348   4.969
 9978SOL     OW30832   0.432   2.229   5.819
 9978SOL    HW130833   0.525   2.194   5.803
 9978SOL    HW230834   0.391   2.254   5.731
 9979SOL     OW30835   5.681   3.386   5.943
 9979SOL    HW130836   5.664   3.320   6.016
 9979SOL    HW230837   5.608   3.379   5.875
 9980SOL     OW30838   1.449   1.112   0.289
 9980SOL    HW130839   1.457   1.049   0.212
 9980SOL    HW230840   1.528   1.103   0.348
 9981SOL     OW30841   1.454   2.035   1.215
 9981SOL    HW130842   1.424   2.001   1.125
 9981SOL    HW230843   1.438   1.964   1.283
 9982SOL     OW30844   1.701   0.952   4.557
 9982SOL    HW130845   1.663   1.010   4.629
 9982SOL    HW230846   1.636   0.946   4.482
 9983SOL     OW30847   6.342   2.783   2.757
 9983SOL    HW130848   6.309   2.771   2.663
 9983SOL    HW230849   6.283   2.732   2.820
 9984SOL     OW30850   0.211   5.783   1.027
 9984SOL    HW130851   0.310   5.772   1.023
 9984SOL    HW230852   0.169   5.741   0.946
 9985SOL     OW30853   3.643   5.171   1.129
 9985SOL    HW130854   3.572   5.161   1.198
 9985SOL    HW230855   3.607   5.222   1.051
 9986SOL     OW30856   5.658   4.648   0.671
 9986SOL    HW130857   5.692   4.597   0.592
 9986SOL    HW230858   5.666   4.746   0.652
 9987SOL     OW30859   5.318   3.356   1.820
 9987SOL    HW130860   5.320   3.427   1.749
 9987SOL    HW230861   5.229   3.309   1.817
 9988SOL     OW30862   0.102   5.424   4.523
 9988SOL    HW130863   0.160   5.369   4.584
 9988SOL    HW230864   0.015   5.444   4.567
 9989SOL     OW30865   6.035   3.436   2.094
 9989SOL    HW130866   6.048   3.358   2.032
 9989SOL    HW230867   6.119   3.489   2.100
 9990SOL     OW30868   0.767   6.217   3.230
 9990SOL    HW130869   0.745   6.304   3.274
 9990SOL    HW230870   0.747   6.142   3.293
 9991SOL     OW30871   1.813   3.689   3.629
 9991SOL    HW130872   1.752   3.714   3.704
 9991SOL    HW230873   1.895   3.644   3.666
 9992SOL     OW30874   3.415   4.022   1.119
 9992SOL    HW130875   3.336   4.081   1.101
 9992SOL    HW230876   3.476   4.024   1.040
 9993SOL     OW30877   2.967   6.123   4.009
 9993SOL    HW130878   2.946   6.192   4.078
 9993SOL    HW230879   2.883   6.075   3.984
 9994SOL     OW30880   6.891   4.228   3.310
 9994SOL    HW130881   6.937   4.154   3.261
 9994SOL    HW230882   6.801   4.243   3.271
 9995SOL     OW30883   3.602   0.937   3.556
 9995SOL    HW130884   3.529   0.900   3.615
 9995SOL    HW230885   3.690   0.903   3.589
 9996SOL     OW30886   3.248   3.919   0.662
 9996SOL    HW130887   3.214   4.013   0.668
 9996SOL    HW230888   3.202   3.862   0.730
 9997SOL     OW30889   5.011   1.457   3.325
 9997SOL    HW130890   5.006   1.472   3.227
 9997SOL    HW230891   5.040   1.363   3.343
 9998SOL     OW30892   4.967   3.964   2.552
 9998SOL    HW130893   5.010   3.916   2.629
 9998SOL    HW230894   4.943   3.898   2.481
 9999SOL     OW30895   0.772   6.952   4.209
 9999SOL    HW130896   0.683   6.994   4.195
 9999SOL    HW230897   0.826   6.959   4.125
10000SOL     OW30898   5.477   1.503   1.422
10000SOL    HW130899   5.401   1.544   1.474
10000SOL    HW230900   5.440   1.445   1.350
10001SOL     OW30901   3.561   6.407   2.594
10001SOL    HW130902   3.621   6.419   2.673
10001SOL    HW230903   3.469   6.384   2.626
10002SOL     OW30904   2.364   1.521   1.194
10002SOL    HW130905   2.360   1.619   1.216
10002SOL    HW230906   2.312   1.503   1.111
10003SOL     OW30907   2.873   1.802   2.250
10003SOL    HW130908   2.955   1.768   2.297
10003SOL    HW230909   2.887   1.898   2.225
10004SOL     OW30910   5.462   4.900   4.918
10004SOL    HW130911   5.430   4.811   4.949
10004SOL    HW230912   5.443   4.969   4.989
10005SOL     OW30913   3.191   5.105   2.665
10005SOL    HW130914   3.285   5.077   2.685
10005SOL    HW230915   3.143   5.029   2.620
10006SOL     OW30916   5.596   0.633   5.363
10006SOL    HW130917   5.598   0.592   5.272
10006SOL    HW230918   5.670   0.701   5.370
10007SOL     OW30919   0.583   3.435   4.430
10007SOL    HW130920   0.497   3.387   4.416
10007SOL    HW230921   0.660   3.374   4.407
10008SOL     OW30922   4.781   1.820   3.955
10008SOL    HW130923   4.878   1.799   3.969
10008SOL    HW230924   4.769   1.919   3.947
10009SOL     OW30925   1.721   4.037   1.349
10009SOL    HW130926   1.796   4.076   1.294
10009SOL    HW230927   1.640   4.027   1.292
10010SOL     OW30928   2.816   5.520   6.727
10010SOL    HW130929   2.747   5.457   6.763
10010SOL    HW230930   2.890   5.530   6.793
10011SOL     OW30931   0.240   4.139   6.834
10011SOL    HW130932   0.273   4.197   6.759
10011SOL    HW230933   0.180   4.068   6.796
10012SOL     OW30934   4.477   0.316   2.517
10012SOL    HW130935   4.563   0.342   2.474
10012SOL    HW230936   4.405   0.311   2.448
10013SOL     OW30937   0.999   4.420   4.070
10013SOL    HW130938   0.950   4.333   4.065
10013SOL    HW230939   1.080   4.408   4.128
10014SOL     OW30940   1.828   6.945   2.291
10014SOL    HW130941   1.850   0.006   2.336
10014SOL    HW230942   1.896   6.925   2.221
10015SOL     OW30943   4.152   5.034   0.274
10015SOL    HW130944   4.170   4.963   0.205
10015SOL    HW230945   4.069   5.084   0.250
10016SOL     OW30946   2.347   1.485   4.989
10016SOL    HW130947   2.414   1.551   4.955
10016SOL    HW230948   2.270   1.534   5.032
10017SOL     OW30949   2.050   1.321   3.116
10017SOL    HW130950   2.126   1.266   3.151
10017SOL    HW230951   2.057   1.328   3.017
10018SOL     OW30952   6.257   3.851   5.437
10018SOL    HW130953   6.301   3.922   5.381
10018SOL    HW230954   6.285   3.861   5.532
10019SOL     OW30955   0.279   0.888   2.880
10019SOL    HW130956   0.261   0.840   2.966
10019SOL    HW230957   0.201   0.946   2.857
10020SOL     OW30958   0.440   1.100   2.196
10020SOL    HW130959   0.405   1.194   2.206
10020SOL    HW230960   0.453   1.080   2.099
10021SOL     OW30961   0.600   3.394   2.061
10021SOL    HW130962   0.568   3.315   2.114
10021SOL    HW230963   0.562   3.389   1.969
10022SOL     OW30964   2.548   5.564   0.239
10022SOL    HW130965   2.599   5.569   0.154
10022SOL    HW230966   2.545   5.655   0.282
10023SOL     OW30967   2.958   5.675   5.504
10023SOL    HW130968   3.030   5.610   5.481
10023SOL    HW230969   2.984   5.725   5.587
10024SOL     OW30970   0.652   5.287   3.134
10024SOL    HW130971   0.749   5.270   3.115
10024SOL    HW230972   0.624   5.233   3.212
10025SOL     OW30973   1.515   2.837   2.571
10025SOL    HW130974   1.461   2.823   2.654
10025SOL    HW230975   1.455   2.865   2.496
10026SOL     OW30976   4.898   0.340   3.792
10026SOL    HW130977   4.810   0.339   3.746
10026SOL    HW230978   4.893   0.286   3.876
10027SOL     OW30979   1.058   2.792   5.095
10027SOL    HW130980   1.015   2.709   5.061
10027SOL    HW230981   1.147   2.771   5.136
10028SOL     OW30982   2.607   1.210   0.972
10028SOL    HW130983   2.600   1.177   1.066
10028SOL    HW230984   2.671   1.287   0.969
10029SOL     OW30985   1.124   3.635   3.821
10029SOL    HW130986   1.041   3.645   3.766
10029SOL    HW230987   1.112   3.559   3.885
10030SOL     OW30988   3.372   0.262   5.135
10030SOL    HW130989   3.379   0.210   5.050
10030SOL    HW230990   3.305   0.336   5.124
10031SOL     OW30991   4.495   5.109   4.863
10031SOL    HW130992   4.397   5.088   4.859
10031SOL    HW230993   4.547   5.034   4.822
10032SOL     OW30994   4.107   0.208   6.127
10032SOL    HW130995   4.155   0.242   6.208
10032SOL    HW230996   4.111   0.108   6.126
10033SOL     OW30997   4.524   1.887   4.598
10033SOL    HW130998   4.488   1.981   4.595
10033SOL    HW230999   4.607   1.885   4.653
10034SOL     OW31000   2.102   0.947   4.003
10034SOL    HW131001   2.183   0.976   3.953
10034SOL    HW231002   2.021   0.963   3.946
10035SOL     OW31003   5.647   4.318   0.284
10035SOL    HW131004   5.686   4.271   0.363
10035SOL    HW231005   5.626   4.413   0.309
10036SOL     OW31006   6.487   1.022   0.984
10036SOL    HW131007   6.488   1.017   1.083
10036SOL    HW231008   6.524   1.110   0.955
10037SOL     OW31009   6.027   6.435   6.437
10037SOL    HW131010   5.997   6.382   6.516
10037SOL    HW231011   6.074   6.518   6.467
10038SOL     OW31012   4.397   6.966   5.891
10038SOL    HW131013   4.468   6.902   5.860
10038SOL    HW231014   4.381   0.010   5.821
10039SOL     OW31015   5.745   6.791   5.034
10039SOL    HW131016   5.697   6.756   5.115
10039SOL    HW231017   5.677   6.822   4.967
10040SOL     OW31018   4.288   6.465   5.655
10040SOL    HW131019   4.226   6.388   5.664
10040SOL    HW231020   4.377   6.442   5.694
10041SOL     OW31021   5.667   5.321   6.122
10041SOL    HW131022   5.603   5.269   6.179
10041SOL    HW231023   5.615   5.382   6.061
10042SOL     OW31024   0.207   0.939   5.288
10042SOL    HW131025   0.127   0.989   5.321
10042SOL    HW231026   0.235   0.978   5.200
10043SOL     OW31027   0.715   0.817   3.939
10043SOL    HW131028   0.745   0.780   3.851
10043SOL    HW231029   0.696   0.915   3.929
10044SOL     OW31030   2.710   2.189   3.611
10044SOL    HW131031   2.720   2.091   3.596
10044SOL    HW231032   2.740   2.239   3.529
10045SOL     OW31033   5.339   0.411   3.895
10045SOL    HW131034   5.402   0.428   3.971
10045SOL    HW231035   5.385   0.355   3.826
10046SOL     OW31036   1.375   2.264   1.375
10046SOL    HW131037   1.348   2.208   1.454
10046SOL    HW231038   1.429   2.209   1.311
10047SOL     OW31039   6.213   3.669   5.073
10047SOL    HW131040   6.176   3.600   5.135
10047SOL    HW231041   6.313   3.673   5.082
10048SOL     OW31042   3.604   2.063   2.622
10048SOL    HW131043   3.663   2.085   2.699
10048SOL    HW231044   3.655   2.073   2.537
10049SOL     OW31045   0.482   1.027   7.013
10049SOL    HW131046   0.532   1.112   0.007
10049SOL    HW231047   0.442   1.032   6.922
10050SOL     OW31048   5.887   2.666   5.104
10050SOL    HW131049   5.959   2.659   5.034
10050SOL    HW231050   5.928   2.667   5.195
10051SOL     OW31051   6.285   2.539   4.932
10051SOL    HW131052   6.296   2.625   4.981
10051SOL    HW231053   6.197   2.539   4.885
10052SOL     OW31054   1.728   2.273   2.069
10052SOL    HW131055   1.803   2.278   2.135
10052SOL    HW231056   1.642   2.289   2.116
10053SOL     OW31057   3.219   5.528   1.960
10053SOL    HW131058   3.284   5.531   2.036
10053SOL    HW231059   3.135   5.574   1.986
10054SOL     OW31060   4.103   6.269   5.707
10054SOL    HW131061   4.160   6.201   5.753
10054SOL    HW231062   4.025   6.292   5.765
10055SOL     OW31063   5.479   2.094   5.905
10055SOL    HW131064   5.575   2.065   5.899
10055SOL    HW231065   5.429   2.059   5.826
10056SOL     OW31066   6.670   5.141   0.441
10056SOL    HW131067   6.594   5.088   0.404
10056SOL    HW231068   6.747   5.137   0.377
10057SOL     OW31069   4.243   0.883   4.274
10057SOL    HW131070   4.242   0.843   4.182
10057SOL    HW231071   4.329   0.861   4.319
10058SOL     OW31072   0.640   3.690   4.530
10058SOL    HW131073   0.605   3.603   4.495
10058SOL    HW231074   0.707   3.672   4.603
10059SOL     OW31075   5.714   6.164   0.097
10059SOL    HW131076   5.622   6.126   0.094
10059SOL    HW231077   5.727   6.215   0.181
10060SOL     OW31078   2.245   1.322   1.882
10060SOL    HW131079   2.338   1.285   1.877
10060SOL    HW231080   2.230   1.385   1.806
10061SOL     OW31081   5.761   0.995   4.653
10061SOL    HW131082   5.716   1.022   4.568
10061SOL    HW231083   5.788   1.076   4.704
10062SOL     OW31084   6.243   6.574   4.598
10062SOL    HW131085   6.281   6.484   4.581
10062SOL    HW231086   6.225   6.586   4.696
10063SOL     OW31087   1.644   1.894   3.099
10063SOL    HW131088   1.617   1.798   3.111
10063SOL    HW231089   1.619   1.925   3.008
10064SOL     OW31090   5.697   6.145   6.424
10064SOL    HW131091   5.785   6.141   6.376
10064SOL    HW231092   5.624   6.167   6.359
10065SOL     OW31093   2.016   0.772   1.631
10065SOL    HW131094   2.003   0.676   1.655
10065SOL    HW231095   2.084   0.780   1.558
10066SOL     OW31096   1.801   1.129   4.149
10066SOL    HW131097   1.850   1.123   4.236
10066SOL    HW231098   1.855   1.086   4.077
10067SOL     OW31099   5.979   3.699   5.584
10067SOL    HW131100   5.943   3.636   5.653
10067SOL    HW231101   6.071   3.669   5.557
10068SOL     OW31102   5.828   3.405   4.150
10068SOL    HW131103   5.894   3.343   4.108
10068SOL    HW231104   5.757   3.428   4.083
10069SOL     OW31105   2.059   5.107   3.463
10069SOL    HW131106   1.959   5.114   3.474
10069SOL    HW231107   2.087   5.158   3.382
10070SOL     OW31108   0.082   0.332   5.309
10070SOL    HW131109   0.040   0.374   5.228
10070SOL    HW231110   0.149   0.394   5.348
10071SOL     OW31111   5.104   5.685   3.712
10071SOL    HW131112   5.009   5.694   3.741
10071SOL    HW231113   5.158   5.760   3.749
10072SOL     OW31114   0.815   6.080   4.277
10072SOL    HW131115   0.886   6.070   4.347
10072SOL    HW231116   0.857   6.084   4.187
10073SOL     OW31117   6.500   4.076   4.366
10073SOL    HW131118   6.539   3.989   4.336
10073SOL    HW231119   6.560   4.119   4.433
10074SOL     OW31120   1.379   0.865   5.380
10074SOL    HW131121   1.367   0.864   5.480
10074SOL    HW231122   1.444   0.937   5.356
10075SOL     OW31123   1.138   2.627   2.828
10075SOL    HW131124   1.171   2.715   2.794
10075SOL    HW231125   1.121   2.634   2.927
10076SOL     OW31126   5.865   0.095   3.893
10076SOL    HW131127   5.944   0.108   3.953
10076SOL    HW231128   5.882   0.017   3.833
10077SOL     OW31129   3.555   2.250   6.292
10077SOL    HW131130   3.642   2.290   6.321
10077SOL    HW231131   3.550   2.155   6.322
10078SOL     OW31132   0.073   6.102   4.076
10078SOL    HW131133   0.098   6.029   4.141
10078SOL    HW231134   0.030   6.177   4.125
10079SOL     OW31135   0.781   3.575   2.151
10079SOL    HW131136   0.712   3.523   2.100
10079SOL    HW231137   0.835   3.511   2.207
10080SOL     OW31138   3.457   1.257   5.851
10080SOL    HW131139   3.418   1.164   5.857
10080SOL    HW231140   3.489   1.285   5.942
10081SOL     OW31141   0.755   0.493   0.477
10081SOL    HW131142   0.696   0.543   0.413
10081SOL    HW231143   0.849   0.492   0.442
10082SOL     OW31144   6.896   4.489   2.410
10082SOL    HW131145   6.827   4.445   2.353
10082SOL    HW231146   6.933   4.569   2.362
10083SOL     OW31147   5.246   0.614   2.606
10083SOL    HW131148   5.253   0.587   2.702
10083SOL    HW231149   5.251   0.714   2.599
10084SOL     OW31150   3.158   0.932   6.026
10084SOL    HW131151   3.245   0.884   6.040
10084SOL    HW231152   3.095   0.872   5.976
10085SOL     OW31153   1.005   6.166   2.397
10085SOL    HW131154   0.980   6.135   2.489
10085SOL    HW231155   1.011   6.266   2.397
10086SOL     OW31156   5.671   5.208   1.729
10086SOL    HW131157   5.598   5.274   1.745
10086SOL    HW231158   5.725   5.197   1.813
10087SOL     OW31159   0.028   6.862   3.727
10087SOL    HW131160   7.012   6.936   3.780
10087SOL    HW231161   6.998   6.844   3.646
10088SOL     OW31162   6.914   0.158   0.008
10088SOL    HW131163   6.840   0.208   0.053
10088SOL    HW231164   6.883   0.066   7.009
10089SOL     OW31165   2.582   2.498   2.812
10089SOL    HW131166   2.588   2.468   2.907
10089SOL    HW231167   2.531   2.584   2.806
10090SOL     OW31168   0.959   4.610   0.668
10090SOL    HW131169   0.984   4.567   0.582
10090SOL    HW231170   1.029   4.677   0.694
10091SOL     OW31171   1.459   3.362   5.532
10091SOL    HW131172   1.510   3.279   5.554
10091SOL    HW231173   1.361   3.342   5.531
10092SOL     OW31174   2.179   3.430   5.058
10092SOL    HW131175   2.171   3.332   5.074
10092SOL    HW231176   2.125   3.455   4.977
10093SOL     OW31177   0.599   4.559   4.612
10093SOL    HW131178   0.590   4.658   4.602
10093SOL    HW231179   0.591   4.516   4.522
10094SOL     OW31180   1.975   6.168   2.102
10094SOL    HW131181   2.044   6.141   2.169
10094SOL    HW231182   1.952   6.265   2.115
10095SOL     OW31183   5.988   1.985   5.540
10095SOL    HW131184   6.015   1.957   5.448
10095SOL    HW231185   6.037   1.930   5.608
10096SOL     OW31186   5.413   5.252   2.139
10096SOL    HW131187   5.400   5.272   2.236
10096SOL    HW231188   5.335   5.199   2.105
10097SOL     OW31189   1.097   1.025   6.990
10097SOL    HW131190   1.039   0.980   0.032
10097SOL    HW231191   1.131   0.958   6.925
10098SOL     OW31192   2.399   0.892   5.430
10098SOL    HW131193   2.480   0.834   5.420
10098SOL    HW231194   2.362   0.914   5.340
10099SOL     OW31195   6.898   4.932   0.442
10099SOL    HW131196   6.905   4.970   0.350
10099SOL    HW231197   6.815   4.877   0.449
10100SOL     OW31198   5.315   0.146   4.255
10100SOL    HW131199   5.366   0.060   4.248
10100SOL    HW231200   5.368   0.213   4.306
10101SOL     OW31201   5.678   3.853   1.521
10101SOL    HW131202   5.679   3.764   1.566
10101SOL    HW231203   5.585   3.875   1.491
10102SOL     OW31204   1.535   0.970   2.603
10102SOL    HW131205   1.497   0.980   2.511
10102SOL    HW231206   1.630   0.937   2.596
10103SOL     OW31207   2.290   2.001   5.860
10103SOL    HW131208   2.370   2.037   5.909
10103SOL    HW231209   2.207   2.029   5.907
10104SOL     OW31210   1.262   2.476   4.486
10104SOL    HW131211   1.274   2.376   4.486
10104SOL    HW231212   1.274   2.510   4.579
10105SOL     OW31213   1.009   0.889   0.188
10105SOL    HW131214   1.052   0.800   0.200
10105SOL    HW231215   0.971   0.920   0.275
10106SOL     OW31216   4.498   6.397   0.826
10106SOL    HW131217   4.457   6.312   0.793
10106SOL    HW231218   4.567   6.377   0.896
10107SOL     OW31219   0.465   2.023   6.891
10107SOL    HW131220   0.515   1.967   6.958
10107SOL    HW231221   0.523   2.039   6.811
10108SOL     OW31222   6.723   6.402   6.996
10108SOL    HW131223   6.716   6.406   0.070
10108SOL    HW231224   6.641   6.441   6.955
10109SOL     OW31225   4.116   6.784   1.135
10109SOL    HW131226   4.211   6.775   1.107
10109SOL    HW231227   4.058   6.794   1.054
10110SOL     OW31228   4.603   6.269   4.923
10110SOL    HW131229   4.532   6.207   4.889
10110SOL    HW231230   4.622   6.248   5.019
10111SOL     OW31231   5.824   3.726   3.573
10111SOL    HW131232   5.763   3.694   3.500
10111SOL    HW231233   5.806   3.674   3.656
10112SOL     OW31234   5.757   3.861   4.247
10112SOL    HW131235   5.703   3.804   4.309
10112SOL    HW231236   5.704   3.941   4.221
10113SOL     OW31237   4.488   0.351   5.105
10113SOL    HW131238   4.497   0.380   5.201
10113SOL    HW231239   4.568   0.380   5.054
10114SOL     OW31240   5.532   0.694   0.924
10114SOL    HW131241   5.460   0.746   0.970
10114SOL    HW231242   5.592   0.654   0.993
10115SOL     OW31243   3.246   1.853   3.828
10115SOL    HW131244   3.292   1.924   3.880
10115SOL    HW231245   3.296   1.836   3.743
10116SOL     OW31246   0.247   6.402   0.569
10116SOL    HW131247   0.158   6.356   0.564
10116SOL    HW231248   0.234   6.498   0.593
10117SOL     OW31249   0.066   6.798   5.088
10117SOL    HW131250   0.074   6.875   5.152
10117SOL    HW231251   0.130   6.811   5.013
10118SOL     OW31252   1.342   5.398   2.886
10118SOL    HW131253   1.266   5.343   2.852
10118SOL    HW231254   1.309   5.490   2.907
10119SOL     OW31255   0.676   6.528   4.364
10119SOL    HW131256   0.735   6.457   4.327
10119SOL    HW231257   0.620   6.567   4.290
10120SOL     OW31258   1.902   3.957   4.805
10120SOL    HW131259   1.885   4.053   4.829
10120SOL    HW231260   1.845   3.898   4.862
10121SOL     OW31261   6.044   4.318   6.262
10121SOL    HW131262   6.013   4.224   6.275
10121SOL    HW231263   5.979   4.380   6.304
10122SOL     OW31264   5.607   3.152   0.704
10122SOL    HW131265   5.576   3.240   0.668
10122SOL    HW231266   5.702   3.137   0.676
10123SOL     OW31267   6.614   6.941   6.990
10123SOL    HW131268   6.711   6.926   7.010
10123SOL    HW231269   6.604   6.973   6.895
10124SOL     OW31270   1.823   3.467   6.907
10124SOL    HW131271   1.888   3.532   6.946
10124SOL    HW231272   1.825   3.473   6.807
10125SOL     OW31273   1.784   0.503   2.607
10125SOL    HW131274   1.732   0.549   2.535
10125SOL    HW231275   1.797   0.566   2.684
10126SOL     OW31276   0.248   6.739   6.236
10126SOL    HW131277   0.178   6.749   6.165
10126SOL    HW231278   0.227   6.801   6.312
10127SOL     OW31279   2.198   4.687   5.760
10127SOL    HW131280   2.274   4.675   5.823
10127SOL    HW231281   2.119   4.726   5.809
10128SOL     OW31282   1.536   0.900   1.297
10128SOL    HW131283   1.525   0.920   1.199
10128SOL    HW231284   1.547   0.802   1.310
10129SOL     OW31285   5.525   2.841   3.799
10129SOL    HW131286   5.537   2.785   3.881
10129SOL    HW231287   5.576   2.926   3.809
10130SOL     OW31288   1.938   4.152   2.038
10130SOL    HW131289   1.964   4.103   2.122
10130SOL    HW231290   2.012   4.214   2.012
10131SOL     OW31291   0.815   0.415   3.559
10131SOL    HW131292   0.819   0.347   3.486
10131SOL    HW231293   0.896   0.407   3.617
10132SOL     OW31294   3.135   0.170   4.460
10132SOL    HW131295   3.153   0.087   4.408
10132SOL    HW231296   3.196   0.243   4.429
10133SOL     OW31297   4.638   6.303   1.298
10133SOL    HW131298   4.710   6.233   1.294
10133SOL    HW231299   4.647   6.363   1.219
10134SOL     OW31300   6.909   5.947   3.937
10134SOL    HW131301   6.851   6.006   3.993
10134SOL    HW231302   7.003   5.979   3.941
10135SOL     OW31303   4.946   3.385   3.295
10135SOL    HW131304   5.032   3.421   3.332
10135SOL    HW231305   4.944   3.399   3.196
10136SOL     OW31306   5.425   0.965   3.156
10136SOL    HW131307   5.468   1.042   3.109
10136SOL    HW231308   5.331   0.989   3.181
10137SOL     OW31309   5.905   4.455   4.383
10137SOL    HW131310   5.961   4.372   4.388
10137SOL    HW231311   5.929   4.516   4.459
10138SOL     OW31312   5.055   2.474   0.775
10138SOL    HW131313   5.102   2.386   0.777
10138SOL    HW231314   4.983   2.472   0.706
10139SOL     OW31315   3.792   4.061   3.500
10139SOL    HW131316   3.806   4.051   3.402
10139SOL    HW231317   3.879   4.053   3.548
10140SOL     OW31318   6.353   6.324   5.916
10140SOL    HW131319   6.300   6.248   5.953
10140SOL    HW231320   6.429   6.345   5.978
10141SOL     OW31321   3.819   1.798   4.491
10141SOL    HW131322   3.813   1.881   4.435
10141SOL    HW231323   3.821   1.823   4.588
10142SOL     OW31324   6.125   6.461   4.342
10142SOL    HW131325   6.141   6.518   4.262
10142SOL    HW231326   6.161   6.506   4.423
10143SOL     OW31327   4.190   0.615   0.107
10143SOL    HW131328   4.269   0.554   0.111
10143SOL    HW231329   4.119   0.574   0.048
10144SOL     OW31330   3.788   6.959   6.625
10144SOL    HW131331   3.801   6.868   6.587
10144SOL    HW231332   3.694   6.989   6.607
10145SOL     OW31333   3.104   5.466   5.443
10145SOL    HW131334   3.177   5.398   5.441
10145SOL    HW231335   3.016   5.422   5.431
10146SOL     OW31336   4.092   5.582   4.207
10146SOL    HW131337   4.069   5.621   4.118
10146SOL    HW231338   4.108   5.484   4.197
10147SOL     OW31339   5.759   4.061   5.093
10147SOL    HW131340   5.763   3.962   5.105
10147SOL    HW231341   5.824   4.089   5.023
10148SOL     OW31342   5.056   5.445   7.014
10148SOL    HW131343   5.054   5.375   0.059
10148SOL    HW231344   5.102   5.527   0.024
10149SOL     OW31345   5.983   2.850   0.689
10149SOL    HW131346   5.970   2.815   0.781
10149SOL    HW231347   5.939   2.788   0.623
10150SOL     OW31348   4.109   3.789   0.538
10150SOL    HW131349   4.111   3.787   0.438
10150SOL    HW231350   4.029   3.840   0.569
10151SOL     OW31351   1.162   6.657   0.000
10151SOL    HW131352   1.205   6.605   6.952
10151SOL    HW231353   1.191   6.621   0.089
10152SOL     OW31354   0.588   6.373   4.711
10152SOL    HW131355   0.514   6.318   4.749
10152SOL    HW231356   0.641   6.412   4.787
10153SOL     OW31357   4.618   6.427   3.879
10153SOL    HW131358   4.593   6.330   3.878
10153SOL    HW231359   4.675   6.446   3.959
10154SOL     OW31360   5.762   0.324   4.946
10154SOL    HW131361   5.819   0.252   4.985
10154SOL    HW231362   5.718   0.375   5.020
10155SOL     OW31363   3.709   2.049   5.550
10155SOL    HW131364   3.718   2.139   5.593
10155SOL    HW231365   3.651   1.991   5.607
10156SOL     OW31366   6.324   1.264   2.930
10156SOL    HW131367   6.277   1.277   3.018
10156SOL    HW231368   6.285   1.326   2.862
10157SOL     OW31369   6.131   2.497   0.153
10157SOL    HW131370   6.166   2.480   0.061
10157SOL    HW231371   6.034   2.474   0.157
10158SOL     OW31372   6.225   3.625   1.243
10158SOL    HW131373   6.192   3.537   1.208
10158SOL    HW231374   6.147   3.681   1.271
10159SOL     OW31375   2.640   2.816   6.730
10159SOL    HW131376   2.609   2.838   6.638
10159SOL    HW231377   2.561   2.805   6.791
10160SOL     OW31378   1.830   3.139   2.241
10160SOL    HW131379   1.822   3.153   2.142
10160SOL    HW231380   1.744   3.103   2.277
10161SOL     OW31381   3.223   3.019   6.589
10161SOL    HW131382   3.289   2.963   6.539
10161SOL    HW231383   3.131   2.999   6.554
10162SOL     OW31384   3.657   4.582   0.765
10162SOL    HW131385   3.727   4.512   0.778
10162SOL    HW231386   3.643   4.597   0.668
10163SOL     OW31387   6.008   4.672   5.704
10163SOL    HW131388   6.033   4.751   5.648
10163SOL    HW231389   5.980   4.702   5.795
10164SOL     OW31390   5.793   3.653   4.684
10164SOL    HW131391   5.855   3.689   4.614
10164SOL    HW231392   5.752   3.729   4.734
10165SOL     OW31393   0.467   2.293   3.509
10165SOL    HW131394   0.431   2.335   3.426
10165SOL    HW231395   0.561   2.323   3.523
10166SOL     OW31396   3.314   2.047   1.440
10166SOL    HW131397   3.285   2.071   1.533
10166SOL    HW231398   3.347   2.129   1.394
10167SOL     OW31399   2.093   3.609   0.105
10167SOL    HW131400   2.108   3.517   0.068
10167SOL    HW231401   2.105   3.608   0.204
10168SOL     OW31402   5.933   3.429   5.689
10168SOL    HW131403   5.855   3.455   5.632
10168SOL    HW231404   5.914   3.452   5.784
10169SOL     OW31405   6.857   4.537   3.746
10169SOL    HW131406   6.909   4.621   3.731
10169SOL    HW231407   6.839   4.492   3.659
10170SOL     OW31408   1.160   5.295   5.418
10170SOL    HW131409   1.203   5.284   5.329
10170SOL    HW231410   1.228   5.279   5.490
10171SOL     OW31411   6.589   2.823   5.646
10171SOL    HW131412   6.563   2.803   5.551
10171SOL    HW231413   6.509   2.812   5.705
10172SOL     OW31414   6.844   6.697   4.976
10172SOL    HW131415   6.811   6.624   5.035
10172SOL    HW231416   6.938   6.721   5.002
10173SOL     OW31417   0.905   3.162   1.260
10173SOL    HW131418   0.945   3.100   1.327
10173SOL    HW231419   0.909   3.120   1.169
10174SOL     OW31420   5.380   5.221   2.407
10174SOL    HW131421   5.312   5.183   2.469
10174SOL    HW231422   5.432   5.147   2.365
10175SOL     OW31423   4.982   2.043   4.155
10175SOL    HW131424   4.977   2.134   4.113
10175SOL    HW231425   5.078   2.014   4.157
10176SOL     OW31426   0.844   3.610   5.887
10176SOL    HW131427   0.785   3.606   5.807
10176SOL    HW231428   0.894   3.524   5.897
10177SOL     OW31429   2.577   0.399   0.605
10177SOL    HW131430   2.637   0.479   0.613
10177SOL    HW231431   2.539   0.396   0.512
10178SOL     OW31432   6.832   0.680   5.928
10178SOL    HW131433   6.847   0.714   5.835
10178SOL    HW231434   6.815   0.581   5.924
10179SOL     OW31435   0.907   1.731   6.643
10179SOL    HW131436   0.951   1.680   6.568
10179SOL    HW231437   0.880   1.667   6.715
10180SOL     OW31438   4.356   0.285   6.282
10180SOL    HW131439   4.355   0.356   6.211
10180SOL    HW231440   4.377   0.326   6.370
10181SOL     OW31441   5.952   2.889   1.728
10181SOL    HW131442   5.883   2.922   1.794
10181SOL    HW231443   6.041   2.929   1.751
10182SOL     OW31444   4.231   1.057   1.343
10182SOL    HW131445   4.168   1.000   1.289
10182SOL    HW231446   4.325   1.037   1.316
10183SOL     OW31447   0.025   2.298   6.958
10183SOL    HW131448   7.012   2.207   6.939
10183SOL    HW231449   0.075   2.295   0.019
10184SOL     OW31450   4.024   0.840   6.455
10184SOL    HW131451   4.055   0.746   6.466
10184SOL    HW231452   4.053   0.875   6.366
10185SOL     OW31453   5.705   6.241   2.252
10185SOL    HW131454   5.698   6.280   2.160
10185SOL    HW231455   5.786   6.183   2.258
10186SOL     OW31456   5.906   4.059   3.879
10186SOL    HW131457   5.959   4.143   3.890
10186SOL    HW231458   5.867   4.056   3.787
10187SOL     OW31459   0.563   3.390   0.588
10187SOL    HW131460   0.525   3.456   0.523
10187SOL    HW231461   0.493   3.324   0.614
10188SOL     OW31462   3.321   5.640   0.819
10188SOL    HW131463   3.411   5.682   0.818
10188SOL    HW231464   3.287   5.631   0.725
10189SOL     OW31465   0.850   1.117   6.174
10189SOL    HW131466   0.926   1.103   6.110
10189SOL    HW231467   0.860   1.207   6.218
10190SOL     OW31468   4.967   3.082   2.052
10190SOL    HW131469   4.884   3.043   2.013
10190SOL    HW231470   4.992   3.166   2.003
10191SOL     OW31471   5.758   5.312   5.239
10191SOL    HW131472   5.829   5.335   5.305
10191SOL    HW231473   5.770   5.217   5.209
10192SOL     OW31474   4.375   1.117   5.492
10192SOL    HW131475   4.311   1.147   5.421
10192SOL    HW231476   4.440   1.191   5.511
10193SOL     OW31477   4.158   3.447   2.120
10193SOL    HW131478   4.241   3.393   2.119
10193SOL    HW231479   4.090   3.402   2.178
10194SOL     OW31480   5.598   5.868   5.597
10194SOL    HW131481   5.635   5.823   5.515
10194SOL    HW231482   5.506   5.833   5.615
10195SOL     OW31483   6.393   5.665   0.598
10195SOL    HW131484   6.358   5.613   0.676
10195SOL    HW231485   6.480   5.709   0.623
10196SOL     OW31486   5.227   1.536   3.801
10196SOL    HW131487   5.134   1.507   3.778
10196SOL    HW231488   5.250   1.618   3.748
10197SOL     OW31489   5.735   1.824   5.716
10197SOL    HW131490   5.712   1.862   5.626
10197SOL    HW231491   5.656   1.774   5.752
10198SOL     OW31492   2.602   6.954   2.293
10198SOL    HW131493   2.615   6.857   2.313
10198SOL    HW231494   2.540   6.963   2.214
10199SOL     OW31495   2.562   2.569   0.096
10199SOL    HW131496   2.584   2.486   0.148
10199SOL    HW231497   2.514   2.633   0.156
10200SOL     OW31498   5.033   1.785   6.988
10200SOL    HW131499   5.005   1.748   0.052
10200SOL    HW231500   4.994   1.730   6.915
10201SOL     OW31501   1.501   4.618   0.620
10201SOL    HW131502   1.595   4.606   0.588
10201SOL    HW231503   1.467   4.532   0.659
10202SOL     OW31504   3.471   3.578   0.368
10202SOL    HW131505   3.541   3.597   0.437
10202SOL    HW231506   3.431   3.664   0.336
10203SOL     OW31507   6.339   3.162   3.196
10203SOL    HW131508   6.251   3.117   3.208
10203SOL    HW231509   6.405   3.125   3.262
10204SOL     OW31510   5.589   5.739   0.062
10204SOL    HW131511   5.502   5.706   0.025
10204SOL    HW231512   5.624   5.813   0.005
10205SOL     OW31513   1.495   0.291   1.211
10205SOL    HW131514   1.475   0.206   1.163
10205SOL    HW231515   1.501   0.366   1.146
10206SOL     OW31516   0.065   0.902   0.303
10206SOL    HW131517   0.069   0.856   0.392
10206SOL    HW231518   0.077   1.000   0.316
10207SOL     OW31519   1.099   1.778   0.167
10207SOL    HW131520   1.094   1.788   0.068
10207SOL    HW231521   1.037   1.843   0.210
10208SOL     OW31522   5.821   4.480   4.120
10208SOL    HW131523   5.896   4.541   4.095
10208SOL    HW231524   5.830   4.455   4.217
10209SOL     OW31525   0.541   0.062   0.168
10209SOL    HW131526   0.615   0.068   0.235
10209SOL    HW231527   0.563   0.120   0.089
10210SOL     OW31528   4.835   6.734   2.121
10210SOL    HW131529   4.837   6.720   2.022
10210SOL    HW231530   4.914   6.689   2.162
10211SOL     OW31531   3.570   6.423   5.002
10211SOL    HW131532   3.629   6.464   4.932
10211SOL    HW231533   3.547   6.491   5.071
10212SOL     OW31534   1.115   0.498   5.456
10212SOL    HW131535   1.204   0.541   5.470
10212SOL    HW231536   1.095   0.437   5.532
10213SOL     OW31537   5.763   3.054   1.268
10213SOL    HW131538   5.747   3.077   1.364
10213SOL    HW231539   5.775   2.955   1.258
10214SOL     OW31540   1.457   1.279   2.214
10214SOL    HW131541   1.421   1.195   2.173
10214SOL    HW231542   1.398   1.308   2.289
10215SOL     OW31543   3.820   3.685   3.179
10215SOL    HW131544   3.751   3.649   3.241
10215SOL    HW231545   3.878   3.750   3.228
10216SOL     OW31546   0.247   1.257   1.522
10216SOL    HW131547   0.295   1.343   1.542
10216SOL    HW231548   0.307   1.180   1.541
10217SOL     OW31549   3.031   2.028   3.140
10217SOL    HW131550   3.104   2.044   3.073
10217SOL    HW231551   2.967   1.961   3.103
10218SOL     OW31552   1.605   1.341   1.226
10218SOL    HW131553   1.539   1.305   1.161
10218SOL    HW231554   1.666   1.405   1.180
10219SOL     OW31555   0.005   2.009   2.614
10219SOL    HW131556   6.962   1.960   2.559
10219SOL    HW231557   7.022   2.107   2.597
10220SOL     OW31558   4.784   1.644   1.066
10220SOL    HW131559   4.814   1.715   1.003
10220SOL    HW231560   4.713   1.681   1.126
10221SOL     OW31561   0.690   5.130   3.366
10221SOL    HW131562   0.689   5.074   3.449
10221SOL    HW231563   0.751   5.089   3.298
10222SOL     OW31564   2.643   3.495   6.178
10222SOL    HW131565   2.629   3.590   6.150
10222SOL    HW231566   2.724   3.489   6.236
10223SOL     OW31567   0.707   4.971   1.281
10223SOL    HW131568   0.790   4.997   1.231
10223SOL    HW231569   0.719   4.878   1.318
10224SOL     OW31570   7.009   3.220   4.272
10224SOL    HW131571   0.028   3.145   4.321
10224SOL    HW231572   6.911   3.202   4.265
10225SOL     OW31573   1.388   5.056   5.773
10225SOL    HW131574   1.358   4.970   5.816
10225SOL    HW231575   1.463   5.095   5.827
10226SOL     OW31576   2.724   0.914   6.236
10226SOL    HW131577   2.712   0.863   6.321
10226SOL    HW231578   2.799   0.979   6.247
10227SOL     OW31579   5.704   4.921   0.600
10227SOL    HW131580   5.787   4.948   0.551
10227SOL    HW231581   5.707   4.957   0.693
10228SOL     OW31582   0.342   6.711   1.897
10228SOL    HW131583   0.293   6.741   1.979
10228SOL    HW231584   0.395   6.788   1.860
10229SOL     OW31585   1.268   3.167   4.755
10229SOL    HW131586   1.279   3.096   4.825
10229SOL    HW231587   1.195   3.230   4.783
10230SOL     OW31588   5.761   6.110   3.054
10230SOL    HW131589   5.713   6.023   3.044
10230SOL    HW231590   5.759   6.140   3.149
10231SOL     OW31591   6.898   5.655   5.208
10231SOL    HW131592   6.934   5.667   5.301
10231SOL    HW231593   6.812   5.605   5.212
10232SOL     OW31594   3.109   1.268   3.419
10232SOL    HW131595   3.039   1.332   3.451
10232SOL    HW231596   3.073   1.216   3.341
10233SOL     OW31597   3.788   4.138   4.843
10233SOL    HW131598   3.747   4.116   4.932
10233SOL    HW231599   3.848   4.064   4.815
10234SOL     OW31600   5.714   1.529   1.653
10234SOL    HW131601   5.768   1.604   1.614
10234SOL    HW231602   5.617   1.550   1.645
10235SOL     OW31603   2.192   2.624   1.812
10235SOL    HW131604   2.142   2.704   1.843
10235SOL    HW231605   2.290   2.644   1.811
10236SOL     OW31606   2.968   6.941   0.052
10236SOL    HW131607   3.001   6.926   6.984
10236SOL    HW231608   2.949   0.013   0.066
10237SOL     OW31609   6.924   3.377   6.971
10237SOL    HW131610   6.855   3.425   7.025
10237SOL    HW231611   6.886   3.291   6.936
10238SOL     OW31612   3.927   4.344   1.625
10238SOL    HW131613   3.907   4.265   1.567
10238SOL    HW231614   4.025   4.348   1.642
10239SOL     OW31615   1.642   2.859   4.492
10239SOL    HW131616   1.603   2.803   4.419
10239SOL    HW231617   1.741   2.863   4.483
10240SOL     OW31618   1.999   5.107   2.144
10240SOL    HW131619   2.016   5.085   2.048
10240SOL    HW231620   1.936   5.040   2.183
10241SOL     OW31621   5.584   0.545   2.223
10241SOL    HW131622   5.649   0.478   2.258
10241SOL    HW231623   5.626   0.598   2.150
10242SOL     OW31624   0.032   1.319   0.611
10242SOL    HW131625   6.968   1.315   0.567
10242SOL    HW231626   0.024   1.366   0.699
10243SOL     OW31627   2.347   4.415   1.668
10243SOL    HW131628   2.426   4.476   1.679
10243SOL    HW231629   2.372   4.322   1.695
10244SOL     OW31630   1.523   4.407   0.355
10244SOL    HW131631   1.609   4.370   0.322
10244SOL    HW231632   1.529   4.507   0.361
10245SOL     OW31633   3.182   3.651   1.059
10245SOL    HW131634   3.255   3.631   0.994
10245SOL    HW231635   3.201   3.605   1.146
10246SOL     OW31636   3.322   4.027   4.149
10246SOL    HW131637   3.287   4.037   4.056
10246SOL    HW231638   3.388   4.100   4.168
10247SOL     OW31639   6.378   4.105   5.877
10247SOL    HW131640   6.403   4.133   5.970
10247SOL    HW231641   6.279   4.106   5.868
10248SOL     OW31642   1.286   6.513   2.902
10248SOL    HW131643   1.309   6.609   2.895
10248SOL    HW231644   1.284   6.486   2.999
10249SOL     OW31645   3.128   5.697   6.641
10249SOL    HW131646   3.223   5.702   6.608
10249SOL    HW231647   3.070   5.657   6.570
10250SOL     OW31648   6.419   3.193   1.179
10250SOL    HW131649   6.326   3.156   1.182
10250SOL    HW231650   6.481   3.124   1.141
10251SOL     OW31651   2.111   1.384   4.595
10251SOL    HW131652   2.024   1.405   4.640
10251SOL    HW231653   2.182   1.445   4.629
10252SOL     OW31654   4.280   3.764   6.231
10252SOL    HW131655   4.188   3.784   6.199
10252SOL    HW231656   4.289   3.666   6.249
10253SOL     OW31657   2.979   5.423   0.629
10253SOL    HW131658   3.003   5.334   0.590
10253SOL    HW231659   3.016   5.429   0.722
10254SOL     OW31660   4.947   1.436   5.323
10254SOL    HW131661   4.915   1.351   5.282
10254SOL    HW231662   4.885   1.463   5.397
10255SOL     OW31663   2.627   6.765   1.006
10255SOL    HW131664   2.608   6.690   0.943
10255SOL    HW231665   2.714   6.807   0.983
10256SOL     OW31666   4.065   1.788   2.254
10256SOL    HW131667   4.022   1.722   2.316
10256SOL    HW231668   4.090   1.743   2.169
10257SOL     OW31669   2.082   5.439   3.941
10257SOL    HW131670   2.012   5.493   3.988
10257SOL    HW231671   2.099   5.355   3.991
10258SOL     OW31672   3.864   2.147   2.733
10258SOL    HW131673   3.917   2.178   2.654
10258SOL    HW231674   3.904   2.183   2.817
10259SOL     OW31675   0.766   4.308   3.171
10259SOL    HW131676   0.805   4.383   3.117
10259SOL    HW231677   0.829   4.230   3.170
10260SOL     OW31678   0.857   1.662   3.131
10260SOL    HW131679   0.879   1.593   3.062
10260SOL    HW231680   0.792   1.625   3.197
10261SOL     OW31681   6.763   5.307   1.125
10261SOL    HW131682   6.742   5.321   1.222
10261SOL    HW231683   6.763   5.209   1.105
10262SOL     OW31684   3.100   6.693   5.924
10262SOL    HW131685   3.137   6.786   5.919
10262SOL    HW231686   3.145   6.643   5.998
10263SOL     OW31687   5.778   0.291   0.870
10263SOL    HW131688   5.779   0.372   0.812
10263SOL    HW231689   5.792   0.210   0.814
10264SOL     OW31690   0.159   6.353   6.562
10264SOL    HW131691   0.123   6.403   6.483
10264SOL    HW231692   0.240   6.301   6.534
10265SOL     OW31693   3.078   2.636   0.772
10265SOL    HW131694   3.146   2.567   0.799
10265SOL    HW231695   2.989   2.592   0.763
10266SOL     OW31696   3.871   3.059   3.514
10266SOL    HW131697   3.823   3.011   3.587
10266SOL    HW231698   3.845   3.020   3.426
10267SOL     OW31699   5.222   1.581   0.232
10267SOL    HW131700   5.126   1.601   0.216
10267SOL    HW231701   5.233   1.536   0.320
10268SOL     OW31702   6.284   6.369   2.148
10268SOL    HW131703   6.312   6.276   2.122
10268SOL    HW231704   6.247   6.368   2.241
10269SOL     OW31705   0.836   3.406   6.183
10269SOL    HW131706   0.906   3.362   6.239
10269SOL    HW231707   0.868   3.413   6.088
10270SOL     OW31708   3.091   5.253   2.460
10270SOL    HW131709   3.132   5.226   2.547
10270SOL    HW231710   3.014   5.191   2.439
10271SOL     OW31711   3.636   2.358   0.104
10271SOL    HW131712   3.637   2.445   0.054
10271SOL    HW231713   3.543   2.321   0.106
10272SOL     OW31714   0.947   1.026   5.291
10272SOL    HW131715   0.972   0.938   5.252
10272SOL    HW231716   0.903   1.012   5.380
10273SOL     OW31717   3.218   5.767   2.887
10273SOL    HW131718   3.170   5.844   2.847
10273SOL    HW231719   3.234   5.784   2.985
10274SOL     OW31720   0.809   4.891   5.988
10274SOL    HW131721   0.852   4.888   6.078
10274SOL    HW231722   0.774   4.983   5.971
10275SOL     OW31723   0.413   0.198   2.270
10275SOL    HW131724   0.410   0.293   2.238
10275SOL    HW231725   0.451   0.196   2.362
10276SOL     OW31726   4.994   6.078   5.114
10276SOL    HW131727   4.923   6.049   5.050
10276SOL    HW231728   4.959   6.075   5.207
10277SOL     OW31729   1.987   6.378   4.796
10277SOL    HW131730   1.940   6.298   4.833
10277SOL    HW231731   2.082   6.379   4.827
10278SOL     OW31732   1.695   1.597   3.410
10278SOL    HW131733   1.620   1.566   3.468
10278SOL    HW231734   1.674   1.578   3.314
10279SOL     OW31735   1.472   4.574   4.567
10279SOL    HW131736   1.549   4.623   4.607
10279SOL    HW231737   1.395   4.637   4.556
10280SOL     OW31738   6.451   2.491   6.369
10280SOL    HW131739   6.520   2.516   6.300
10280SOL    HW231740   6.465   2.545   6.451
10281SOL     OW31741   6.117   2.016   3.741
10281SOL    HW131742   6.202   2.037   3.789
10281SOL    HW231743   6.121   1.923   3.706
10282SOL     OW31744   5.242   3.598   3.804
10282SOL    HW131745   5.185   3.516   3.804
10282SOL    HW231746   5.322   3.583   3.747
10283SOL     OW31747   1.752   3.142   1.115
10283SOL    HW131748   1.688   3.154   1.190
10283SOL    HW231749   1.724   3.199   1.038
10284SOL     OW31750   5.401   1.766   5.354
10284SOL    HW131751   5.427   1.714   5.272
10284SOL    HW231752   5.345   1.844   5.328
10285SOL     OW31753   5.166   6.380   3.009
10285SOL    HW131754   5.070   6.402   3.026
10285SOL    HW231755   5.175   6.337   2.919
10286SOL     OW31756   4.162   0.679   3.733
10286SOL    HW131757   4.089   0.611   3.731
10286SOL    HW231758   4.183   0.709   3.640
10287SOL     OW31759   2.828   5.354   1.811
10287SOL    HW131760   2.850   5.321   1.902
10287SOL    HW231761   2.752   5.418   1.815
10288SOL     OW31762   4.528   6.092   3.137
10288SOL    HW131763   4.459   6.146   3.089
10288SOL    HW231764   4.514   5.995   3.118
10289SOL     OW31765   3.007   6.330   0.033
10289SOL    HW131766   2.974   6.298   6.970
10289SOL    HW231767   2.970   6.421   0.052
10290SOL     OW31768   2.894   3.265   2.807
10290SOL    HW131769   2.838   3.215   2.741
10290SOL    HW231770   2.891   3.363   2.785
10291SOL     OW31771   3.825   1.892   2.767
10291SOL    HW131772   3.904   1.845   2.728
10291SOL    HW231773   3.835   1.991   2.755
10292SOL     OW31774   1.373   1.884   5.162
10292SOL    HW131775   1.471   1.869   5.176
10292SOL    HW231776   1.337   1.939   5.237
10293SOL     OW31777   1.334   3.370   2.560
10293SOL    HW131778   1.390   3.392   2.640
10293SOL    HW231779   1.289   3.452   2.527
10294SOL     OW31780   4.331   1.549   3.390
10294SOL    HW131781   4.367   1.559   3.298
10294SOL    HW231782   4.245   1.498   3.387
10295SOL     OW31783   0.769   3.201   5.787
10295SOL    HW131784   0.756   3.196   5.688
10295SOL    HW231785   0.696   3.149   5.832
10296SOL     OW31786   5.424   1.056   6.734
10296SOL    HW131787   5.355   1.096   6.795
10296SOL    HW231788   5.509   1.109   6.739
10297SOL     OW31789   2.091   1.030   5.946
10297SOL    HW131790   2.034   1.049   5.866
10297SOL    HW231791   2.151   1.108   5.963
10298SOL     OW31792   2.862   4.429   1.139
10298SOL    HW131793   2.804   4.443   1.059
10298SOL    HW231794   2.804   4.410   1.219
10299SOL     OW31795   3.741   4.885   3.120
10299SOL    HW131796   3.797   4.811   3.082
10299SOL    HW231797   3.728   4.869   3.218
10300SOL     OW31798   1.104   4.294   1.978
10300SOL    HW131799   1.144   4.359   1.914
10300SOL    HW231800   1.009   4.319   1.996
10301SOL     OW31801   4.848   2.177   5.592
10301SOL    HW131802   4.858   2.183   5.493
10301SOL    HW231803   4.905   2.102   5.627
10302SOL     OW31804   2.564   6.708   4.659
10302SOL    HW131805   2.555   6.622   4.609
10302SOL    HW231806   2.499   6.775   4.623
10303SOL     OW31807   1.248   5.921   3.409
10303SOL    HW131808   1.341   5.942   3.379
10303SOL    HW231809   1.231   5.966   3.497
10304SOL     OW31810   5.655   0.079   1.644
10304SOL    HW131811   5.709   0.028   1.710
10304SOL    HW231812   5.685   0.175   1.643
10305SOL     OW31813   1.630   3.819   5.888
10305SOL    HW131814   1.726   3.802   5.908
10305SOL    HW231815   1.586   3.735   5.856
10306SOL     OW31816   5.156   5.735   6.796
10306SOL    HW131817   5.240   5.714   6.846
10306SOL    HW231818   5.119   5.651   6.757
10307SOL     OW31819   3.114   2.078   5.224
10307SOL    HW131820   3.039   2.101   5.287
10307SOL    HW231821   3.137   2.159   5.170
10308SOL     OW31822   2.069   3.761   2.682
10308SOL    HW131823   2.103   3.832   2.621
10308SOL    HW231824   1.991   3.714   2.640
10309SOL     OW31825   0.142   2.269   0.192
10309SOL    HW131826   0.240   2.251   0.192
10309SOL    HW231827   0.111   2.279   0.287
10310SOL     OW31828   3.468   4.136   0.565
10310SOL    HW131829   3.383   4.168   0.524
10310SOL    HW231830   3.483   4.183   0.652
10311SOL     OW31831   6.686   5.517   0.462
10311SOL    HW131832   6.744   5.468   0.528
10311SOL    HW231833   6.690   5.615   0.481
10312SOL     OW31834   3.684   6.623   2.474
10312SOL    HW131835   3.713   6.587   2.386
10312SOL    HW231836   3.639   6.550   2.526
10313SOL     OW31837   4.047   5.654   2.141
10313SOL    HW131838   4.138   5.695   2.154
10313SOL    HW231839   3.981   5.726   2.121
10314SOL     OW31840   6.551   0.373   1.462
10314SOL    HW131841   6.550   0.281   1.500
10314SOL    HW231842   6.516   0.371   1.368
10315SOL     OW31843   5.466   5.905   4.508
10315SOL    HW131844   5.529   5.943   4.440
10315SOL    HW231845   5.462   5.966   4.587
10316SOL     OW31846   6.291   2.316   5.601
10316SOL    HW131847   6.279   2.275   5.691
10316SOL    HW231848   6.356   2.392   5.607
10317SOL     OW31849   4.903   6.147   6.127
10317SOL    HW131850   4.993   6.184   6.152
10317SOL    HW231851   4.832   6.208   6.160
10318SOL     OW31852   4.908   0.446   6.907
10318SOL    HW131853   4.947   0.453   6.999
10318SOL    HW231854   4.908   0.536   6.863
10319SOL     OW31855   0.333   3.349   5.370
10319SOL    HW131856   0.288   3.260   5.362
10319SOL    HW231857   0.313   3.389   5.459
10320SOL     OW31858   0.925   6.854   2.457
10320SOL    HW131859   0.881   6.887   2.541
10320SOL    HW231860   0.974   6.930   2.414
10321SOL     OW31861   4.338   2.042   1.817
10321SOL    HW131862   4.409   1.996   1.870
10321SOL    HW231863   4.269   2.079   1.879
10322SOL     OW31864   5.459   5.855   5.069
10322SOL    HW131865   5.359   5.856   5.059
10322SOL    HW231866   5.485   5.913   5.147
10323SOL     OW31867   5.903   4.332   5.257
10323SOL    HW131868   5.862   4.261   5.314
10323SOL    HW231869   5.873   4.320   5.162
10324SOL     OW31870   3.189   2.911   2.162
10324SOL    HW131871   3.238   2.942   2.080
10324SOL    HW231872   3.148   2.822   2.144
10325SOL     OW31873   6.574   3.942   2.079
10325SOL    HW131874   6.602   3.989   2.162
10325SOL    HW231875   6.624   3.980   2.001
10326SOL     OW31876   4.104   4.481   6.922
10326SOL    HW131877   4.180   4.417   6.922
10326SOL    HW231878   4.018   4.431   6.929
10327SOL     OW31879   2.349   2.336   0.769
10327SOL    HW131880   2.279   2.383   0.716
10327SOL    HW231881   2.325   2.339   0.866
10328SOL     OW31882   6.447   2.335   1.065
10328SOL    HW131883   6.457   2.433   1.051
10328SOL    HW231884   6.524   2.302   1.120
10329SOL     OW31885   3.196   1.094   3.731
10329SOL    HW131886   3.166   1.121   3.823
10329SOL    HW231887   3.237   1.173   3.686
10330SOL     OW31888   4.220   1.259   2.555
10330SOL    HW131889   4.286   1.224   2.489
10330SOL    HW231890   4.132   1.214   2.541
10331SOL     OW31891   6.626   0.380   6.116
10331SOL    HW131892   6.591   0.289   6.138
10331SOL    HW231893   6.710   0.397   6.168
10332SOL     OW31894   6.990   0.465   1.111
10332SOL    HW131895   6.958   0.414   1.031
10332SOL    HW231896   6.926   0.539   1.131
10333SOL     OW31897   0.506   4.616   5.108
10333SOL    HW131898   0.560   4.587   5.186
10333SOL    HW231899   0.540   4.572   5.025
10334SOL     OW31900   3.586   0.823   4.088
10334SOL    HW131901   3.660   0.812   4.022
10334SOL    HW231902   3.611   0.780   4.174
10335SOL     OW31903   2.888   4.398   6.408
10335SOL    HW131904   2.985   4.420   6.394
10335SOL    HW231905   2.860   4.327   6.343
10336SOL     OW31906   6.956   0.064   1.598
10336SOL    HW131907   0.015   0.089   1.551
10336SOL    HW231908   6.975   0.044   1.694
10337SOL     OW31909   0.108   6.362   6.112
10337SOL    HW131910   0.099   6.424   6.189
10337SOL    HW231911   0.204   6.341   6.096
10338SOL     OW31912   2.181   6.279   2.505
10338SOL    HW131913   2.252   6.308   2.569
10338SOL    HW231914   2.113   6.351   2.494
10339SOL     OW31915   4.422   3.684   6.614
10339SOL    HW131916   4.494   3.638   6.562
10339SOL    HW231917   4.442   3.679   6.712
10340SOL     OW31918   1.009   3.840   1.301
10340SOL    HW131919   0.943   3.866   1.231
10340SOL    HW231920   0.980   3.874   1.389
10341SOL     OW31921   2.074   3.206   2.341
10341SOL    HW131922   1.982   3.171   2.320
10341SOL    HW231923   2.105   3.168   2.428
10342SOL     OW31924   1.776   0.046   4.900
10342SOL    HW131925   1.697   0.022   4.843
10342SOL    HW231926   1.785   0.145   4.903
10343SOL     OW31927   3.652   5.299   6.755
10343SOL    HW131928   3.718   5.370   6.731
10343SOL    HW231929   3.559   5.331   6.735
10344SOL     OW31930   4.030   3.264   1.166
10344SOL    HW131931   4.099   3.336   1.173
10344SOL    HW231932   4.046   3.195   1.236
10345SOL     OW31933   1.459   1.647   6.303
10345SOL    HW131934   1.374   1.594   6.296
10345SOL    HW231935   1.537   1.584   6.305
10346SOL     OW31936   0.368   5.328   1.739
10346SOL    HW131937   0.305   5.291   1.809
10346SOL    HW231938   0.460   5.332   1.777
10347SOL     OW31939   3.814   1.918   3.584
10347SOL    HW131940   3.848   1.894   3.493
10347SOL    HW231941   3.735   1.861   3.606
10348SOL     OW31942   6.661   2.158   0.115
10348SOL    HW131943   6.619   2.213   0.043
10348SOL    HW231944   6.682   2.067   0.079
10349SOL     OW31945   1.352   0.694   0.029
10349SOL    HW131946   1.269   0.663   0.074
10349SOL    HW231947   1.359   0.651   6.964
10350SOL     OW31948   2.540   6.746   4.933
10350SOL    HW131949   2.561   6.741   4.836
10350SOL    HW231950   2.576   6.666   4.980
10351SOL     OW31951   4.469   4.606   5.943
10351SOL    HW131952   4.515   4.658   5.872
10351SOL    HW231953   4.384   4.567   5.907
10352SOL     OW31954   3.450   1.398   6.124
10352SOL    HW131955   3.373   1.448   6.084
10352SOL    HW231956   3.498   1.457   6.188
10353SOL     OW31957   6.562   3.091   5.546
10353SOL    HW131958   6.646   3.134   5.512
10353SOL    HW231959   6.582   2.999   5.580
10354SOL     OW31960   5.778   2.570   2.446
10354SOL    HW131961   5.773   2.572   2.546
10354SOL    HW231962   5.782   2.475   2.415
10355SOL     OW31963   2.126   6.625   1.703
10355SOL    HW131964   2.129   6.660   1.609
10355SOL    HW231965   2.031   6.619   1.733
10356SOL     OW31966   1.116   4.941   5.176
10356SOL    HW131967   1.025   4.966   5.209
10356SOL    HW231968   1.158   5.020   5.130
10357SOL     OW31969   1.653   2.958   6.496
10357SOL    HW131970   1.743   3.000   6.500
10357SOL    HW231971   1.633   2.915   6.584
10358SOL     OW31972   6.771   3.303   3.032
10358SOL    HW131973   6.835   3.254   2.973
10358SOL    HW231974   6.684   3.255   3.035
10359SOL     OW31975   0.911   1.840   1.504
10359SOL    HW131976   0.945   1.871   1.592
10359SOL    HW231977   0.935   1.744   1.490
10360SOL     OW31978   5.252   4.602   3.181
10360SOL    HW131979   5.270   4.589   3.083
10360SOL    HW231980   5.235   4.699   3.199
10361SOL     OW31981   2.826   6.598   3.526
10361SOL    HW131982   2.816   6.673   3.461
10361SOL    HW231983   2.856   6.516   3.477
10362SOL     OW31984   1.037   4.924   4.797
10362SOL    HW131985   0.965   4.899   4.862
10362SOL    HW231986   1.006   4.904   4.704
10363SOL     OW31987   4.845   1.086   1.489
10363SOL    HW131988   4.848   1.056   1.394
10363SOL    HW231989   4.926   1.053   1.538
10364SOL     OW31990   2.998   3.232   1.443
10364SOL    HW131991   3.039   3.216   1.533
10364SOL    HW231992   3.017   3.154   1.383
10365SOL     OW31993   4.386   4.430   6.284
10365SOL    HW131994   4.370   4.451   6.380
10365SOL    HW231995   4.349   4.339   6.263
10366SOL     OW31996   3.052   0.715   4.063
10366SOL    HW131997   2.996   0.640   4.028
10366SOL    HW231998   3.102   0.757   3.988
10367SOL     OW31999   6.496   2.080   2.989
10367SOL    HW132000   6.429   2.010   2.965
10367SOL    HW232001   6.578   2.068   2.933
10368SOL     OW32002   1.550   1.188   1.423
10368SOL    HW132003   1.582   1.232   1.340
10368SOL    HW232004   1.552   1.088   1.411
10369SOL     OW32005   4.050   0.446   5.769
10369SOL    HW132006   4.049   0.433   5.670
10369SOL    HW232007   4.109   0.376   5.811
10370SOL     OW32008   5.268   1.499   5.235
10370SOL    HW132009   5.244   1.533   5.144
10370SOL    HW232010   5.267   1.574   5.301
10371SOL     OW32011   2.975   5.914   4.647
10371SOL    HW132012   3.065   5.954   4.666
10371SOL    HW232013   2.943   5.865   4.728
10372SOL     OW32014   1.137   1.549   6.121
10372SOL    HW132015   1.079   1.597   6.055
10372SOL    HW232016   1.088   1.540   6.208
10373SOL     OW32017   2.328   6.197   4.680
10373SOL    HW132018   2.250   6.138   4.658
10373SOL    HW232019   2.307   6.252   4.760
10374SOL     OW32020   3.986   1.215   2.912
10374SOL    HW132021   4.054   1.150   2.879
10374SOL    HW232022   4.030   1.300   2.939
10375SOL     OW32023   3.945   1.821   6.238
10375SOL    HW132024   3.968   1.820   6.335
10375SOL    HW232025   4.026   1.842   6.184
10376SOL     OW32026   0.938   6.242   3.813
10376SOL    HW132027   0.955   6.315   3.747
10376SOL    HW232028   0.860   6.187   3.783
10377SOL     OW32029   6.732   0.406   4.079
10377SOL    HW132030   6.691   0.486   4.122
10377SOL    HW232031   6.660   0.341   4.054
10378SOL     OW32032   6.783   0.918   5.778
10378SOL    HW132033   6.706   0.878   5.728
10378SOL    HW232034   6.754   0.941   5.871
10379SOL     OW32035   3.747   0.259   5.244
10379SOL    HW132036   3.823   0.195   5.255
10379SOL    HW232037   3.782   0.348   5.214
10380SOL     OW32038   6.797   1.339   2.871
10380SOL    HW132039   6.854   1.291   2.939
10380SOL    HW232040   6.701   1.331   2.897
10381SOL     OW32041   4.603   5.722   5.913
10381SOL    HW132042   4.559   5.797   5.962
10381SOL    HW232043   4.532   5.660   5.876
10382SOL     OW32044   2.095   4.629   6.390
10382SOL    HW132045   2.159   4.661   6.319
10382SOL    HW232046   2.014   4.589   6.346
10383SOL     OW32047   0.567   3.436   0.867
10383SOL    HW132048   0.590   3.527   0.900
10383SOL    HW232049   0.598   3.425   0.772
10384SOL     OW32050   0.535   0.120   0.505
10384SOL    HW132051   0.446   0.133   0.460
10384SOL    HW232052   0.545   0.024   0.533
10385SOL     OW32053   4.816   6.930   6.557
10385SOL    HW132054   4.875   6.984   6.616
10385SOL    HW232055   4.869   6.860   6.511
10386SOL     OW32056   0.482   3.812   4.942
10386SOL    HW132057   0.466   3.840   5.036
10386SOL    HW232058   0.548   3.736   4.940
10387SOL     OW32059   4.036   1.993   2.434
10387SOL    HW132060   4.038   1.961   2.339
10387SOL    HW232061   4.056   1.916   2.495
10388SOL     OW32062   0.807   5.860   3.623
10388SOL    HW132063   0.743   5.897   3.690
10388SOL    HW232064   0.813   5.761   3.632
10389SOL     OW32065   0.671   5.884   1.830
10389SOL    HW132066   0.665   5.984   1.834
10389SOL    HW232067   0.671   5.848   1.923
10390SOL     OW32068   1.449   3.923   2.098
10390SOL    HW132069   1.375   3.967   2.047
10390SOL    HW232070   1.493   3.854   2.040
10391SOL     OW32071   1.493   5.790   5.530
10391SOL    HW132072   1.425   5.719   5.513
10391SOL    HW232073   1.584   5.753   5.512
10392SOL     OW32074   6.303   3.989   0.490
10392SOL    HW132075   6.395   3.957   0.513
10392SOL    HW232076   6.288   3.981   0.392
10393SOL     OW32077   1.588   1.608   2.769
10393SOL    HW132078   1.545   1.677   2.711
10393SOL    HW232079   1.537   1.522   2.762
10394SOL     OW32080   2.805   6.990   6.145
10394SOL    HW132081   2.735   6.919   6.142
10394SOL    HW232082   2.822   7.016   6.240
10395SOL     OW32083   6.234   1.005   4.881
10395SOL    HW132084   6.152   1.029   4.828
10395SOL    HW232085   6.302   1.077   4.871
10396SOL     OW32086   1.114   0.567   3.586
10396SOL    HW132087   1.030   0.598   3.542
10396SOL    HW232088   1.175   0.528   3.517
10397SOL     OW32089   3.921   1.455   3.608
10397SOL    HW132090   3.825   1.435   3.624
10397SOL    HW232091   3.939   1.552   3.623
10398SOL     OW32092   6.279   2.322   0.355
10398SOL    HW132093   6.226   2.243   0.388
10398SOL    HW232094   6.233   2.361   0.276
10399SOL     OW32095   4.498   1.348   5.552
10399SOL    HW132096   4.593   1.320   5.534
10399SOL    HW232097   4.498   1.425   5.616
10400SOL     OW32098   3.552   5.939   2.096
10400SOL    HW132099   3.556   5.869   2.167
10400SOL    HW232100   3.457   5.968   2.083
10401SOL     OW32101   6.673   6.986   2.077
10401SOL    HW132102   6.669   6.949   2.170
10401SOL    HW232103   6.686   0.060   2.081
10402SOL     OW32104   0.588   3.044   5.902
10402SOL    HW132105   0.568   2.984   5.824
10402SOL    HW232106   0.650   2.996   5.965
10403SOL     OW32107   5.554   1.576   2.698
10403SOL    HW132108   5.471   1.522   2.711
10403SOL    HW232109   5.634   1.517   2.702
10404SOL     OW32110   0.655   6.475   3.383
10404SOL    HW132111   0.573   6.445   3.334
10404SOL    HW232112   0.630   6.499   3.477
10405SOL     OW32113   1.726   5.633   5.262
10405SOL    HW132114   1.824   5.630   5.243
10405SOL    HW232115   1.677   5.589   5.186
10406SOL     OW32116   1.948   4.290   4.903
10406SOL    HW132117   2.031   4.276   4.849
10406SOL    HW232118   1.869   4.293   4.842
10407SOL     OW32119   1.746   0.640   6.483
10407SOL    HW132120   1.651   0.662   6.508
10407SOL    HW232121   1.749   0.606   6.390
10408SOL     OW32122   4.342   6.193   2.965
10408SOL    HW132123   4.264   6.222   3.020
10408SOL    HW232124   4.373   6.269   2.908
10409SOL     OW32125   0.263   4.781   1.398
10409SOL    HW132126   0.323   4.855   1.426
10409SOL    HW232127   0.298   4.739   1.315
10410SOL     OW32128   5.453   0.632   1.350
10410SOL    HW132129   5.415   0.544   1.322
10410SOL    HW232130   5.380   0.701   1.354
10411SOL     OW32131   2.211   4.712   4.175
10411SOL    HW132132   2.297   4.761   4.193
10411SOL    HW232133   2.135   4.763   4.215
10412SOL     OW32134   0.328   1.346   0.381
10412SOL    HW132135   0.239   1.333   0.423
10412SOL    HW232136   0.325   1.321   0.284
10413SOL     OW32137   1.008   2.206   0.774
10413SOL    HW132138   0.933   2.168   0.828
10413SOL    HW232139   1.081   2.238   0.835
10414SOL     OW32140   4.893   6.419   6.249
10414SOL    HW132141   4.872   6.342   6.310
10414SOL    HW232142   4.982   6.457   6.273
10415SOL     OW32143   1.520   4.894   3.712
10415SOL    HW132144   1.567   4.891   3.801
10415SOL    HW232145   1.432   4.940   3.722
10416SOL     OW32146   6.569   1.871   6.014
10416SOL    HW132147   6.605   1.859   5.921
10416SOL    HW232148   6.645   1.871   6.079
10417SOL     OW32149   4.418   4.689   3.242
10417SOL    HW132150   4.439   4.624   3.315
10417SOL    HW232151   4.486   4.681   3.169
10418SOL     OW32152   6.540   4.371   5.743
10418SOL    HW132153   6.444   4.353   5.723
10418SOL    HW232154   6.565   4.329   5.831
10419SOL     OW32155   2.855   1.345   5.064
10419SOL    HW132156   2.950   1.347   5.096
10419SOL    HW232157   2.795   1.324   5.141
10420SOL     OW32158   6.743   3.791   2.320
10420SOL    HW132159   6.647   3.781   2.347
10420SOL    HW232160   6.796   3.715   2.356
10421SOL     OW32161   1.534   4.226   4.122
10421SOL    HW132162   1.494   4.286   4.052
10421SOL    HW232163   1.567   4.282   4.198
10422SOL     OW32164   6.687   3.923   5.546
10422SOL    HW132165   6.749   4.001   5.549
10422SOL    HW232166   6.621   3.936   5.472
10423SOL     OW32167   3.714   4.934   4.029
10423SOL    HW132168   3.616   4.938   4.012
10423SOL    HW232169   3.735   4.979   4.116
10424SOL     OW32170   4.225   1.129   0.112
10424SOL    HW132171   4.136   1.158   0.079
10424SOL    HW232172   4.285   1.208   0.121
10425SOL     OW32173   1.021   6.576   1.531
10425SOL    HW132174   0.932   6.542   1.559
10425SOL    HW232175   1.014   6.674   1.512
10426SOL     OW32176   4.710   3.140   5.310
10426SOL    HW132177   4.661   3.066   5.263
10426SOL    HW232178   4.797   3.157   5.263
10427SOL     OW32179   5.357   5.897   5.351
10427SOL    HW132180   5.300   5.920   5.272
10427SOL    HW232181   5.340   5.803   5.379
10428SOL     OW32182   1.523   1.828   3.462
10428SOL    HW132183   1.601   1.766   3.452
10428SOL    HW232184   1.484   1.847   3.371
10429SOL     OW32185   1.183   3.529   2.354
10429SOL    HW132186   1.246   3.513   2.278
10429SOL    HW232187   1.198   3.621   2.391
10430SOL     OW32188   3.588   6.249   4.430
10430SOL    HW132189   3.684   6.254   4.456
10430SOL    HW232190   3.581   6.251   4.330
10431SOL     OW32191   2.523   1.720   4.557
10431SOL    HW132192   2.470   1.797   4.522
10431SOL    HW232193   2.463   1.654   4.601
10432SOL     OW32194   0.617   0.171   5.016
10432SOL    HW132195   0.553   0.223   4.960
10432SOL    HW232196   0.630   0.080   4.976
10433SOL     OW32197   1.653   6.716   1.480
10433SOL    HW132198   1.681   6.640   1.539
10433SOL    HW232199   1.733   6.772   1.458
10434SOL     OW32200   5.217   0.247   5.339
10434SOL    HW132201   5.118   0.243   5.351
10434SOL    HW232202   5.262   0.198   5.414
10435SOL     OW32203   1.101   2.422   6.503
10435SOL    HW132204   1.081   2.333   6.461
10435SOL    HW232205   1.182   2.414   6.561
10436SOL     OW32206   0.136   3.587   4.837
10436SOL    HW132207   0.157   3.685   4.838
10436SOL    HW232208   0.171   3.547   4.752
10437SOL     OW32209   5.010   5.138   5.218
10437SOL    HW132210   5.052   5.047   5.226
10437SOL    HW232211   4.972   5.165   5.307
10438SOL     OW32212   0.368   6.583   5.795
10438SOL    HW132213   0.304   6.509   5.812
10438SOL    HW232214   0.401   6.577   5.701
10439SOL     OW32215   6.663   1.108   4.932
10439SOL    HW132216   6.659   1.202   4.896
10439SOL    HW232217   6.736   1.058   4.886
10440SOL     OW32218   6.859   1.265   7.025
10440SOL    HW132219   6.924   1.340   0.006
10440SOL    HW232220   6.896   1.184   0.045
10441SOL     OW32221   3.456   1.731   1.253
10441SOL    HW132222   3.529   1.734   1.185
10441SOL    HW232223   3.490   1.765   1.341
10442SOL     OW32224   3.161   0.803   5.287
10442SOL    HW132225   3.250   0.805   5.241
10442SOL    HW232226   3.147   0.714   5.329
10443SOL     OW32227   0.244   2.170   3.253
10443SOL    HW132228   0.302   2.251   3.244
10443SOL    HW232229   0.149   2.197   3.262
10444SOL     OW32230   3.695   5.042   3.744
10444SOL    HW132231   3.611   5.033   3.796
10444SOL    HW232232   3.760   4.971   3.772
10445SOL     OW32233   0.185   3.864   2.034
10445SOL    HW132234   0.096   3.863   1.989
10445SOL    HW232235   0.180   3.810   2.118
10446SOL     OW32236   1.908   4.166   5.232
10446SOL    HW132237   1.919   4.260   5.200
10446SOL    HW232238   1.968   4.106   5.180
10447SOL     OW32239   6.199   2.097   2.766
10447SOL    HW132240   6.256   2.139   2.695
10447SOL    HW232241   6.160   2.169   2.824
10448SOL     OW32242   2.615   1.038   3.866
10448SOL    HW132243   2.571   1.017   3.779
10448SOL    HW232244   2.666   0.959   3.898
10449SOL     OW32245   3.463   5.548   6.907
10449SOL    HW132246   3.503   5.631   6.869
10449SOL    HW232247   3.429   5.490   6.834
10450SOL     OW32248   6.209   0.650   6.229
10450SOL    HW132249   6.161   0.619   6.147
10450SOL    HW232250   6.308   0.641   6.216
10451SOL     OW32251   2.455   0.692   3.800
10451SOL    HW132252   2.473   0.744   3.883
10451SOL    HW232253   2.506   0.607   3.803
10452SOL     OW32254   6.915   2.712   2.695
10452SOL    HW132255   6.936   2.722   2.792
10452SOL    HW232256   6.929   2.799   2.649
10453SOL     OW32257   4.323   6.581   2.731
10453SOL    HW132258   4.420   6.589   2.756
10453SOL    HW232259   4.305   6.639   2.651
10454SOL     OW32260   6.612   1.339   6.987
10454SOL    HW132261   6.565   1.250   6.988
10454SOL    HW232262   6.705   1.327   7.020
10455SOL     OW32263   6.086   6.025   4.134
10455SOL    HW132264   6.138   6.068   4.207
10455SOL    HW232265   6.023   6.091   4.093
10456SOL     OW32266   0.166   5.564   0.192
10456SOL    HW132267   0.069   5.561   0.215
10456SOL    HW232268   0.177   5.562   0.093
10457SOL     OW32269   4.670   3.728   0.017
10457SOL    HW132270   4.713   3.816   0.038
10457SOL    HW232271   4.741   3.659   0.003
10458SOL     OW32272   0.000   0.271   5.565
10458SOL    HW132273   6.928   0.295   5.570
10458SOL    HW232274   0.041   0.314   5.484
10459SOL     OW32275   6.912   5.473   0.957
10459SOL    HW132276   6.999   5.444   0.916
10459SOL    HW232277   6.874   5.397   1.010
10460SOL     OW32278   6.608   4.288   1.803
10460SOL    HW132279   6.585   4.354   1.732
10460SOL    HW232280   6.525   4.261   1.852
10461SOL     OW32281   6.692   4.344   5.488
10461SOL    HW132282   6.709   4.439   5.513
10461SOL    HW232283   6.672   4.291   5.570
10462SOL     OW32284   4.549   1.695   1.613
10462SOL    HW132285   4.519   1.648   1.696
10462SOL    HW232286   4.635   1.744   1.632
10463SOL     OW32287   4.625   1.568   5.988
10463SOL    HW132288   4.715   1.609   5.972
10463SOL    HW232289   4.607   1.565   6.087
10464SOL     OW32290   5.028   5.329   2.596
10464SOL    HW132291   5.095   5.271   2.643
10464SOL    HW232292   5.068   5.362   2.510
10465SOL     OW32293   5.413   4.195   2.795
10465SOL    HW132294   5.390   4.231   2.885
10465SOL    HW232295   5.383   4.100   2.788
10466SOL     OW32296   5.304   4.361   6.244
10466SOL    HW132297   5.220   4.377   6.295
10466SOL    HW232298   5.379   4.343   6.308
10467SOL     OW32299   1.932   2.733   6.650
10467SOL    HW132300   1.835   2.743   6.628
10467SOL    HW232301   1.955   2.792   6.727
10468SOL     OW32302   3.605   5.266   3.554
10468SOL    HW132303   3.662   5.272   3.472
10468SOL    HW232304   3.638   5.191   3.612
10469SOL     OW32305   5.233   3.864   5.564
10469SOL    HW132306   5.218   3.836   5.659
10469SOL    HW232307   5.270   3.787   5.512
10470SOL     OW32308   2.361   1.772   3.279
10470SOL    HW132309   2.295   1.812   3.215
10470SOL    HW232310   2.375   1.676   3.256
10471SOL     OW32311   2.785   0.740   6.948
10471SOL    HW132312   2.785   0.679   0.002
10471SOL    HW232313   2.782   0.835   6.979
10472SOL     OW32314   2.694   5.184   0.897
10472SOL    HW132315   2.760   5.141   0.835
10472SOL    HW232316   2.722   5.278   0.916
10473SOL     OW32317   5.458   5.900   6.117
10473SOL    HW132318   5.410   5.821   6.080
10473SOL    HW232319   5.502   5.875   6.203
10474SOL     OW32320   5.348   0.988   4.231
10474SOL    HW132321   5.435   0.990   4.279
10474SOL    HW232322   5.363   0.961   4.136
10475SOL     OW32323   2.491   6.104   2.040
10475SOL    HW132324   2.561   6.063   2.098
10475SOL    HW232325   2.460   6.190   2.081
10476SOL     OW32326   4.899   6.281   5.847
10476SOL    HW132327   4.969   6.257   5.780
10476SOL    HW232328   4.915   6.232   5.932
10477SOL     OW32329   0.047   6.639   3.907
10477SOL    HW132330   0.054   6.719   3.848
10477SOL    HW232331   0.009   6.562   3.856
10478SOL     OW32332   6.467   6.896   0.270
10478SOL    HW132333   6.464   6.887   0.170
10478SOL    HW232334   6.459   6.992   0.295
10479SOL     OW32335   7.011   2.421   2.091
10479SOL    HW132336   6.926   2.385   2.131
10479SOL    HW232337   7.002   2.519   2.077
10480SOL     OW32338   1.811   0.383   2.157
10480SOL    HW132339   1.757   0.428   2.228
10480SOL    HW232340   1.753   0.321   2.105
10481SOL     OW32341   0.594   6.110   3.047
10481SOL    HW132342   0.586   6.154   2.957
10481SOL    HW232343   0.666   6.157   3.099
10482SOL     OW32344   6.036   4.594   4.583
10482SOL    HW132345   6.012   4.691   4.583
10482SOL    HW232346   6.036   4.560   4.677
10483SOL     OW32347   5.741   5.520   0.605
10483SOL    HW132348   5.652   5.566   0.603
10483SOL    HW232349   5.729   5.426   0.637
10484SOL     OW32350   4.900   1.238   1.167
10484SOL    HW132351   4.801   1.254   1.165
10484SOL    HW232352   4.937   1.246   1.075
10485SOL     OW32353   3.375   3.921   6.912
10485SOL    HW132354   3.459   3.899   6.861
10485SOL    HW232355   3.361   4.020   6.911
10486SOL     OW32356   6.584   1.494   0.974
10486SOL    HW132357   6.667   1.527   0.929
10486SOL    HW232358   6.596   1.496   1.073
10487SOL     OW32359   5.016   6.606   2.315
10487SOL    HW132360   5.112   6.616   2.342
10487SOL    HW232361   4.984   6.514   2.340
10488SOL     OW32362   2.864   2.855   6.339
10488SOL    HW132363   2.867   2.756   6.353
10488SOL    HW232364   2.851   2.875   6.242
10489SOL     OW32365   0.778   0.120   5.700
10489SOL    HW132366   0.819   0.161   5.782
10489SOL    HW232367   0.689   0.081   5.723
10490SOL     OW32368   6.320   1.774   2.468
10490SOL    HW132369   6.367   1.852   2.509
10490SOL    HW232370   6.222   1.794   2.460
10491SOL     OW32371   1.584   3.602   6.899
10491SOL    HW132372   1.600   3.579   6.803
10491SOL    HW232373   1.628   3.534   6.958
10492SOL     OW32374   5.436   3.588   5.675
10492SOL    HW132375   5.389   3.603   5.588
10492SOL    HW232376   5.414   3.496   5.709
10493SOL     OW32377   3.373   0.875   1.766
10493SOL    HW132378   3.318   0.930   1.704
10493SOL    HW232379   3.314   0.810   1.815
10494SOL     OW32380   5.201   2.573   5.492
10494SOL    HW132381   5.177   2.611   5.582
10494SOL    HW232382   5.284   2.616   5.459
10495SOL     OW32383   2.455   6.866   0.341
10495SOL    HW132384   2.422   6.892   0.250
10495SOL    HW232385   2.396   6.907   0.410
10496SOL     OW32386   0.477   6.570   1.173
10496SOL    HW132387   0.554   6.620   1.132
10496SOL    HW232388   0.475   6.476   1.137
10497SOL     OW32389   2.157   6.571   2.212
10497SOL    HW132390   2.252   6.588   2.187
10497SOL    HW232391   2.109   6.658   2.220
10498SOL     OW32392   2.608   6.453   1.862
10498SOL    HW132393   2.528   6.511   1.846
10498SOL    HW232394   2.691   6.507   1.853
10499SOL     OW32395   3.106   6.275   2.475
10499SOL    HW132396   3.170   6.199   2.486
10499SOL    HW232397   3.077   6.280   2.379
10500SOL     OW32398   0.170   1.255   5.845
10500SOL    HW132399   0.156   1.340   5.896
10500SOL    HW232400   0.210   1.276   5.756
10501SOL     OW32401   1.446   5.686   3.595
10501SOL    HW132402   1.464   5.731   3.682
10501SOL    HW232403   1.483   5.741   3.521
10502SOL     OW32404   3.427   0.114   0.809
10502SOL    HW132405   3.350   0.168   0.845
10502SOL    HW232406   3.458   0.050   0.880
10503SOL     OW32407   4.332   2.634   0.621
10503SOL    HW132408   4.299   2.718   0.664
10503SOL    HW232409   4.280   2.556   0.655
10504SOL     OW32410   1.756   2.267   0.370
10504SOL    HW132411   1.667   2.223   0.354
10504SOL    HW232412   1.806   2.272   0.283
10505SOL     OW32413   6.162   5.564   0.490
10505SOL    HW132414   6.160   5.554   0.390
10505SOL    HW232415   6.248   5.607   0.517
10506SOL     OW32416   0.669   5.651   6.138
10506SOL    HW132417   0.645   5.716   6.209
10506SOL    HW232418   0.768   5.635   6.138
10507SOL     OW32419   2.271   6.003   0.121
10507SOL    HW132420   2.356   5.997   0.068
10507SOL    HW232421   2.199   5.952   0.074
10508SOL     OW32422   5.660   6.012   4.328
10508SOL    HW132423   5.596   5.952   4.281
10508SOL    HW232424   5.717   6.060   4.261
10509SOL     OW32425   0.901   6.582   5.755
10509SOL    HW132426   0.887   6.525   5.674
10509SOL    HW232427   0.997   6.576   5.784
10510SOL     OW32428   5.335   5.298   5.568
10510SOL    HW132429   5.374   5.333   5.483
10510SOL    HW232430   5.328   5.372   5.635
10511SOL     OW32431   4.738   2.669   1.226
10511SOL    HW132432   4.642   2.682   1.202
10511SOL    HW232433   4.765   2.736   1.296
10512SOL     OW32434   3.786   0.939   5.970
10512SOL    HW132435   3.751   0.866   6.028
10512SOL    HW232436   3.822   1.013   6.027
10513SOL     OW32437   6.895   2.848   5.979
10513SOL    HW132438   6.966   2.825   6.045
10513SOL    HW232439   6.843   2.928   6.011
10514SOL     OW32440   0.030   3.813   0.158
10514SOL    HW132441   0.119   3.782   0.124
10514SOL    HW232442   6.997   3.837   0.081
10515SOL     OW32443   6.029   3.008   3.299
10515SOL    HW132444   6.092   3.043   3.368
10515SOL    HW232445   5.966   3.081   3.272
10516SOL     OW32446   4.800   0.683   6.752
10516SOL    HW132447   4.743   0.738   6.813
10516SOL    HW232448   4.884   0.732   6.732
10517SOL     OW32449   0.613   2.126   2.678
10517SOL    HW132450   0.590   2.058   2.748
10517SOL    HW232451   0.543   2.198   2.678
10518SOL     OW32452   0.774   4.644   6.566
10518SOL    HW132453   0.763   4.741   6.588
10518SOL    HW232454   0.740   4.588   6.641
10519SOL     OW32455   3.131   2.888   6.311
10519SOL    HW132456   3.137   2.861   6.215
10519SOL    HW232457   3.036   2.886   6.341
10520SOL     OW32458   2.167   2.853   6.391
10520SOL    HW132459   2.158   2.934   6.449
10520SOL    HW232460   2.078   2.808   6.383
10521SOL     OW32461   6.000   5.285   1.636
10521SOL    HW132462   5.928   5.289   1.567
10521SOL    HW232463   6.022   5.378   1.667
10522SOL     OW32464   6.223   0.517   0.727
10522SOL    HW132465   6.299   0.547   0.784
10522SOL    HW232466   6.182   0.596   0.681
10523SOL     OW32467   0.182   6.601   4.528
10523SOL    HW132468   0.272   6.559   4.540
10523SOL    HW232469   0.191   6.701   4.532
10524SOL     OW32470   1.638   1.857   5.161
10524SOL    HW132471   1.681   1.943   5.189
10524SOL    HW232472   1.708   1.794   5.128
10525SOL     OW32473   3.052   6.630   5.641
10525SOL    HW132474   3.146   6.604   5.619
10525SOL    HW232475   3.047   6.655   5.738
10526SOL     OW32476   0.022   0.198   2.841
10526SOL    HW132477   7.006   0.115   2.803
10526SOL    HW232478   0.087   0.173   2.913
10527SOL     OW32479   0.330   2.609   4.006
10527SOL    HW132480   0.230   2.607   4.005
10527SOL    HW232481   0.365   2.524   3.968
10528SOL     OW32482   0.658   4.219   5.358
10528SOL    HW132483   0.636   4.142   5.417
10528SOL    HW232484   0.592   4.224   5.283
10529SOL     OW32485   1.353   6.233   3.318
10529SOL    HW132486   1.349   6.260   3.222
10529SOL    HW232487   1.261   6.213   3.351
10530SOL     OW32488   1.943   1.373   6.268
10530SOL    HW132489   1.899   1.341   6.184
10530SOL    HW232490   1.979   1.465   6.253
10531SOL     OW32491   1.063   3.205   4.965
10531SOL    HW132492   1.109   3.283   5.007
10531SOL    HW232493   1.016   3.234   4.882
10532SOL     OW32494   2.106   3.618   0.396
10532SOL    HW132495   2.058   3.534   0.371
10532SOL    HW232496   2.052   3.667   0.465
10533SOL     OW32497   3.426   1.661   4.253
10533SOL    HW132498   3.473   1.668   4.341
10533SOL    HW232499   3.466   1.586   4.200
10534SOL     OW32500   6.581   5.805   0.740
10534SOL    HW132501   6.510   5.875   0.753
10534SOL    HW232502   6.584   5.745   0.820
10535SOL     OW32503   0.169   2.659   1.635
10535SOL    HW132504   0.116   2.575   1.625
10535SOL    HW232505   0.263   2.643   1.604
10536SOL     OW32506   3.748   0.451   2.930
10536SOL    HW132507   3.652   0.447   2.904
10536SOL    HW232508   3.778   0.546   2.930
10537SOL     OW32509   3.118   5.764   3.179
10537SOL    HW132510   3.183   5.689   3.186
10537SOL    HW232511   3.026   5.728   3.163
10538SOL     OW32512   4.823   2.879   6.607
10538SOL    HW132513   4.895   2.917   6.665
10538SOL    HW232514   4.785   2.797   6.650
10539SOL     OW32515   0.568   4.403   6.276
10539SOL    HW132516   0.577   4.316   6.227
10539SOL    HW232517   0.654   4.424   6.322
10540SOL     OW32518   1.849   1.280   5.732
10540SOL    HW132519   1.839   1.309   5.637
10540SOL    HW232520   1.848   1.180   5.737
10541SOL     OW32521   3.662   3.758   1.794
10541SOL    HW132522   3.727   3.738   1.867
10541SOL    HW232523   3.572   3.777   1.832
10542SOL     OW32524   6.878   1.666   6.940
10542SOL    HW132525   6.807   1.679   7.010
10542SOL    HW232526   6.839   1.620   6.861
10543SOL     OW32527   0.694   1.116   4.757
10543SOL    HW132528   0.727   1.110   4.851
10543SOL    HW232529   0.691   1.212   4.729
10544SOL     OW32530   1.725   0.108   2.680
10544SOL    HW132531   1.804   0.130   2.737
10544SOL    HW232532   1.728   0.162   2.596
10545SOL     OW32533   6.442   1.130   2.730
10545SOL    HW132534   6.371   1.095   2.668
10545SOL    HW232535   6.399   1.188   2.799
10546SOL     OW32536   0.554   0.806   6.216
10546SOL    HW132537   0.624   0.787   6.148
10546SOL    HW232538   0.465   0.812   6.171
10547SOL     OW32539   4.265   1.797   1.240
10547SOL    HW132540   4.304   1.887   1.254
10547SOL    HW232541   4.247   1.754   1.328
10548SOL     OW32542   5.096   3.599   4.927
10548SOL    HW132543   5.017   3.641   4.973
10548SOL    HW232544   5.164   3.574   4.996
10549SOL     OW32545   6.303   0.552   1.958
10549SOL    HW132546   6.392   0.592   1.935
10549SOL    HW232547   6.234   0.584   1.894
10550SOL     OW32548   4.201   6.841   4.787
10550SOL    HW132549   4.114   6.801   4.816
10550SOL    HW232550   4.196   6.865   4.690
10551SOL     OW32551   1.388   2.873   5.529
10551SOL    HW132552   1.448   2.893   5.452
10551SOL    HW232553   1.443   2.867   5.613
10552SOL     OW32554   3.910   2.124   6.142
10552SOL    HW132555   3.897   2.060   6.067
10552SOL    HW232556   3.922   2.074   6.228
10553SOL     OW32557   1.227   4.805   1.659
10553SOL    HW132558   1.295   4.734   1.639
10553SOL    HW232559   1.178   4.828   1.575
10554SOL     OW32560   5.228   5.244   6.657
10554SOL    HW132561   5.186   5.155   6.679
10554SOL    HW232562   5.179   5.286   6.581
10555SOL     OW32563   2.992   2.316   1.286
10555SOL    HW132564   2.912   2.345   1.337
10555SOL    HW232565   2.968   2.305   1.189
10556SOL     OW32566   1.771   3.141   5.170
10556SOL    HW132567   1.747   3.238   5.181
10556SOL    HW232568   1.829   3.130   5.090
10557SOL     OW32569   1.028   2.927   3.052
10557SOL    HW132570   1.058   2.989   2.980
10557SOL    HW232571   1.092   2.850   3.059
10558SOL     OW32572   3.812   0.001   4.937
10558SOL    HW132573   3.716   7.001   4.930
10558SOL    HW232574   3.823   0.098   4.916
10559SOL     OW32575   3.565   1.005   0.743
10559SOL    HW132576   3.590   1.088   0.792
10559SOL    HW232577   3.647   0.948   0.730
10560SOL     OW32578   2.135   5.763   4.259
10560SOL    HW132579   2.220   5.715   4.235
10560SOL    HW232580   2.057   5.703   4.244
10561SOL     OW32581   2.742   4.764   7.018
10561SOL    HW132582   2.838   4.743   7.003
10561SOL    HW232583   2.708   4.716   0.073
10562SOL     OW32584   5.472   6.134   0.229
10562SOL    HW132585   5.377   6.138   0.197
10562SOL    HW232586   5.485   6.051   0.283
10563SOL     OW32587   1.327   0.663   3.738
10563SOL    HW132588   1.281   0.655   3.827
10563SOL    HW232589   1.260   0.649   3.665
10564SOL     OW32590   5.928   6.835   2.105
10564SOL    HW132591   5.886   6.758   2.153
10564SOL    HW232592   5.885   6.920   2.136
10565SOL     OW32593   0.605   0.849   5.592
10565SOL    HW132594   0.602   0.944   5.559
10565SOL    HW232595   0.516   0.806   5.578
10566SOL     OW32596   4.286   2.936   0.058
10566SOL    HW132597   4.229   2.857   0.077
10566SOL    HW232598   4.248   3.017   0.103
10567SOL     OW32599   2.270   2.831   3.800
10567SOL    HW132600   2.255   2.863   3.707
10567SOL    HW232601   2.343   2.763   3.801
10568SOL     OW32602   5.449   1.366   1.134
10568SOL    HW132603   5.451   1.272   1.100
10568SOL    HW232604   5.361   1.408   1.110
10569SOL     OW32605   6.365   2.964   1.469
10569SOL    HW132606   6.384   2.880   1.420
10569SOL    HW232607   6.429   3.035   1.440
10570SOL     OW32608   2.062   5.141   2.542
10570SOL    HW132609   2.098   5.059   2.586
10570SOL    HW232610   1.987   5.178   2.597
10571SOL     OW32611   0.197   5.125   4.463
10571SOL    HW132612   0.120   5.132   4.527
10571SOL    HW232613   0.165   5.147   4.371
10572SOL     OW32614   6.383   3.319   3.495
10572SOL    HW132615   6.452   3.260   3.536
10572SOL    HW232616   6.303   3.264   3.470
10573SOL     OW32617   5.581   6.068   3.843
10573SOL    HW132618   5.538   5.984   3.876
10573SOL    HW232619   5.680   6.056   3.840
10574SOL     OW32620   1.914   2.226   4.109
10574SOL    HW132621   1.936   2.238   4.012
10574SOL    HW232622   1.917   2.129   4.132
10575SOL     OW32623   0.058   0.986   3.837
10575SOL    HW132624   0.092   0.959   3.926
10575SOL    HW232625   0.102   1.072   3.809
10576SOL     OW32626   0.430   6.509   5.518
10576SOL    HW132627   0.366   6.519   5.442
10576SOL    HW232628   0.424   6.417   5.556
10577SOL     OW32629   1.309   2.491   6.698
10577SOL    HW132630   1.344   2.562   6.638
10577SOL    HW232631   1.385   2.445   6.744
10578SOL     OW32632   6.764   0.553   3.460
10578SOL    HW132633   6.769   0.492   3.380
10578SOL    HW232634   6.856   0.567   3.496
10579SOL     OW32635   3.306   2.210   0.365
10579SOL    HW132636   3.327   2.280   0.296
10579SOL    HW232637   3.353   2.233   0.451
10580SOL     OW32638   6.669   0.115   0.167
10580SOL    HW132639   6.632   0.207   0.183
10580SOL    HW232640   6.646   0.086   0.074
10581SOL     OW32641   5.968   0.102   2.652
10581SOL    HW132642   6.055   0.100   2.701
10581SOL    HW232643   5.958   0.019   2.597
10582SOL     OW32644   4.010   4.953   6.594
10582SOL    HW132645   4.003   5.027   6.660
10582SOL    HW232646   4.073   4.883   6.629
10583SOL     OW32647   4.243   0.911   5.626
10583SOL    HW132648   4.192   0.967   5.690
10583SOL    HW232649   4.281   0.969   5.554
10584SOL     OW32650   6.131   6.966   1.058
10584SOL    HW132651   6.193   6.904   1.008
10584SOL    HW232652   6.080   6.914   1.126
10585SOL     OW32653   1.568   3.062   5.850
10585SOL    HW132654   1.622   2.989   5.894
10585SOL    HW232655   1.572   3.051   5.751
10586SOL     OW32656   1.856   5.902   5.687
10586SOL    HW132657   1.859   5.894   5.587
10586SOL    HW232658   1.896   5.820   5.728
10587SOL     OW32659   5.912   3.954   6.903
10587SOL    HW132660   5.966   3.873   6.923
10587SOL    HW232661   5.868   3.987   6.987
10588SOL     OW32662   0.942   4.346   1.695
10588SOL    HW132663   0.954   4.445   1.700
10588SOL    HW232664   0.910   4.311   1.783
10589SOL     OW32665   5.523   1.427   4.522
10589SOL    HW132666   5.598   1.487   4.546
10589SOL    HW232667   5.557   1.351   4.466
10590SOL     OW32668   1.056   0.464   1.871
10590SOL    HW132669   1.136   0.438   1.817
10590SOL    HW232670   1.010   0.382   1.904
10591SOL     OW32671   1.729   1.713   5.746
10591SOL    HW132672   1.822   1.730   5.714
10591SOL    HW232673   1.695   1.627   5.708
10592SOL     OW32674   5.774   2.788   1.143
10592SOL    HW132675   5.721   2.718   1.190
10592SOL    HW232676   5.731   2.809   1.055
10593SOL     OW32677   2.810   5.086   0.649
10593SOL    HW132678   2.910   5.077   0.640
10593SOL    HW232679   2.769   4.995   0.639
10594SOL     OW32680   5.698   1.590   3.512
10594SOL    HW132681   5.755   1.561   3.435
10594SOL    HW232682   5.601   1.578   3.488
10595SOL     OW32683   3.560   0.327   6.262
10595SOL    HW132684   3.465   0.322   6.230
10595SOL    HW232685   3.609   0.398   6.211
10596SOL     OW32686   4.201   6.998   1.776
10596SOL    HW132687   4.228   6.950   1.860
10596SOL    HW232688   4.171   0.066   1.799
10597SOL     OW32689   2.916   1.326   4.608
10597SOL    HW132690   3.015   1.340   4.601
10597SOL    HW232691   2.877   1.321   4.516
10598SOL     OW32692   2.790   2.729   0.060
10598SOL    HW132693   2.712   2.666   0.059
10598SOL    HW232694   2.857   2.699   0.128
10599SOL     OW32695   5.515   2.190   0.376
10599SOL    HW132696   5.460   2.108   0.390
10599SOL    HW232697   5.612   2.166   0.370
10600SOL     OW32698   1.893   3.324   0.550
10600SOL    HW132699   1.875   3.240   0.500
10600SOL    HW232700   1.925   3.395   0.486
10601SOL     OW32701   2.395   5.247   5.816
10601SOL    HW132702   2.448   5.228   5.733
10601SOL    HW232703   2.370   5.161   5.860
10602SOL     OW32704   5.417   1.425   2.969
10602SOL    HW132705   5.410   1.522   2.994
10602SOL    HW232706   5.369   1.409   2.883
10603SOL     OW32707   2.186   5.775   3.291
10603SOL    HW132708   2.244   5.850   3.326
10603SOL    HW232709   2.114   5.813   3.233
10604SOL     OW32710   5.565   4.614   4.689
10604SOL    HW132711   5.513   4.656   4.763
10604SOL    HW232712   5.522   4.529   4.660
10605SOL     OW32713   0.955   4.885   0.279
10605SOL    HW132714   1.046   4.912   0.246
10605SOL    HW232715   0.936   4.791   0.251
10606SOL     OW32716   6.043   0.719   2.195
10606SOL    HW132717   6.058   0.779   2.117
10606SOL    HW232718   6.125   0.664   2.211
10607SOL     OW32719   4.296   3.556   5.574
10607SOL    HW132720   4.241   3.622   5.524
10607SOL    HW232721   4.294   3.578   5.672
10608SOL     OW32722   5.930   1.835   4.943
10608SOL    HW132723   5.890   1.902   5.005
10608SOL    HW232724   5.948   1.750   4.993
10609SOL     OW32725   2.911   6.045   1.733
10609SOL    HW132726   2.985   6.103   1.698
10609SOL    HW232727   2.826   6.098   1.737
10610SOL     OW32728   0.325   4.313   6.647
10610SOL    HW132729   0.411   4.362   6.628
10610SOL    HW232730   0.248   4.371   6.621
10611SOL     OW32731   5.191   3.389   6.896
10611SOL    HW132732   5.111   3.438   6.862
10611SOL    HW232733   5.186   3.293   6.867
10612SOL     OW32734   2.367   6.871   5.629
10612SOL    HW132735   2.429   6.941   5.595
10612SOL    HW232736   2.279   6.877   5.580
10613SOL     OW32737   0.304   6.879   5.853
10613SOL    HW132738   0.300   6.780   5.853
10613SOL    HW232739   0.223   6.916   5.808
10614SOL     OW32740   6.967   1.895   4.296
10614SOL    HW132741   6.869   1.890   4.281
10614SOL    HW232742   7.014   1.847   4.222
10615SOL     OW32743   4.240   5.447   5.683
10615SOL    HW132744   4.287   5.506   5.617
10615SOL    HW232745   4.142   5.470   5.685
10616SOL     OW32746   3.626   6.164   0.396
10616SOL    HW132747   3.527   6.182   0.393
10616SOL    HW232748   3.675   6.243   0.358
10617SOL     OW32749   2.061   2.776   0.708
10617SOL    HW132750   1.985   2.833   0.738
10617SOL    HW232751   2.130   2.770   0.780
10618SOL     OW32752   5.615   3.051   0.151
10618SOL    HW132753   5.681   3.049   0.076
10618SOL    HW232754   5.566   2.963   0.155
10619SOL     OW32755   0.324   3.401   1.803
10619SOL    HW132756   0.410   3.352   1.787
10619SOL    HW232757   0.298   3.450   1.719
10620SOL     OW32758   0.943   6.199   5.219
10620SOL    HW132759   0.850   6.234   5.228
10620SOL    HW232760   0.963   6.184   5.122
10621SOL     OW32761   1.571   5.876   0.827
10621SOL    HW132762   1.639   5.907   0.762
10621SOL    HW232763   1.559   5.944   0.899
10622SOL     OW32764   4.481   0.884   0.923
10622SOL    HW132765   4.575   0.862   0.896
10622SOL    HW232766   4.430   0.800   0.938
10623SOL     OW32767   5.938   3.446   3.764
10623SOL    HW132768   6.031   3.420   3.738
10623SOL    HW232769   5.941   3.530   3.817
10624SOL     OW32770   1.032   1.156   4.532
10624SOL    HW132771   0.983   1.132   4.448
10624SOL    HW232772   1.032   1.255   4.544
10625SOL     OW32773   0.646   4.226   6.698
10625SOL    HW132774   0.680   4.311   6.738
10625SOL    HW232775   0.709   4.152   6.718
10626SOL     OW32776   0.687   2.724   1.311
10626SOL    HW132777   0.756   2.727   1.383
10626SOL    HW232778   0.673   2.817   1.275
10627SOL     OW32779   5.489   6.074   2.331
10627SOL    HW132780   5.545   6.145   2.289
10627SOL    HW232781   5.525   6.052   2.422
10628SOL     OW32782   5.344   5.170   5.977
10628SOL    HW132783   5.322   5.206   6.068
10628SOL    HW232784   5.326   5.071   5.976
10629SOL     OW32785   2.664   4.603   5.297
10629SOL    HW132786   2.748   4.585   5.246
10629SOL    HW232787   2.592   4.630   5.233
10630SOL     OW32788   6.703   0.860   3.142
10630SOL    HW132789   6.670   0.913   3.063
10630SOL    HW232790   6.659   0.895   3.225
10631SOL     OW32791   1.557   5.813   4.570
10631SOL    HW132792   1.530   5.766   4.486
10631SOL    HW232793   1.657   5.816   4.576
10632SOL     OW32794   5.492   2.402   4.355
10632SOL    HW132795   5.454   2.367   4.441
10632SOL    HW232796   5.559   2.337   4.319
10633SOL     OW32797   2.967   4.027   1.305
10633SOL    HW132798   2.915   3.942   1.312
10633SOL    HW232799   2.956   4.080   1.390
10634SOL     OW32800   3.590   5.337   0.628
10634SOL    HW132801   3.657   5.274   0.590
10634SOL    HW232802   3.556   5.398   0.556
10635SOL     OW32803   2.639   1.549   1.231
10635SOL    HW132804   2.703   1.511   1.165
10635SOL    HW232805   2.548   1.511   1.216
10636SOL     OW32806   0.932   2.538   1.851
10636SOL    HW132807   0.913   2.596   1.930
10636SOL    HW232808   1.010   2.576   1.801
10637SOL     OW32809   3.617   3.875   5.676
10637SOL    HW132810   3.596   3.779   5.694
10637SOL    HW232811   3.540   3.917   5.627
10638SOL     OW32812   6.923   6.017   2.431
10638SOL    HW132813   6.927   6.058   2.340
10638SOL    HW232814   6.973   5.930   2.430
10639SOL     OW32815   0.679   1.784   3.524
10639SOL    HW132816   0.597   1.841   3.533
10639SOL    HW232817   0.760   1.837   3.549
10640SOL     OW32818   4.275   0.135   6.700
10640SOL    HW132819   4.324   0.059   6.658
10640SOL    HW232820   4.177   0.125   6.683
10641SOL     OW32821   3.779   1.895   0.112
10641SOL    HW132822   3.844   1.856   0.177
10641SOL    HW232823   3.686   1.877   0.142
10642SOL     OW32824   0.577   3.219   1.436
10642SOL    HW132825   0.506   3.190   1.372
10642SOL    HW232826   0.602   3.141   1.495
10643SOL     OW32827   2.023   4.236   5.875
10643SOL    HW132828   2.088   4.271   5.808
10643SOL    HW232829   1.931   4.265   5.850
10644SOL     OW32830   4.677   2.133   3.677
10644SOL    HW132831   4.661   2.137   3.776
10644SOL    HW232832   4.744   2.203   3.652
10645SOL     OW32833   1.271   1.185   4.196
10645SOL    HW132834   1.214   1.133   4.133
10645SOL    HW232835   1.360   1.203   4.154
10646SOL     OW32836   0.968   1.878   5.512
10646SOL    HW132837   0.985   1.878   5.611
10646SOL    HW232838   1.003   1.793   5.472
10647SOL     OW32839   5.098   5.755   6.232
10647SOL    HW132840   5.091   5.735   6.329
10647SOL    HW232841   5.123   5.672   6.182
10648SOL     OW32842   5.320   2.899   6.302
10648SOL    HW132843   5.228   2.929   6.329
10648SOL    HW232844   5.325   2.897   6.202
10649SOL     OW32845   0.192   4.277   3.778
10649SOL    HW132846   0.196   4.305   3.682
10649SOL    HW232847   0.105   4.307   3.818
10650SOL     OW32848   1.335   6.634   3.566
10650SOL    HW132849   1.398   6.712   3.563
10650SOL    HW232850   1.384   6.551   3.539
10651SOL     OW32851   4.834   6.722   5.615
10651SOL    HW132852   4.816   6.749   5.710
10651SOL    HW232853   4.749   6.689   5.574
10652SOL     OW32854   3.493   0.107   6.849
10652SOL    HW132855   3.422   0.174   6.827
10652SOL    HW232856   3.582   0.145   6.825
10653SOL     OW32857   5.120   4.825   4.456
10653SOL    HW132858   5.023   4.825   4.483
10653SOL    HW232859   5.176   4.851   4.534
10654SOL     OW32860   3.891   0.485   1.305
10654SOL    HW132861   3.945   0.430   1.240
10654SOL    HW232862   3.952   0.546   1.356
10655SOL     OW32863   3.119   5.498   1.232
10655SOL    HW132864   3.211   5.487   1.195
10655SOL    HW232865   3.124   5.539   1.323
10656SOL     OW32866   6.123   2.116   0.437
10656SOL    HW132867   6.156   2.024   0.459
10656SOL    HW232868   6.065   2.149   0.512
10657SOL     OW32869   6.281   6.643   0.437
10657SOL    HW132870   6.293   6.729   0.388
10657SOL    HW232871   6.262   6.570   0.372
10658SOL     OW32872   0.322   4.500   4.652
10658SOL    HW132873   0.418   4.529   4.651
10658SOL    HW232874   0.316   4.402   4.633
10659SOL     OW32875   6.842   6.642   0.981
10659SOL    HW132876   6.839   6.733   0.940
10659SOL    HW232877   6.751   6.616   1.012
10660SOL     OW32878   5.164   4.089   6.461
10660SOL    HW132879   5.183   4.124   6.369
10660SOL    HW232880   5.174   4.163   6.527
10661SOL     OW32881   6.711   6.801   2.736
10661SOL    HW132882   6.635   6.752   2.693
10661SOL    HW232883   6.749   6.745   2.810
10662SOL     OW32884   6.017   1.186   2.046
10662SOL    HW132885   5.968   1.246   1.983
10662SOL    HW232886   6.115   1.200   2.036
10663SOL     OW32887   0.789   0.251   0.902
10663SOL    HW132888   0.756   0.264   0.808
10663SOL    HW232889   0.874   0.198   0.900
10664SOL     OW32890   2.507   4.183   6.379
10664SOL    HW132891   2.426   4.130   6.406
10664SOL    HW232892   2.544   4.145   6.294
10665SOL     OW32893   1.088   0.865   6.506
10665SOL    HW132894   0.995   0.845   6.535
10665SOL    HW232895   1.089   0.886   6.408
10666SOL     OW32896   4.004   4.031   0.279
10666SOL    HW132897   3.966   3.986   0.198
10666SOL    HW232898   4.104   4.023   0.278
10667SOL     OW32899   4.238   1.793   5.458
10667SOL    HW132900   4.217   1.700   5.426
10667SOL    HW232901   4.153   1.839   5.484
10668SOL     OW32902   1.322   2.227   5.672
10668SOL    HW132903   1.262   2.163   5.624
10668SOL    HW232904   1.325   2.313   5.622
10669SOL     OW32905   0.348   6.943   0.601
10669SOL    HW132906   0.260   6.986   0.580
10669SOL    HW232907   0.333   6.849   0.632
10670SOL     OW32908   5.032   4.278   6.019
10670SOL    HW132909   5.114   4.333   6.002
10670SOL    HW232910   5.017   4.217   5.941
10671SOL     OW32911   2.156   3.622   2.882
10671SOL    HW132912   2.122   3.660   2.796
10671SOL    HW232913   2.228   3.554   2.862
10672SOL     OW32914   6.968   3.082   0.746
10672SOL    HW132915   6.969   3.079   0.846
10672SOL    HW232916   6.900   3.017   0.712
10673SOL     OW32917   2.885   2.599   5.922
10673SOL    HW132918   2.913   2.571   5.830
10673SOL    HW232919   2.787   2.587   5.933
10674SOL     OW32920   3.630   3.641   0.581
10674SOL    HW132921   3.597   3.723   0.629
10674SOL    HW232922   3.728   3.629   0.599
10675SOL     OW32923   0.855   0.737   5.408
10675SOL    HW132924   0.827   0.661   5.467
10675SOL    HW232925   0.908   0.702   5.331
10676SOL     OW32926   6.013   0.071   6.009
10676SOL    HW132927   6.056   7.019   5.961
10676SOL    HW232928   6.064   0.155   5.990
10677SOL     OW32929   0.778   0.734   2.098
10677SOL    HW132930   0.742   0.662   2.158
10677SOL    HW232931   0.860   0.774   2.139
10678SOL     OW32932   3.703   5.429   2.954
10678SOL    HW132933   3.778   5.478   2.908
10678SOL    HW232934   3.621   5.486   2.953
10679SOL     OW32935   5.607   5.672   4.931
10679SOL    HW132936   5.672   5.625   4.990
10679SOL    HW232937   5.552   5.736   4.985
10680SOL     OW32938   1.750   3.337   2.900
10680SOL    HW132939   1.811   3.417   2.901
10680SOL    HW232940   1.689   3.342   2.978
10681SOL     OW32941   6.407   4.179   6.983
10681SOL    HW132942   6.472   4.246   6.947
10681SOL    HW232943   6.313   4.208   6.962
10682SOL     OW32944   1.829   1.718   2.578
10682SOL    HW132945   1.875   1.629   2.571
10682SOL    HW232946   1.740   1.707   2.622
10683SOL     OW32947   2.517   2.493   4.077
10683SOL    HW132948   2.551   2.529   4.164
10683SOL    HW232949   2.516   2.393   4.081
10684SOL     OW32950   5.257   3.942   0.294
10684SOL    HW132951   5.273   3.903   0.203
10684SOL    HW232952   5.245   4.041   0.286
10685SOL     OW32953   0.836   4.110   2.868
10685SOL    HW132954   0.773   4.037   2.842
10685SOL    HW232955   0.791   4.199   2.859
10686SOL     OW32956   4.280   6.138   6.615
10686SOL    HW132957   4.244   6.227   6.644
10686SOL    HW232958   4.261   6.125   6.518
10687SOL     OW32959   7.015   5.223   2.386
10687SOL    HW132960   0.059   5.280   2.341
10687SOL    HW232961   0.033   5.145   2.430
10688SOL     OW32962   6.272   4.278   2.215
10688SOL    HW132963   6.315   4.241   2.133
10688SOL    HW232964   6.213   4.208   2.256
10689SOL     OW32965   6.693   6.942   3.007
10689SOL    HW132966   6.789   6.946   3.033
10689SOL    HW232967   6.669   7.023   2.954
10690SOL     OW32968   4.545   5.796   3.037
10690SOL    HW132969   4.476   5.738   3.079
10690SOL    HW232970   4.616   5.739   2.995
10691SOL     OW32971   6.466   1.230   1.530
10691SOL    HW132972   6.453   1.329   1.537
10691SOL    HW232973   6.394   1.184   1.581
10692SOL     OW32974   2.889   5.882   3.785
10692SOL    HW132975   2.812   5.874   3.849
10692SOL    HW232976   2.973   5.854   3.831
10693SOL     OW32977   1.179   1.203   1.166
10693SOL    HW132978   1.112   1.145   1.120
10693SOL    HW232979   1.212   1.158   1.248
10694SOL     OW32980   3.443   5.989   1.304
10694SOL    HW132981   3.515   6.031   1.249
10694SOL    HW232982   3.454   5.890   1.302
10695SOL     OW32983   6.737   2.548   4.109
10695SOL    HW132984   6.742   2.639   4.149
10695SOL    HW232985   6.804   2.541   4.034
10696SOL     OW32986   0.050   5.657   1.501
10696SOL    HW132987   0.113   5.580   1.492
10696SOL    HW232988   0.000   5.650   1.588
10697SOL     OW32989   0.183   6.286   3.356
10697SOL    HW132990   0.140   6.204   3.394
10697SOL    HW232991   0.178   6.360   3.422
10698SOL     OW32992   3.050   0.309   3.731
10698SOL    HW132993   3.140   0.290   3.769
10698SOL    HW232994   2.994   0.357   3.799
10699SOL     OW32995   4.384   1.473   2.928
10699SOL    HW132996   4.371   1.517   2.840
10699SOL    HW232997   4.383   1.373   2.917
10700SOL     OW32998   1.097   0.174   0.407
10700SOL    HW132999   1.102   0.128   0.319
10700SOL    HW233000   1.061   0.111   0.476
10701SOL     OW33001   4.555   6.004   6.631
10701SOL    HW133002   4.458   6.025   6.619
10701SOL    HW233003   4.568   5.906   6.641
10702SOL     OW33004   5.619   2.515   1.389
10702SOL    HW133005   5.601   2.441   1.325
10702SOL    HW233006   5.667   2.479   1.469
10703SOL     OW33007   3.406   3.839   3.123
10703SOL    HW133008   3.332   3.833   3.056
10703SOL    HW233009   3.431   3.935   3.135
10704SOL     OW33010   5.111   6.622   2.011
10704SOL    HW133011   5.141   6.717   2.019
10704SOL    HW233012   5.109   6.595   1.915
10705SOL     OW33013   1.446   3.442   6.513
10705SOL    HW133014   1.539   3.408   6.530
10705SOL    HW233015   1.426   3.518   6.575
10706SOL     OW33016   4.577   0.594   2.485
10706SOL    HW133017   4.477   0.587   2.481
10706SOL    HW233018   4.602   0.649   2.565
10707SOL     OW33019   0.061   7.000   5.837
10707SOL    HW133020   0.066   0.073   5.856
10707SOL    HW233021   0.007   6.984   5.755
10708SOL     OW33022   4.937   0.740   1.066
10708SOL    HW133023   4.895   0.684   1.138
10708SOL    HW233024   5.024   0.699   1.039
10709SOL     OW33025   6.493   0.507   5.331
10709SOL    HW133026   6.591   0.526   5.330
10709SOL    HW233027   6.443   0.593   5.342
10710SOL     OW33028   6.531   5.691   3.960
10710SOL    HW133029   6.536   5.777   4.011
10710SOL    HW233030   6.568   5.704   3.868
10711SOL     OW33031   2.113   0.293   3.993
10711SOL    HW133032   2.079   0.280   3.900
10711SOL    HW233033   2.037   0.290   4.058
10712SOL     OW33034   3.646   1.285   4.901
10712SOL    HW133035   3.736   1.296   4.943
10712SOL    HW233036   3.592   1.220   4.955
10713SOL     OW33037   2.080   5.624   2.204
10713SOL    HW133038   2.104   5.597   2.111
10713SOL    HW233039   2.003   5.688   2.201
10714SOL     OW33040   0.440   4.844   4.858
10714SOL    HW133041   0.382   4.878   4.784
10714SOL    HW233042   0.384   4.789   4.921
10715SOL     OW33043   4.637   2.092   4.263
10715SOL    HW133044   4.627   2.187   4.294
10715SOL    HW233045   4.722   2.055   4.299
10716SOL     OW33046   6.353   1.516   4.049
10716SOL    HW133047   6.338   1.522   4.148
10716SOL    HW233048   6.340   1.422   4.019
10717SOL     OW33049   0.147   1.149   1.292
10717SOL    HW133050   0.213   1.074   1.289
10717SOL    HW233051   0.164   1.205   1.372
10718SOL     OW33052   6.599   5.501   0.208
10718SOL    HW133053   6.611   5.489   0.306
10718SOL    HW233054   6.513   5.547   0.190
10719SOL     OW33055   5.229   0.824   2.364
10719SOL    HW133056   5.234   0.838   2.265
10719SOL    HW233057   5.297   0.757   2.392
10720SOL     OW33058   6.930   3.740   6.188
10720SOL    HW133059   6.965   3.796   6.263
10720SOL    HW233060   6.996   3.668   6.165
10721SOL     OW33061   6.495   2.168   4.386
10721SOL    HW133062   6.456   2.152   4.477
10721SOL    HW233063   6.425   2.157   4.316
10722SOL     OW33064   6.329   3.621   0.235
10722SOL    HW133065   6.378   3.602   0.150
10722SOL    HW233066   6.394   3.625   0.311
10723SOL     OW33067   5.126   4.066   6.809
10723SOL    HW133068   5.067   4.010   6.751
10723SOL    HW233069   5.201   4.009   6.845
10724SOL     OW33070   4.599   6.508   6.086
10724SOL    HW133071   4.563   6.571   6.155
10724SOL    HW233072   4.668   6.554   6.031
10725SOL     OW33073   0.529   6.317   4.097
10725SOL    HW133074   0.624   6.347   4.101
10725SOL    HW233075   0.525   6.217   4.099
10726SOL     OW33076   5.824   0.661   5.109
10726SOL    HW133077   5.758   0.665   5.034
10726SOL    HW233078   5.916   0.675   5.072
10727SOL     OW33079   2.430   4.910   5.060
10727SOL    HW133080   2.363   4.909   5.135
10727SOL    HW233081   2.472   4.820   5.052
10728SOL     OW33082   4.645   6.942   2.790
10728SOL    HW133083   4.650   6.849   2.828
10728SOL    HW233084   4.714   7.000   2.833
10729SOL     OW33085   5.934   2.559   3.024
10729SOL    HW133086   5.916   2.475   3.075
10729SOL    HW233087   5.901   2.638   3.076
10730SOL     OW33088   2.475   5.959   2.557
10730SOL    HW133089   2.528   5.888   2.602
10730SOL    HW233090   2.478   5.946   2.458
10731SOL     OW33091   3.189   5.435   0.311
10731SOL    HW133092   3.212   5.357   0.370
10731SOL    HW233093   3.255   5.439   0.235
10732SOL     OW33094   5.400   6.481   2.689
10732SOL    HW133095   5.334   6.407   2.674
10732SOL    HW233096   5.454   6.461   2.770
10733SOL     OW33097   5.732   1.036   0.024
10733SOL    HW133098   5.704   1.036   6.953
10733SOL    HW233099   5.660   1.079   0.079
10734SOL     OW33100   0.876   6.989   6.558
10734SOL    HW133101   0.851   7.018   6.650
10734SOL    HW233102   0.813   0.005   6.492
10735SOL     OW33103   0.722   5.360   2.092
10735SOL    HW133104   0.716   5.272   2.138
10735SOL    HW233105   0.789   5.417   2.139
10736SOL     OW33106   6.661   0.811   4.300
10736SOL    HW133107   6.676   0.760   4.385
10736SOL    HW233108   6.614   0.897   4.320
10737SOL     OW33109   0.186   2.034   1.064
10737SOL    HW133110   0.245   2.009   1.140
10737SOL    HW233111   0.236   2.092   1.000
10738SOL     OW33112   2.524   1.176   2.583
10738SOL    HW133113   2.474   1.203   2.501
10738SOL    HW233114   2.615   1.219   2.582
10739SOL     OW33115   6.303   1.905   2.909
10739SOL    HW133116   6.252   1.900   2.995
10739SOL    HW233117   6.249   1.954   2.841
10740SOL     OW33118   1.379   6.843   5.974
10740SOL    HW133119   1.325   6.924   5.952
10740SOL    HW233120   1.321   6.762   5.969
10741SOL     OW33121   1.442   2.815   3.330
10741SOL    HW133122   1.449   2.906   3.289
10741SOL    HW233123   1.528   2.766   3.317
10742SOL     OW33124   6.140   5.603   1.999
10742SOL    HW133125   6.162   5.505   1.996
10742SOL    HW233126   6.202   5.652   1.937
10743SOL     OW33127   3.554   1.422   5.602
10743SOL    HW133128   3.603   1.366   5.669
10743SOL    HW233129   3.457   1.395   5.600
10744SOL     OW33130   3.245   0.629   1.529
10744SOL    HW133131   3.169   0.615   1.466
10744SOL    HW233132   3.330   0.640   1.477
10745SOL     OW33133   1.942   4.836   0.785
10745SOL    HW133134   1.931   4.853   0.883
10745SOL    HW233135   1.889   4.756   0.757
10746SOL     OW33136   2.668   5.803   0.432
10746SOL    HW133137   2.638   5.775   0.523
10746SOL    HW233138   2.689   5.901   0.432
10747SOL     OW33139   5.916   2.610   4.393
10747SOL    HW133140   5.975   2.630   4.471
10747SOL    HW233141   5.828   2.656   4.405
10748SOL     OW33142   4.433   5.520   1.074
10748SOL    HW133143   4.463   5.425   1.078
10748SOL    HW233144   4.496   5.577   1.126
10749SOL     OW33145   5.770   4.656   3.652
10749SOL    HW133146   5.691   4.652   3.592
10749SOL    HW233147   5.842   4.711   3.610
10750SOL     OW33148   4.957   3.877   3.831
10750SOL    HW133149   4.955   3.945   3.904
10750SOL    HW233150   4.932   3.922   3.745
10751SOL     OW33151   1.282   3.479   4.979
10751SOL    HW133152   1.347   3.509   4.910
10751SOL    HW233153   1.204   3.541   4.981
10752SOL     OW33154   6.189   4.816   6.515
10752SOL    HW133155   6.232   4.819   6.425
10752SOL    HW233156   6.171   4.722   6.541
10753SOL     OW33157   4.236   6.396   4.505
10753SOL    HW133158   4.234   6.418   4.407
10753SOL    HW233159   4.331   6.385   4.534
10754SOL     OW33160   0.788   3.170   2.042
10754SOL    HW133161   0.878   3.155   2.000
10754SOL    HW233162   0.753   3.259   2.013
10755SOL     OW33163   6.847   1.911   1.847
10755SOL    HW133164   6.895   1.905   1.760
10755SOL    HW233165   6.914   1.920   1.921
10756SOL     OW33166   6.038   2.228   0.696
10756SOL    HW133167   6.123   2.222   0.749
10756SOL    HW233168   5.996   2.318   0.710
10757SOL     OW33169   6.637   3.909   0.314
10757SOL    HW133170   6.563   3.903   0.380
10757SOL    HW233171   6.677   3.818   0.299
10758SOL     OW33172   1.218   5.477   6.383
10758SOL    HW133173   1.290   5.486   6.314
10758SOL    HW233174   1.174   5.565   6.397
10759SOL     OW33175   1.386   2.283   6.216
10759SOL    HW133176   1.333   2.259   6.135
10759SOL    HW233177   1.388   2.206   6.279
10760SOL     OW33178   1.231   6.502   0.647
10760SOL    HW133179   1.329   6.485   0.649
10760SOL    HW233180   1.213   6.600   0.642
10761SOL     OW33181   1.000   2.166   6.440
10761SOL    HW133182   0.951   2.138   6.522
10761SOL    HW233183   1.032   2.084   6.391
10762SOL     OW33184   4.100   0.736   5.914
10762SOL    HW133185   4.188   0.705   5.879
10762SOL    HW233186   4.034   0.742   5.839
10763SOL     OW33187   5.721   0.733   2.880
10763SOL    HW133188   5.740   0.770   2.971
10763SOL    HW233189   5.668   0.799   2.827
10764SOL     OW33190   4.475   1.064   5.062
10764SOL    HW133191   4.442   1.027   5.149
10764SOL    HW233192   4.542   1.136   5.080
10765SOL     OW33193   5.774   1.895   2.419
10765SOL    HW133194   5.714   1.893   2.338
10765SOL    HW233195   5.723   1.864   2.499
10766SOL     OW33196   1.456   5.300   0.056
10766SOL    HW133197   1.405   5.327   0.138
10766SOL    HW233198   1.429   5.208   0.029
10767SOL     OW33199   1.942   6.377   0.390
10767SOL    HW133200   1.938   6.324   0.305
10767SOL    HW233201   1.911   6.470   0.373
10768SOL     OW33202   5.646   5.277   0.257
10768SOL    HW133203   5.709   5.255   0.331
10768SOL    HW233204   5.687   5.345   0.197
10769SOL     OW33205   2.692   4.190   5.432
10769SOL    HW133206   2.703   4.129   5.511
10769SOL    HW233207   2.594   4.203   5.414
10770SOL     OW33208   5.231   6.428   4.792
10770SOL    HW133209   5.273   6.388   4.710
10770SOL    HW233210   5.134   6.401   4.796
10771SOL     OW33211   4.519   0.422   5.370
10771SOL    HW133212   4.611   0.462   5.374
10771SOL    HW233213   4.469   0.447   5.452
10772SOL     OW33214   5.783   6.324   3.749
10772SOL    HW133215   5.691   6.297   3.723
10772SOL    HW233216   5.782   6.417   3.785
10773SOL     OW33217   6.670   4.336   0.458
10773SOL    HW133218   6.597   4.349   0.525
10773SOL    HW233219   6.635   4.284   0.380
10774SOL     OW33220   1.189   2.252   0.996
10774SOL    HW133221   1.161   2.251   1.092
10774SOL    HW233222   1.275   2.203   0.985
10775SOL     OW33223   1.785   4.576   0.575
10775SOL    HW133224   1.806   4.502   0.639
10775SOL    HW233225   1.839   4.565   0.492
10776SOL     OW33226   6.375   0.415   2.806
10776SOL    HW133227   6.329   0.334   2.841
10776SOL    HW233228   6.438   0.450   2.876
10777SOL     OW33229   2.726   0.807   3.965
10777SOL    HW133230   2.680   0.750   4.033
10777SOL    HW233231   2.824   0.811   3.986
10778SOL     OW33232   6.807   6.469   4.564
10778SOL    HW133233   6.800   6.535   4.638
10778SOL    HW233234   6.897   6.476   4.521
10779SOL     OW33235   5.608   4.672   3.453
10779SOL    HW133236   5.645   4.753   3.406
10779SOL    HW233237   5.508   4.678   3.455
10780SOL     OW33238   0.827   6.171   4.729
10780SOL    HW133239   0.901   6.148   4.665
10780SOL    HW233240   0.757   6.223   4.681
10781SOL     OW33241   6.314   1.901   5.288
10781SOL    HW133242   6.219   1.873   5.305
10781SOL    HW233243   6.326   1.997   5.314
10782SOL     OW33244   6.861   3.165   4.877
10782SOL    HW133245   6.871   3.264   4.890
10782SOL    HW233246   6.911   3.117   4.949
10783SOL     OW33247   1.490   2.361   2.204
10783SOL    HW133248   1.528   2.439   2.253
10783SOL    HW233249   1.428   2.310   2.265
10784SOL     OW33250   2.909   5.825   2.333
10784SOL    HW133251   2.917   5.900   2.267
10784SOL    HW233252   2.917   5.863   2.426
10785SOL     OW33253   1.532   5.133   1.511
10785SOL    HW133254   1.472   5.107   1.436
10785SOL    HW233255   1.479   5.142   1.595
10786SOL     OW33256   4.367   2.272   2.364
10786SOL    HW133257   4.362   2.192   2.305
10786SOL    HW233258   4.406   2.246   2.453
10787SOL     OW33259   3.516   1.536   4.015
10787SOL    HW133260   3.424   1.532   3.975
10787SOL    HW233261   3.552   1.628   4.005
10788SOL     OW33262   0.987   4.598   0.206
10788SOL    HW133263   0.922   4.523   0.198
10788SOL    HW233264   1.041   4.586   0.290
10789SOL     OW33265   6.289   1.119   0.369
10789SOL    HW133266   6.243   1.062   0.436
10789SOL    HW233267   6.325   1.062   0.295
10790SOL     OW33268   0.771   2.560   5.272
10790SOL    HW133269   0.801   2.578   5.178
10790SOL    HW233270   0.681   2.600   5.286
10791SOL     OW33271   2.317   1.894   2.316
10791SOL    HW133272   2.349   1.860   2.228
10791SOL    HW233273   2.267   1.822   2.364
10792SOL     OW33274   3.359   2.476   1.450
10792SOL    HW133275   3.339   2.448   1.543
10792SOL    HW233276   3.311   2.562   1.430
10793SOL     OW33277   5.082   1.677   4.767
10793SOL    HW133278   5.062   1.752   4.830
10793SOL    HW233279   5.142   1.709   4.694
10794SOL     OW33280   4.388   3.082   1.704
10794SOL    HW133281   4.458   3.062   1.772
10794SOL    HW233282   4.431   3.117   1.621
10795SOL     OW33283   0.073   4.050   2.301
10795SOL    HW133284   7.010   4.043   2.347
10795SOL    HW233285   0.065   4.114   2.224
10796SOL     OW33286   6.127   6.920   6.489
10796SOL    HW133287   6.200   6.986   6.506
10796SOL    HW233288   6.039   6.968   6.481
10797SOL     OW33289   3.673   2.792   0.478
10797SOL    HW133290   3.719   2.741   0.551
10797SOL    HW233291   3.687   2.890   0.492
10798SOL     OW33292   2.889   0.307   6.191
10798SOL    HW133293   2.927   0.383   6.244
10798SOL    HW233294   2.954   0.280   6.120
10799SOL     OW33295   3.225   1.826   2.650
10799SOL    HW133296   3.233   1.727   2.652
10799SOL    HW233297   3.139   1.853   2.695
10800SOL     OW33298   1.377   0.143   0.694
10800SOL    HW133299   1.437   0.089   0.635
10800SOL    HW233300   1.290   0.095   0.704
10801SOL     OW33301   2.184   6.343   5.649
10801SOL    HW133302   2.094   6.321   5.688
10801SOL    HW233303   2.172   6.379   5.557
10802SOL     OW33304   1.617   3.713   3.954
10802SOL    HW133305   1.653   3.776   4.023
10802SOL    HW233306   1.553   3.761   3.895
10803SOL     OW33307   5.515   4.723   5.293
10803SOL    HW133308   5.580   4.656   5.259
10803SOL    HW233309   5.554   4.814   5.285
10804SOL     OW33310   6.251   4.162   1.640
10804SOL    HW133311   6.248   4.244   1.697
10804SOL    HW233312   6.246   4.080   1.698
10805SOL     OW33313   4.070   6.477   0.659
10805SOL    HW133314   4.060   6.462   0.757
10805SOL    HW233315   4.036   6.568   0.636
10806SOL     OW33316   5.759   3.527   0.522
10806SOL    HW133317   5.727   3.611   0.567
10806SOL    HW233318   5.686   3.459   0.523
10807SOL     OW33319   3.374   6.191   3.790
10807SOL    HW133320   3.322   6.269   3.826
10807SOL    HW233321   3.385   6.202   3.691
10808SOL     OW33322   0.464   2.975   6.884
10808SOL    HW133323   0.503   2.902   6.939
10808SOL    HW233324   0.467   2.951   6.788
10809SOL     OW33325   3.122   1.373   4.294
10809SOL    HW133326   3.213   1.366   4.251
10809SOL    HW233327   3.073   1.287   4.280
10810SOL     OW33328   0.131   1.553   5.396
10810SOL    HW133329   0.170   1.515   5.312
10810SOL    HW233330   0.186   1.631   5.426
10811SOL     OW33331   4.324   5.470   5.207
10811SOL    HW133332   4.422   5.462   5.224
10811SOL    HW233333   4.300   5.416   5.125
10812SOL     OW33334   6.805   2.947   2.873
10812SOL    HW133335   6.837   2.930   2.967
10812SOL    HW233336   6.737   2.878   2.848
10813SOL     OW33337   2.712   5.732   2.046
10813SOL    HW133338   2.694   5.633   2.046
10813SOL    HW233339   2.791   5.751   1.988
10814SOL     OW33340   2.535   0.320   5.022
10814SOL    HW133341   2.511   0.263   4.944
10814SOL    HW233342   2.628   0.356   5.011
10815SOL     OW33343   5.699   4.162   2.736
10815SOL    HW133344   5.722   4.121   2.824
10815SOL    HW233345   5.600   4.157   2.722
10816SOL     OW33346   1.948   0.780   2.325
10816SOL    HW133347   2.019   0.712   2.344
10816SOL    HW233348   1.991   0.864   2.291
10817SOL     OW33349   5.391   0.434   2.371
10817SOL    HW133350   5.465   0.480   2.322
10817SOL    HW233351   5.401   0.451   2.469
10818SOL     OW33352   5.448   3.039   6.687
10818SOL    HW133353   5.388   3.085   6.623
10818SOL    HW233354   5.529   3.095   6.703
10819SOL     OW33355   0.390   4.590   6.183
10819SOL    HW133356   0.333   4.630   6.255
10819SOL    HW233357   0.461   4.533   6.225
10820SOL     OW33358   0.465   6.546   3.893
10820SOL    HW133359   0.532   6.608   3.934
10820SOL    HW233360   0.406   6.509   3.964
10821SOL     OW33361   0.156   0.065   1.359
10821SOL    HW133362   0.214   7.021   1.401
10821SOL    HW233363   0.185   0.156   1.389
10822SOL     OW33364   0.801   3.293   2.515
10822SOL    HW133365   0.702   3.302   2.529
10822SOL    HW233366   0.838   3.229   2.582
10823SOL     OW33367   2.697   6.003   1.441
10823SOL    HW133368   2.752   5.924   1.467
10823SOL    HW233369   2.618   6.010   1.502
10824SOL     OW33370   5.135   0.511   2.863
10824SOL    HW133371   5.156   0.496   2.959
10824SOL    HW233372   5.074   0.438   2.831
10825SOL     OW33373   3.069   1.160   1.091
10825SOL    HW133374   3.066   1.081   1.029
10825SOL    HW233375   3.155   1.209   1.078
10826SOL     OW33376   6.967   3.832   1.715
10826SOL    HW133377   6.917   3.891   1.652
10826SOL    HW233378   6.972   3.875   1.805
10827SOL     OW33379   0.195   3.645   4.402
10827SOL    HW133380   0.114   3.606   4.359
10827SOL    HW233381   0.222   3.588   4.480
10828SOL     OW33382   1.279   5.712   1.042
10828SOL    HW133383   1.256   5.772   1.119
10828SOL    HW233384   1.378   5.700   1.037
10829SOL     OW33385   3.015   3.773   1.738
10829SOL    HW133386   3.031   3.871   1.746
10829SOL    HW233387   3.051   3.726   1.819
10830SOL     OW33388   5.707   3.396   4.710
10830SOL    HW133389   5.752   3.485   4.710
10830SOL    HW233390   5.666   3.380   4.620
10831SOL     OW33391   5.234   0.914   2.614
10831SOL    HW133392   5.225   0.890   2.518
10831SOL    HW233393   5.230   1.013   2.625
10832SOL     OW33394   1.103   1.766   0.527
10832SOL    HW133395   1.038   1.837   0.553
10832SOL    HW233396   1.054   1.683   0.501
10833SOL     OW33397   2.564   0.745   4.463
10833SOL    HW133398   2.485   0.685   4.471
10833SOL    HW233399   2.578   0.794   4.550
10834SOL     OW33400   0.569   1.115   5.503
10834SOL    HW133401   0.620   1.191   5.544
10834SOL    HW233402   0.550   1.136   5.407
10835SOL     OW33403   6.036   1.859   2.422
10835SOL    HW133404   5.937   1.875   2.422
10835SOL    HW233405   6.084   1.944   2.401
10836SOL     OW33406   0.490   1.568   5.471
10836SOL    HW133407   0.402   1.612   5.489
10836SOL    HW233408   0.562   1.637   5.473
10837SOL     OW33409   6.707   4.478   0.221
10837SOL    HW133410   6.718   4.431   0.309
10837SOL    HW233411   6.746   4.422   0.148
10838SOL     OW33412   5.884   7.002   6.705
10838SOL    HW133413   5.802   6.978   6.757
10838SOL    HW233414   5.865   6.992   6.607
10839SOL     OW33415   2.706   1.676   0.009
10839SOL    HW133416   2.615   1.659   6.996
10839SOL    HW233417   2.746   1.757   6.992
10840SOL     OW33418   3.794   6.053   1.442
10840SOL    HW133419   3.772   5.960   1.415
10840SOL    HW233420   3.768   6.116   1.369
10841SOL     OW33421   4.034   6.140   6.045
10841SOL    HW133422   4.115   6.198   6.037
10841SOL    HW233423   3.999   6.145   6.139
10842SOL     OW33424   6.456   2.608   0.947
10842SOL    HW133425   6.505   2.607   0.860
10842SOL    HW233426   6.464   2.698   0.989
10843SOL     OW33427   1.611   1.493   2.072
10843SOL    HW133428   1.561   1.407   2.069
10843SOL    HW233429   1.694   1.486   2.016
10844SOL     OW33430   6.344   6.731   3.830
10844SOL    HW133431   6.321   6.690   3.741
10844SOL    HW233432   6.439   6.711   3.853
10845SOL     OW33433   1.028   1.069   1.553
10845SOL    HW133434   0.980   1.019   1.481
10845SOL    HW233435   1.116   1.026   1.572
10846SOL     OW33436   4.109   2.300   1.036
10846SOL    HW133437   4.198   2.300   0.991
10846SOL    HW233438   4.041   2.343   0.977
10847SOL     OW33439   3.195   1.828   5.775
10847SOL    HW133440   3.255   1.901   5.807
10847SOL    HW233441   3.179   1.839   5.677
10848SOL     OW33442   2.363   0.816   0.010
10848SOL    HW133443   2.290   0.878   0.040
10848SOL    HW233444   2.375   0.825   6.936
10849SOL     OW33445   2.862   4.956   4.338
10849SOL    HW133446   2.818   5.045   4.350
10849SOL    HW233447   2.948   4.968   4.290
10850SOL     OW33448   5.301   6.788   6.898
10850SOL    HW133449   5.331   6.716   6.835
10850SOL    HW233450   5.203   6.778   6.915
10851SOL     OW33451   2.600   2.539   5.979
10851SOL    HW133452   2.589   2.567   6.074
10851SOL    HW233453   2.521   2.568   5.926
10852SOL     OW33454   6.946   1.227   6.490
10852SOL    HW133455   6.856   1.211   6.449
10852SOL    HW233456   6.935   1.245   6.588
10853SOL     OW33457   2.948   1.938   4.677
10853SOL    HW133458   2.956   1.842   4.651
10853SOL    HW233459   2.854   1.958   4.703
10854SOL     OW33460   5.624   6.859   6.799
10854SOL    HW133461   5.654   6.817   6.885
10854SOL    HW233462   5.537   6.818   6.770
10855SOL     OW33463   1.874   6.215   2.578
10855SOL    HW133464   1.963   6.203   2.622
10855SOL    HW233465   1.857   6.138   2.516
10856SOL     OW33466   6.269   6.344   7.006
10856SOL    HW133467   6.304   6.253   0.004
10856SOL    HW233468   6.265   6.354   6.906
10857SOL     OW33469   6.161   2.584   3.676
10857SOL    HW133470   6.068   2.549   3.674
10857SOL    HW233471   6.162   2.673   3.723
10858SOL     OW33472   1.556   3.613   0.149
10858SOL    HW133473   1.598   3.691   0.104
10858SOL    HW233474   1.465   3.598   0.111
10859SOL     OW33475   1.086   4.555   3.367
10859SOL    HW133476   0.986   4.551   3.362
10859SOL    HW233477   1.118   4.485   3.431
10860SOL     OW33478   6.712   1.233   0.284
10860SOL    HW133479   6.615   1.255   0.293
10860SOL    HW233480   6.728   1.139   0.314
10861SOL     OW33481   3.019   2.564   1.699
10861SOL    HW133482   2.955   2.630   1.659
10861SOL    HW233483   2.978   2.522   1.780
10862SOL     OW33484   3.018   2.148   5.926
10862SOL    HW133485   3.050   2.242   5.926
10862SOL    HW233486   2.940   2.139   5.865
10863SOL     OW33487   2.343   0.394   3.371
10863SOL    HW133488   2.362   0.492   3.374
10863SOL    HW233489   2.406   0.350   3.308
10864SOL     OW33490   2.678   4.587   1.467
10864SOL    HW133491   2.645   4.493   1.455
10864SOL    HW233492   2.667   4.637   1.381
10865SOL     OW33493   5.307   3.083   3.743
10865SOL    HW133494   5.314   3.104   3.841
10865SOL    HW233495   5.238   3.013   3.729
10866SOL     OW33496   6.680   2.815   1.327
10866SOL    HW133497   6.750   2.777   1.266
10866SOL    HW233498   6.725   2.858   1.405
10867SOL     OW33499   2.697   2.513   0.459
10867SOL    HW133500   2.660   2.427   0.422
10867SOL    HW233501   2.639   2.589   0.430
10868SOL     OW33502   0.517   1.845   3.216
10868SOL    HW133503   0.428   1.857   3.260
10868SOL    HW233504   0.583   1.907   3.259
10869NA      NA33505   0.197   2.076   5.864
10870NA      NA33506   4.514   4.545   5.203
10871NA      NA33507   1.534   5.346   2.532
10872NA      NA33508   5.321   4.318   3.791
10873NA      NA33509   4.367   2.538   5.277
10874NA      NA33510   2.612   5.000   1.265
10875NA      NA33511   1.218   5.545   0.352
10876NA      NA33512   3.501   3.969   1.343
10877NA      NA33513   4.529   4.500   0.681
10878NA      NA33514   3.483   1.147   6.407
10879NA      NA33515   5.281   5.984   2.260
10880NA      NA33516   1.454   0.156   5.238
10881NA      NA33517   4.555   5.180   2.063
10882NA      NA33518   3.180   3.289   0.028
   7.02510   7.02510   7.02510
