Generated by trjconv : CNT in water t= 458.00000
33518
    1C        C    1   2.843   2.766   4.749
    1C        C    2   2.898   2.715   4.869
    1C        C    3   2.842   2.771   4.984
    1C        C    4   2.850   2.775   4.260
    1C        C    5   2.904   2.732   4.383
    1C        C    6   2.846   2.773   4.505
    1C        C    7   3.013   2.642   4.626
    1C        C    8   2.895   2.720   4.626
    1C        C    9   3.081   2.610   4.746
    1C        C   10   3.013   2.633   4.867
    1C        C   11   3.178   2.492   4.976
    1C        C   12   3.057   2.563   4.980
    1C        C   13   2.849   2.773   3.774
    1C        C   14   2.905   2.726   3.895
    1C        C   15   2.854   2.777   4.016
    1C        C   16   3.021   2.647   4.140
    1C        C   17   2.907   2.729   4.138
    1C        C   18   3.086   2.621   4.263
    1C        C   19   3.023   2.655   4.384
    1C        C   20   3.210   2.556   4.505
    1C        C   21   3.080   2.610   4.506
    1C        C   22   3.279   2.535   4.627
    1C        C   23   3.210   2.550   4.750
    1C        C   24   3.414   2.483   4.866
    1C        C   25   3.272   2.501   4.868
    1C        C   26   3.490   2.470   4.983
    1C        C   27   2.850   2.769   3.284
    1C        C   28   2.905   2.725   3.406
    1C        C   29   2.853   2.773   3.528
    1C        C   30   3.021   2.647   3.649
    1C        C   31   2.905   2.728   3.652
    1C        C   32   3.081   2.611   3.772
    1C        C   33   3.022   2.647   3.895
    1C        C   34   3.209   2.550   4.017
    1C        C   35   3.081   2.609   4.018
    1C        C   36   3.279   2.533   4.139
    1C        C   37   3.215   2.563   4.261
    1C        C   38   3.417   2.507   4.384
    1C        C   39   3.279   2.535   4.384
    1C        C   40   3.489   2.496   4.505
    1C        C   41   3.415   2.500   4.626
    1C        C   42   3.630   2.483   4.745
    1C        C   43   3.488   2.479   4.745
    1C        C   44   3.705   2.490   4.864
    1C        C   45   3.629   2.477   4.981
    1C        C   46   2.840   2.755   2.793
    1C        C   47   2.895   2.712   2.916
    1C        C   48   2.848   2.763   3.039
    1C        C   49   3.020   2.642   3.163
    1C        C   50   2.904   2.722   3.162
    1C        C   51   3.086   2.609   3.284
    1C        C   52   3.025   2.650   3.405
    1C        C   53   3.210   2.549   3.527
    1C        C   54   3.084   2.613   3.528
    1C        C   55   3.276   2.527   3.651
    1C        C   56   3.210   2.553   3.773
    1C        C   57   3.415   2.502   3.894
    1C        C   58   3.277   2.530   3.895
    1C        C   59   3.487   2.501   4.015
    1C        C   60   3.418   2.506   4.138
    1C        C   61   3.628   2.497   4.260
    1C        C   62   3.487   2.498   4.261
    1C        C   63   3.701   2.505   4.381
    1C        C   64   3.630   2.494   4.503
    1C        C   65   3.837   2.540   4.622
    1C        C   66   3.701   2.499   4.624
    1C        C   67   3.906   2.563   4.743
    1C        C   68   3.842   2.524   4.863
    1C        C   69   4.050   2.586   4.979
    1C        C   70   3.923   2.528   4.978
    1C        C   71   2.828   2.737   2.308
    1C        C   72   2.886   2.695   2.430
    1C        C   73   2.834   2.745   2.552
    1C        C   74   3.011   2.626   2.673
    1C        C   75   2.892   2.701   2.673
    1C        C   76   3.075   2.598   2.796
    1C        C   77   3.014   2.636   2.917
    1C        C   78   3.207   2.548   3.038
    1C        C   79   3.077   2.603   3.039
    1C        C   80   3.280   2.531   3.159
    1C        C   81   3.214   2.550   3.282
    1C        C   82   3.417   2.501   3.404
    1C        C   83   3.277   2.523   3.406
    1C        C   84   3.487   2.494   3.526
    1C        C   85   3.415   2.502   3.648
    1C        C   86   3.625   2.501   3.771
    1C        C   87   3.484   2.497   3.770
    1C        C   88   3.696   2.509   3.893
    1C        C   89   3.628   2.501   4.017
    1C        C   90   3.835   2.545   4.136
    1C        C   91   3.700   2.504   4.139
    1C        C   92   3.902   2.572   4.258
    1C        C   93   3.838   2.539   4.379
    1C        C   94   4.028   2.633   4.498
    1C        C   95   3.904   2.565   4.501
    1C        C   96   4.092   2.669   4.619
    1C        C   97   4.033   2.627   4.739
    1C        C   98   4.190   2.765   4.861
    1C        C   99   4.096   2.657   4.863
    1C        C  100   4.213   2.842   4.976
    1C        C  101   2.823   2.733   2.066
    1C        C  102   2.990   2.596   2.189
    1C        C  103   2.876   2.681   2.185
    1C        C  104   3.064   2.573   2.308
    1C        C  105   3.006   2.621   2.428
    1C        C  106   3.203   2.539   2.550
    1C        C  107   3.072   2.592   2.550
    1C        C  108   3.271   2.522   2.672
    1C        C  109   3.204   2.540   2.795
    1C        C  110   3.412   2.490   2.915
    1C        C  111   3.273   2.518   2.917
    1C        C  112   3.486   2.486   3.035
    1C        C  113   3.418   2.502   3.158
    1C        C  114   3.628   2.496   3.281
    1C        C  115   3.486   2.495   3.281
    1C        C  116   3.698   2.503   3.403
    1C        C  117   3.628   2.500   3.526
    1C        C  118   3.834   2.542   3.648
    1C        C  119   3.696   2.510   3.649
    1C        C  120   3.901   2.564   3.770
    1C        C  121   3.832   2.547   3.893
    1C        C  122   4.028   2.633   4.012
    1C        C  123   3.901   2.571   4.014
    1C        C  124   4.089   2.672   4.133
    1C        C  125   4.028   2.636   4.256
    1C        C  126   4.194   2.769   4.378
    1C        C  127   4.090   2.673   4.377
    1C        C  128   4.248   2.817   4.500
    1C        C  129   4.197   2.764   4.621
    1C        C  130   4.323   2.938   4.739
    1C        C  131   4.242   2.821   4.742
    1C        C  132   4.349   3.008   4.859
    1C        C  133   4.284   2.961   4.974
    1C        C  134   3.168   2.465   2.083
    1C        C  135   3.035   2.507   2.086
    1C        C  136   3.259   2.480   2.189
    1C        C  137   3.196   2.520   2.309
    1C        C  138   3.406   2.473   2.428
    1C        C  139   3.268   2.503   2.430
    1C        C  140   3.480   2.479   2.547
    1C        C  141   3.409   2.494   2.669
    1C        C  142   3.621   2.493   2.792
    1C        C  143   3.479   2.486   2.791
    1C        C  144   3.695   2.498   2.911
    1C        C  145   3.627   2.488   3.035
    1C        C  146   3.834   2.535   3.156
    1C        C  147   3.697   2.500   3.158
    1C        C  148   3.900   2.562   3.277
    1C        C  149   3.835   2.538   3.400
    1C        C  150   4.027   2.622   3.524
    1C        C  151   3.899   2.563   3.524
    1C        C  152   4.087   2.664   3.645
    1C        C  153   4.027   2.628   3.768
    1C        C  154   4.197   2.757   3.890
    1C        C  155   4.087   2.669   3.889
    1C        C  156   4.246   2.812   4.011
    1C        C  157   4.197   2.763   4.134
    1C        C  158   4.335   2.925   4.253
    1C        C  159   4.245   2.816   4.255
    1C        C  160   4.373   2.987   4.374
    1C        C  161   4.330   2.931   4.496
    1C        C  162   4.434   3.119   4.616
    1C        C  163   4.363   2.997   4.617
    1C        C  164   4.465   3.188   4.735
    1C        C  165   4.426   3.126   4.856
    1C        C  166   4.509   3.323   4.973
    1C        C  167   4.475   3.188   4.971
    1C        C  168   3.475   2.439   2.074
    1C        C  169   3.398   2.459   2.189
    1C        C  170   3.619   2.461   2.307
    1C        C  171   3.477   2.458   2.306
    1C        C  172   3.693   2.483   2.425
    1C        C  173   3.621   2.486   2.547
    1C        C  174   3.827   2.539   2.665
    1C        C  175   3.691   2.501   2.669
    1C        C  176   3.895   2.561   2.786
    1C        C  177   3.832   2.535   2.910
    1C        C  178   4.025   2.620   3.033
    1C        C  179   3.899   2.557   3.032
    1C        C  180   4.086   2.661   3.154
    1C        C  181   4.027   2.624   3.277
    1C        C  182   4.190   2.753   3.398
    1C        C  183   4.086   2.658   3.401
    1C        C  184   4.241   2.804   3.520
    1C        C  185   4.193   2.757   3.645
    1C        C  186   4.330   2.919   3.763
    1C        C  187   4.246   2.805   3.767
    1C        C  188   4.371   2.980   3.884
    1C        C  189   4.332   2.925   4.008
    1C        C  190   4.435   3.110   4.128
    1C        C  191   4.372   2.983   4.130
    1C        C  192   4.463   3.175   4.250
    1C        C  193   4.439   3.113   4.374
    1C        C  194   4.507   3.318   4.493
    1C        C  195   4.465   3.183   4.494
    1C        C  196   4.528   3.390   4.613
    1C        C  197   4.513   3.322   4.736
    1C        C  198   4.554   3.537   4.850
    1C        C  199   4.534   3.396   4.856
    1C        C  200   4.588   3.622   4.961
    1C        C  201   3.614   2.421   2.070
    1C        C  202   3.824   2.511   2.183
    1C        C  203   3.692   2.456   2.185
    1C        C  204   3.897   2.541   2.302
    1C        C  205   3.830   2.514   2.423
    1C        C  206   4.022   2.616   2.543
    1C        C  207   3.897   2.549   2.543
    1C        C  208   4.080   2.658   2.664
    1C        C  209   4.023   2.622   2.788
    1C        C  210   4.195   2.744   2.909
    1C        C  211   4.085   2.655   2.910
    1C        C  212   4.250   2.794   3.029
    1C        C  213   4.199   2.745   3.151
    1C        C  214   4.329   2.910   3.273
    1C        C  215   4.244   2.797   3.275
    1C        C  216   4.365   2.972   3.394
    1C        C  217   4.328   2.915   3.518
    1C        C  218   4.425   3.105   3.638
    1C        C  219   4.367   2.977   3.639
    1C        C  220   4.455   3.172   3.759
    1C        C  221   4.438   3.104   3.882
    1C        C  222   4.497   3.308   4.005
    1C        C  223   4.466   3.170   4.004
    1C        C  224   4.514   3.380   4.125
    1C        C  225   4.506   3.310   4.247
    1C        C  226   4.518   3.524   4.366
    1C        C  227   4.519   3.382   4.368
    1C        C  228   4.521   3.599   4.486
    1C        C  229   4.536   3.531   4.609
    1C        C  230   4.503   3.745   4.726
    1C        C  231   4.531   3.606   4.728
    1C        C  232   4.495   3.821   4.846
    1C        C  233   4.546   3.756   4.959
    1C        C  234   4.014   2.615   2.064
    1C        C  235   3.891   2.550   2.066
    1C        C  236   4.085   2.648   2.180
    1C        C  237   4.025   2.604   2.300
    1C        C  238   4.197   2.735   2.422
    1C        C  239   4.083   2.650   2.420
    1C        C  240   4.251   2.783   2.543
    1C        C  241   4.195   2.740   2.665
    1C        C  242   4.329   2.907   2.784
    1C        C  243   4.242   2.796   2.786
    1C        C  244   4.373   2.963   2.906
    1C        C  245   4.336   2.907   3.030
    1C        C  246   4.433   3.096   3.150
    1C        C  247   4.369   2.970   3.152
    1C        C  248   4.455   3.164   3.272
    1C        C  249   4.429   3.098   3.394
    1C        C  250   4.488   3.305   3.514
    1C        C  251   4.449   3.170   3.514
    1C        C  252   4.502   3.374   3.636
    1C        C  253   4.498   3.306   3.760
    1C        C  254   4.521   3.517   3.876
    1C        C  255   4.513   3.376   3.882
    1C        C  256   4.519   3.589   3.997
    1C        C  257   4.525   3.521   4.121
    1C        C  258   4.498   3.732   4.241
    1C        C  259   4.518   3.592   4.243
    1C        C  260   4.477   3.804   4.361
    1C        C  261   4.497   3.738   4.484
    1C        C  262   4.427   3.942   4.604
    1C        C  263   4.481   3.811   4.604
    1C        C  264   4.399   4.009   4.725
    1C        C  265   4.432   3.947   4.848
    1C        C  266   4.325   4.137   4.960
    1C        C  267   4.392   4.015   4.964
    1C        C  268   4.260   2.778   2.062
    1C        C  269   4.200   2.731   2.179
    1C        C  270   4.345   2.890   2.300
    1C        C  271   4.253   2.781   2.300
    1C        C  272   4.380   2.956   2.419
    1C        C  273   4.336   2.897   2.540
    1C        C  274   4.435   3.087   2.660
    1C        C  275   4.369   2.963   2.660
    1C        C  276   4.461   3.154   2.781
    1C        C  277   4.433   3.091   2.905
    1C        C  278   4.492   3.296   3.024
    1C        C  279   4.460   3.159   3.026
    1C        C  280   4.504   3.367   3.146
    1C        C  281   4.490   3.301   3.269
    1C        C  282   4.516   3.513   3.391
    1C        C  283   4.504   3.372   3.390
    1C        C  284   4.515   3.586   3.511
    1C        C  285   4.516   3.515   3.633
    1C        C  286   4.491   3.727   3.752
    1C        C  287   4.517   3.588   3.754
    1C        C  288   4.470   3.792   3.875
    1C        C  289   4.488   3.727   3.999
    1C        C  290   4.430   3.934   4.118
    1C        C  291   4.477   3.801   4.120
    1C        C  292   4.402   4.001   4.239
    1C        C  293   4.431   3.938   4.362
    1C        C  294   4.324   4.126   4.479
    1C        C  295   4.395   4.004   4.481
    1C        C  296   4.284   4.185   4.601
    1C        C  297   4.326   4.131   4.725
    1C        C  298   4.198   4.315   4.839
    1C        C  299   4.282   4.199   4.842
    1C        C  300   4.168   4.406   4.946
    1C        C  301   4.351   2.882   2.062
    1C        C  302   4.467   3.069   2.177
    1C        C  303   4.398   2.944   2.179
    1C        C  304   4.478   3.145   2.296
    1C        C  305   4.444   3.082   2.418
    1C        C  306   4.504   3.287   2.536
    1C        C  307   4.469   3.151   2.538
    1C        C  308   4.512   3.359   2.657
    1C        C  309   4.498   3.291   2.780
    1C        C  310   4.522   3.504   2.900
    1C        C  311   4.511   3.363   2.901
    1C        C  312   4.521   3.578   3.020
    1C        C  313   4.516   3.508   3.143
    1C        C  314   4.493   3.719   3.263
    1C        C  315   4.514   3.579   3.266
    1C        C  316   4.475   3.789   3.384
    1C        C  317   4.493   3.726   3.509
    1C        C  318   4.431   3.931   3.628
    1C        C  319   4.477   3.798   3.630
    1C        C  320   4.397   3.990   3.752
    1C        C  321   4.427   3.926   3.874
    1C        C  322   4.327   4.117   3.992
    1C        C  323   4.399   3.996   3.994
    1C        C  324   4.285   4.176   4.114
    1C        C  325   4.326   4.120   4.237
    1C        C  326   4.190   4.288   4.353
    1C        C  327   4.285   4.184   4.356
    1C        C  328   4.140   4.341   4.474
    1C        C  329   4.192   4.292   4.596
    1C        C  330   4.026   4.434   4.715
    1C        C  331   4.141   4.351   4.714
    1C        C  332   3.968   4.489   4.832
    1C        C  333   4.050   4.480   4.945
    1C        C  334   4.547   3.266   2.061
    1C        C  335   4.535   3.127   2.065
    1C        C  336   4.532   3.352   2.172
    1C        C  337   4.514   3.283   2.293
    1C        C  338   4.522   3.498   2.411
    1C        C  339   4.521   3.356   2.414
    1C        C  340   4.521   3.570   2.532
    1C        C  341   4.525   3.500   2.654
    1C        C  342   4.495   3.711   2.773
    1C        C  343   4.514   3.571   2.776
    1C        C  344   4.478   3.784   2.893
    1C        C  345   4.495   3.717   3.016
    1C        C  346   4.426   3.917   3.138
    1C        C  347   4.475   3.784   3.139
    1C        C  348   4.397   3.984   3.260
    1C        C  349   4.431   3.923   3.383
    1C        C  350   4.323   4.108   3.501
    1C        C  351   4.403   3.991   3.503
    1C        C  352   4.281   4.164   3.624
    1C        C  353   4.323   4.110   3.748
    1C        C  354   4.181   4.269   3.867
    1C        C  355   4.277   4.165   3.869
    1C        C  356   4.125   4.317   3.988
    1C        C  357   4.183   4.273   4.109
    1C        C  358   4.010   4.398   4.231
    1C        C  359   4.131   4.325   4.230
    1C        C  360   3.949   4.436   4.353
    1C        C  361   4.018   4.411   4.474
    1C        C  362   3.829   4.515   4.593
    1C        C  363   3.958   4.458   4.593
    1C        C  364   3.763   4.552   4.712
    1C        C  365   3.838   4.544   4.832
    1C        C  366   3.627   4.590   4.950
    1C        C  367   3.765   4.570   4.949
    1C        C  368   4.511   3.569   2.053
    1C        C  369   4.527   3.493   2.169
    1C        C  370   4.502   3.708   2.285
    1C        C  371   4.518   3.568   2.288
    1C        C  372   4.493   3.779   2.407
    1C        C  373   4.512   3.711   2.529
    1C        C  374   4.431   3.910   2.650
    1C        C  375   4.483   3.779   2.650
    1C        C  376   4.402   3.980   2.769
    1C        C  377   4.429   3.916   2.892
    1C        C  378   4.331   4.103   3.011
    1C        C  379   4.402   3.981   3.015
    1C        C  380   4.285   4.160   3.132
    1C        C  381   4.324   4.104   3.256
    1C        C  382   4.182   4.263   3.377
    1C        C  383   4.282   4.163   3.378
    1C        C  384   4.129   4.312   3.499
    1C        C  385   4.183   4.266   3.621
    1C        C  386   4.010   4.390   3.742
    1C        C  387   4.127   4.310   3.743
    1C        C  388   3.945   4.428   3.861
    1C        C  389   4.006   4.393   3.984
    1C        C  390   3.819   4.484   4.107
    1C        C  391   3.949   4.430   4.107
    1C        C  392   3.750   4.508   4.228
    1C        C  393   3.818   4.489   4.351
    1C        C  394   3.617   4.551   4.475
    1C        C  395   3.756   4.523   4.473
    1C        C  396   3.546   4.565   4.596
    1C        C  397   3.623   4.572   4.714
    1C        C  398   3.411   4.549   4.838
    1C        C  399   3.550   4.572   4.834
    1C        C  400   3.340   4.517   4.955
    1C        C  401   4.506   3.708   2.048
    1C        C  402   4.455   3.920   2.163
    1C        C  403   4.491   3.783   2.165
    1C        C  404   4.421   3.980   2.286
    1C        C  405   4.441   3.910   2.407
    1C        C  406   4.330   4.095   2.525
    1C        C  407   4.401   3.973   2.527
    1C        C  408   4.286   4.154   2.645
    1C        C  409   4.324   4.098   2.769
    1C        C  410   4.180   4.256   2.889
    1C        C  411   4.279   4.155   2.890
    1C        C  412   4.126   4.300   3.012
    1C        C  413   4.183   4.257   3.134
    1C        C  414   4.005   4.376   3.253
    1C        C  415   4.126   4.304   3.254
    1C        C  416   3.942   4.409   3.375
    1C        C  417   4.006   4.380   3.498
    1C        C  418   3.813   4.470   3.618
    1C        C  419   3.944   4.418   3.620
    1C        C  420   3.748   4.500   3.739
    1C        C  421   3.813   4.478   3.863
    1C        C  422   3.609   4.525   3.985
    1C        C  423   3.749   4.502   3.986
    1C        C  424   3.540   4.533   4.108
    1C        C  425   3.610   4.527   4.231
    1C        C  426   3.403   4.547   4.357
    1C        C  427   3.545   4.548   4.354
    1C        C  428   3.331   4.550   4.479
    1C        C  429   3.404   4.561   4.599
    1C        C  430   3.194   4.520   4.720
    1C        C  431   3.333   4.551   4.720
    1C        C  432   3.125   4.494   4.842
    1C        C  433   3.204   4.490   4.958
    1C        C  434   4.383   4.122   2.052
    1C        C  435   4.446   3.997   2.047
    1C        C  436   4.305   4.162   2.166
    1C        C  437   4.342   4.098   2.288
    1C        C  438   4.178   4.247   2.402
    1C        C  439   4.283   4.152   2.404
    1C        C  440   4.127   4.297   2.524
    1C        C  441   4.185   4.253   2.645
    1C        C  442   4.001   4.363   2.763
    1C        C  443   4.126   4.297   2.765
    1C        C  444   3.941   4.401   2.885
    1C        C  445   4.005   4.372   3.008
    1C        C  446   3.812   4.461   3.130
    1C        C  447   3.943   4.408   3.130
    1C        C  448   3.746   4.489   3.252
    1C        C  449   3.815   4.472   3.374
    1C        C  450   3.607   4.521   3.496
    1C        C  451   3.746   4.493   3.495
    1C        C  452   3.539   4.532   3.619
    1C        C  453   3.610   4.531   3.741
    1C        C  454   3.398   4.543   3.864
    1C        C  455   3.539   4.537   3.863
    1C        C  456   3.330   4.535   3.988
    1C        C  457   3.399   4.537   4.111
    1C        C  458   3.195   4.502   4.237
    1C        C  459   3.333   4.536   4.236
    1C        C  460   3.126   4.488   4.359
    1C        C  461   3.194   4.517   4.480
    1C        C  462   2.995   4.437   4.604
    1C        C  463   3.123   4.496   4.600
    1C        C  464   2.929   4.404   4.724
    1C        C  465   2.990   4.447   4.845
    1C        C  466   2.794   4.345   4.957
    1C        C  467   2.904   4.432   4.959
    1C        C  468   4.123   4.281   2.041
    1C        C  469   4.191   4.248   2.159
    1C        C  470   4.012   4.373   2.278
    1C        C  471   4.132   4.297   2.279
    1C        C  472   3.945   4.403   2.399
    1C        C  473   4.009   4.375   2.522
    1C        C  474   3.811   4.460   2.644
    1C        C  475   3.938   4.399   2.641
    1C        C  476   3.744   4.486   2.766
    1C        C  477   3.814   4.462   2.886
    1C        C  478   3.606   4.509   3.010
    1C        C  479   3.746   4.486   3.008
    1C        C  480   3.535   4.517   3.132
    1C        C  481   3.607   4.510   3.253
    1C        C  482   3.395   4.530   3.374
    1C        C  483   3.536   4.528   3.374
    1C        C  484   3.327   4.525   3.498
    1C        C  485   3.398   4.533   3.620
    1C        C  486   3.188   4.507   3.745
    1C        C  487   3.327   4.532   3.743
    1C        C  488   3.124   4.486   3.869
    1C        C  489   3.193   4.500   3.992
    1C        C  490   2.999   4.420   4.114
    1C        C  491   3.128   4.478   4.115
    1C        C  492   2.937   4.391   4.238
    1C        C  493   2.998   4.430   4.360
    1C        C  494   2.829   4.304   4.482
    1C        C  495   2.936   4.397   4.482
    1C        C  496   2.770   4.259   4.602
    1C        C  497   2.817   4.316   4.722
    1C        C  498   2.664   4.168   4.842
    1C        C  499   2.752   4.279   4.842
    1C        C  500   2.600   4.117   4.956
    1C        C  501   4.005   4.355   2.042
    1C        C  502   3.815   4.460   2.158
    1C        C  503   3.945   4.407   2.158
    1C        C  504   3.744   4.473   2.279
    1C        C  505   3.812   4.449   2.401
    1C        C  506   3.605   4.508   2.523
    1C        C  507   3.743   4.476   2.521
    1C        C  508   3.533   4.519   2.644
    1C        C  509   3.605   4.511   2.765
    1C        C  510   3.395   4.519   2.885
    1C        C  511   3.536   4.514   2.888
    1C        C  512   3.324   4.519   3.007
    1C        C  513   3.394   4.529   3.129
    1C        C  514   3.186   4.496   3.254
    1C        C  515   3.324   4.527   3.252
    1C        C  516   3.121   4.473   3.377
    1C        C  517   3.188   4.497   3.499
    1C        C  518   2.999   4.412   3.623
    1C        C  519   3.123   4.479   3.623
    1C        C  520   2.940   4.375   3.745
    1C        C  521   3.001   4.415   3.866
    1C        C  522   2.839   4.285   3.996
    1C        C  523   2.945   4.378   3.991
    1C        C  524   2.788   4.239   4.119
    1C        C  525   2.831   4.298   4.240
    1C        C  526   2.695   4.134   4.362
    1C        C  527   2.782   4.246   4.362
    1C        C  528   2.653   4.079   4.485
    1C        C  529   2.685   4.146   4.605
    1C        C  530   2.580   3.963   4.731
    1C        C  531   2.635   4.093   4.726
    1C        C  532   2.538   3.903   4.853
    1C        C  533   2.530   3.995   4.962
    1C        C  534   3.618   4.554   2.044
    1C        C  535   3.750   4.508   2.043
    1C        C  536   3.535   4.529   2.158
    1C        C  537   3.604   4.503   2.279
    1C        C  538   3.393   4.519   2.400
    1C        C  539   3.534   4.513   2.401
    1C        C  540   3.322   4.510   2.522
    1C        C  541   3.392   4.515   2.645
    1C        C  542   3.180   4.486   2.767
    1C        C  543   3.319   4.513   2.766
    1C        C  544   3.117   4.463   2.891
    1C        C  545   3.187   4.486   3.012
    1C        C  546   2.989   4.409   3.135
    1C        C  547   3.117   4.470   3.134
    1C        C  548   2.931   4.373   3.258
    1C        C  549   2.995   4.408   3.379
    1C        C  550   2.826   4.284   3.503
    1C        C  551   2.936   4.373   3.502
    1C        C  552   2.777   4.237   3.627
    1C        C  553   2.831   4.285   3.748
    1C        C  554   2.705   4.122   3.874
    1C        C  555   2.788   4.236   3.874
    1C        C  556   2.666   4.062   3.996
    1C        C  557   2.703   4.126   4.116
    1C        C  558   2.608   3.940   4.246
    1C        C  559   2.669   4.068   4.240
    1C        C  560   2.577   3.878   4.369
    1C        C  561   2.595   3.950   4.489
    1C        C  562   2.530   3.751   4.614
    1C        C  563   2.567   3.887   4.612
    1C        C  564   2.517   3.682   4.737
    1C        C  565   2.521   3.761   4.855
    1C        C  566   2.526   3.549   4.979
    1C        C  567   2.516   3.687   4.975
    1C        C  568   3.328   4.476   2.039
    1C        C  569   3.393   4.515   2.157
    1C        C  570   3.185   4.473   2.280
    1C        C  571   3.321   4.516   2.279
    1C        C  572   3.116   4.455   2.401
    1C        C  573   3.183   4.484   2.522
    1C        C  574   2.986   4.407   2.647
    1C        C  575   3.114   4.467   2.644
    1C        C  576   2.928   4.367   2.770
    1C        C  577   2.989   4.403   2.892
    1C        C  578   2.823   4.274   3.016
    1C        C  579   2.927   4.369   3.014
    1C        C  580   2.774   4.225   3.139
    1C        C  581   2.823   4.282   3.259
    1C        C  582   2.695   4.114   3.384
    1C        C  583   2.779   4.229   3.382
    1C        C  584   2.665   4.055   3.509
    1C        C  585   2.700   4.118   3.630
    1C        C  586   2.602   3.934   3.756
    1C        C  587   2.664   4.060   3.754
    1C        C  588   2.574   3.870   3.879
    1C        C  589   2.604   3.935   4.001
    1C        C  590   2.547   3.735   4.127
    1C        C  591   2.585   3.871   4.125
    1C        C  592   2.528   3.671   4.252
    1C        C  593   2.543   3.741   4.374
    1C        C  594   2.514   3.532   4.499
    1C        C  595   2.525   3.673   4.496
    1C        C  596   2.518   3.464   4.622
    1C        C  597   2.517   3.540   4.741
    1C        C  598   2.527   3.329   4.862
    1C        C  599   2.531   3.470   4.863
    1C        C  600   2.532   3.250   4.978
    1C        C  601   3.195   4.441   2.044
    1C        C  602   2.982   4.391   2.161
    1C        C  603   3.116   4.442   2.160
    1C        C  604   2.921   4.359   2.285
    1C        C  605   2.986   4.400   2.404
    1C        C  606   2.819   4.271   2.529
    1C        C  607   2.925   4.365   2.526
    1C        C  608   2.769   4.221   2.651
    1C        C  609   2.821   4.275   2.771
    1C        C  610   2.684   4.114   2.896
    1C        C  611   2.774   4.223   2.893
    1C        C  612   2.647   4.053   3.018
    1C        C  613   2.690   4.112   3.140
    1C        C  614   2.599   3.924   3.266
    1C        C  615   2.654   4.054   3.263
    1C        C  616   2.578   3.860   3.391
    1C        C  617   2.606   3.926   3.513
    1C        C  618   2.537   3.729   3.637
    1C        C  619   2.575   3.864   3.636
    1C        C  620   2.523   3.663   3.761
    1C        C  621   2.535   3.734   3.882
    1C        C  622   2.514   3.525   4.011
    1C        C  623   2.531   3.666   4.005
    1C        C  624   2.517   3.455   4.134
    1C        C  625   2.516   3.530   4.253
    1C        C  626   2.531   3.321   4.380
    1C        C  627   2.513   3.461   4.377
    1C        C  628   2.554   3.252   4.501
    1C        C  629   2.540   3.324   4.621
    1C        C  630   2.593   3.120   4.742
    1C        C  631   2.550   3.255   4.744
    1C        C  632   2.615   3.048   4.863
    1C        C  633   2.557   3.112   4.977
    1C        C  634   2.778   4.310   2.056
    1C        C  635   2.889   4.396   2.053
    1C        C  636   2.741   4.236   2.168
    1C        C  637   2.808   4.272   2.287
    1C        C  638   2.674   4.110   2.412
    1C        C  639   2.762   4.220   2.410
    1C        C  640   2.635   4.052   2.534
    1C        C  641   2.682   4.110   2.654
    1C        C  642   2.587   3.921   2.776
    1C        C  643   2.644   4.050   2.777
    1C        C  644   2.566   3.855   2.899
    1C        C  645   2.589   3.924   3.020
    1C        C  646   2.529   3.724   3.150
    1C        C  647   2.568   3.860   3.144
    1C        C  648   2.513   3.655   3.272
    1C        C  649   2.534   3.726   3.392
    1C        C  650   2.510   3.518   3.519
    1C        C  651   2.524   3.658   3.515
    1C        C  652   2.512   3.450   3.644
    1C        C  653   2.510   3.522   3.765
    1C        C  654   2.537   3.315   3.889
    1C        C  655   2.516   3.454   3.889
    1C        C  656   2.556   3.248   4.012
    1C        C  657   2.541   3.316   4.136
    1C        C  658   2.600   3.118   4.258
    1C        C  659   2.545   3.249   4.260
    1C        C  660   2.636   3.057   4.380
    1C        C  661   2.603   3.120   4.503
    1C        C  662   2.714   2.938   4.626
    1C        C  663   2.632   3.053   4.624
    1C        C  664   2.756   2.878   4.747
    1C        C  665   2.700   2.932   4.866
    1C        C  666   2.746   2.872   4.984
    1C        C  667   2.684   4.026   2.058
    1C        C  668   2.680   4.108   2.171
    1C        C  669   2.590   3.912   2.292
    1C        C  670   2.643   4.044   2.291
    1C        C  671   2.558   3.847   2.413
    1C        C  672   2.579   3.922   2.531
    1C        C  673   2.522   3.719   2.660
    1C        C  674   2.558   3.855   2.654
    1C        C  675   2.509   3.649   2.782
    1C        C  676   2.527   3.720   2.903
    1C        C  677   2.510   3.513   3.030
    1C        C  678   2.517   3.654   3.028
    1C        C  679   2.510   3.441   3.152
    1C        C  680   2.504   3.514   3.273
    1C        C  681   2.531   3.308   3.401
    1C        C  682   2.505   3.447   3.397
    1C        C  683   2.545   3.239   3.524
    1C        C  684   2.528   3.310   3.645
    1C        C  685   2.594   3.110   3.771
    1C        C  686   2.545   3.242   3.768
    1C        C  687   2.630   3.049   3.893
    1C        C  688   2.603   3.115   4.015
    1C        C  689   2.708   2.933   4.139
    1C        C  690   2.629   3.051   4.138
    1C        C  691   2.753   2.878   4.261
    1C        C  692   2.712   2.938   4.382
    1C        C  693   2.757   2.882   4.504
    1C        C  694   2.626   3.898   2.058
    1C        C  695   2.525   3.705   2.178
    1C        C  696   2.575   3.837   2.173
    1C        C  697   2.509   3.636   2.300
    1C        C  698   2.524   3.710   2.419
    1C        C  699   2.490   3.503   2.542
    1C        C  700   2.504   3.643   2.542
    1C        C  701   2.502   3.436   2.666
    1C        C  702   2.501   3.508   2.787
    1C        C  703   2.530   3.300   2.910
    1C        C  704   2.503   3.438   2.910
    1C        C  705   2.550   3.233   3.033
    1C        C  706   2.531   3.301   3.155
    1C        C  707   2.599   3.106   3.282
    1C        C  708   2.549   3.238   3.280
    1C        C  709   2.629   3.042   3.404
    1C        C  710   2.601   3.109   3.525
    1C        C  711   2.710   2.931   3.651
    1C        C  712   2.631   3.048   3.650
    1C        C  713   2.753   2.876   3.774
    1C        C  714   2.709   2.932   3.896
    1C        C  715   2.752   2.875   4.019
    1C        C  716   2.446   3.500   2.065
    1C        C  717   2.492   3.633   2.062
    1C        C  718   2.472   3.420   2.180
    1C        C  719   2.484   3.496   2.300
    1C        C  720   2.518   3.289   2.424
    1C        C  721   2.487   3.427   2.423
    1C        C  722   2.539   3.223   2.547
    1C        C  723   2.527   3.297   2.667
    1C        C  724   2.595   3.096   2.793
    1C        C  725   2.543   3.228   2.789
    1C        C  726   2.622   3.030   2.915
    1C        C  727   2.593   3.098   3.035
    1C        C  728   2.707   2.925   3.161
    1C        C  729   2.628   3.041   3.160
    1C        C  730   2.749   2.868   3.283
    1C        C  731   2.706   2.924   3.406
    1C        C  732   2.755   2.875   3.529
    1C        C  733   2.489   3.195   2.071
    1C        C  734   2.486   3.277   2.184
    1C        C  735   2.588   3.086   2.305
    1C        C  736   2.526   3.214   2.305
    1C        C  737   2.616   3.021   2.427
    1C        C  738   2.586   3.090   2.546
    1C        C  739   2.701   2.915   2.672
    1C        C  740   2.625   3.034   2.670
    1C        C  741   2.742   2.857   2.794
    1C        C  742   2.702   2.913   2.917
    1C        C  743   2.749   2.863   3.040
    1C        C  744   2.552   3.071   2.072
    1C        C  745   2.688   2.896   2.185
    1C        C  746   2.615   3.017   2.184
    1C        C  747   2.734   2.843   2.308
    1C        C  748   2.695   2.904   2.429
    1C        C  749   2.744   2.853   2.552
    1C        C  750   2.737   2.842   2.066
    1C        C  751   3.662   2.316   1.978
    1C        O  752   3.670   2.194   2.007
    1C        O  753   3.678   2.335   1.840
    1C        C  754   4.643   3.057   1.991
    1C        O  755   4.633   3.021   1.871
    1C        O  756   4.744   2.985   2.058
    1C        C  757   4.416   4.218   1.945
    1C        O  758   4.488   4.321   1.958
    1C        O  759   4.383   4.204   1.810
    1C        C  760   3.591   4.651   1.935
    1C        O  761   3.570   4.774   1.951
    1C        O  762   3.535   4.601   1.817
    1C        C  763   2.863   4.523   1.982
    1C        O  764   2.878   4.527   1.857
    1C        O  765   2.771   4.612   2.040
    1C        C  766   2.319   3.486   1.991
    1C        O  767   2.314   3.423   1.882
    1C        O  768   2.192   3.527   2.036
    1C        C  769   4.705   3.597   5.047
    1C        O  770   4.691   3.567   5.168
    1C        O  771   4.840   3.621   5.016
    1C        C  772   4.269   4.480   5.025
    1C        O  773   4.300   4.444   5.142
    1C        O  774   4.316   4.607   4.990
    1C        C  775   4.148   2.517   5.066
    1C        O  776   4.199   2.409   5.023
    1C        O  777   4.128   2.523   5.204
    1C        C  778   2.881   4.547   5.048
    1C        O  779   2.834   4.655   5.002
    1C        O  780   2.901   4.534   5.186
    1C        C  781   2.505   3.057   5.104
    1C        O  782   2.452   2.942   5.105
    1C        O  783   2.562   3.083   5.227
    1C        C  784   2.425   4.007   5.066
    1C        O  785   2.303   3.977   5.060
    1C        O  786   2.457   4.000   5.202
    1C        C  787   2.935   2.411   2.033
    1C        O  788   2.916   2.400   1.909
    1C        O  789   2.859   2.334   2.121
    1C        C  790   3.184   2.382   5.075
    1C        O  791   3.173   2.261   5.042
    1C        O  792   3.162   2.398   5.213
    1C        H  793   4.280   3.020   5.063
    1C        H  794   4.133   2.840   5.048
    1C        H  795   4.505   3.125   5.053
    1C        H  796   4.517   3.367   5.070
    1C        H  797   4.566   3.817   5.045
    1C        H  798   4.358   3.951   5.042
    1C        H  799   4.290   4.183   5.050
    1C        H  800   4.044   4.562   5.013
    1C        H  801   3.819   4.635   5.013
    1C        H  802   3.596   4.670   5.014
    1C        H  803   3.402   4.484   5.036
    1C        H  804   3.154   4.503   5.051
    1C        H  805   3.877   2.526   5.075
    1C        H  806   3.672   2.425   5.064
    1C        H  807   3.001   2.567   5.071
    1C        H  808   3.442   2.479   5.078
    1C        H  809   2.824   2.704   5.066
    1C        H  810   2.742   2.930   5.073
    1C        H  811   2.516   3.298   5.072
    1C        H  812   2.507   3.505   5.075
    1C        H  813   2.518   3.732   5.072
    1C        H  814   2.588   4.184   5.038
    1C        H  815   2.783   4.293   5.050
    1C        H  816   2.720   2.891   1.972
    1C        H  817   2.871   2.708   1.973
    1C        H  818   3.207   2.427   1.991
    1C        H  819   3.431   2.448   1.976
    1C        H  820   3.837   2.539   1.974
    1C        H  821   4.064   2.611   1.970
    1C        H  822   4.263   2.713   1.976
    1C        H  823   4.400   2.907   1.970
    1C        H  824   4.593   3.307   1.974
    1C        H  825   4.457   3.516   1.977
    1C        H  826   4.584   3.743   1.984
    1C        H  827   3.800   4.503   1.948
    1C        H  828   3.967   4.376   1.945
    1C        H  829   4.146   4.223   1.954
    1C        H  830   4.461   3.952   1.951
    1C        H  831   2.592   3.861   1.964
    1C        H  832   2.771   4.034   1.996
    1C        H  833   2.740   4.286   1.958
    1C        H  834   3.375   4.492   1.944
    1C        H  835   3.157   4.392   1.956
    1C        H  836   2.506   2.999   2.006
    1C        H  837   2.470   3.235   1.974
    1C        H  838   2.511   3.678   1.967
    2V3OU   H29  839   2.801   3.548   5.108
    2V3OU   C27  840   2.783   3.502   5.209
    2V3OU   H27  841   2.724   3.576   5.269
    2V3OU   H28  842   2.727   3.405   5.205
    2V3OU   O11  843   2.906   3.478   5.278
    2V3OU   C15  844   2.917   3.400   5.391
    2V3OU   C13  845   3.048   3.374   5.435
    2V3OU   C14  846   3.078   3.266   5.521
    2V3OU   C16  847   2.974   3.187   5.566
    2V3OU    H6  848   2.992   3.109   5.642
    2V3OU   C12  849   3.217   3.233   5.558
    2V3OU    O2  850   3.244   3.134   5.629
    2V3OU   C10  851   3.329   3.307   5.498
    2V3OU    C8  852   3.459   3.267   5.525
    2V3OU   O10  853   3.490   3.142   5.569
    2V3OU   H26  854   3.400   3.112   5.591
    2V3OU    C6  855   3.563   3.347   5.469
    2V3OU    C5  856   3.539   3.465   5.399
    2V3OU    C4  857   3.702   3.292   5.468
    2V3OU    H4  858   3.726   3.221   5.554
    2V3OU    H5  859   3.708   3.224   5.378
    2V3OU    C2  860   3.813   3.396   5.467
    2V3OU    O6  861   3.804   3.474   5.587
    2V3OU   H21  862   3.768   3.557   5.553
    2V3OU    C3  863   3.782   3.497   5.357
    2V3OU    H2  864   3.867   3.571   5.351
    2V3OU    H3  865   3.780   3.444   5.258
    2V3OU   C25  866   3.949   3.329   5.445
    2V3OU    O7  867   3.996   3.300   5.335
    2V3OU   C26  868   4.025   3.290   5.571
    2V3OU   H22  869   4.066   3.386   5.611
    2V3OU   H23  870   4.115   3.230   5.543
    2V3OU    O8  871   3.955   3.211   5.665
    2V3OU   H24  872   3.916   3.264   5.737
    2V3OU    C1  873   3.648   3.565   5.378
    2V3OU    H1  874   3.622   3.623   5.284
    2V3OU    O3  875   3.662   3.655   5.488
    2V3OU   C19  876   3.619   3.791   5.483
    2V3OU    H9  877   3.526   3.805   5.421
    2V3OU    O4  878   3.713   3.850   5.395
    2V3OU   C20  879   3.844   3.870   5.450
    2V3OU   H10  880   3.896   3.774   5.478
    2V3OU   C24  881   3.611   3.858   5.621
    2V3OU   H16  882   3.544   3.796   5.686
    2V3OU   H17  883   3.565   3.959   5.611
    2V3OU   C23  884   3.748   3.875   5.687
    2V3OU   H15  885   3.788   3.771   5.712
    2V3OU    N1  886   3.735   3.957   5.805
    2V3OU   H19  887   3.813   3.922   5.857
    2V3OU   H20  888   3.650   3.922   5.844
    2V3OU   C21  889   3.846   3.941   5.585
    2V3OU   H11  890   3.951   3.921   5.621
    2V3OU    O5  891   3.827   4.082   5.587
    2V3OU   H18  892   3.782   4.102   5.671
    2V3OU   C22  893   3.910   3.950   5.339
    2V3OU   H12  894   3.862   4.051   5.333
    2V3OU   H13  895   3.902   3.895   5.242
    2V3OU   H14  896   4.020   3.960   5.359
    2V3OU   C11  897   3.161   3.466   5.416
    2V3OU    O1  898   3.138   3.587   5.399
    2V3OU    C9  899   3.302   3.420   5.416
    2V3OU    C7  900   3.404   3.501   5.368
    2V3OU    O9  901   3.384   3.622   5.305
    2V3OU   H25  902   3.290   3.637   5.323
    2V3OU   C17  903   2.816   3.314   5.438
    2V3OU    H7  904   2.712   3.344   5.418
    2V3OU   C18  905   2.843   3.209   5.524
    2V3OU    H8  906   2.757   3.151   5.563
    3SOL     OW  907   4.164   3.395   3.864
    3SOL    HW1  908   4.086   3.333   3.850
    3SOL    HW2  909   4.216   3.366   3.943
    4SOL     OW  910   7.003   0.124   0.357
    4SOL    HW1  911   6.949   0.098   0.438
    4SOL    HW2  912   0.075   0.100   0.373
    5SOL     OW  913   5.227   2.103   1.062
    5SOL    HW1  914   5.274   2.022   1.096
    5SOL    HW2  915   5.249   2.181   1.120
    6SOL     OW  916   5.398   0.805   2.480
    6SOL    HW1  917   5.412   0.723   2.425
    6SOL    HW2  918   5.456   0.800   2.562
    7SOL     OW  919   1.191   4.465   4.607
    7SOL    HW1  920   1.139   4.439   4.526
    7SOL    HW2  921   1.245   4.387   4.639
    8SOL     OW  922   1.493   3.590   5.190
    8SOL    HW1  923   1.525   3.510   5.241
    8SOL    HW2  924   1.564   3.660   5.189
    9SOL     OW  925   0.116   0.791   6.475
    9SOL    HW1  926   0.161   0.756   6.393
    9SOL    HW2  927   0.114   0.891   6.472
   10SOL     OW  928   5.042   4.701   2.431
   10SOL    HW1  929   5.130   4.656   2.412
   10SOL    HW2  930   5.035   4.784   2.376
   11SOL     OW  931   2.465   2.184   0.272
   11SOL    HW1  932   2.540   2.132   0.313
   11SOL    HW2  933   2.380   2.166   0.322
   12SOL     OW  934   3.526   4.911   3.256
   12SOL    HW1  935   3.443   4.964   3.238
   12SOL    HW2  936   3.521   4.870   3.347
   13SOL     OW  937   5.548   6.218   1.437
   13SOL    HW1  938   5.509   6.127   1.452
   13SOL    HW2  939   5.539   6.273   1.520
   14SOL     OW  940   4.763   5.519   5.188
   14SOL    HW1  941   4.773   5.438   5.131
   14SOL    HW2  942   4.845   5.577   5.178
   15SOL     OW  943   0.195   6.589   6.170
   15SOL    HW1  944   0.170   6.531   6.092
   15SOL    HW2  945   0.283   6.633   6.152
   16SOL     OW  946   1.481   4.411   4.917
   16SOL    HW1  947   1.554   4.394   4.850
   16SOL    HW2  948   1.482   4.507   4.943
   17SOL     OW  949   6.787   2.055   5.094
   17SOL    HW1  950   6.846   2.042   5.174
   17SOL    HW2  951   6.761   1.966   5.057
   18SOL     OW  952   2.148   1.170   5.932
   18SOL    HW1  953   2.099   1.227   5.998
   18SOL    HW2  954   2.183   1.227   5.857
   19SOL     OW  955   2.564   0.199   3.156
   19SOL    HW1  956   2.623   0.132   3.200
   19SOL    HW2  957   2.617   0.281   3.134
   20SOL     OW  958   6.712   1.709   5.542
   20SOL    HW1  959   6.745   1.687   5.450
   20SOL    HW2  960   6.700   1.625   5.594
   21SOL     OW  961   2.943   4.909   3.233
   21SOL    HW1  962   2.925   5.000   3.270
   21SOL    HW2  963   2.967   4.847   3.308
   22SOL     OW  964   1.503   0.513   6.368
   22SOL    HW1  965   1.483   0.497   6.465
   22SOL    HW2  966   1.499   0.611   6.349
   23SOL     OW  967   6.043   4.649   1.450
   23SOL    HW1  968   5.951   4.611   1.441
   23SOL    HW2  969   6.049   4.704   1.533
   24SOL     OW  970   4.443   0.718   0.607
   24SOL    HW1  971   4.533   0.675   0.606
   24SOL    HW2  972   4.450   0.812   0.574
   25SOL     OW  973   1.444   0.882   4.610
   25SOL    HW1  974   1.422   0.811   4.676
   25SOL    HW2  975   1.367   0.945   4.602
   26SOL     OW  976   1.238   3.103   0.086
   26SOL    HW1  977   1.258   3.043   0.009
   26SOL    HW2  978   1.162   3.066   0.139
   27SOL     OW  979   5.948   1.216   1.071
   27SOL    HW1  980   6.020   1.214   1.140
   27SOL    HW2  981   5.944   1.307   1.030
   28SOL     OW  982   2.498   1.003   5.411
   28SOL    HW1  983   2.534   1.010   5.504
   28SOL    HW2  984   2.570   1.027   5.346
   29SOL     OW  985   0.638   0.328   1.056
   29SOL    HW1  986   0.547   0.311   1.093
   29SOL    HW2  987   0.698   0.361   1.128
   30SOL     OW  988   4.628   0.328   4.806
   30SOL    HW1  989   4.538   0.286   4.805
   30SOL    HW2  990   4.644   0.373   4.894
   31SOL     OW  991   1.213   3.540   5.621
   31SOL    HW1  992   1.235   3.547   5.523
   31SOL    HW2  993   1.294   3.510   5.671
   32SOL     OW  994   3.028   0.430   1.261
   32SOL    HW1  995   3.012   0.347   1.208
   32SOL    HW2  996   3.087   0.492   1.209
   33SOL     OW  997   1.238   5.064   6.440
   33SOL    HW1  998   1.154   5.109   6.411
   33SOL    HW2  999   1.243   5.065   6.540
   34SOL     OW 1000   2.133   4.904   5.699
   34SOL    HW1 1001   2.194   4.826   5.680
   34SOL    HW2 1002   2.179   4.989   5.673
   35SOL     OW 1003   2.531   3.552   6.897
   35SOL    HW1 1004   2.607   3.607   6.861
   35SOL    HW2 1005   2.491   3.498   6.823
   36SOL     OW 1006   4.249   1.023   4.152
   36SOL    HW1 1007   4.206   1.048   4.239
   36SOL    HW2 1008   4.275   0.927   4.154
   37SOL     OW 1009   2.855   0.463   4.345
   37SOL    HW1 1010   2.881   0.399   4.274
   37SOL    HW2 1011   2.791   0.419   4.408
   38SOL     OW 1012   0.092   4.213   2.866
   38SOL    HW1 1013   0.011   4.222   2.924
   38SOL    HW2 1014   0.099   4.119   2.833
   39SOL     OW 1015   6.808   5.314   0.068
   39SOL    HW1 1016   6.906   5.312   0.085
   39SOL    HW2 1017   6.767   5.228   0.096
   40SOL     OW 1018   3.783   1.152   6.773
   40SOL    HW1 1019   3.799   1.054   6.788
   40SOL    HW2 1020   3.751   1.166   6.680
   41SOL     OW 1021   5.446   3.759   1.655
   41SOL    HW1 1022   5.476   3.734   1.563
   41SOL    HW2 1023   5.512   3.822   1.696
   42SOL     OW 1024   2.797   5.532   6.134
   42SOL    HW1 1025   2.707   5.501   6.104
   42SOL    HW2 1026   2.792   5.560   6.230
   43SOL     OW 1027   3.893   6.925   4.819
   43SOL    HW1 1028   3.990   6.903   4.826
   43SOL    HW2 1029   3.881   0.001   4.814
   44SOL     OW 1030   7.020   0.893   5.779
   44SOL    HW1 1031   6.924   0.892   5.754
   44SOL    HW2 1032   0.020   0.808   5.826
   45SOL     OW 1033   2.318   5.346   0.125
   45SOL    HW1 1034   2.292   5.442   0.115
   45SOL    HW2 1035   2.417   5.338   0.121
   46SOL     OW 1036   0.461   3.108   4.408
   46SOL    HW1 1037   0.447   3.126   4.311
   46SOL    HW2 1038   0.541   3.158   4.441
   47SOL     OW 1039   6.201   2.829   1.017
   47SOL    HW1 1040   6.286   2.819   1.068
   47SOL    HW2 1041   6.161   2.918   1.035
   48SOL     OW 1042   6.211   3.510   1.032
   48SOL    HW1 1043   6.137   3.566   0.994
   48SOL    HW2 1044   6.294   3.566   1.041
   49SOL     OW 1045   3.990   4.035   0.316
   49SOL    HW1 1046   4.018   4.051   0.410
   49SOL    HW2 1047   4.019   3.943   0.287
   50SOL     OW 1048   6.391   3.025   6.894
   50SOL    HW1 1049   6.342   2.939   6.907
   50SOL    HW2 1050   6.395   3.075   6.980
   51SOL     OW 1051   2.282   5.763   3.203
   51SOL    HW1 1052   2.226   5.820   3.143
   51SOL    HW2 1053   2.348   5.712   3.149
   52SOL     OW 1054   6.019   2.410   1.271
   52SOL    HW1 1055   5.998   2.394   1.174
   52SOL    HW2 1056   5.934   2.433   1.320
   53SOL     OW 1057   3.951   0.167   2.165
   53SOL    HW1 1058   4.021   0.156   2.095
   53SOL    HW2 1059   3.922   0.262   2.171
   54SOL     OW 1060   5.551   0.293   6.607
   54SOL    HW1 1061   5.625   0.351   6.641
   54SOL    HW2 1062   5.525   0.323   6.516
   55SOL     OW 1063   1.052   3.013   6.684
   55SOL    HW1 1064   1.010   3.060   6.762
   55SOL    HW2 1065   1.117   2.944   6.717
   56SOL     OW 1066   0.905   2.777   6.885
   56SOL    HW1 1067   0.953   2.763   6.972
   56SOL    HW2 1068   0.863   2.867   6.884
   57SOL     OW 1069   4.286   6.166   6.822
   57SOL    HW1 1070   4.272   6.260   6.853
   57SOL    HW2 1071   4.249   6.156   6.729
   58SOL     OW 1072   0.686   0.464   6.934
   58SOL    HW1 1073   0.603   0.476   6.989
   58SOL    HW2 1074   0.748   0.541   6.950
   59SOL     OW 1075   5.052   3.223   5.428
   59SOL    HW1 1076   4.988   3.168   5.374
   59SOL    HW2 1077   5.121   3.163   5.468
   60SOL     OW 1078   5.362   1.026   2.790
   60SOL    HW1 1079   5.365   0.965   2.869
   60SOL    HW2 1080   5.452   1.030   2.747
   61SOL     OW 1081   6.990   5.895   4.549
   61SOL    HW1 1082   6.989   5.995   4.548
   61SOL    HW2 1083   6.929   5.861   4.478
   62SOL     OW 1084   5.958   2.709   2.257
   62SOL    HW1 1085   5.980   2.804   2.278
   62SOL    HW2 1086   6.033   2.650   2.285
   63SOL     OW 1087   4.389   6.517   5.551
   63SOL    HW1 1088   4.371   6.528   5.649
   63SOL    HW2 1089   4.324   6.574   5.500
   64SOL     OW 1090   0.851   4.268   5.513
   64SOL    HW1 1091   0.858   4.217   5.599
   64SOL    HW2 1092   0.923   4.338   5.510
   65SOL     OW 1093   0.539   6.628   5.000
   65SOL    HW1 1094   0.473   6.702   5.014
   65SOL    HW2 1095   0.492   6.540   5.002
   66SOL     OW 1096   3.965   0.880   2.176
   66SOL    HW1 1097   3.896   0.951   2.165
   66SOL    HW2 1098   4.052   0.921   2.203
   67SOL     OW 1099   0.099   3.096   1.700
   67SOL    HW1 1100   0.151   3.079   1.616
   67SOL    HW2 1101   0.054   3.185   1.693
   68SOL     OW 1102   0.376   2.080   5.463
   68SOL    HW1 1103   0.447   2.082   5.533
   68SOL    HW2 1104   0.286   2.081   5.507
   69SOL     OW 1105   0.767   5.958   6.532
   69SOL    HW1 1106   0.810   5.935   6.445
   69SOL    HW2 1107   0.770   5.878   6.593
   70SOL     OW 1108   5.190   3.659   4.438
   70SOL    HW1 1109   5.205   3.613   4.351
   70SOL    HW2 1110   5.103   3.629   4.477
   71SOL     OW 1111   5.040   1.969   5.132
   71SOL    HW1 1112   5.075   1.899   5.195
   71SOL    HW2 1113   5.105   1.979   5.056
   72SOL     OW 1114   7.000   0.436   3.577
   72SOL    HW1 1115   6.951   0.362   3.623
   72SOL    HW2 1116   0.050   0.398   3.522
   73SOL     OW 1117   3.002   1.074   0.759
   73SOL    HW1 1118   3.035   1.006   0.694
   73SOL    HW2 1119   2.917   1.114   0.725
   74SOL     OW 1120   2.638   1.950   0.857
   74SOL    HW1 1121   2.548   1.921   0.889
   74SOL    HW2 1122   2.703   1.946   0.932
   75SOL     OW 1123   3.422   3.545   0.618
   75SOL    HW1 1124   3.454   3.469   0.675
   75SOL    HW2 1125   3.327   3.565   0.641
   76SOL     OW 1126   3.507   4.865   5.286
   76SOL    HW1 1127   3.445   4.857   5.364
   76SOL    HW2 1128   3.455   4.888   5.204
   77SOL     OW 1129   0.359   4.863   4.568
   77SOL    HW1 1130   0.442   4.875   4.623
   77SOL    HW2 1131   0.285   4.917   4.608
   78SOL     OW 1132   4.608   1.408   1.136
   78SOL    HW1 1133   4.575   1.332   1.078
   78SOL    HW2 1134   4.543   1.483   1.132
   79SOL     OW 1135   0.989   4.482   3.104
   79SOL    HW1 1136   1.025   4.427   3.028
   79SOL    HW2 1137   1.001   4.579   3.084
   80SOL     OW 1138   3.839   0.815   5.058
   80SOL    HW1 1139   3.811   0.901   5.017
   80SOL    HW2 1140   3.927   0.787   5.019
   81SOL     OW 1141   4.417   5.840   1.689
   81SOL    HW1 1142   4.363   5.775   1.635
   81SOL    HW2 1143   4.410   5.931   1.649
   82SOL     OW 1144   3.078   6.298   2.078
   82SOL    HW1 1145   3.024   6.222   2.115
   82SOL    HW2 1146   3.062   6.380   2.132
   83SOL     OW 1147   5.577   1.115   4.591
   83SOL    HW1 1148   5.605   1.071   4.506
   83SOL    HW2 1149   5.484   1.151   4.581
   84SOL     OW 1150   5.019   2.689   2.249
   84SOL    HW1 1151   5.079   2.618   2.212
   84SOL    HW2 1152   5.010   2.763   2.182
   85SOL     OW 1153   2.465   6.839   4.214
   85SOL    HW1 1154   2.378   6.858   4.261
   85SOL    HW2 1155   2.522   6.782   4.273
   86SOL     OW 1156   6.179   0.456   0.034
   86SOL    HW1 1157   6.269   0.413   0.042
   86SOL    HW2 1158   6.176   0.538   0.092
   87SOL     OW 1159   2.259   4.258   6.433
   87SOL    HW1 1160   2.252   4.161   6.409
   87SOL    HW2 1161   2.355   4.283   6.444
   88SOL     OW 1162   3.563   4.011   0.660
   88SOL    HW1 1163   3.618   3.992   0.578
   88SOL    HW2 1164   3.478   3.959   0.656
   89SOL     OW 1165   3.111   4.021   4.004
   89SOL    HW1 1166   3.208   4.037   3.984
   89SOL    HW2 1167   3.085   4.070   4.086
   90SOL     OW 1168   5.026   3.717   2.211
   90SOL    HW1 1169   5.080   3.669   2.142
   90SOL    HW2 1170   4.979   3.794   2.168
   91SOL     OW 1171   4.328   5.500   5.458
   91SOL    HW1 1172   4.231   5.490   5.436
   91SOL    HW2 1173   4.380   5.513   5.373
   92SOL     OW 1174   5.217   3.501   6.248
   92SOL    HW1 1175   5.160   3.473   6.325
   92SOL    HW2 1176   5.159   3.538   6.175
   93SOL     OW 1177   3.055   3.126   2.096
   93SOL    HW1 1178   3.063   3.224   2.074
   93SOL    HW2 1179   3.116   3.104   2.172
   94SOL     OW 1180   3.163   1.598   4.885
   94SOL    HW1 1181   3.140   1.557   4.797
   94SOL    HW2 1182   3.128   1.692   4.888
   95SOL     OW 1183   0.739   0.273   4.116
   95SOL    HW1 1184   0.800   0.262   4.195
   95SOL    HW2 1185   0.658   0.325   4.144
   96SOL     OW 1186   6.157   4.839   0.266
   96SOL    HW1 1187   6.188   4.915   0.209
   96SOL    HW2 1188   6.219   4.761   0.254
   97SOL     OW 1189   1.924   4.750   5.907
   97SOL    HW1 1190   1.916   4.849   5.891
   97SOL    HW2 1191   1.975   4.734   5.991
   98SOL     OW 1192   1.829   2.048   3.374
   98SOL    HW1 1193   1.835   1.948   3.366
   98SOL    HW2 1194   1.755   2.071   3.438
   99SOL     OW 1195   3.733   3.602   4.974
   99SOL    HW1 1196   3.733   3.689   5.023
   99SOL    HW2 1197   3.821   3.557   4.984
  100SOL     OW 1198   6.700   1.509   4.825
  100SOL    HW1 1199   6.791   1.484   4.858
  100SOL    HW2 1200   6.700   1.604   4.793
  101SOL     OW 1201   6.370   3.663   2.580
  101SOL    HW1 1202   6.448   3.690   2.523
  101SOL    HW2 1203   6.401   3.650   2.674
  102SOL     OW 1204   4.585   6.559   0.330
  102SOL    HW1 1205   4.613   6.504   0.251
  102SOL    HW2 1206   4.524   6.632   0.300
  103SOL     OW 1207   3.547   1.069   1.981
  103SOL    HW1 1208   3.566   0.999   1.912
  103SOL    HW2 1209   3.453   1.059   2.015
  104SOL     OW 1210   6.538   4.734   2.279
  104SOL    HW1 1211   6.468   4.705   2.343
  104SOL    HW2 1212   6.571   4.655   2.227
  105SOL     OW 1213   6.440   1.157   5.470
  105SOL    HW1 1214   6.417   1.067   5.432
  105SOL    HW2 1215   6.380   1.226   5.429
  106SOL     OW 1216   5.105   4.647   1.532
  106SOL    HW1 1217   5.129   4.551   1.525
  106SOL    HW2 1218   5.013   4.656   1.572
  107SOL     OW 1219   5.604   0.089   0.919
  107SOL    HW1 1220   5.545   0.091   1.000
  107SOL    HW2 1221   5.699   0.105   0.946
  108SOL     OW 1222   2.792   1.565   4.147
  108SOL    HW1 1223   2.768   1.662   4.155
  108SOL    HW2 1224   2.816   1.545   4.052
  109SOL     OW 1225   1.810   1.069   4.358
  109SOL    HW1 1226   1.744   0.994   4.358
  109SOL    HW2 1227   1.761   1.156   4.346
  110SOL     OW 1228   3.580   4.246   5.707
  110SOL    HW1 1229   3.516   4.206   5.773
  110SOL    HW2 1230   3.667   4.266   5.753
  111SOL     OW 1231   6.225   2.292   1.424
  111SOL    HW1 1232   6.150   2.244   1.469
  111SOL    HW2 1233   6.189   2.367   1.369
  112SOL     OW 1234   5.010   6.396   6.644
  112SOL    HW1 1235   5.025   6.307   6.601
  112SOL    HW2 1236   5.081   6.460   6.614
  113SOL     OW 1237   0.427   6.151   2.057
  113SOL    HW1 1238   0.380   6.186   1.976
  113SOL    HW2 1239   0.522   6.129   2.033
  114SOL     OW 1240   6.895   2.847   2.760
  114SOL    HW1 1241   6.908   2.805   2.850
  114SOL    HW2 1242   6.849   2.935   2.771
  115SOL     OW 1243   5.525   0.482   3.550
  115SOL    HW1 1244   5.458   0.537   3.499
  115SOL    HW2 1245   5.544   0.527   3.638
  116SOL     OW 1246   0.428   5.338   0.158
  116SOL    HW1 1247   0.355   5.400   0.130
  116SOL    HW2 1248   0.388   5.249   0.182
  117SOL     OW 1249   2.232   2.133   0.356
  117SOL    HW1 1250   2.158   2.147   0.290
  117SOL    HW2 1251   2.203   2.067   0.425
  118SOL     OW 1252   0.387   1.812   3.079
  118SOL    HW1 1253   0.376   1.812   3.178
  118SOL    HW2 1254   0.439   1.893   3.051
  119SOL     OW 1255   6.059   6.831   6.104
  119SOL    HW1 1256   6.086   6.921   6.073
  119SOL    HW2 1257   6.122   6.799   6.175
  120SOL     OW 1258   4.945   2.718   4.824
  120SOL    HW1 1259   4.929   2.627   4.863
  120SOL    HW2 1260   4.888   2.785   4.871
  121SOL     OW 1261   1.100   4.810   6.897
  121SOL    HW1 1262   1.180   4.753   6.912
  121SOL    HW2 1263   1.034   4.796   6.971
  122SOL     OW 1264   0.054   4.300   6.380
  122SOL    HW1 1265   6.985   4.334   6.401
  122SOL    HW2 1266   0.076   4.224   6.441
  123SOL     OW 1267   1.004   1.935   1.924
  123SOL    HW1 1268   0.986   2.013   1.864
  123SOL    HW2 1269   0.952   1.856   1.893
  124SOL     OW 1270   2.196   2.899   0.230
  124SOL    HW1 1271   2.097   2.916   0.232
  124SOL    HW2 1272   2.233   2.910   0.322
  125SOL     OW 1273   4.217   3.384   0.646
  125SOL    HW1 1274   4.273   3.338   0.577
  125SOL    HW2 1275   4.250   3.477   0.660
  126SOL     OW 1276   4.080   3.849   4.488
  126SOL    HW1 1277   4.010   3.919   4.505
  126SOL    HW2 1278   4.116   3.859   4.395
  127SOL     OW 1279   0.697   5.431   5.961
  127SOL    HW1 1280   0.611   5.389   5.929
  127SOL    HW2 1281   0.724   5.503   5.898
  128SOL     OW 1282   4.469   3.063   6.864
  128SOL    HW1 1283   4.505   2.973   6.840
  128SOL    HW2 1284   4.487   3.081   6.961
  129SOL     OW 1285   1.261   5.403   1.695
  129SOL    HW1 1286   1.192   5.475   1.684
  129SOL    HW2 1287   1.325   5.429   1.767
  130SOL     OW 1288   6.355   2.700   4.220
  130SOL    HW1 1289   6.383   2.771   4.155
  130SOL    HW2 1290   6.420   2.696   4.295
  131SOL     OW 1291   0.412   2.172   3.465
  131SOL    HW1 1292   0.416   2.259   3.515
  131SOL    HW2 1293   0.497   2.122   3.481
  132SOL     OW 1294   3.967   3.100   2.120
  132SOL    HW1 1295   3.914   3.185   2.120
  132SOL    HW2 1296   3.976   3.066   2.027
  133SOL     OW 1297   5.346   6.462   5.907
  133SOL    HW1 1298   5.338   6.467   5.807
  133SOL    HW2 1299   5.436   6.426   5.931
  134SOL     OW 1300   5.521   1.629   1.411
  134SOL    HW1 1301   5.598   1.589   1.361
  134SOL    HW2 1302   5.534   1.614   1.509
  135SOL     OW 1303   4.887   2.864   3.837
  135SOL    HW1 1304   4.878   2.954   3.881
  135SOL    HW2 1305   4.923   2.875   3.745
  136SOL     OW 1306   3.374   0.176   6.664
  136SOL    HW1 1307   3.306   0.163   6.592
  136SOL    HW2 1308   3.439   0.101   6.663
  137SOL     OW 1309   3.042   3.693   5.836
  137SOL    HW1 1310   3.088   3.611   5.867
  137SOL    HW2 1311   3.091   3.732   5.758
  138SOL     OW 1312   0.925   4.969   6.185
  138SOL    HW1 1313   0.948   4.892   6.124
  138SOL    HW2 1314   1.007   5.022   6.205
  139SOL     OW 1315   1.881   6.313   1.438
  139SOL    HW1 1316   1.967   6.262   1.432
  139SOL    HW2 1317   1.816   6.278   1.371
  140SOL     OW 1318   3.266   0.586   1.148
  140SOL    HW1 1319   3.232   0.680   1.148
  140SOL    HW2 1320   3.333   0.574   1.075
  141SOL     OW 1321   0.076   2.706   0.607
  141SOL    HW1 1322   0.138   2.718   0.529
  141SOL    HW2 1323   0.058   2.795   0.649
  142SOL     OW 1324   1.335   4.278   1.893
  142SOL    HW1 1325   1.425   4.298   1.856
  142SOL    HW2 1326   1.295   4.362   1.930
  143SOL     OW 1327   4.645   6.196   1.953
  143SOL    HW1 1328   4.735   6.153   1.948
  143SOL    HW2 1329   4.574   6.126   1.949
  144SOL     OW 1330   3.291   4.905   3.789
  144SOL    HW1 1331   3.363   4.945   3.847
  144SOL    HW2 1332   3.331   4.874   3.703
  145SOL     OW 1333   6.722   4.848   3.341
  145SOL    HW1 1334   6.801   4.854   3.402
  145SOL    HW2 1335   6.667   4.768   3.365
  146SOL     OW 1336   5.604   1.130   6.172
  146SOL    HW1 1337   5.626   1.112   6.076
  146SOL    HW2 1338   5.617   1.047   6.225
  147SOL     OW 1339   5.063   1.262   4.866
  147SOL    HW1 1340   5.083   1.302   4.955
  147SOL    HW2 1341   4.967   1.234   4.863
  148SOL     OW 1342   0.832   5.671   0.713
  148SOL    HW1 1343   0.838   5.626   0.802
  148SOL    HW2 1344   0.738   5.698   0.695
  149SOL     OW 1345   1.839   2.212   4.898
  149SOL    HW1 1346   1.906   2.245   4.831
  149SOL    HW2 1347   1.883   2.202   4.987
  150SOL     OW 1348   4.430   1.298   4.878
  150SOL    HW1 1349   4.420   1.199   4.866
  150SOL    HW2 1350   4.339   1.340   4.880
  151SOL     OW 1351   4.203   2.960   1.033
  151SOL    HW1 1352   4.127   2.896   1.040
  151SOL    HW2 1353   4.173   3.051   1.059
  152SOL     OW 1354   0.248   2.575   0.786
  152SOL    HW1 1355   0.294   2.488   0.770
  152SOL    HW2 1356   0.178   2.588   0.716
  153SOL     OW 1357   2.785   1.286   3.478
  153SOL    HW1 1358   2.805   1.384   3.482
  153SOL    HW2 1359   2.729   1.260   3.557
  154SOL     OW 1360   6.517   1.470   2.631
  154SOL    HW1 1361   6.562   1.387   2.665
  154SOL    HW2 1362   6.558   1.498   2.544
  155SOL     OW 1363   0.500   6.826   2.174
  155SOL    HW1 1364   0.424   6.890   2.164
  155SOL    HW2 1365   0.586   6.872   2.153
  156SOL     OW 1366   5.100   2.617   0.345
  156SOL    HW1 1367   5.041   2.687   0.384
  156SOL    HW2 1368   5.122   2.549   0.415
  157SOL     OW 1369   3.447   5.585   0.470
  157SOL    HW1 1370   3.520   5.612   0.532
  157SOL    HW2 1371   3.428   5.487   0.480
  158SOL     OW 1372   0.135   2.450   3.602
  158SOL    HW1 1373   0.096   2.378   3.545
  158SOL    HW2 1374   0.062   2.512   3.632
  159SOL     OW 1375   6.133   5.018   0.475
  159SOL    HW1 1376   6.077   5.010   0.557
  159SOL    HW2 1377   6.141   4.929   0.431
  160SOL     OW 1378   6.492   7.002   2.252
  160SOL    HW1 1379   6.579   6.987   2.205
  160SOL    HW2 1380   6.444   6.914   2.263
  161SOL     OW 1381   0.702   6.065   0.766
  161SOL    HW1 1382   0.799   6.049   0.781
  161SOL    HW2 1383   0.649   5.998   0.819
  162SOL     OW 1384   4.411   6.568   6.974
  162SOL    HW1 1385   4.458   6.493   7.020
  162SOL    HW2 1386   4.468   6.601   6.898
  163SOL     OW 1387   0.324   4.388   3.062
  163SOL    HW1 1388   0.375   4.474   3.052
  163SOL    HW2 1389   0.388   4.311   3.055
  164SOL     OW 1390   2.957   2.116   3.894
  164SOL    HW1 1391   3.021   2.133   3.970
  164SOL    HW2 1392   2.898   2.196   3.883
  165SOL     OW 1393   0.384   6.034   3.215
  165SOL    HW1 1394   0.431   5.945   3.211
  165SOL    HW2 1395   0.421   6.087   3.291
  166SOL     OW 1396   6.431   4.303   3.316
  166SOL    HW1 1397   6.443   4.245   3.396
  166SOL    HW2 1398   6.338   4.339   3.314
  167SOL     OW 1399   2.757   1.899   6.783
  167SOL    HW1 1400   2.682   1.856   6.833
  167SOL    HW2 1401   2.721   1.971   6.724
  168SOL     OW 1402   5.010   3.973   1.331
  168SOL    HW1 1403   5.092   3.934   1.373
  168SOL    HW2 1404   4.971   3.908   1.266
  169SOL     OW 1405   4.682   1.858   1.059
  169SOL    HW1 1406   4.636   1.845   1.147
  169SOL    HW2 1407   4.745   1.935   1.066
  170SOL     OW 1408   0.093   5.889   2.321
  170SOL    HW1 1409   0.109   5.987   2.313
  170SOL    HW2 1410   7.018   5.871   2.314
  171SOL     OW 1411   3.731   3.906   0.463
  171SOL    HW1 1412   3.747   4.004   0.449
  171SOL    HW2 1413   3.793   3.854   0.404
  172SOL     OW 1414   0.018   2.358   6.577
  172SOL    HW1 1415   0.060   2.270   6.598
  172SOL    HW2 1416   6.947   2.360   6.613
  173SOL     OW 1417   0.002   1.725   4.117
  173SOL    HW1 1418   6.931   1.691   4.121
  173SOL    HW2 1419   0.020   1.783   4.196
  174SOL     OW 1420   5.682   5.417   5.235
  174SOL    HW1 1421   5.649   5.512   5.235
  174SOL    HW2 1422   5.673   5.378   5.143
  175SOL     OW 1423   0.350   6.832   1.335
  175SOL    HW1 1424   0.392   6.781   1.410
  175SOL    HW2 1425   0.300   6.768   1.276
  176SOL     OW 1426   6.008   4.366   1.316
  176SOL    HW1 1427   5.940   4.304   1.356
  176SOL    HW2 1428   5.976   4.397   1.226
  177SOL     OW 1429   5.983   2.892   4.332
  177SOL    HW1 1430   5.944   2.904   4.240
  177SOL    HW2 1431   5.910   2.871   4.396
  178SOL     OW 1432   2.092   6.209   5.865
  178SOL    HW1 1433   1.993   6.218   5.879
  178SOL    HW2 1434   2.110   6.189   5.769
  179SOL     OW 1435   3.261   4.604   1.312
  179SOL    HW1 1436   3.181   4.662   1.296
  179SOL    HW2 1437   3.238   4.509   1.290
  180SOL     OW 1438   3.721   1.127   0.337
  180SOL    HW1 1439   3.663   1.048   0.317
  180SOL    HW2 1440   3.706   1.197   0.267
  181SOL     OW 1441   3.302   2.324   5.855
  181SOL    HW1 1442   3.311   2.225   5.854
  181SOL    HW2 1443   3.358   2.364   5.782
  182SOL     OW 1444   4.231   2.807   6.767
  182SOL    HW1 1445   4.329   2.802   6.790
  182SOL    HW2 1446   4.220   2.830   6.671
  183SOL     OW 1447   3.282   1.495   3.339
  183SOL    HW1 1448   3.373   1.460   3.359
  183SOL    HW2 1449   3.260   1.568   3.404
  184SOL     OW 1450   5.366   6.024   3.448
  184SOL    HW1 1451   5.345   6.111   3.404
  184SOL    HW2 1452   5.344   6.031   3.546
  185SOL     OW 1453   6.986   0.733   4.000
  185SOL    HW1 1454   7.014   0.638   4.017
  185SOL    HW2 1455   6.922   0.762   4.071
  186SOL     OW 1456   4.630   6.603   4.004
  186SOL    HW1 1457   4.686   6.522   3.986
  186SOL    HW2 1458   4.680   6.685   3.977
  187SOL     OW 1459   4.075   6.269   1.733
  187SOL    HW1 1460   4.054   6.292   1.828
  187SOL    HW2 1461   4.133   6.339   1.692
  188SOL     OW 1462   1.419   3.383   3.291
  188SOL    HW1 1463   1.461   3.473   3.301
  188SOL    HW2 1464   1.424   3.334   3.378
  189SOL     OW 1465   6.073   5.046   6.068
  189SOL    HW1 1466   6.134   5.076   6.141
  189SOL    HW2 1467   6.095   5.094   5.983
  190SOL     OW 1468   5.813   0.683   0.126
  190SOL    HW1 1469   5.863   0.770   0.129
  190SOL    HW2 1470   5.849   0.621   0.196
  191SOL     OW 1471   0.277   1.073   5.053
  191SOL    HW1 1472   0.336   1.146   5.019
  191SOL    HW2 1473   0.253   1.090   5.148
  192SOL     OW 1474   0.701   5.170   0.738
  192SOL    HW1 1475   0.681   5.259   0.779
  192SOL    HW2 1476   0.774   5.180   0.671
  193SOL     OW 1477   2.487   6.354   6.909
  193SOL    HW1 1478   2.499   6.390   7.001
  193SOL    HW2 1479   2.467   6.257   6.913
  194SOL     OW 1480   4.215   6.438   2.483
  194SOL    HW1 1481   4.301   6.401   2.519
  194SOL    HW2 1482   4.220   6.444   2.384
  195SOL     OW 1483   3.727   0.778   0.754
  195SOL    HW1 1484   3.686   0.869   0.755
  195SOL    HW2 1485   3.657   0.709   0.735
  196SOL     OW 1486   3.107   2.143   0.336
  196SOL    HW1 1487   3.033   2.118   0.274
  196SOL    HW2 1488   3.084   2.114   0.429
  197SOL     OW 1489   2.556   6.519   0.463
  197SOL    HW1 1490   2.590   6.515   0.557
  197SOL    HW2 1491   2.596   6.599   0.417
  198SOL     OW 1492   4.079   0.799   6.669
  198SOL    HW1 1493   4.112   0.716   6.623
  198SOL    HW2 1494   4.151   0.868   6.668
  199SOL     OW 1495   0.448   0.204   3.084
  199SOL    HW1 1496   0.387   0.138   3.127
  199SOL    HW2 1497   0.437   0.199   2.984
  200SOL     OW 1498   0.360   4.058   3.440
  200SOL    HW1 1499   0.276   4.095   3.401
  200SOL    HW2 1500   0.435   4.068   3.375
  201SOL     OW 1501   4.359   1.546   6.467
  201SOL    HW1 1502   4.447   1.529   6.512
  201SOL    HW2 1503   4.353   1.643   6.441
  202SOL     OW 1504   3.497   0.106   2.913
  202SOL    HW1 1505   3.578   0.154   2.879
  202SOL    HW2 1506   3.474   0.140   3.005
  203SOL     OW 1507   5.406   2.767   6.691
  203SOL    HW1 1508   5.321   2.714   6.695
  203SOL    HW2 1509   5.468   2.737   6.764
  204SOL     OW 1510   2.387   6.498   1.032
  204SOL    HW1 1511   2.298   6.494   1.078
  204SOL    HW2 1512   2.455   6.537   1.095
  205SOL     OW 1513   6.122   1.030   0.393
  205SOL    HW1 1514   6.146   1.114   0.442
  205SOL    HW2 1515   6.029   1.003   0.417
  206SOL     OW 1516   0.952   4.487   1.421
  206SOL    HW1 1517   1.012   4.555   1.464
  206SOL    HW2 1518   0.899   4.441   1.492
  207SOL     OW 1519   4.963   0.802   5.464
  207SOL    HW1 1520   4.923   0.863   5.395
  207SOL    HW2 1521   4.899   0.792   5.540
  208SOL     OW 1522   3.693   4.631   6.232
  208SOL    HW1 1523   3.611   4.678   6.266
  208SOL    HW2 1524   3.677   4.533   6.230
  209SOL     OW 1525   6.667   5.838   5.627
  209SOL    HW1 1526   6.664   5.933   5.658
  209SOL    HW2 1527   6.713   5.782   5.696
  210SOL     OW 1528   4.095   2.365   1.784
  210SOL    HW1 1529   4.091   2.398   1.690
  210SOL    HW2 1530   4.027   2.292   1.796
  211SOL     OW 1531   1.685   2.029   1.541
  211SOL    HW1 1532   1.733   1.959   1.488
  211SOL    HW2 1533   1.694   2.118   1.497
  212SOL     OW 1534   0.781   5.545   3.716
  212SOL    HW1 1535   0.688   5.553   3.679
  212SOL    HW2 1536   0.798   5.450   3.742
  213SOL     OW 1537   4.597   2.721   0.115
  213SOL    HW1 1538   4.630   2.677   0.031
  213SOL    HW2 1539   4.610   2.660   0.192
  214SOL     OW 1540   1.422   0.250   2.689
  214SOL    HW1 1541   1.520   0.269   2.689
  214SOL    HW2 1542   1.385   0.263   2.597
  215SOL     OW 1543   3.364   3.292   2.556
  215SOL    HW1 1544   3.412   3.358   2.498
  215SOL    HW2 1545   3.330   3.338   2.638
  216SOL     OW 1546   0.686   6.343   5.940
  216SOL    HW1 1547   0.648   6.329   5.849
  216SOL    HW2 1548   0.739   6.427   5.942
  217SOL     OW 1549   0.863   2.853   3.242
  217SOL    HW1 1550   0.898   2.762   3.218
  217SOL    HW2 1551   0.939   2.918   3.246
  218SOL     OW 1552   1.254   4.155   5.583
  218SOL    HW1 1553   1.314   4.205   5.645
  218SOL    HW2 1554   1.174   4.122   5.634
  219SOL     OW 1555   4.800   4.747   6.976
  219SOL    HW1 1556   4.841   4.800   6.902
  219SOL    HW2 1557   4.809   4.797   0.039
  220SOL     OW 1558   3.355   5.084   0.647
  220SOL    HW1 1559   3.331   5.118   0.739
  220SOL    HW2 1560   3.284   5.022   0.615
  221SOL     OW 1561   5.945   2.147   4.413
  221SOL    HW1 1562   5.882   2.073   4.388
  221SOL    HW2 1563   5.963   2.203   4.332
  222SOL     OW 1564   1.414   6.560   4.874
  222SOL    HW1 1565   1.398   6.463   4.893
  222SOL    HW2 1566   1.464   6.600   4.951
  223SOL     OW 1567   6.453   3.464   1.349
  223SOL    HW1 1568   6.416   3.540   1.402
  223SOL    HW2 1569   6.450   3.380   1.403
  224SOL     OW 1570   2.897   2.236   1.683
  224SOL    HW1 1571   2.897   2.300   1.760
  224SOL    HW2 1572   2.904   2.288   1.597
  225SOL     OW 1573   6.496   0.330   6.808
  225SOL    HW1 1574   6.416   0.274   6.784
  225SOL    HW2 1575   6.470   0.426   6.809
  226SOL     OW 1576   6.453   5.246   0.929
  226SOL    HW1 1577   6.545   5.247   0.967
  226SOL    HW2 1578   6.401   5.322   0.968
  227SOL     OW 1579   1.417   2.891   4.054
  227SOL    HW1 1580   1.515   2.908   4.067
  227SOL    HW2 1581   1.397   2.795   4.074
  228SOL     OW 1582   3.912   0.231   3.310
  228SOL    HW1 1583   3.822   0.217   3.269
  228SOL    HW2 1584   3.907   0.213   3.408
  229SOL     OW 1585   5.711   5.413   2.447
  229SOL    HW1 1586   5.647   5.419   2.524
  229SOL    HW2 1587   5.712   5.499   2.398
  230SOL     OW 1588   1.740   4.361   5.673
  230SOL    HW1 1589   1.717   4.428   5.602
  230SOL    HW2 1590   1.682   4.280   5.662
  231SOL     OW 1591   0.832   1.981   6.863
  231SOL    HW1 1592   0.800   1.976   6.768
  231SOL    HW2 1593   0.760   2.018   6.921
  232SOL     OW 1594   1.878   4.973   6.592
  232SOL    HW1 1595   1.964   4.962   6.542
  232SOL    HW2 1596   1.815   4.900   6.565
  233SOL     OW 1597   2.475   1.212   6.167
  233SOL    HW1 1598   2.470   1.131   6.108
  233SOL    HW2 1599   2.534   1.281   6.124
  234SOL     OW 1600   2.718   6.026   0.011
  234SOL    HW1 1601   2.705   5.997   6.939
  234SOL    HW2 1602   2.816   6.030   0.032
  235SOL     OW 1603   3.137   3.463   4.822
  235SOL    HW1 1604   3.117   3.367   4.841
  235SOL    HW2 1605   3.150   3.512   4.907
  236SOL     OW 1606   0.105   2.534   5.425
  236SOL    HW1 1607   0.201   2.514   5.404
  236SOL    HW2 1608   0.068   2.463   5.485
  237SOL     OW 1609   0.381   0.093   1.389
  237SOL    HW1 1610   0.378   7.018   1.369
  237SOL    HW2 1611   0.317   0.142   1.329
  238SOL     OW 1612   5.624   2.422   2.344
  238SOL    HW1 1613   5.568   2.423   2.262
  238SOL    HW2 1614   5.720   2.408   2.318
  239SOL     OW 1615   0.265   5.938   0.277
  239SOL    HW1 1616   0.349   5.906   0.320
  239SOL    HW2 1617   0.216   5.999   0.339
  240SOL     OW 1618   6.669   3.562   5.872
  240SOL    HW1 1619   6.713   3.594   5.789
  240SOL    HW2 1620   6.603   3.490   5.850
  241SOL     OW 1621   0.479   0.925   2.868
  241SOL    HW1 1622   0.479   1.024   2.875
  241SOL    HW2 1623   0.573   0.892   2.855
  242SOL     OW 1624   1.822   3.255   3.818
  242SOL    HW1 1625   1.905   3.310   3.819
  242SOL    HW2 1626   1.798   3.233   3.723
  243SOL     OW 1627   4.758   0.478   5.015
  243SOL    HW1 1628   4.741   0.573   5.040
  243SOL    HW2 1629   4.856   0.462   5.011
  244SOL     OW 1630   6.630   1.451   5.617
  244SOL    HW1 1631   6.643   1.398   5.533
  244SOL    HW2 1632   6.534   1.477   5.626
  245SOL     OW 1633   6.228   1.457   3.582
  245SOL    HW1 1634   6.261   1.456   3.677
  245SOL    HW2 1635   6.184   1.370   3.561
  246SOL     OW 1636   4.972   3.559   2.793
  246SOL    HW1 1637   5.069   3.546   2.774
  246SOL    HW2 1638   4.959   3.641   2.848
  247SOL     OW 1639   3.015   1.467   3.300
  247SOL    HW1 1640   3.110   1.492   3.317
  247SOL    HW2 1641   2.955   1.524   3.356
  248SOL     OW 1642   5.962   1.205   2.669
  248SOL    HW1 1643   6.058   1.230   2.681
  248SOL    HW2 1644   5.905   1.263   2.728
  249SOL     OW 1645   3.295   0.204   3.767
  249SOL    HW1 1646   3.200   0.235   3.755
  249SOL    HW2 1647   3.305   0.113   3.726
  250SOL     OW 1648   4.712   3.207   5.800
  250SOL    HW1 1649   4.808   3.201   5.827
  250SOL    HW2 1650   4.707   3.212   5.700
  251SOL     OW 1651   2.720   2.664   0.943
  251SOL    HW1 1652   2.815   2.656   0.911
  251SOL    HW2 1653   2.660   2.615   0.879
  252SOL     OW 1654   0.289   1.229   5.863
  252SOL    HW1 1655   0.263   1.162   5.933
  252SOL    HW2 1656   0.285   1.321   5.902
  253SOL     OW 1657   2.573   3.980   5.997
  253SOL    HW1 1658   2.669   4.008   5.988
  253SOL    HW2 1659   2.558   3.939   6.086
  254SOL     OW 1660   5.908   3.454   4.983
  254SOL    HW1 1661   5.817   3.461   5.024
  254SOL    HW2 1662   5.949   3.367   5.007
  255SOL     OW 1663   3.642   2.082   4.063
  255SOL    HW1 1664   3.685   2.171   4.052
  255SOL    HW2 1665   3.713   2.012   4.077
  256SOL     OW 1666   6.545   6.000   6.824
  256SOL    HW1 1667   6.474   5.930   6.830
  256SOL    HW2 1668   6.631   5.959   6.795
  257SOL     OW 1669   2.933   5.544   5.891
  257SOL    HW1 1670   2.870   5.556   5.968
  257SOL    HW2 1671   2.959   5.447   5.885
  258SOL     OW 1672   5.200   4.085   4.206
  258SOL    HW1 1673   5.293   4.075   4.170
  258SOL    HW2 1674   5.143   4.133   4.138
  259SOL     OW 1675   1.047   2.373   3.332
  259SOL    HW1 1676   1.126   2.406   3.384
  259SOL    HW2 1677   0.996   2.452   3.297
  260SOL     OW 1678   6.444   0.036   6.360
  260SOL    HW1 1679   6.430   6.997   6.282
  260SOL    HW2 1680   6.395   0.121   6.343
  261SOL     OW 1681   1.070   2.117   2.739
  261SOL    HW1 1682   1.102   2.026   2.713
  261SOL    HW2 1683   1.113   2.143   2.826
  262SOL     OW 1684   1.122   5.256   1.891
  262SOL    HW1 1685   1.169   5.304   1.817
  262SOL    HW2 1686   1.179   5.258   1.973
  263SOL     OW 1687   1.312   2.243   4.390
  263SOL    HW1 1688   1.309   2.255   4.489
  263SOL    HW2 1689   1.400   2.203   4.364
  264SOL     OW 1690   3.207   5.086   6.511
  264SOL    HW1 1691   3.261   5.011   6.473
  264SOL    HW2 1692   3.142   5.118   6.443
  265SOL     OW 1693   5.460   4.807   5.123
  265SOL    HW1 1694   5.410   4.724   5.096
  265SOL    HW2 1695   5.491   4.855   5.042
  266SOL     OW 1696   4.070   2.347   0.425
  266SOL    HW1 1697   4.149   2.341   0.365
  266SOL    HW2 1698   4.050   2.443   0.445
  267SOL     OW 1699   1.354   1.707   5.461
  267SOL    HW1 1700   1.295   1.788   5.459
  267SOL    HW2 1701   1.384   1.690   5.555
  268SOL     OW 1702   3.598   5.391   4.448
  268SOL    HW1 1703   3.613   5.345   4.536
  268SOL    HW2 1704   3.542   5.473   4.463
  269SOL     OW 1705   1.138   1.029   6.041
  269SOL    HW1 1706   1.044   1.027   6.006
  269SOL    HW2 1707   1.160   1.121   6.071
  270SOL     OW 1708   5.106   1.309   3.875
  270SOL    HW1 1709   5.147   1.377   3.813
  270SOL    HW2 1710   5.127   1.333   3.969
  271SOL     OW 1711   1.424   1.000   6.989
  271SOL    HW1 1712   1.398   0.956   0.052
  271SOL    HW2 1713   1.341   1.023   6.937
  272SOL     OW 1714   4.212   5.732   2.954
  272SOL    HW1 1715   4.192   5.826   2.925
  272SOL    HW2 1716   4.228   5.731   3.053
  273SOL     OW 1717   2.574   6.946   5.294
  273SOL    HW1 1718   2.646   6.885   5.327
  273SOL    HW2 1719   2.485   6.902   5.306
  274SOL     OW 1720   5.773   2.118   1.392
  274SOL    HW1 1721   5.682   2.118   1.351
  274SOL    HW2 1722   5.822   2.035   1.365
  275SOL     OW 1723   5.867   6.152   4.940
  275SOL    HW1 1724   5.834   6.137   5.033
  275SOL    HW2 1725   5.953   6.203   4.943
  276SOL     OW 1726   6.403   6.378   3.700
  276SOL    HW1 1727   6.391   6.343   3.607
  276SOL    HW2 1728   6.317   6.418   3.732
  277SOL     OW 1729   4.957   1.324   5.445
  277SOL    HW1 1730   4.916   1.342   5.356
  277SOL    HW2 1731   4.973   1.411   5.492
  278SOL     OW 1732   6.257   2.979   2.882
  278SOL    HW1 1733   6.173   2.925   2.891
  278SOL    HW2 1734   6.251   3.060   2.941
  279SOL     OW 1735   0.109   3.369   4.656
  279SOL    HW1 1736   0.186   3.336   4.711
  279SOL    HW2 1737   0.024   3.331   4.692
  280SOL     OW 1738   3.192   1.292   2.808
  280SOL    HW1 1739   3.257   1.265   2.737
  280SOL    HW2 1740   3.194   1.391   2.820
  281SOL     OW 1741   5.378   5.683   3.692
  281SOL    HW1 1742   5.345   5.762   3.744
  281SOL    HW2 1743   5.382   5.706   3.595
  282SOL     OW 1744   2.657   1.750   0.444
  282SOL    HW1 1745   2.567   1.769   0.406
  282SOL    HW2 1746   2.717   1.714   0.373
  283SOL     OW 1747   6.813   2.106   4.830
  283SOL    HW1 1748   6.810   2.092   4.929
  283SOL    HW2 1749   6.904   2.136   4.803
  284SOL     OW 1750   5.079   6.025   3.264
  284SOL    HW1 1751   5.059   6.103   3.323
  284SOL    HW2 1752   5.176   6.028   3.237
  285SOL     OW 1753   4.188   0.496   6.031
  285SOL    HW1 1754   4.276   0.535   6.060
  285SOL    HW2 1755   4.125   0.495   6.109
  286SOL     OW 1756   1.757   5.210   5.007
  286SOL    HW1 1757   1.699   5.231   5.085
  286SOL    HW2 1758   1.823   5.139   5.032
  287SOL     OW 1759   3.072   0.316   6.209
  287SOL    HW1 1760   2.989   0.326   6.264
  287SOL    HW2 1761   3.052   0.259   6.129
  288SOL     OW 1762   3.782   0.318   1.115
  288SOL    HW1 1763   3.690   0.349   1.135
  288SOL    HW2 1764   3.818   0.266   1.192
  289SOL     OW 1765   6.313   5.967   3.222
  289SOL    HW1 1766   6.249   5.937   3.293
  289SOL    HW2 1767   6.286   6.059   3.190
  290SOL     OW 1768   3.098   0.743   6.050
  290SOL    HW1 1769   3.011   0.730   6.097
  290SOL    HW2 1770   3.170   0.692   6.099
  291SOL     OW 1771   2.882   6.787   5.116
  291SOL    HW1 1772   2.979   6.802   5.136
  291SOL    HW2 1773   2.857   6.834   5.031
  292SOL     OW 1774   4.448   6.890   4.336
  292SOL    HW1 1775   4.461   6.961   4.267
  292SOL    HW2 1776   4.524   6.825   4.332
  293SOL     OW 1777   6.061   6.938   2.293
  293SOL    HW1 1778   6.098   6.885   2.369
  293SOL    HW2 1779   5.965   6.914   2.278
  294SOL     OW 1780   6.507   0.963   6.153
  294SOL    HW1 1781   6.412   0.991   6.168
  294SOL    HW2 1782   6.509   0.878   6.101
  295SOL     OW 1783   1.295   1.552   4.557
  295SOL    HW1 1784   1.327   1.645   4.537
  295SOL    HW2 1785   1.232   1.523   4.485
  296SOL     OW 1786   7.018   2.255   1.081
  296SOL    HW1 1787   6.932   2.223   1.120
  296SOL    HW2 1788   0.049   2.177   1.049
  297SOL     OW 1789   5.135   3.230   3.649
  297SOL    HW1 1790   5.213   3.291   3.634
  297SOL    HW2 1791   5.152   3.174   3.731
  298SOL     OW 1792   3.635   0.611   6.143
  298SOL    HW1 1793   3.697   0.670   6.194
  298SOL    HW2 1794   3.618   0.528   6.196
  299SOL     OW 1795   0.956   0.943   6.758
  299SOL    HW1 1796   0.900   1.004   6.702
  299SOL    HW2 1797   0.900   0.906   6.832
  300SOL     OW 1798   4.458   0.311   3.615
  300SOL    HW1 1799   4.525   0.251   3.572
  300SOL    HW2 1800   4.498   0.402   3.628
  301SOL     OW 1801   6.521   5.833   1.377
  301SOL    HW1 1802   6.470   5.752   1.346
  301SOL    HW2 1803   6.576   5.868   1.301
  302SOL     OW 1804   0.229   5.589   1.693
  302SOL    HW1 1805   0.201   5.538   1.612
  302SOL    HW2 1806   0.295   5.660   1.667
  303SOL     OW 1807   5.620   6.016   3.365
  303SOL    HW1 1808   5.616   6.041   3.269
  303SOL    HW2 1809   5.528   5.993   3.397
  304SOL     OW 1810   2.448   5.733   4.841
  304SOL    HW1 1811   2.487   5.778   4.761
  304SOL    HW2 1812   2.418   5.641   4.815
  305SOL     OW 1813   0.879   2.935   2.520
  305SOL    HW1 1814   0.958   2.876   2.534
  305SOL    HW2 1815   0.810   2.886   2.467
  306SOL     OW 1816   0.283   6.571   2.809
  306SOL    HW1 1817   0.192   6.541   2.840
  306SOL    HW2 1818   0.304   6.660   2.849
  307SOL     OW 1819   3.474   3.007   3.149
  307SOL    HW1 1820   3.447   2.937   3.215
  307SOL    HW2 1821   3.466   2.970   3.056
  308SOL     OW 1822   5.309   2.272   3.618
  308SOL    HW1 1823   5.363   2.356   3.614
  308SOL    HW2 1824   5.235   2.278   3.552
  309SOL     OW 1825   1.492   6.799   6.546
  309SOL    HW1 1826   1.406   6.749   6.535
  309SOL    HW2 1827   1.475   6.897   6.543
  310SOL     OW 1828   5.206   0.564   5.165
  310SOL    HW1 1829   5.135   0.497   5.141
  310SOL    HW2 1830   5.205   0.639   5.099
  311SOL     OW 1831   2.060   5.599   2.725
  311SOL    HW1 1832   2.008   5.674   2.683
  311SOL    HW2 1833   2.069   5.524   2.659
  312SOL     OW 1834   4.378   1.484   3.077
  312SOL    HW1 1835   4.363   1.527   3.166
  312SOL    HW2 1836   4.473   1.497   3.049
  313SOL     OW 1837   4.112   3.781   2.562
  313SOL    HW1 1838   4.192   3.780   2.622
  313SOL    HW2 1839   4.139   3.752   2.470
  314SOL     OW 1840   2.363   5.570   6.000
  314SOL    HW1 1841   2.293   5.617   5.946
  314SOL    HW2 1842   2.392   5.629   6.075
  315SOL     OW 1843   6.047   1.058   3.248
  315SOL    HW1 1844   6.109   1.077   3.171
  315SOL    HW2 1845   6.096   1.074   3.334
  316SOL     OW 1846   3.878   1.402   5.889
  316SOL    HW1 1847   3.969   1.389   5.928
  316SOL    HW2 1848   3.839   1.314   5.864
  317SOL     OW 1849   1.255   1.502   1.845
  317SOL    HW1 1850   1.347   1.463   1.851
  317SOL    HW2 1851   1.255   1.594   1.884
  318SOL     OW 1852   0.893   0.152   4.539
  318SOL    HW1 1853   0.826   0.122   4.606
  318SOL    HW2 1854   0.922   0.246   4.559
  319SOL     OW 1855   1.490   1.506   2.538
  319SOL    HW1 1856   1.531   1.576   2.479
  319SOL    HW2 1857   1.468   1.546   2.627
  320SOL     OW 1858   5.998   2.000   5.897
  320SOL    HW1 1859   6.058   1.920   5.895
  320SOL    HW2 1860   5.928   1.986   5.967
  321SOL     OW 1861   4.514   3.062   0.938
  321SOL    HW1 1862   4.482   3.142   0.990
  321SOL    HW2 1863   4.492   3.075   0.842
  322SOL     OW 1864   3.315   3.271   6.062
  322SOL    HW1 1865   3.355   3.310   6.144
  322SOL    HW2 1866   3.369   3.191   6.034
  323SOL     OW 1867   0.738   3.364   2.256
  323SOL    HW1 1868   0.808   3.434   2.269
  323SOL    HW2 1869   0.757   3.286   2.315
  324SOL     OW 1870   0.128   0.368   3.365
  324SOL    HW1 1871   0.218   0.395   3.331
  324SOL    HW2 1872   0.073   0.333   3.289
  325SOL     OW 1873   0.011   3.920   2.088
  325SOL    HW1 1874   6.963   3.880   2.030
  325SOL    HW2 1875   7.010   3.905   2.184
  326SOL     OW 1876   0.831   6.751   6.554
  326SOL    HW1 1877   0.901   6.798   6.500
  326SOL    HW2 1878   0.773   6.818   6.599
  327SOL     OW 1879   4.890   5.652   4.261
  327SOL    HW1 1880   4.845   5.662   4.350
  327SOL    HW2 1881   4.822   5.657   4.189
  328SOL     OW 1882   2.184   4.235   2.607
  328SOL    HW1 1883   2.197   4.334   2.598
  328SOL    HW2 1884   2.213   4.190   2.522
  329SOL     OW 1885   3.374   3.364   2.130
  329SOL    HW1 1886   3.432   3.409   2.063
  329SOL    HW2 1887   3.281   3.356   2.094
  330SOL     OW 1888   3.179   6.051   0.580
  330SOL    HW1 1889   3.090   6.087   0.552
  330SOL    HW2 1890   3.186   5.955   0.554
  331SOL     OW 1891   5.760   4.959   6.911
  331SOL    HW1 1892   5.738   4.979   7.006
  331SOL    HW2 1893   5.821   5.030   6.875
  332SOL     OW 1894   5.837   2.108   3.037
  332SOL    HW1 1895   5.914   2.048   3.014
  332SOL    HW2 1896   5.801   2.083   3.127
  333SOL     OW 1897   3.222   0.914   5.648
  333SOL    HW1 1898   3.242   0.925   5.550
  333SOL    HW2 1899   3.137   0.961   5.671
  334SOL     OW 1900   4.108   3.526   3.640
  334SOL    HW1 1901   4.107   3.476   3.553
  334SOL    HW2 1902   4.151   3.469   3.710
  335SOL     OW 1903   3.799   0.468   6.606
  335SOL    HW1 1904   3.791   0.441   6.702
  335SOL    HW2 1905   3.880   0.425   6.566
  336SOL     OW 1906   2.883   1.631   3.852
  336SOL    HW1 1907   2.961   1.692   3.862
  336SOL    HW2 1908   2.806   1.683   3.814
  337SOL     OW 1909   2.152   0.691   6.236
  337SOL    HW1 1910   2.113   0.599   6.242
  337SOL    HW2 1911   2.171   0.725   6.328
  338SOL     OW 1912   3.991   1.342   0.793
  338SOL    HW1 1913   4.032   1.422   0.836
  338SOL    HW2 1914   4.041   1.321   0.709
  339SOL     OW 1915   4.044   5.350   4.992
  339SOL    HW1 1916   4.137   5.387   4.997
  339SOL    HW2 1917   3.981   5.421   4.959
  340SOL     OW 1918   4.809   1.798   3.928
  340SOL    HW1 1919   4.899   1.768   3.896
  340SOL    HW2 1920   4.755   1.829   3.849
  341SOL     OW 1921   5.847   6.371   2.780
  341SOL    HW1 1922   5.904   6.290   2.795
  341SOL    HW2 1923   5.868   6.440   2.850
  342SOL     OW 1924   4.305   2.286   2.311
  342SOL    HW1 1925   4.380   2.312   2.250
  342SOL    HW2 1926   4.223   2.269   2.257
  343SOL     OW 1927   0.008   5.628   2.828
  343SOL    HW1 1928   0.102   5.653   2.852
  343SOL    HW2 1929   7.002   5.680   2.748
  344SOL     OW 1930   1.908   2.141   1.323
  344SOL    HW1 1931   1.966   2.063   1.300
  344SOL    HW2 1932   1.872   2.182   1.239
  345SOL     OW 1933   6.559   3.676   4.137
  345SOL    HW1 1934   6.515   3.765   4.125
  345SOL    HW2 1935   6.493   3.604   4.115
  346SOL     OW 1936   2.088   6.624   3.409
  346SOL    HW1 1937   2.145   6.592   3.334
  346SOL    HW2 1938   1.992   6.603   3.390
  347SOL     OW 1939   2.691   5.192   0.416
  347SOL    HW1 1940   2.719   5.116   0.476
  347SOL    HW2 1941   2.595   5.181   0.390
  348SOL     OW 1942   4.717   5.210   1.467
  348SOL    HW1 1943   4.805   5.247   1.497
  348SOL    HW2 1944   4.732   5.147   1.391
  349SOL     OW 1945   6.414   4.138   1.218
  349SOL    HW1 1946   6.415   4.038   1.229
  349SOL    HW2 1947   6.464   4.180   1.293
  350SOL     OW 1948   3.420   2.966   0.352
  350SOL    HW1 1949   3.462   2.936   0.438
  350SOL    HW2 1950   3.321   2.973   0.364
  351SOL     OW 1951   3.339   4.334   1.616
  351SOL    HW1 1952   3.265   4.325   1.684
  351SOL    HW2 1953   3.339   4.427   1.579
  352SOL     OW 1954   4.110   0.372   3.225
  352SOL    HW1 1955   4.156   0.392   3.312
  352SOL    HW2 1956   4.038   0.305   3.240
  353SOL     OW 1957   1.898   6.379   0.010
  353SOL    HW1 1958   1.935   6.453   6.977
  353SOL    HW2 1959   1.951   6.373   0.095
  354SOL     OW 1960   0.097   2.806   0.220
  354SOL    HW1 1961   0.148   2.833   0.301
  354SOL    HW2 1962   0.007   2.850   0.221
  355SOL     OW 1963   1.811   2.163   2.470
  355SOL    HW1 1964   1.820   2.065   2.488
  355SOL    HW2 1965   1.902   2.204   2.464
  356SOL     OW 1966   0.758   6.800   6.226
  356SOL    HW1 1967   0.823   6.876   6.231
  356SOL    HW2 1968   0.684   6.815   6.292
  357SOL     OW 1969   5.472   6.744   5.003
  357SOL    HW1 1970   5.446   6.805   5.078
  357SOL    HW2 1971   5.500   6.798   4.924
  358SOL     OW 1972   4.370   5.724   0.283
  358SOL    HW1 1973   4.316   5.778   0.219
  358SOL    HW2 1974   4.463   5.713   0.248
  359SOL     OW 1975   2.570   2.533   2.999
  359SOL    HW1 1976   2.603   2.615   3.046
  359SOL    HW2 1977   2.583   2.453   3.059
  360SOL     OW 1978   1.380   4.867   4.414
  360SOL    HW1 1979   1.314   4.936   4.443
  360SOL    HW2 1980   1.402   4.880   4.318
  361SOL     OW 1981   6.281   0.255   3.277
  361SOL    HW1 1982   6.340   0.233   3.355
  361SOL    HW2 1983   6.264   0.172   3.223
  362SOL     OW 1984   4.291   4.858   0.925
  362SOL    HW1 1985   4.384   4.827   0.903
  362SOL    HW2 1986   4.230   4.778   0.932
  363SOL     OW 1987   4.970   5.405   2.139
  363SOL    HW1 1988   5.027   5.472   2.091
  363SOL    HW2 1989   5.017   5.316   2.140
  364SOL     OW 1990   0.515   6.061   6.467
  364SOL    HW1 1991   0.582   5.995   6.500
  364SOL    HW2 1992   0.424   6.034   6.498
  365SOL     OW 1993   4.955   1.833   3.229
  365SOL    HW1 1994   4.941   1.829   3.130
  365SOL    HW2 1995   4.977   1.741   3.263
  366SOL     OW 1996   5.562   2.187   0.148
  366SOL    HW1 1997   5.604   2.273   0.119
  366SOL    HW2 1998   5.524   2.140   0.068
  367SOL     OW 1999   4.870   1.719   5.654
  367SOL    HW1 2000   4.833   1.627   5.639
  367SOL    HW2 2001   4.836   1.754   5.741
  368SOL     OW 2002   6.822   2.484   6.115
  368SOL    HW1 2003   6.842   2.577   6.145
  368SOL    HW2 2004   6.840   2.420   6.189
  369SOL     OW 2005   5.842   3.124   2.369
  369SOL    HW1 2006   5.760   3.086   2.327
  369SOL    HW2 2007   5.826   3.220   2.392
  370SOL     OW 2008   2.069   3.590   3.710
  370SOL    HW1 2009   2.087   3.665   3.774
  370SOL    HW2 2010   2.078   3.624   3.616
  371SOL     OW 2011   1.579   4.779   6.924
  371SOL    HW1 2012   1.636   4.718   6.869
  371SOL    HW2 2013   1.621   4.792   7.014
  372SOL     OW 2014   3.909   6.736   6.633
  372SOL    HW1 2015   3.849   6.739   6.553
  372SOL    HW2 2016   3.856   6.755   6.716
  373SOL     OW 2017   6.193   5.983   4.251
  373SOL    HW1 2018   6.137   5.912   4.292
  373SOL    HW2 2019   6.140   6.068   4.243
  374SOL     OW 2020   2.894   2.096   2.611
  374SOL    HW1 2021   2.864   2.187   2.583
  374SOL    HW2 2022   2.844   2.027   2.559
  375SOL     OW 2023   1.333   5.008   5.083
  375SOL    HW1 2024   1.365   4.970   5.170
  375SOL    HW2 2025   1.366   5.102   5.075
  376SOL     OW 2026   2.821   1.161   4.386
  376SOL    HW1 2027   2.757   1.212   4.328
  376SOL    HW2 2028   2.791   1.066   4.393
  377SOL     OW 2029   1.042   2.123   6.597
  377SOL    HW1 2030   1.052   2.137   6.498
  377SOL    HW2 2031   0.985   2.195   6.635
  378SOL     OW 2032   3.638   0.857   1.524
  378SOL    HW1 2033   3.731   0.884   1.499
  378SOL    HW2 2034   3.573   0.898   1.460
  379SOL     OW 2035   6.463   1.957   5.925
  379SOL    HW1 2036   6.538   1.896   5.950
  379SOL    HW2 2037   6.454   2.028   5.994
  380SOL     OW 2038   4.106   1.556   0.939
  380SOL    HW1 2039   4.153   1.561   1.027
  380SOL    HW2 2040   4.030   1.622   0.939
  381SOL     OW 2041   1.637   3.869   3.457
  381SOL    HW1 2042   1.682   3.826   3.536
  381SOL    HW2 2043   1.692   3.946   3.425
  382SOL     OW 2044   5.372   0.503   7.016
  382SOL    HW1 2045   5.353   0.438   6.942
  382SOL    HW2 2046   5.320   0.587   7.002
  383SOL     OW 2047   4.374   3.020   0.696
  383SOL    HW1 2048   4.306   3.033   0.769
  383SOL    HW2 2049   4.332   2.970   0.620
  384SOL     OW 2050   6.112   4.282   4.868
  384SOL    HW1 2051   6.063   4.206   4.912
  384SOL    HW2 2052   6.084   4.289   4.773
  385SOL     OW 2053   4.653   4.647   0.606
  385SOL    HW1 2054   4.702   4.710   0.667
  385SOL    HW2 2055   4.696   4.648   0.516
  386SOL     OW 2056   3.005   0.034   3.676
  386SOL    HW1 2057   3.042   0.009   3.586
  386SOL    HW2 2058   2.910   0.062   3.666
  387SOL     OW 2059   2.004   5.839   3.775
  387SOL    HW1 2060   2.038   5.852   3.682
  387SOL    HW2 2061   2.078   5.856   3.840
  388SOL     OW 2062   2.357   3.005   5.956
  388SOL    HW1 2063   2.277   2.960   5.915
  388SOL    HW2 2064   2.430   3.011   5.889
  389SOL     OW 2065   2.966   3.738   3.259
  389SOL    HW1 2066   2.958   3.766   3.355
  389SOL    HW2 2067   2.968   3.638   3.254
  390SOL     OW 2068   2.052   1.042   4.508
  390SOL    HW1 2069   1.961   1.051   4.466
  390SOL    HW2 2070   2.051   0.964   4.572
  391SOL     OW 2071   0.809   3.239   0.182
  391SOL    HW1 2072   0.893   3.286   0.210
  391SOL    HW2 2073   0.734   3.267   0.243
  392SOL     OW 2074   2.452   5.044   2.472
  392SOL    HW1 2075   2.506   5.034   2.555
  392SOL    HW2 2076   2.495   4.991   2.398
  393SOL     OW 2077   5.749   4.334   5.396
  393SOL    HW1 2078   5.724   4.413   5.452
  393SOL    HW2 2079   5.828   4.356   5.340
  394SOL     OW 2080   1.343   0.100   1.144
  394SOL    HW1 2081   1.398   0.175   1.106
  394SOL    HW2 2082   1.403   0.035   1.190
  395SOL     OW 2083   5.287   3.944   1.378
  395SOL    HW1 2084   5.287   3.977   1.284
  395SOL    HW2 2085   5.366   3.982   1.428
  396SOL     OW 2086   3.290   4.136   3.619
  396SOL    HW1 2087   3.271   4.107   3.525
  396SOL    HW2 2088   3.381   4.177   3.623
  397SOL     OW 2089   4.581   1.928   5.609
  397SOL    HW1 2090   4.585   1.889   5.701
  397SOL    HW2 2091   4.575   2.028   5.615
  398SOL     OW 2092   0.917   5.092   2.370
  398SOL    HW1 2093   0.851   5.021   2.394
  398SOL    HW2 2094   0.906   5.170   2.431
  399SOL     OW 2095   4.693   4.931   1.241
  399SOL    HW1 2096   4.612   4.952   1.187
  399SOL    HW2 2097   4.771   4.915   1.180
  400SOL     OW 2098   0.549   6.132   5.080
  400SOL    HW1 2099   0.635   6.131   5.028
  400SOL    HW2 2100   0.541   6.219   5.128
  401SOL     OW 2101   4.592   2.075   6.753
  401SOL    HW1 2102   4.574   2.076   6.851
  401SOL    HW2 2103   4.677   2.026   6.735
  402SOL     OW 2104   6.138   5.720   1.269
  402SOL    HW1 2105   6.092   5.643   1.224
  402SOL    HW2 2106   6.209   5.756   1.209
  403SOL     OW 2107   4.247   1.960   5.972
  403SOL    HW1 2108   4.242   1.878   6.030
  403SOL    HW2 2109   4.296   2.032   6.021
  404SOL     OW 2110   0.383   6.953   4.570
  404SOL    HW1 2111   0.413   7.021   4.637
  404SOL    HW2 2112   0.335   6.998   4.495
  405SOL     OW 2113   0.873   2.529   0.990
  405SOL    HW1 2114   0.875   2.433   0.962
  405SOL    HW2 2115   0.779   2.555   1.013
  406SOL     OW 2116   1.759   2.807   4.664
  406SOL    HW1 2117   1.688   2.850   4.720
  406SOL    HW2 2118   1.717   2.736   4.607
  407SOL     OW 2119   2.705   0.620   5.579
  407SOL    HW1 2120   2.792   0.609   5.626
  407SOL    HW2 2121   2.702   0.711   5.536
  408SOL     OW 2122   1.536   0.280   3.641
  408SOL    HW1 2123   1.474   0.201   3.649
  408SOL    HW2 2124   1.521   0.325   3.553
  409SOL     OW 2125   5.810   3.394   3.530
  409SOL    HW1 2126   5.807   3.431   3.623
  409SOL    HW2 2127   5.772   3.461   3.466
  410SOL     OW 2128   2.389   0.725   6.879
  410SOL    HW1 2129   2.470   0.757   6.831
  410SOL    HW2 2130   2.313   0.788   6.862
  411SOL     OW 2131   6.181   4.001   5.522
  411SOL    HW1 2132   6.238   3.975   5.444
  411SOL    HW2 2133   6.240   4.022   5.600
  412SOL     OW 2134   3.878   0.389   2.469
  412SOL    HW1 2135   3.942   0.319   2.501
  412SOL    HW2 2136   3.809   0.347   2.410
  413SOL     OW 2137   3.178   6.349   0.735
  413SOL    HW1 2138   3.193   6.384   0.828
  413SOL    HW2 2139   3.266   6.345   0.687
  414SOL     OW 2140   4.446   4.528   0.476
  414SOL    HW1 2141   4.528   4.553   0.527
  414SOL    HW2 2142   4.366   4.535   0.536
  415SOL     OW 2143   2.113   6.485   1.821
  415SOL    HW1 2144   2.157   6.547   1.757
  415SOL    HW2 2145   2.018   6.469   1.794
  416SOL     OW 2146   4.228   6.326   4.945
  416SOL    HW1 2147   4.249   6.278   5.030
  416SOL    HW2 2148   4.150   6.388   4.959
  417SOL     OW 2149   3.873   6.146   2.188
  417SOL    HW1 2150   3.840   6.078   2.123
  417SOL    HW2 2151   3.809   6.223   2.192
  418SOL     OW 2152   5.034   5.774   0.267
  418SOL    HW1 2153   4.993   5.767   0.176
  418SOL    HW2 2154   4.977   5.725   0.333
  419SOL     OW 2155   6.772   6.602   1.252
  419SOL    HW1 2156   6.727   6.640   1.171
  419SOL    HW2 2157   6.702   6.565   1.314
  420SOL     OW 2158   5.750   3.844   0.402
  420SOL    HW1 2159   5.790   3.808   0.318
  420SOL    HW2 2160   5.686   3.777   0.439
  421SOL     OW 2161   2.433   6.101   6.929
  421SOL    HW1 2162   2.414   6.021   6.986
  421SOL    HW2 2163   2.486   6.073   6.849
  422SOL     OW 2164   6.223   4.554   6.706
  422SOL    HW1 2165   6.161   4.632   6.699
  422SOL    HW2 2166   6.252   4.544   6.802
  423SOL     OW 2167   5.910   2.715   0.207
  423SOL    HW1 2168   5.882   2.800   0.251
  423SOL    HW2 2169   5.830   2.658   0.189
  424SOL     OW 2170   3.307   4.162   0.475
  424SOL    HW1 2171   3.311   4.078   0.529
  424SOL    HW2 2172   3.306   4.241   0.537
  425SOL     OW 2173   4.175   0.883   1.326
  425SOL    HW1 2174   4.176   0.866   1.228
  425SOL    HW2 2175   4.140   0.975   1.344
  426SOL     OW 2176   5.016   2.890   5.813
  426SOL    HW1 2177   4.958   2.821   5.769
  426SOL    HW2 2178   5.112   2.869   5.796
  427SOL     OW 2179   5.558   3.764   1.134
  427SOL    HW1 2180   5.644   3.713   1.130
  427SOL    HW2 2181   5.501   3.740   1.055
  428SOL     OW 2182   4.000   0.452   5.604
  428SOL    HW1 2183   3.967   0.420   5.515
  428SOL    HW2 2184   4.010   0.551   5.602
  429SOL     OW 2185   1.762   4.802   0.150
  429SOL    HW1 2186   1.848   4.813   0.100
  429SOL    HW2 2187   1.775   4.828   0.245
  430SOL     OW 2188   0.762   0.034   4.744
  430SOL    HW1 2189   0.814   7.017   4.819
  430SOL    HW2 2190   0.664   0.025   4.762
  431SOL     OW 2191   3.498   1.607   0.159
  431SOL    HW1 2192   3.578   1.664   0.139
  431SOL    HW2 2193   3.487   1.599   0.258
  432SOL     OW 2194   6.745   1.869   0.564
  432SOL    HW1 2195   6.702   1.891   0.651
  432SOL    HW2 2196   6.827   1.925   0.552
  433SOL     OW 2197   2.609   6.716   5.055
  433SOL    HW1 2198   2.692   6.740   5.105
  433SOL    HW2 2199   2.604   6.617   5.044
  434SOL     OW 2200   5.875   3.290   0.981
  434SOL    HW1 2201   5.852   3.376   0.936
  434SOL    HW2 2202   5.972   3.271   0.969
  435SOL     OW 2203   3.157   3.397   5.846
  435SOL    HW1 2204   3.221   3.346   5.904
  435SOL    HW2 2205   3.064   3.361   5.859
  436SOL     OW 2206   1.492   0.289   0.993
  436SOL    HW1 2207   1.528   0.308   0.901
  436SOL    HW2 2208   1.559   0.235   1.044
  437SOL     OW 2209   0.164   0.300   6.224
  437SOL    HW1 2210   0.136   0.387   6.265
  437SOL    HW2 2211   0.167   0.230   6.296
  438SOL     OW 2212   1.710   3.321   2.045
  438SOL    HW1 2213   1.639   3.272   2.095
  438SOL    HW2 2214   1.765   3.256   1.993
  439SOL     OW 2215   6.022   4.695   2.443
  439SOL    HW1 2216   6.121   4.679   2.445
  439SOL    HW2 2217   6.004   4.793   2.452
  440SOL     OW 2218   0.788   2.528   4.358
  440SOL    HW1 2219   0.862   2.494   4.416
  440SOL    HW2 2220   0.826   2.562   4.272
  441SOL     OW 2221   1.940   1.450   3.185
  441SOL    HW1 2222   1.927   1.480   3.091
  441SOL    HW2 2223   1.990   1.520   3.235
  442SOL     OW 2224   6.658   4.404   6.989
  442SOL    HW1 2225   6.597   4.342   0.015
  442SOL    HW2 2226   6.734   4.353   6.950
  443SOL     OW 2227   1.328   4.015   5.171
  443SOL    HW1 2228   1.353   3.990   5.264
  443SOL    HW2 2229   1.363   4.107   5.150
  444SOL     OW 2230   4.376   2.485   6.185
  444SOL    HW1 2231   4.339   2.547   6.115
  444SOL    HW2 2232   4.458   2.440   6.149
  445SOL     OW 2233   2.328   4.828   3.464
  445SOL    HW1 2234   2.339   4.893   3.538
  445SOL    HW2 2235   2.309   4.877   3.379
  446SOL     OW 2236   3.570   5.050   3.789
  446SOL    HW1 2237   3.617   4.979   3.841
  446SOL    HW2 2238   3.608   5.055   3.697
  447SOL     OW 2239   0.281   4.785   0.128
  447SOL    HW1 2240   0.254   4.872   0.088
  447SOL    HW2 2241   0.222   4.765   0.206
  448SOL     OW 2242   3.898   0.836   5.312
  448SOL    HW1 2243   3.863   0.792   5.229
  448SOL    HW2 2244   3.981   0.789   5.341
  449SOL     OW 2245   6.244   1.208   4.644
  449SOL    HW1 2246   6.211   1.121   4.681
  449SOL    HW2 2247   6.297   1.256   4.714
  450SOL     OW 2248   0.201   5.820   3.437
  450SOL    HW1 2249   0.272   5.762   3.477
  450SOL    HW2 2250   0.223   5.916   3.454
  451SOL     OW 2251   0.880   1.836   2.592
  451SOL    HW1 2252   0.977   1.861   2.592
  451SOL    HW2 2253   0.871   1.737   2.604
  452SOL     OW 2254   0.135   4.794   0.539
  452SOL    HW1 2255   0.101   4.743   0.619
  452SOL    HW2 2256   0.158   4.730   0.466
  453SOL     OW 2257   2.880   1.563   6.756
  453SOL    HW1 2258   2.811   1.630   6.785
  453SOL    HW2 2259   2.866   1.540   6.660
  454SOL     OW 2260   0.253   5.983   6.632
  454SOL    HW1 2261   0.164   6.013   6.666
  454SOL    HW2 2262   0.241   5.916   6.559
  455SOL     OW 2263   5.947   0.706   3.906
  455SOL    HW1 2264   5.940   0.614   3.945
  455SOL    HW2 2265   5.902   0.708   3.817
  456SOL     OW 2266   4.255   5.603   6.550
  456SOL    HW1 2267   4.249   5.574   6.455
  456SOL    HW2 2268   4.191   5.678   6.566
  457SOL     OW 2269   2.207   4.124   3.372
  457SOL    HW1 2270   2.178   4.030   3.394
  457SOL    HW2 2271   2.140   4.165   3.311
  458SOL     OW 2272   5.869   6.096   5.650
  458SOL    HW1 2273   5.879   6.058   5.742
  458SOL    HW2 2274   5.787   6.058   5.607
  459SOL     OW 2275   1.025   0.474   2.868
  459SOL    HW1 2276   0.961   0.537   2.823
  459SOL    HW2 2277   0.975   0.401   2.914
  460SOL     OW 2278   6.808   1.873   2.174
  460SOL    HW1 2279   6.894   1.899   2.131
  460SOL    HW2 2280   6.824   1.854   2.271
  461SOL     OW 2281   4.452   6.758   5.063
  461SOL    HW1 2282   4.475   6.734   5.157
  461SOL    HW2 2283   4.446   6.675   5.007
  462SOL     OW 2284   3.352   2.758   5.890
  462SOL    HW1 2285   3.439   2.784   5.848
  462SOL    HW2 2286   3.276   2.787   5.832
  463SOL     OW 2287   6.155   5.206   3.398
  463SOL    HW1 2288   6.121   5.280   3.456
  463SOL    HW2 2289   6.084   5.180   3.332
  464SOL     OW 2290   1.682   0.929   6.946
  464SOL    HW1 2291   1.586   0.958   6.952
  464SOL    HW2 2292   1.690   0.856   6.878
  465SOL     OW 2293   0.845   1.726   3.846
  465SOL    HW1 2294   0.826   1.628   3.853
  465SOL    HW2 2295   0.891   1.757   3.929
  466SOL     OW 2296   0.314   6.681   3.853
  466SOL    HW1 2297   0.290   6.587   3.876
  466SOL    HW2 2298   0.391   6.711   3.909
  467SOL     OW 2299   0.750   0.088   5.899
  467SOL    HW1 2300   0.816   0.016   5.877
  467SOL    HW2 2301   0.711   0.071   5.989
  468SOL     OW 2302   4.011   5.615   0.856
  468SOL    HW1 2303   3.947   5.645   0.785
  468SOL    HW2 2304   4.046   5.694   0.905
  469SOL     OW 2305   2.254   5.415   0.434
  469SOL    HW1 2306   2.343   5.461   0.433
  469SOL    HW2 2307   2.263   5.325   0.476
  470SOL     OW 2308   4.176   0.306   2.340
  470SOL    HW1 2309   4.162   0.228   2.278
  470SOL    HW2 2310   4.263   0.295   2.387
  471SOL     OW 2311   1.884   2.510   4.527
  471SOL    HW1 2312   1.974   2.538   4.558
  471SOL    HW2 2313   1.846   2.581   4.467
  472SOL     OW 2314   4.883   4.946   6.222
  472SOL    HW1 2315   4.920   5.039   6.221
  472SOL    HW2 2316   4.856   4.920   6.129
  473SOL     OW 2317   0.510   2.646   2.023
  473SOL    HW1 2318   0.565   2.728   2.009
  473SOL    HW2 2319   0.566   2.575   2.067
  474SOL     OW 2320   4.299   5.450   3.865
  474SOL    HW1 2321   4.203   5.441   3.840
  474SOL    HW2 2322   4.350   5.370   3.833
  475SOL     OW 2323   6.826   6.652   6.859
  475SOL    HW1 2324   6.780   6.631   6.772
  475SOL    HW2 2325   6.791   6.738   6.894
  476SOL     OW 2326   6.337   4.222   2.391
  476SOL    HW1 2327   6.289   4.145   2.434
  476SOL    HW2 2328   6.403   4.260   2.455
  477SOL     OW 2329   2.299   4.982   4.418
  477SOL    HW1 2330   2.377   4.960   4.359
  477SOL    HW2 2331   2.278   5.079   4.411
  478SOL     OW 2332   3.550   5.748   3.346
  478SOL    HW1 2333   3.643   5.715   3.326
  478SOL    HW2 2334   3.547   5.786   3.438
  479SOL     OW 2335   2.714   2.099   0.398
  479SOL    HW1 2336   2.751   2.023   0.451
  479SOL    HW2 2337   2.724   2.184   0.451
  480SOL     OW 2338   1.464   6.807   1.470
  480SOL    HW1 2339   1.398   6.752   1.522
  480SOL    HW2 2340   1.556   6.769   1.484
  481SOL     OW 2341   2.428   0.952   1.747
  481SOL    HW1 2342   2.363   0.876   1.747
  481SOL    HW2 2343   2.389   1.029   1.696
  482SOL     OW 2344   5.259   4.422   2.652
  482SOL    HW1 2345   5.324   4.362   2.606
  482SOL    HW2 2346   5.208   4.371   2.721
  483SOL     OW 2347   5.382   1.973   1.513
  483SOL    HW1 2348   5.326   2.055   1.504
  483SOL    HW2 2349   5.323   1.896   1.538
  484SOL     OW 2350   0.566   2.860   4.467
  484SOL    HW1 2351   0.489   2.919   4.442
  484SOL    HW2 2352   0.562   2.776   4.413
  485SOL     OW 2353   3.528   4.957   2.508
  485SOL    HW1 2354   3.543   5.050   2.474
  485SOL    HW2 2355   3.480   4.903   2.439
  486SOL     OW 2356   1.217   1.494   0.834
  486SOL    HW1 2357   1.288   1.468   0.769
  486SOL    HW2 2358   1.260   1.531   0.917
  487SOL     OW 2359   0.782   2.391   0.028
  487SOL    HW1 2360   0.773   2.414   0.125
  487SOL    HW2 2361   0.849   2.317   0.018
  488SOL     OW 2362   0.914   1.495   1.231
  488SOL    HW1 2363   0.986   1.526   1.292
  488SOL    HW2 2364   0.842   1.450   1.285
  489SOL     OW 2365   3.553   5.705   7.005
  489SOL    HW1 2366   3.497   5.742   0.056
  489SOL    HW2 2367   3.545   5.764   6.924
  490SOL     OW 2368   6.142   6.529   4.154
  490SOL    HW1 2369   6.159   6.440   4.110
  490SOL    HW2 2370   6.115   6.515   4.249
  491SOL     OW 2371   0.177   2.754   2.471
  491SOL    HW1 2372   0.262   2.713   2.505
  491SOL    HW2 2373   0.161   2.841   2.517
  492SOL     OW 2374   3.447   0.872   5.789
  492SOL    HW1 2375   3.441   0.961   5.834
  492SOL    HW2 2376   3.371   0.862   5.725
  493SOL     OW 2377   6.676   5.092   5.855
  493SOL    HW1 2378   6.678   4.994   5.871
  493SOL    HW2 2379   6.747   5.117   5.789
  494SOL     OW 2380   0.357   6.118   0.093
  494SOL    HW1 2381   0.407   6.184   0.150
  494SOL    HW2 2382   0.307   6.054   0.152
  495SOL     OW 2383   4.676   4.983   2.636
  495SOL    HW1 2384   4.665   5.025   2.546
  495SOL    HW2 2385   4.770   4.948   2.645
  496SOL     OW 2386   5.593   2.913   3.303
  496SOL    HW1 2387   5.614   2.973   3.225
  496SOL    HW2 2388   5.516   2.854   3.279
  497SOL     OW 2389   3.647   1.229   4.720
  497SOL    HW1 2390   3.562   1.177   4.714
  497SOL    HW2 2391   3.714   1.193   4.655
  498SOL     OW 2392   0.999   3.412   2.531
  498SOL    HW1 2393   1.013   3.383   2.436
  498SOL    HW2 2394   0.970   3.334   2.586
  499SOL     OW 2395   3.105   0.563   4.412
  499SOL    HW1 2396   3.014   0.534   4.382
  499SOL    HW2 2397   3.156   0.602   4.335
  500SOL     OW 2398   0.885   4.111   3.448
  500SOL    HW1 2399   0.953   4.111   3.374
  500SOL    HW2 2400   0.803   4.160   3.417
  501SOL     OW 2401   2.317   2.433   0.347
  501SOL    HW1 2402   2.362   2.346   0.324
  501SOL    HW2 2403   2.306   2.488   0.264
  502SOL     OW 2404   4.956   4.220   5.824
  502SOL    HW1 2405   4.951   4.251   5.919
  502SOL    HW2 2406   5.022   4.146   5.816
  503SOL     OW 2407   6.139   4.158   6.157
  503SOL    HW1 2408   6.099   4.162   6.065
  503SOL    HW2 2409   6.138   4.063   6.189
  504SOL     OW 2410   2.048   6.139   4.048
  504SOL    HW1 2411   1.969   6.119   3.989
  504SOL    HW2 2412   2.042   6.084   4.131
  505SOL     OW 2413   3.857   0.265   5.792
  505SOL    HW1 2414   3.813   0.355   5.801
  505SOL    HW2 2415   3.925   0.269   5.719
  506SOL     OW 2416   1.751   4.677   4.965
  506SOL    HW1 2417   1.656   4.647   4.969
  506SOL    HW2 2418   1.806   4.624   5.030
  507SOL     OW 2419   2.785   0.055   4.313
  507SOL    HW1 2420   2.770   0.059   4.412
  507SOL    HW2 2421   2.851   7.006   4.292
  508SOL     OW 2422   6.003   3.291   2.831
  508SOL    HW1 2423   6.091   3.291   2.784
  508SOL    HW2 2424   6.013   3.333   2.921
  509SOL     OW 2425   4.419   0.898   1.891
  509SOL    HW1 2426   4.410   0.997   1.904
  509SOL    HW2 2427   4.410   0.876   1.794
  510SOL     OW 2428   6.918   4.885   5.558
  510SOL    HW1 2429   6.900   4.795   5.598
  510SOL    HW2 2430   6.839   4.914   5.504
  511SOL     OW 2431   0.253   6.398   6.895
  511SOL    HW1 2432   0.169   6.421   6.943
  511SOL    HW2 2433   0.320   6.363   6.960
  512SOL     OW 2434   0.805   2.997   0.347
  512SOL    HW1 2435   0.796   3.046   0.434
  512SOL    HW2 2436   0.718   3.000   0.298
  513SOL     OW 2437   6.077   5.873   3.003
  513SOL    HW1 2438   6.038   5.824   2.925
  513SOL    HW2 2439   6.172   5.842   3.018
  514SOL     OW 2440   6.798   2.505   4.260
  514SOL    HW1 2441   6.869   2.436   4.276
  514SOL    HW2 2442   6.834   2.576   4.199
  515SOL     OW 2443   2.457   6.764   5.716
  515SOL    HW1 2444   2.371   6.806   5.747
  515SOL    HW2 2445   2.523   6.836   5.696
  516SOL     OW 2446   2.812   4.741   1.464
  516SOL    HW1 2447   2.793   4.671   1.533
  516SOL    HW2 2448   2.830   4.828   1.509
  517SOL     OW 2449   5.458   6.723   1.958
  517SOL    HW1 2450   5.441   6.733   1.860
  517SOL    HW2 2451   5.437   6.809   2.004
  518SOL     OW 2452   2.087   2.116   1.724
  518SOL    HW1 2453   2.010   2.161   1.679
  518SOL    HW2 2454   2.052   2.050   1.792
  519SOL     OW 2455   0.159   0.223   4.636
  519SOL    HW1 2456   0.156   0.165   4.718
  519SOL    HW2 2457   0.128   0.170   4.557
  520SOL     OW 2458   5.716   4.620   6.342
  520SOL    HW1 2459   5.644   4.607   6.411
  520SOL    HW2 2460   5.805   4.599   6.383
  521SOL     OW 2461   6.733   1.858   6.007
  521SOL    HW1 2462   6.791   1.913   6.067
  521SOL    HW2 2463   6.735   1.763   6.037
  522SOL     OW 2464   3.875   2.963   5.339
  522SOL    HW1 2465   3.932   2.884   5.315
  522SOL    HW2 2466   3.918   3.047   5.305
  523SOL     OW 2467   6.821   6.082   3.611
  523SOL    HW1 2468   6.796   6.176   3.586
  523SOL    HW2 2469   6.890   6.048   3.547
  524SOL     OW 2470   2.799   1.005   6.622
  524SOL    HW1 2471   2.809   1.095   6.666
  524SOL    HW2 2472   2.704   0.975   6.629
  525SOL     OW 2473   2.842   3.740   6.244
  525SOL    HW1 2474   2.836   3.654   6.295
  525SOL    HW2 2475   2.811   3.725   6.150
  526SOL     OW 2476   2.628   5.337   5.009
  526SOL    HW1 2477   2.633   5.250   4.961
  526SOL    HW2 2478   2.586   5.406   4.950
  527SOL     OW 2479   6.683   1.354   5.865
  527SOL    HW1 2480   6.775   1.316   5.866
  527SOL    HW2 2481   6.661   1.384   5.772
  528SOL     OW 2482   1.757   1.307   4.545
  528SOL    HW1 2483   1.667   1.333   4.509
  528SOL    HW2 2484   1.748   1.221   4.596
  529SOL     OW 2485   0.559   4.889   4.899
  529SOL    HW1 2486   0.592   4.865   4.990
  529SOL    HW2 2487   0.570   4.810   4.838
  530SOL     OW 2488   2.482   3.105   5.476
  530SOL    HW1 2489   2.448   3.011   5.483
  530SOL    HW2 2490   2.519   3.119   5.384
  531SOL     OW 2491   0.361   0.876   1.088
  531SOL    HW1 2492   0.330   0.850   1.179
  531SOL    HW2 2493   0.460   0.866   1.082
  532SOL     OW 2494   1.043   1.642   5.501
  532SOL    HW1 2495   0.976   1.710   5.532
  532SOL    HW2 2496   1.106   1.621   5.576
  533SOL     OW 2497   5.030   6.492   4.903
  533SOL    HW1 2498   5.096   6.507   4.977
  533SOL    HW2 2499   5.045   6.402   4.862
  534SOL     OW 2500   4.574   5.681   3.563
  534SOL    HW1 2501   4.505   5.633   3.510
  534SOL    HW2 2502   4.566   5.780   3.548
  535SOL     OW 2503   0.518   4.024   3.876
  535SOL    HW1 2504   0.581   3.998   3.948
  535SOL    HW2 2505   0.528   3.960   3.799
  536SOL     OW 2506   0.792   5.642   1.262
  536SOL    HW1 2507   0.843   5.725   1.287
  536SOL    HW2 2508   0.750   5.655   1.172
  537SOL     OW 2509   2.523   6.297   3.359
  537SOL    HW1 2510   2.443   6.351   3.335
  537SOL    HW2 2511   2.564   6.260   3.275
  538SOL     OW 2512   1.083   5.567   3.748
  538SOL    HW1 2513   1.055   5.613   3.664
  538SOL    HW2 2514   1.099   5.470   3.729
  539SOL     OW 2515   0.851   5.431   1.668
  539SOL    HW1 2516   0.913   5.486   1.725
  539SOL    HW2 2517   0.783   5.386   1.726
  540SOL     OW 2518   0.624   1.873   2.748
  540SOL    HW1 2519   0.562   1.821   2.688
  540SOL    HW2 2520   0.716   1.872   2.710
  541SOL     OW 2521   2.976   6.257   4.811
  541SOL    HW1 2522   3.075   6.264   4.806
  541SOL    HW2 2523   2.940   6.222   4.724
  542SOL     OW 2524   5.956   6.187   6.792
  542SOL    HW1 2525   5.910   6.218   6.875
  542SOL    HW2 2526   6.029   6.252   6.768
  543SOL     OW 2527   0.941   4.908   6.665
  543SOL    HW1 2528   0.886   4.981   6.704
  543SOL    HW2 2529   1.006   4.874   6.733
  544SOL     OW 2530   0.839   5.182   1.199
  544SOL    HW1 2531   0.860   5.255   1.263
  544SOL    HW2 2532   0.876   5.205   1.109
  545SOL     OW 2533   3.788   1.376   3.310
  545SOL    HW1 2534   3.768   1.474   3.321
  545SOL    HW2 2535   3.831   1.342   3.393
  546SOL     OW 2536   1.057   3.754   1.452
  546SOL    HW1 2537   0.991   3.688   1.416
  546SOL    HW2 2538   1.072   3.737   1.549
  547SOL     OW 2539   2.534   2.493   0.530
  547SOL    HW1 2540   2.556   2.586   0.501
  547SOL    HW2 2541   2.437   2.476   0.514
  548SOL     OW 2542   3.787   3.391   3.446
  548SOL    HW1 2543   3.827   3.413   3.356
  548SOL    HW2 2544   3.836   3.314   3.486
  549SOL     OW 2545   5.389   3.326   1.535
  549SOL    HW1 2546   5.333   3.408   1.551
  549SOL    HW2 2547   5.366   3.287   1.446
  550SOL     OW 2548   6.810   2.810   2.478
  550SOL    HW1 2549   6.852   2.876   2.415
  550SOL    HW2 2550   6.834   2.834   2.572
  551SOL     OW 2551   6.906   1.777   1.091
  551SOL    HW1 2552   6.858   1.746   1.173
  551SOL    HW2 2553   7.004   1.763   1.103
  552SOL     OW 2554   3.722   5.347   0.604
  552SOL    HW1 2555   3.794   5.303   0.657
  552SOL    HW2 2556   3.708   5.298   0.518
  553SOL     OW 2557   1.882   0.706   1.882
  553SOL    HW1 2558   1.946   0.758   1.938
  553SOL    HW2 2559   1.830   0.769   1.823
  554SOL     OW 2560   5.345   6.831   5.871
  554SOL    HW1 2561   5.410   6.757   5.890
  554SOL    HW2 2562   5.267   6.794   5.820
  555SOL     OW 2563   2.197   4.776   4.585
  555SOL    HW1 2564   2.224   4.844   4.516
  555SOL    HW2 2565   2.271   4.764   4.651
  556SOL     OW 2566   6.117   2.239   3.920
  556SOL    HW1 2567   6.096   2.306   3.849
  556SOL    HW2 2568   6.217   2.233   3.932
  557SOL     OW 2569   6.755   5.683   6.471
  557SOL    HW1 2570   6.834   5.621   6.464
  557SOL    HW2 2571   6.743   5.710   6.567
  558SOL     OW 2572   4.137   3.694   5.466
  558SOL    HW1 2573   4.225   3.679   5.511
  558SOL    HW2 2574   4.152   3.728   5.374
  559SOL     OW 2575   0.211   5.883   6.361
  559SOL    HW1 2576   0.279   5.905   6.291
  559SOL    HW2 2577   0.136   5.949   6.357
  560SOL     OW 2578   4.588   6.457   6.719
  560SOL    HW1 2579   4.550   6.491   6.633
  560SOL    HW2 2580   4.514   6.416   6.774
  561SOL     OW 2581   6.077   6.734   0.143
  561SOL    HW1 2582   6.135   6.815   0.144
  561SOL    HW2 2583   6.127   6.657   0.105
  562SOL     OW 2584   5.427   1.248   6.349
  562SOL    HW1 2585   5.343   1.194   6.351
  562SOL    HW2 2586   5.494   1.204   6.288
  563SOL     OW 2587   2.520   6.190   4.103
  563SOL    HW1 2588   2.598   6.130   4.086
  563SOL    HW2 2589   2.552   6.276   4.143
  564SOL     OW 2590   1.552   1.592   6.788
  564SOL    HW1 2591   1.625   1.530   6.819
  564SOL    HW2 2592   1.496   1.545   6.719
  565SOL     OW 2593   4.613   3.953   5.501
  565SOL    HW1 2594   4.540   3.904   5.453
  565SOL    HW2 2595   4.606   3.935   5.599
  566SOL     OW 2596   4.476   5.088   3.284
  566SOL    HW1 2597   4.483   5.013   3.217
  566SOL    HW2 2598   4.518   5.060   3.370
  567SOL     OW 2599   3.658   3.053   4.299
  567SOL    HW1 2600   3.670   3.007   4.211
  567SOL    HW2 2601   3.577   3.018   4.345
  568SOL     OW 2602   3.052   2.610   6.808
  568SOL    HW1 2603   3.137   2.633   6.760
  568SOL    HW2 2604   2.976   2.663   6.771
  569SOL     OW 2605   1.649   2.746   0.578
  569SOL    HW1 2606   1.675   2.651   0.564
  569SOL    HW2 2607   1.559   2.750   0.623
  570SOL     OW 2608   1.435   6.728   0.842
  570SOL    HW1 2609   1.362   6.784   0.880
  570SOL    HW2 2610   1.436   6.737   0.742
  571SOL     OW 2611   3.558   5.459   2.836
  571SOL    HW1 2612   3.557   5.362   2.812
  571SOL    HW2 2613   3.649   5.485   2.869
  572SOL     OW 2614   2.151   4.073   5.948
  572SOL    HW1 2615   2.195   4.151   5.994
  572SOL    HW2 2616   2.221   4.017   5.905
  573SOL     OW 2617   4.390   1.017   4.870
  573SOL    HW1 2618   4.361   0.954   4.943
  573SOL    HW2 2619   4.454   0.970   4.810
  574SOL     OW 2620   2.402   2.067   4.192
  574SOL    HW1 2621   2.353   2.140   4.240
  574SOL    HW2 2622   2.457   2.107   4.119
  575SOL     OW 2623   6.404   3.129   0.414
  575SOL    HW1 2624   6.353   3.099   0.494
  575SOL    HW2 2625   6.471   3.059   0.388
  576SOL     OW 2626   0.903   2.322   2.560
  576SOL    HW1 2627   0.870   2.265   2.485
  576SOL    HW2 2628   0.923   2.265   2.640
  577SOL     OW 2629   2.439   1.865   3.483
  577SOL    HW1 2630   2.395   1.778   3.459
  577SOL    HW2 2631   2.403   1.938   3.425
  578SOL     OW 2632   0.533   3.276   3.380
  578SOL    HW1 2633   0.517   3.322   3.467
  578SOL    HW2 2634   0.497   3.183   3.384
  579SOL     OW 2635   4.045   1.796   0.417
  579SOL    HW1 2636   4.019   1.888   0.446
  579SOL    HW2 2637   3.974   1.731   0.443
  580SOL     OW 2638   1.232   5.044   6.743
  580SOL    HW1 2639   1.326   5.051   6.777
  580SOL    HW2 2640   1.186   4.969   6.790
  581SOL     OW 2641   3.879   3.386   2.760
  581SOL    HW1 2642   3.821   3.305   2.750
  581SOL    HW2 2643   3.875   3.440   2.676
  582SOL     OW 2644   4.969   4.152   2.619
  582SOL    HW1 2645   5.011   4.205   2.694
  582SOL    HW2 2646   4.921   4.214   2.557
  583SOL     OW 2647   2.222   4.371   0.293
  583SOL    HW1 2648   2.254   4.418   0.375
  583SOL    HW2 2649   2.180   4.437   0.231
  584SOL     OW 2650   0.266   4.525   5.252
  584SOL    HW1 2651   0.292   4.620   5.266
  584SOL    HW2 2652   0.190   4.520   5.187
  585SOL     OW 2653   0.340   2.564   6.175
  585SOL    HW1 2654   0.402   2.601   6.244
  585SOL    HW2 2655   0.383   2.485   6.132
  586SOL     OW 2656   2.853   6.635   1.167
  586SOL    HW1 2657   2.933   6.580   1.141
  586SOL    HW2 2658   2.856   6.653   1.265
  587SOL     OW 2659   1.154   3.234   6.139
  587SOL    HW1 2660   1.213   3.160   6.107
  587SOL    HW2 2661   1.059   3.212   6.118
  588SOL     OW 2662   3.448   6.343   1.662
  588SOL    HW1 2663   3.483   6.331   1.570
  588SOL    HW2 2664   3.481   6.269   1.721
  589SOL     OW 2665   3.808   4.913   2.623
  589SOL    HW1 2666   3.724   4.936   2.575
  589SOL    HW2 2667   3.788   4.896   2.719
  590SOL     OW 2668   0.660   2.317   1.991
  590SOL    HW1 2669   0.669   2.365   2.078
  590SOL    HW2 2670   0.673   2.219   2.006
  591SOL     OW 2671   3.634   0.421   3.464
  591SOL    HW1 2672   3.714   0.372   3.499
  591SOL    HW2 2673   3.561   0.418   3.533
  592SOL     OW 2674   4.707   0.584   0.276
  592SOL    HW1 2675   4.663   0.669   0.306
  592SOL    HW2 2676   4.736   0.532   0.356
  593SOL     OW 2677   4.666   2.274   3.786
  593SOL    HW1 2678   4.739   2.341   3.769
  593SOL    HW2 2679   4.705   2.196   3.836
  594SOL     OW 2680   4.026   4.168   1.326
  594SOL    HW1 2681   4.099   4.120   1.277
  594SOL    HW2 2682   3.952   4.188   1.263
  595SOL     OW 2683   3.829   6.062   4.112
  595SOL    HW1 2684   3.840   6.132   4.183
  595SOL    HW2 2685   3.732   6.050   4.091
  596SOL     OW 2686   0.765   4.589   2.436
  596SOL    HW1 2687   0.851   4.538   2.443
  596SOL    HW2 2688   0.720   4.590   2.525
  597SOL     OW 2689   4.571   0.460   5.992
  597SOL    HW1 2690   4.539   0.373   6.030
  597SOL    HW2 2691   4.525   0.478   5.905
  598SOL     OW 2692   3.813   4.628   0.479
  598SOL    HW1 2693   3.818   4.682   0.395
  598SOL    HW2 2694   3.891   4.565   0.482
  599SOL     OW 2695   6.639   0.300   2.723
  599SOL    HW1 2696   6.557   0.254   2.690
  599SOL    HW2 2697   6.686   0.343   2.647
  600SOL     OW 2698   1.164   6.951   0.165
  600SOL    HW1 2699   1.099   6.899   0.110
  600SOL    HW2 2700   1.188   6.898   0.247
  601SOL     OW 2701   2.974   5.858   3.698
  601SOL    HW1 2702   2.972   5.761   3.672
  601SOL    HW2 2703   2.881   5.893   3.702
  602SOL     OW 2704   1.657   0.336   1.616
  602SOL    HW1 2705   1.746   0.294   1.633
  602SOL    HW2 2706   1.626   0.311   1.524
  603SOL     OW 2707   3.974   2.101   3.269
  603SOL    HW1 2708   3.961   2.198   3.293
  603SOL    HW2 2709   4.008   2.094   3.175
  604SOL     OW 2710   1.116   3.308   6.591
  604SOL    HW1 2711   1.164   3.333   6.507
  604SOL    HW2 2712   1.156   3.224   6.628
  605SOL     OW 2713   6.152   6.666   3.192
  605SOL    HW1 2714   6.247   6.685   3.167
  605SOL    HW2 2715   6.096   6.747   3.175
  606SOL     OW 2716   3.872   0.563   3.362
  606SOL    HW1 2717   3.875   0.559   3.462
  606SOL    HW2 2718   3.865   0.470   3.325
  607SOL     OW 2719   5.142   1.658   4.382
  607SOL    HW1 2720   5.207   1.614   4.445
  607SOL    HW2 2721   5.097   1.734   4.428
  608SOL     OW 2722   3.956   0.835   0.644
  608SOL    HW1 2723   3.933   0.916   0.591
  608SOL    HW2 2724   3.888   0.822   0.717
  609SOL     OW 2725   3.277   3.083   3.976
  609SOL    HW1 2726   3.327   2.997   3.971
  609SOL    HW2 2727   3.227   3.088   4.062
  610SOL     OW 2728   5.412   2.647   4.300
  610SOL    HW1 2729   5.495   2.590   4.292
  610SOL    HW2 2730   5.337   2.602   4.252
  611SOL     OW 2731   0.334   0.365   0.698
  611SOL    HW1 2732   0.421   0.403   0.729
  611SOL    HW2 2733   0.350   0.308   0.617
  612SOL     OW 2734   3.140   5.288   6.085
  612SOL    HW1 2735   3.109   5.292   5.990
  612SOL    HW2 2736   3.119   5.374   6.131
  613SOL     OW 2737   3.840   1.584   6.292
  613SOL    HW1 2738   3.904   1.527   6.343
  613SOL    HW2 2739   3.770   1.619   6.353
  614SOL     OW 2740   5.282   4.750   1.030
  614SOL    HW1 2741   5.350   4.677   1.037
  614SOL    HW2 2742   5.214   4.740   1.103
  615SOL     OW 2743   0.007   6.886   0.750
  615SOL    HW1 2744   0.028   6.853   0.842
  615SOL    HW2 2745   0.051   6.975   0.736
  616SOL     OW 2746   5.645   1.269   4.321
  616SOL    HW1 2747   5.739   1.255   4.291
  616SOL    HW2 2748   5.594   1.184   4.313
  617SOL     OW 2749   0.514   4.729   5.691
  617SOL    HW1 2750   0.595   4.778   5.661
  617SOL    HW2 2751   0.483   4.766   5.779
  618SOL     OW 2752   5.643   3.471   0.351
  618SOL    HW1 2753   5.604   3.380   0.360
  618SOL    HW2 2754   5.739   3.469   0.376
  619SOL     OW 2755   3.151   0.588   0.760
  619SOL    HW1 2756   3.107   0.507   0.799
  619SOL    HW2 2757   3.138   0.666   0.821
  620SOL     OW 2758   5.685   2.126   1.980
  620SOL    HW1 2759   5.602   2.150   1.930
  620SOL    HW2 2760   5.659   2.084   2.067
  621SOL     OW 2761   2.808   1.152   6.311
  621SOL    HW1 2762   2.835   1.182   6.402
  621SOL    HW2 2763   2.714   1.118   6.313
  622SOL     OW 2764   1.515   1.457   4.875
  622SOL    HW1 2765   1.471   1.488   4.791
  622SOL    HW2 2766   1.615   1.455   4.863
  623SOL     OW 2767   5.514   0.060   4.211
  623SOL    HW1 2768   5.577   7.009   4.189
  623SOL    HW2 2769   5.484   0.105   4.127
  624SOL     OW 2770   6.582   1.080   6.537
  624SOL    HW1 2771   6.643   1.107   6.611
  624SOL    HW2 2772   6.605   1.133   6.455
  625SOL     OW 2773   2.861   0.768   0.706
  625SOL    HW1 2774   2.945   0.789   0.656
  625SOL    HW2 2775   2.867   0.804   0.799
  626SOL     OW 2776   0.700   5.281   3.702
  626SOL    HW1 2777   0.783   5.230   3.728
  626SOL    HW2 2778   0.708   5.309   3.607
  627SOL     OW 2779   6.823   0.293   0.030
  627SOL    HW1 2780   6.724   0.312   0.029
  627SOL    HW2 2781   6.839   0.201   0.064
  628SOL     OW 2782   5.183   4.696   5.258
  628SOL    HW1 2783   5.239   4.655   5.186
  628SOL    HW2 2784   5.241   4.715   5.338
  629SOL     OW 2785   0.232   0.014   6.268
  629SOL    HW1 2786   0.141   0.010   6.227
  629SOL    HW2 2787   0.224   0.010   6.367
  630SOL     OW 2788   6.258   1.438   1.103
  630SOL    HW1 2789   6.280   1.525   1.149
  630SOL    HW2 2790   6.332   1.414   1.040
  631SOL     OW 2791   2.057   2.525   4.980
  631SOL    HW1 2792   2.112   2.466   4.921
  631SOL    HW2 2793   2.093   2.521   5.073
  632SOL     OW 2794   3.440   3.352   6.640
  632SOL    HW1 2795   3.457   3.306   6.727
  632SOL    HW2 2796   3.485   3.301   6.566
  633SOL     OW 2797   1.775   5.975   1.806
  633SOL    HW1 2798   1.760   5.908   1.879
  633SOL    HW2 2799   1.853   5.946   1.751
  634SOL     OW 2800   3.094   3.337   4.183
  634SOL    HW1 2801   3.007   3.374   4.216
  634SOL    HW2 2802   3.108   3.367   4.089
  635SOL     OW 2803   6.058   0.610   6.530
  635SOL    HW1 2804   6.031   0.697   6.570
  635SOL    HW2 2805   6.009   0.595   6.444
  636SOL     OW 2806   2.808   0.526   6.884
  636SOL    HW1 2807   2.892   0.473   6.892
  636SOL    HW2 2808   2.761   0.529   6.972
  637SOL     OW 2809   6.476   1.140   1.311
  637SOL    HW1 2810   6.557   1.089   1.284
  637SOL    HW2 2811   6.503   1.231   1.343
  638SOL     OW 2812   6.318   3.477   4.393
  638SOL    HW1 2813   6.389   3.483   4.463
  638SOL    HW2 2814   6.288   3.570   4.368
  639SOL     OW 2815   5.206   4.851   3.366
  639SOL    HW1 2816   5.152   4.921   3.320
  639SOL    HW2 2817   5.145   4.785   3.410
  640SOL     OW 2818   0.548   2.599   2.376
  640SOL    HW1 2819   0.491   2.553   2.308
  640SOL    HW2 2820   0.502   2.597   2.465
  641SOL     OW 2821   1.981   4.874   4.702
  641SOL    HW1 2822   2.062   4.820   4.678
  641SOL    HW2 2823   1.904   4.846   4.644
  642SOL     OW 2824   1.090   3.878   4.856
  642SOL    HW1 2825   1.063   3.786   4.827
  642SOL    HW2 2826   1.065   3.892   4.952
  643SOL     OW 2827   4.825   5.117   6.620
  643SOL    HW1 2828   4.889   5.043   6.641
  643SOL    HW2 2829   4.735   5.096   6.659
  644SOL     OW 2830   6.534   0.144   4.601
  644SOL    HW1 2831   6.614   0.083   4.595
  644SOL    HW2 2832   6.531   0.203   4.520
  645SOL     OW 2833   4.212   4.682   2.309
  645SOL    HW1 2834   4.245   4.775   2.290
  645SOL    HW2 2835   4.125   4.687   2.358
  646SOL     OW 2836   4.122   0.689   5.365
  646SOL    HW1 2837   4.095   0.678   5.460
  646SOL    HW2 2838   4.212   0.647   5.350
  647SOL     OW 2839   4.857   2.250   5.355
  647SOL    HW1 2840   4.949   2.251   5.317
  647SOL    HW2 2841   4.860   2.270   5.453
  648SOL     OW 2842   6.061   2.468   3.015
  648SOL    HW1 2843   5.999   2.542   3.043
  648SOL    HW2 2844   6.009   2.384   3.003
  649SOL     OW 2845   2.391   5.164   0.454
  649SOL    HW1 2846   2.371   5.100   0.529
  649SOL    HW2 2847   2.332   5.143   0.376
  650SOL     OW 2848   6.950   5.364   0.890
  650SOL    HW1 2849   6.964   5.423   0.970
  650SOL    HW2 2850   6.876   5.400   0.834
  651SOL     OW 2851   1.304   0.059   5.301
  651SOL    HW1 2852   1.281   0.142   5.352
  651SOL    HW2 2853   1.401   0.039   5.312
  652SOL     OW 2854   3.770   6.753   1.466
  652SOL    HW1 2855   3.704   6.820   1.432
  652SOL    HW2 2856   3.848   6.800   1.505
  653SOL     OW 2857   0.615   6.332   1.457
  653SOL    HW1 2858   0.683   6.274   1.502
  653SOL    HW2 2859   0.624   6.426   1.490
  654SOL     OW 2860   7.021   6.757   5.380
  654SOL    HW1 2861   0.076   6.807   5.417
  654SOL    HW2 2862   6.950   6.747   5.450
  655SOL     OW 2863   6.915   4.429   2.181
  655SOL    HW1 2864   6.989   4.362   2.190
  655SOL    HW2 2865   6.927   4.481   2.097
  656SOL     OW 2866   3.359   6.709   0.321
  656SOL    HW1 2867   3.341   6.797   0.363
  656SOL    HW2 2868   3.346   6.636   0.388
  657SOL     OW 2869   3.610   2.856   1.887
  657SOL    HW1 2870   3.512   2.837   1.901
  657SOL    HW2 2871   3.647   2.901   1.968
  658SOL     OW 2872   2.223   4.360   4.245
  658SOL    HW1 2873   2.138   4.345   4.195
  658SOL    HW2 2874   2.300   4.354   4.181
  659SOL     OW 2875   2.050   6.770   5.628
  659SOL    HW1 2876   2.019   6.789   5.535
  659SOL    HW2 2877   2.030   6.675   5.651
  660SOL     OW 2878   4.715   4.170   2.059
  660SOL    HW1 2879   4.620   4.187   2.032
  660SOL    HW2 2880   4.723   4.174   2.159
  661SOL     OW 2881   4.254   4.857   4.069
  661SOL    HW1 2882   4.163   4.817   4.082
  661SOL    HW2 2883   4.250   4.924   3.995
  662SOL     OW 2884   4.721   3.338   0.752
  662SOL    HW1 2885   4.800   3.399   0.761
  662SOL    HW2 2886   4.750   3.250   0.716
  663SOL     OW 2887   0.484   4.638   0.518
  663SOL    HW1 2888   0.443   4.716   0.471
  663SOL    HW2 2889   0.584   4.641   0.507
  664SOL     OW 2890   1.590   6.765   6.807
  664SOL    HW1 2891   1.559   6.778   6.713
  664SOL    HW2 2892   1.533   6.695   6.851
  665SOL     OW 2893   4.192   5.916   0.862
  665SOL    HW1 2894   4.200   5.968   0.947
  665SOL    HW2 2895   4.282   5.908   0.818
  666SOL     OW 2896   3.538   1.985   0.196
  666SOL    HW1 2897   3.572   2.068   0.151
  666SOL    HW2 2898   3.609   1.948   0.256
  667SOL     OW 2899   0.928   3.437   3.100
  667SOL    HW1 2900   1.024   3.457   3.118
  667SOL    HW2 2901   0.913   3.338   3.103
  668SOL     OW 2902   4.756   6.680   0.530
  668SOL    HW1 2903   4.677   6.653   0.475
  668SOL    HW2 2904   4.780   6.775   0.508
  669SOL     OW 2905   1.480   6.425   3.332
  669SOL    HW1 2906   1.502   6.507   3.385
  669SOL    HW2 2907   1.564   6.383   3.299
  670SOL     OW 2908   3.085   3.976   3.730
  670SOL    HW1 2909   3.079   4.011   3.824
  670SOL    HW2 2910   3.152   4.030   3.679
  671SOL     OW 2911   2.223   0.025   5.471
  671SOL    HW1 2912   2.221   6.971   5.408
  671SOL    HW2 2913   2.149   0.089   5.449
  672SOL     OW 2914   2.066   3.363   3.830
  672SOL    HW1 2915   2.069   3.446   3.774
  672SOL    HW2 2916   2.118   3.377   3.914
  673SOL     OW 2917   4.914   0.160   0.369
  673SOL    HW1 2918   4.839   0.223   0.390
  673SOL    HW2 2919   4.981   0.162   0.443
  674SOL     OW 2920   0.302   1.374   3.729
  674SOL    HW1 2921   0.313   1.321   3.813
  674SOL    HW2 2922   0.350   1.328   3.654
  675SOL     OW 2923   6.917   2.619   4.595
  675SOL    HW1 2924   6.989   2.686   4.613
  675SOL    HW2 2925   6.855   2.655   4.526
  676SOL     OW 2926   2.304   4.729   4.057
  676SOL    HW1 2927   2.281   4.691   4.146
  676SOL    HW2 2928   2.353   4.816   4.069
  677SOL     OW 2929   6.081   0.164   0.637
  677SOL    HW1 2930   6.116   0.154   0.730
  677SOL    HW2 2931   6.005   0.230   0.637
  678SOL     OW 2932   2.202   0.971   6.337
  678SOL    HW1 2933   2.260   0.942   6.261
  678SOL    HW2 2934   2.208   0.904   6.411
  679SOL     OW 2935   4.399   0.313   2.492
  679SOL    HW1 2936   4.412   0.411   2.507
  679SOL    HW2 2937   4.371   0.270   2.577
  680SOL     OW 2938   4.504   4.583   5.560
  680SOL    HW1 2939   4.529   4.570   5.464
  680SOL    HW2 2940   4.405   4.595   5.567
  681SOL     OW 2941   0.583   6.734   1.187
  681SOL    HW1 2942   0.592   6.765   1.281
  681SOL    HW2 2943   0.567   6.635   1.186
  682SOL     OW 2944   1.374   5.751   0.262
  682SOL    HW1 2945   1.318   5.683   0.309
  682SOL    HW2 2946   1.399   5.824   0.326
  683SOL     OW 2947   4.358   1.507   0.163
  683SOL    HW1 2948   4.269   1.530   0.123
  683SOL    HW2 2949   4.344   1.464   0.253
  684SOL     OW 2950   0.422   5.762   5.910
  684SOL    HW1 2951   0.515   5.778   5.876
  684SOL    HW2 2952   0.399   5.665   5.900
  685SOL     OW 2953   5.828   0.253   5.630
  685SOL    HW1 2954   5.844   0.251   5.531
  685SOL    HW2 2955   5.729   0.251   5.648
  686SOL     OW 2956   5.096   4.043   3.216
  686SOL    HW1 2957   5.009   4.051   3.167
  686SOL    HW2 2958   5.164   4.100   3.171
  687SOL     OW 2959   0.316   3.597   5.712
  687SOL    HW1 2960   0.228   3.615   5.756
  687SOL    HW2 2961   0.382   3.568   5.780
  688SOL     OW 2962   0.429   3.833   6.319
  688SOL    HW1 2963   0.503   3.794   6.264
  688SOL    HW2 2964   0.463   3.854   6.411
  689SOL     OW 2965   6.574   3.708   6.077
  689SOL    HW1 2966   6.584   3.636   6.008
  689SOL    HW2 2967   6.660   3.757   6.086
  690SOL     OW 2968   1.321   2.207   3.602
  690SOL    HW1 2969   1.301   2.262   3.521
  690SOL    HW2 2970   1.297   2.258   3.684
  691SOL     OW 2971   0.999   2.605   6.690
  691SOL    HW1 2972   1.097   2.591   6.705
  691SOL    HW2 2973   0.966   2.678   6.749
  692SOL     OW 2974   2.492   0.178   2.401
  692SOL    HW1 2975   2.406   0.229   2.390
  692SOL    HW2 2976   2.483   0.114   2.477
  693SOL     OW 2977   6.578   2.673   2.789
  693SOL    HW1 2978   6.613   2.600   2.730
  693SOL    HW2 2979   6.478   2.675   2.784
  694SOL     OW 2980   1.618   6.483   1.484
  694SOL    HW1 2981   1.556   6.468   1.408
  694SOL    HW2 2982   1.696   6.420   1.477
  695SOL     OW 2983   5.321   5.872   5.296
  695SOL    HW1 2984   5.392   5.928   5.338
  695SOL    HW2 2985   5.238   5.877   5.351
  696SOL     OW 2986   4.350   4.921   2.166
  696SOL    HW1 2987   4.327   4.875   2.080
  696SOL    HW2 2988   4.441   4.961   2.159
  697SOL     OW 2989   1.023   4.336   4.408
  697SOL    HW1 2990   1.004   4.412   4.346
  697SOL    HW2 2991   0.940   4.309   4.456
  698SOL     OW 2992   4.631   0.477   3.423
  698SOL    HW1 2993   4.640   0.378   3.418
  698SOL    HW2 2994   4.547   0.506   3.378
  699SOL     OW 2995   1.333   3.862   1.005
  699SOL    HW1 2996   1.414   3.901   1.048
  699SOL    HW2 2997   1.265   3.933   0.989
  700SOL     OW 2998   2.713   2.375   4.797
  700SOL    HW1 2999   2.785   2.352   4.731
  700SOL    HW2 3000   2.660   2.452   4.762
  701SOL     OW 3001   0.763   3.956   6.279
  701SOL    HW1 3002   0.716   3.952   6.368
  701SOL    HW2 3003   0.845   3.899   6.283
  702SOL     OW 3004   4.915   6.751   3.912
  702SOL    HW1 3005   5.004   6.797   3.916
  702SOL    HW2 3006   4.845   6.812   3.948
  703SOL     OW 3007   4.204   3.876   6.356
  703SOL    HW1 3008   4.119   3.922   6.332
  703SOL    HW2 3009   4.256   3.934   6.419
  704SOL     OW 3010   1.579   0.118   6.901
  704SOL    HW1 3011   1.577   0.181   6.979
  704SOL    HW2 3012   1.674   0.101   6.875
  705SOL     OW 3013   6.055   1.641   2.428
  705SOL    HW1 3014   6.093   1.721   2.475
  705SOL    HW2 3015   5.992   1.672   2.356
  706SOL     OW 3016   3.620   1.752   3.851
  706SOL    HW1 3017   3.639   1.848   3.829
  706SOL    HW2 3018   3.521   1.741   3.866
  707SOL     OW 3019   5.262   0.370   1.621
  707SOL    HW1 3020   5.225   0.342   1.532
  707SOL    HW2 3021   5.247   0.297   1.687
  708SOL     OW 3022   4.191   0.567   1.213
  708SOL    HW1 3023   4.196   0.542   1.310
  708SOL    HW2 3024   4.253   0.643   1.196
  709SOL     OW 3025   1.163   5.008   0.894
  709SOL    HW1 3026   1.181   4.981   0.989
  709SOL    HW2 3027   1.231   5.076   0.866
  710SOL     OW 3028   3.163   4.069   2.590
  710SOL    HW1 3029   3.140   4.162   2.560
  710SOL    HW2 3030   3.088   4.007   2.567
  711SOL     OW 3031   6.913   1.336   4.282
  711SOL    HW1 3032   6.826   1.385   4.269
  711SOL    HW2 3033   6.908   1.282   4.366
  712SOL     OW 3034   1.345   3.764   1.696
  712SOL    HW1 3035   1.351   3.783   1.598
  712SOL    HW2 3036   1.252   3.735   1.718
  713SOL     OW 3037   4.126   3.632   2.305
  713SOL    HW1 3038   4.104   3.555   2.365
  713SOL    HW2 3039   4.139   3.599   2.211
  714SOL     OW 3040   5.685   4.634   4.942
  714SOL    HW1 3041   5.603   4.668   4.895
  714SOL    HW2 3042   5.661   4.556   4.999
  715SOL     OW 3043   4.535   0.165   6.349
  715SOL    HW1 3044   4.595   0.127   6.279
  715SOL    HW2 3045   4.576   0.247   6.388
  716SOL     OW 3046   0.327   4.680   1.591
  716SOL    HW1 3047   0.313   4.743   1.515
  716SOL    HW2 3048   0.387   4.724   1.659
  717SOL     OW 3049   6.333   3.175   0.152
  717SOL    HW1 3050   6.357   3.185   0.249
  717SOL    HW2 3051   6.233   3.178   0.142
  718SOL     OW 3052   3.563   3.636   6.271
  718SOL    HW1 3053   3.513   3.550   6.283
  718SOL    HW2 3054   3.610   3.636   6.183
  719SOL     OW 3055   6.481   4.201   0.948
  719SOL    HW1 3056   6.471   4.201   1.047
  719SOL    HW2 3057   6.392   4.189   0.905
  720SOL     OW 3058   2.234   1.840   6.506
  720SOL    HW1 3059   2.211   1.893   6.425
  720SOL    HW2 3060   2.150   1.816   6.555
  721SOL     OW 3061   1.384   0.299   5.783
  721SOL    HW1 3062   1.349   0.211   5.814
  721SOL    HW2 3063   1.377   0.366   5.858
  722SOL     OW 3064   4.062   0.204   4.866
  722SOL    HW1 3065   3.967   0.231   4.884
  722SOL    HW2 3066   4.081   0.116   4.909
  723SOL     OW 3067   1.463   2.516   2.446
  723SOL    HW1 3068   1.472   2.581   2.521
  723SOL    HW2 3069   1.554   2.488   2.415
  724SOL     OW 3070   0.148   0.819   4.524
  724SOL    HW1 3071   0.091   0.896   4.496
  724SOL    HW2 3072   0.097   0.762   4.588
  725SOL     OW 3073   2.195   4.928   2.601
  725SOL    HW1 3074   2.214   4.851   2.663
  725SOL    HW2 3075   2.280   4.957   2.558
  726SOL     OW 3076   3.553   6.813   6.691
  726SOL    HW1 3077   3.522   6.727   6.649
  726SOL    HW2 3078   3.564   6.799   6.789
  727SOL     OW 3079   3.170   5.364   4.303
  727SOL    HW1 3080   3.175   5.294   4.375
  727SOL    HW2 3081   3.232   5.340   4.229
  728SOL     OW 3082   6.931   4.343   5.252
  728SOL    HW1 3083   6.840   4.317   5.221
  728SOL    HW2 3084   6.977   4.263   5.291
  729SOL     OW 3085   2.417   1.029   1.335
  729SOL    HW1 3086   2.415   1.120   1.378
  729SOL    HW2 3087   2.373   0.963   1.395
  730SOL     OW 3088   6.146   0.812   3.520
  730SOL    HW1 3089   6.071   0.788   3.458
  730SOL    HW2 3090   6.232   0.806   3.470
  731SOL     OW 3091   5.934   3.775   4.459
  731SOL    HW1 3092   5.975   3.683   4.459
  731SOL    HW2 3093   5.884   3.789   4.544
  732SOL     OW 3094   6.764   3.055   1.332
  732SOL    HW1 3095   6.716   3.091   1.252
  732SOL    HW2 3096   6.735   2.961   1.351
  733SOL     OW 3097   4.744   4.193   3.889
  733SOL    HW1 3098   4.785   4.280   3.918
  733SOL    HW2 3099   4.784   4.118   3.942
  734SOL     OW 3100   6.786   4.314   1.088
  734SOL    HW1 3101   6.715   4.384   1.089
  734SOL    HW2 3102   6.805   4.283   1.181
  735SOL     OW 3103   1.473   3.550   6.490
  735SOL    HW1 3104   1.404   3.595   6.433
  735SOL    HW2 3105   1.445   3.556   6.586
  736SOL     OW 3106   6.782   0.530   3.163
  736SOL    HW1 3107   6.733   0.613   3.140
  736SOL    HW2 3108   6.757   0.457   3.099
  737SOL     OW 3109   5.328   3.968   0.967
  737SOL    HW1 3110   5.293   3.883   0.928
  737SOL    HW2 3111   5.427   3.973   0.953
  738SOL     OW 3112   0.172   4.229   4.378
  738SOL    HW1 3113   0.202   4.242   4.284
  738SOL    HW2 3114   0.138   4.135   4.390
  739SOL     OW 3115   4.322   6.282   5.762
  739SOL    HW1 3116   4.257   6.353   5.734
  739SOL    HW2 3117   4.382   6.318   5.833
  740SOL     OW 3118   6.095   6.893   1.428
  740SOL    HW1 3119   6.090   6.831   1.350
  740SOL    HW2 3120   6.189   6.928   1.437
  741SOL     OW 3121   1.488   6.328   2.854
  741SOL    HW1 3122   1.404   6.373   2.884
  741SOL    HW2 3123   1.567   6.368   2.901
  742SOL     OW 3124   1.253   6.710   3.680
  742SOL    HW1 3125   1.253   6.742   3.585
  742SOL    HW2 3126   1.303   6.624   3.687
  743SOL     OW 3127   1.884   3.904   4.145
  743SOL    HW1 3128   1.819   3.888   4.219
  743SOL    HW2 3129   1.955   3.833   4.147
  744SOL     OW 3130   0.027   5.626   0.153
  744SOL    HW1 3131   6.954   5.600   0.162
  744SOL    HW2 3132   0.041   5.717   0.192
  745SOL     OW 3133   1.478   6.009   2.984
  745SOL    HW1 3134   1.559   6.061   2.955
  745SOL    HW2 3135   1.507   5.931   3.038
  746SOL     OW 3136   1.098   0.189   4.976
  746SOL    HW1 3137   1.001   0.168   4.971
  746SOL    HW2 3138   1.146   0.143   4.901
  747SOL     OW 3139   4.655   4.693   3.587
  747SOL    HW1 3140   4.751   4.667   3.574
  747SOL    HW2 3141   4.614   4.635   3.658
  748SOL     OW 3142   3.964   3.542   0.860
  748SOL    HW1 3143   3.966   3.444   0.840
  748SOL    HW2 3144   3.917   3.557   0.947
  749SOL     OW 3145   0.556   2.393   5.155
  749SOL    HW1 3146   0.623   2.404   5.082
  749SOL    HW2 3147   0.551   2.297   5.182
  750SOL     OW 3148   1.988   3.497   0.025
  750SOL    HW1 3149   2.077   3.518   7.008
  750SOL    HW2 3150   1.916   3.526   6.985
  751SOL     OW 3151   4.677   1.159   0.329
  751SOL    HW1 3152   4.650   1.112   0.246
  751SOL    HW2 3153   4.776   1.156   0.339
  752SOL     OW 3154   4.332   2.357   1.939
  752SOL    HW1 3155   4.381   2.443   1.954
  752SOL    HW2 3156   4.265   2.369   1.865
  753SOL     OW 3157   2.094   2.947   4.956
  753SOL    HW1 3158   2.169   2.882   4.941
  753SOL    HW2 3159   2.017   2.923   4.896
  754SOL     OW 3160   4.329   4.306   6.448
  754SOL    HW1 3161   4.367   4.398   6.436
  754SOL    HW2 3162   4.230   4.309   6.436
  755SOL     OW 3163   0.563   5.882   0.341
  755SOL    HW1 3164   0.624   5.959   0.355
  755SOL    HW2 3165   0.616   5.801   0.317
  756SOL     OW 3166   4.926   0.412   1.725
  756SOL    HW1 3167   4.938   0.377   1.632
  756SOL    HW2 3168   4.846   0.472   1.728
  757SOL     OW 3169   0.338   6.505   3.607
  757SOL    HW1 3170   0.257   6.452   3.582
  757SOL    HW2 3171   0.315   6.571   3.679
  758SOL     OW 3172   3.775   2.206   0.788
  758SOL    HW1 3173   3.863   2.165   0.812
  758SOL    HW2 3174   3.718   2.211   0.870
  759SOL     OW 3175   1.021   1.830   6.975
  759SOL    HW1 3176   1.100   1.808   6.918
  759SOL    HW2 3177   0.949   1.872   6.919
  760SOL     OW 3178   5.459   1.289   0.094
  760SOL    HW1 3179   5.386   1.222   0.104
  760SOL    HW2 3180   5.423   1.372   0.051
  761SOL     OW 3181   6.345   2.692   0.206
  761SOL    HW1 3182   6.252   2.663   0.230
  761SOL    HW2 3183   6.346   2.728   0.113
  762SOL     OW 3184   2.611   5.639   3.391
  762SOL    HW1 3185   2.573   5.570   3.330
  762SOL    HW2 3186   2.680   5.693   3.343
  763SOL     OW 3187   4.204   5.539   6.895
  763SOL    HW1 3188   4.281   5.517   6.955
  763SOL    HW2 3189   4.227   5.617   6.838
  764SOL     OW 3190   3.805   1.819   2.282
  764SOL    HW1 3191   3.901   1.809   2.255
  764SOL    HW2 3192   3.799   1.823   2.381
  765SOL     OW 3193   0.110   6.878   2.478
  765SOL    HW1 3194   0.035   6.872   2.544
  765SOL    HW2 3195   0.100   6.961   2.424
  766SOL     OW 3196   6.731   6.942   6.906
  766SOL    HW1 3197   6.730   7.013   6.835
  766SOL    HW2 3198   6.757   6.982   6.993
  767SOL     OW 3199   6.902   6.319   2.246
  767SOL    HW1 3200   6.837   6.370   2.190
  767SOL    HW2 3201   6.987   6.306   2.195
  768SOL     OW 3202   2.680   0.367   2.684
  768SOL    HW1 3203   2.668   0.465   2.670
  768SOL    HW2 3204   2.776   0.346   2.704
  769SOL     OW 3205   4.437   0.218   5.142
  769SOL    HW1 3206   4.405   0.226   5.236
  769SOL    HW2 3207   4.394   0.288   5.086
  770SOL     OW 3208   2.944   5.267   3.780
  770SOL    HW1 3209   2.993   5.187   3.746
  770SOL    HW2 3210   2.981   5.294   3.869
  771SOL     OW 3211   1.443   5.441   3.821
  771SOL    HW1 3212   1.507   5.468   3.893
  771SOL    HW2 3213   1.494   5.409   3.741
  772SOL     OW 3214   6.534   4.546   6.796
  772SOL    HW1 3215   6.514   4.477   6.728
  772SOL    HW2 3216   6.591   4.507   6.868
  773SOL     OW 3217   6.926   4.036   3.293
  773SOL    HW1 3218   6.841   3.992   3.319
  773SOL    HW2 3219   7.000   3.968   3.290
  774SOL     OW 3220   1.027   1.228   1.428
  774SOL    HW1 3221   0.954   1.291   1.454
  774SOL    HW2 3222   0.998   1.174   1.349
  775SOL     OW 3223   1.267   1.927   4.151
  775SOL    HW1 3224   1.266   1.863   4.075
  775SOL    HW2 3225   1.242   2.018   4.119
  776SOL     OW 3226   1.789   0.763   6.301
  776SOL    HW1 3227   1.694   0.792   6.293
  776SOL    HW2 3228   1.800   0.674   6.256
  777SOL     OW 3229   4.607   1.431   0.369
  777SOL    HW1 3230   4.619   1.338   0.333
  777SOL    HW2 3231   4.695   1.467   0.398
  778SOL     OW 3232   4.221   0.621   3.590
  778SOL    HW1 3233   4.157   0.653   3.520
  778SOL    HW2 3234   4.192   0.655   3.680
  779SOL     OW 3235   0.815   2.194   2.341
  779SOL    HW1 3236   0.719   2.214   2.363
  779SOL    HW2 3237   0.826   2.095   2.329
  780SOL     OW 3238   6.370   2.910   4.006
  780SOL    HW1 3239   6.306   2.842   3.972
  780SOL    HW2 3240   6.320   2.993   4.031
  781SOL     OW 3241   6.841   0.995   6.176
  781SOL    HW1 3242   6.765   1.035   6.125
  781SOL    HW2 3243   6.811   0.977   6.270
  782SOL     OW 3244   0.457   2.858   1.082
  782SOL    HW1 3245   0.407   2.773   1.073
  782SOL    HW2 3246   0.470   2.880   1.179
  783SOL     OW 3247   3.170   5.788   0.622
  783SOL    HW1 3248   3.243   5.736   0.665
  783SOL    HW2 3249   3.081   5.752   0.652
  784SOL     OW 3250   3.942   0.416   5.037
  784SOL    HW1 3251   3.892   0.335   5.066
  784SOL    HW2 3252   3.988   0.457   5.116
  785SOL     OW 3253   6.372   1.650   2.859
  785SOL    HW1 3254   6.421   1.576   2.813
  785SOL    HW2 3255   6.278   1.652   2.827
  786SOL     OW 3256   0.081   6.816   0.226
  786SOL    HW1 3257   7.009   6.807   0.256
  786SOL    HW2 3258   0.139   6.758   0.284
  787SOL     OW 3259   2.476   1.612   6.405
  787SOL    HW1 3260   2.559   1.636   6.355
  787SOL    HW2 3261   2.464   1.675   6.482
  788SOL     OW 3262   2.148   3.836   4.379
  788SOL    HW1 3263   2.137   3.740   4.404
  788SOL    HW2 3264   2.088   3.892   4.436
  789SOL     OW 3265   5.655   3.437   1.651
  789SOL    HW1 3266   5.627   3.484   1.734
  789SOL    HW2 3267   5.575   3.417   1.595
  790SOL     OW 3268   2.862   1.329   3.801
  790SOL    HW1 3269   2.765   1.306   3.789
  790SOL    HW2 3270   2.873   1.428   3.804
  791SOL     OW 3271   3.822   0.986   4.016
  791SOL    HW1 3272   3.796   0.916   4.082
  791SOL    HW2 3273   3.792   1.075   4.049
  792SOL     OW 3274   6.167   0.900   2.207
  792SOL    HW1 3275   6.121   0.821   2.167
  792SOL    HW2 3276   6.149   0.903   2.305
  793SOL     OW 3277   4.982   6.913   0.736
  793SOL    HW1 3278   4.989   7.004   0.777
  793SOL    HW2 3279   5.061   6.898   0.677
  794SOL     OW 3280   2.714   4.752   5.638
  794SOL    HW1 3281   2.621   4.741   5.602
  794SOL    HW2 3282   2.719   4.716   5.731
  795SOL     OW 3283   3.827   4.991   5.527
  795SOL    HW1 3284   3.835   4.949   5.437
  795SOL    HW2 3285   3.880   4.937   5.593
  796SOL     OW 3286   0.051   2.709   5.822
  796SOL    HW1 3287   0.140   2.733   5.861
  796SOL    HW2 3288   7.013   2.677   5.895
  797SOL     OW 3289   6.108   2.469   3.740
  797SOL    HW1 3290   6.044   2.513   3.678
  797SOL    HW2 3291   6.180   2.423   3.687
  798SOL     OW 3292   5.075   0.454   0.140
  798SOL    HW1 3293   5.116   0.368   0.108
  798SOL    HW2 3294   5.029   0.438   0.227
  799SOL     OW 3295   6.682   1.917   3.378
  799SOL    HW1 3296   6.737   1.878   3.305
  799SOL    HW2 3297   6.740   1.942   3.455
  800SOL     OW 3298   5.002   0.896   2.535
  800SOL    HW1 3299   4.904   0.919   2.531
  800SOL    HW2 3300   5.032   0.897   2.630
  801SOL     OW 3301   0.621   2.146   3.674
  801SOL    HW1 3302   0.616   2.245   3.686
  801SOL    HW2 3303   0.686   2.125   3.600
  802SOL     OW 3304   5.511   1.511   0.275
  802SOL    HW1 3305   5.417   1.546   0.265
  802SOL    HW2 3306   5.507   1.415   0.302
  803SOL     OW 3307   6.416   5.514   4.110
  803SOL    HW1 3308   6.472   5.535   4.029
  803SOL    HW2 3309   6.320   5.514   4.084
  804SOL     OW 3310   0.032   6.054   0.418
  804SOL    HW1 3311   7.000   6.052   0.502
  804SOL    HW2 3312   0.018   6.141   0.372
  805SOL     OW 3313   3.667   2.583   5.615
  805SOL    HW1 3314   3.612   2.570   5.533
  805SOL    HW2 3315   3.726   2.663   5.602
  806SOL     OW 3316   4.929   2.393   6.665
  806SOL    HW1 3317   4.966   2.311   6.708
  806SOL    HW2 3318   4.921   2.378   6.566
  807SOL     OW 3319   0.802   0.819   3.345
  807SOL    HW1 3320   0.786   0.759   3.423
  807SOL    HW2 3321   0.900   0.836   3.334
  808SOL     OW 3322   5.318   3.268   5.833
  808SOL    HW1 3323   5.229   3.225   5.849
  808SOL    HW2 3324   5.318   3.359   5.875
  809SOL     OW 3325   1.118   4.607   0.609
  809SOL    HW1 3326   1.097   4.675   0.538
  809SOL    HW2 3327   1.096   4.516   0.575
  810SOL     OW 3328   4.986   3.750   0.829
  810SOL    HW1 3329   4.901   3.709   0.864
  810SOL    HW2 3330   4.979   3.850   0.832
  811SOL     OW 3331   5.195   5.125   3.697
  811SOL    HW1 3332   5.275   5.140   3.755
  811SOL    HW2 3333   5.119   5.095   3.753
  812SOL     OW 3334   0.011   0.275   1.414
  812SOL    HW1 3335   0.098   0.309   1.449
  812SOL    HW2 3336   6.994   0.211   1.481
  813SOL     OW 3337   4.419   5.641   3.337
  813SOL    HW1 3338   4.366   5.689   3.267
  813SOL    HW2 3339   4.469   5.565   3.296
  814SOL     OW 3340   5.596   6.240   1.917
  814SOL    HW1 3341   5.559   6.282   2.000
  814SOL    HW2 3342   5.608   6.142   1.932
  815SOL     OW 3343   6.551   2.666   0.855
  815SOL    HW1 3344   6.617   2.624   0.791
  815SOL    HW2 3345   6.465   2.615   0.852
  816SOL     OW 3346   6.742   6.203   0.645
  816SOL    HW1 3347   6.779   6.268   0.578
  816SOL    HW2 3348   6.802   6.124   0.650
  817SOL     OW 3349   1.796   3.550   2.358
  817SOL    HW1 3350   1.767   3.497   2.278
  817SOL    HW2 3351   1.894   3.535   2.375
  818SOL     OW 3352   6.225   2.268   0.700
  818SOL    HW1 3353   6.150   2.292   0.638
  818SOL    HW2 3354   6.207   2.178   0.741
  819SOL     OW 3355   6.631   2.252   3.489
  819SOL    HW1 3356   6.558   2.197   3.529
  819SOL    HW2 3357   6.594   2.309   3.415
  820SOL     OW 3358   0.546   2.636   4.287
  820SOL    HW1 3359   0.480   2.565   4.262
  820SOL    HW2 3360   0.634   2.595   4.307
  821SOL     OW 3361   1.391   4.035   0.727
  821SOL    HW1 3362   1.389   3.942   0.691
  821SOL    HW2 3363   1.460   4.088   0.678
  822SOL     OW 3364   0.867   4.304   4.992
  822SOL    HW1 3365   0.959   4.268   4.976
  822SOL    HW2 3366   0.800   4.230   4.987
  823SOL     OW 3367   4.987   3.813   6.452
  823SOL    HW1 3368   5.072   3.762   6.467
  823SOL    HW2 3369   4.909   3.754   6.475
  824SOL     OW 3370   4.842   2.297   5.626
  824SOL    HW1 3371   4.926   2.312   5.678
  824SOL    HW2 3372   4.780   2.375   5.640
  825SOL     OW 3373   2.148   3.320   2.354
  825SOL    HW1 3374   2.169   3.225   2.376
  825SOL    HW2 3375   2.097   3.324   2.268
  826SOL     OW 3376   5.552   3.335   6.874
  826SOL    HW1 3377   5.544   3.431   6.903
  826SOL    HW2 3378   5.501   3.276   6.936
  827SOL     OW 3379   3.799   5.717   0.134
  827SOL    HW1 3380   3.851   5.671   0.061
  827SOL    HW2 3381   3.701   5.699   0.121
  828SOL     OW 3382   5.950   0.906   5.396
  828SOL    HW1 3383   5.987   0.989   5.437
  828SOL    HW2 3384   5.994   0.826   5.438
  829SOL     OW 3385   3.195   3.104   4.230
  829SOL    HW1 3386   3.206   3.080   4.327
  829SOL    HW2 3387   3.137   3.185   4.223
  830SOL     OW 3388   4.662   3.956   5.220
  830SOL    HW1 3389   4.671   4.054   5.240
  830SOL    HW2 3390   4.572   3.925   5.249
  831SOL     OW 3391   5.890   0.688   5.016
  831SOL    HW1 3392   5.889   0.776   4.968
  831SOL    HW2 3393   5.857   0.701   5.110
  832SOL     OW 3394   1.963   2.051   0.220
  832SOL    HW1 3395   1.928   1.976   0.277
  832SOL    HW2 3396   2.001   2.014   0.136
  833SOL     OW 3397   6.519   6.644   6.194
  833SOL    HW1 3398   6.502   6.573   6.127
  833SOL    HW2 3399   6.611   6.681   6.182
  834SOL     OW 3400   3.172   3.494   3.867
  834SOL    HW1 3401   3.195   3.576   3.920
  834SOL    HW2 3402   3.073   3.490   3.854
  835SOL     OW 3403   3.272   6.345   4.003
  835SOL    HW1 3404   3.221   6.401   4.067
  835SOL    HW2 3405   3.363   6.384   3.989
  836SOL     OW 3406   2.996   0.033   0.047
  836SOL    HW1 3407   2.999   6.976   0.106
  836SOL    HW2 3408   3.086   0.075   0.044
  837SOL     OW 3409   5.050   0.728   6.185
  837SOL    HW1 3410   5.069   0.794   6.259
  837SOL    HW2 3411   4.983   0.661   6.217
  838SOL     OW 3412   1.962   5.818   4.385
  838SOL    HW1 3413   1.916   5.892   4.337
  838SOL    HW2 3414   1.902   5.738   4.387
  839SOL     OW 3415   2.841   1.566   3.502
  839SOL    HW1 3416   2.876   1.658   3.483
  839SOL    HW2 3417   2.755   1.573   3.553
  840SOL     OW 3418   0.838   1.124   6.622
  840SOL    HW1 3419   0.771   1.194   6.647
  840SOL    HW2 3420   0.822   1.095   6.528
  841SOL     OW 3421   6.941   3.688   6.907
  841SOL    HW1 3422   6.897   3.730   6.827
  841SOL    HW2 3423   7.016   3.630   6.876
  842SOL     OW 3424   3.927   5.239   2.881
  842SOL    HW1 3425   3.915   5.260   2.784
  842SOL    HW2 3426   4.007   5.180   2.893
  843SOL     OW 3427   6.188   2.269   2.169
  843SOL    HW1 3428   6.161   2.259   2.265
  843SOL    HW2 3429   6.190   2.180   2.125
  844SOL     OW 3430   5.181   5.996   0.393
  844SOL    HW1 3431   5.136   5.968   0.478
  844SOL    HW2 3432   5.175   5.922   0.326
  845SOL     OW 3433   0.001   4.415   4.832
  845SOL    HW1 3434   7.005   4.325   4.792
  845SOL    HW2 3435   0.072   4.461   4.779
  846SOL     OW 3436   6.385   1.306   6.983
  846SOL    HW1 3437   6.377   1.403   6.962
  846SOL    HW2 3438   6.470   1.290   0.010
  847SOL     OW 3439   5.695   3.231   1.445
  847SOL    HW1 3440   5.596   3.229   1.451
  847SOL    HW2 3441   5.734   3.181   1.522
  848SOL     OW 3442   6.421   0.170   5.841
  848SOL    HW1 3443   6.517   0.144   5.837
  848SOL    HW2 3444   6.413   0.269   5.835
  849SOL     OW 3445   0.437   5.410   5.039
  849SOL    HW1 3446   0.482   5.377   5.122
  849SOL    HW2 3447   0.351   5.360   5.025
  850SOL     OW 3448   4.211   1.137   3.056
  850SOL    HW1 3449   4.305   1.104   3.051
  850SOL    HW2 3450   4.205   1.227   3.012
  851SOL     OW 3451   0.360   0.871   0.372
  851SOL    HW1 3452   0.353   0.796   0.307
  851SOL    HW2 3453   0.445   0.922   0.354
  852SOL     OW 3454   2.616   3.115   6.292
  852SOL    HW1 3455   2.528   3.082   6.326
  852SOL    HW2 3456   2.652   3.051   6.225
  853SOL     OW 3457   1.392   2.711   1.875
  853SOL    HW1 3458   1.306   2.762   1.874
  853SOL    HW2 3459   1.407   2.669   1.785
  854SOL     OW 3460   5.314   5.589   2.723
  854SOL    HW1 3461   5.310   5.680   2.766
  854SOL    HW2 3462   5.223   5.564   2.690
  855SOL     OW 3463   5.705   0.092   1.996
  855SOL    HW1 3464   5.641   0.103   1.920
  855SOL    HW2 3465   5.737   7.021   1.999
  856SOL     OW 3466   2.064   6.118   5.231
  856SOL    HW1 3467   2.139   6.147   5.290
  856SOL    HW2 3468   1.986   6.091   5.288
  857SOL     OW 3469   5.872   3.516   0.795
  857SOL    HW1 3470   5.930   3.464   0.732
  857SOL    HW2 3471   5.929   3.565   0.860
  858SOL     OW 3472   3.301   5.105   2.019
  858SOL    HW1 3473   3.370   5.177   2.011
  858SOL    HW2 3474   3.230   5.119   1.951
  859SOL     OW 3475   0.068   4.571   6.603
  859SOL    HW1 3476   0.087   4.485   6.556
  859SOL    HW2 3477   6.994   4.577   6.624
  860SOL     OW 3478   3.133   4.378   1.092
  860SOL    HW1 3479   3.063   4.394   1.162
  860SOL    HW2 3480   3.161   4.282   1.094
  861SOL     OW 3481   3.268   5.967   5.721
  861SOL    HW1 3482   3.174   5.943   5.696
  861SOL    HW2 3483   3.267   6.052   5.774
  862SOL     OW 3484   5.392   4.260   5.004
  862SOL    HW1 3485   5.396   4.199   5.083
  862SOL    HW2 3486   5.304   4.249   4.958
  863SOL     OW 3487   0.117   0.948   0.957
  863SOL    HW1 3488   0.105   1.021   1.024
  863SOL    HW2 3489   0.186   0.884   0.989
  864SOL     OW 3490   5.625   4.082   2.523
  864SOL    HW1 3491   5.599   4.011   2.458
  864SOL    HW2 3492   5.715   4.061   2.561
  865SOL     OW 3493   2.001   0.038   3.652
  865SOL    HW1 3494   2.088   0.075   3.620
  865SOL    HW2 3495   1.991   0.055   3.750
  866SOL     OW 3496   3.437   2.058   2.010
  866SOL    HW1 3497   3.385   2.067   2.096
  866SOL    HW2 3498   3.527   2.100   2.021
  867SOL     OW 3499   2.817   2.976   6.502
  867SOL    HW1 3500   2.844   2.908   6.569
  867SOL    HW2 3501   2.822   3.067   6.543
  868SOL     OW 3502   5.558   1.124   3.109
  868SOL    HW1 3503   5.556   1.035   3.065
  868SOL    HW2 3504   5.652   1.155   3.120
  869SOL     OW 3505   5.970   6.205   1.316
  869SOL    HW1 3506   5.933   6.234   1.405
  869SOL    HW2 3507   6.022   6.121   1.328
  870SOL     OW 3508   6.295   1.822   1.444
  870SOL    HW1 3509   6.256   1.732   1.464
  870SOL    HW2 3510   6.278   1.883   1.522
  871SOL     OW 3511   5.589   2.302   1.582
  871SOL    HW1 3512   5.623   2.218   1.539
  871SOL    HW2 3513   5.575   2.372   1.513
  872SOL     OW 3514   6.509   2.409   4.030
  872SOL    HW1 3515   6.443   2.479   4.002
  872SOL    HW2 3516   6.518   2.341   3.957
  873SOL     OW 3517   3.133   6.932   3.874
  873SOL    HW1 3518   3.176   6.857   3.823
  873SOL    HW2 3519   3.085   6.993   3.810
  874SOL     OW 3520   1.406   3.895   5.439
  874SOL    HW1 3521   1.329   3.926   5.494
  874SOL    HW2 3522   1.483   3.871   5.498
  875SOL     OW 3523   5.549   3.699   0.097
  875SOL    HW1 3524   5.577   3.719   0.003
  875SOL    HW2 3525   5.627   3.668   0.149
  876SOL     OW 3526   0.234   3.521   1.881
  876SOL    HW1 3527   0.218   3.554   1.788
  876SOL    HW2 3528   0.268   3.427   1.877
  877SOL     OW 3529   4.974   6.020   6.780
  877SOL    HW1 3530   4.918   5.938   6.768
  877SOL    HW2 3531   5.044   6.003   6.849
  878SOL     OW 3532   3.008   5.187   0.713
  878SOL    HW1 3533   3.063   5.188   0.796
  878SOL    HW2 3534   2.948   5.268   0.712
  879SOL     OW 3535   3.929   2.186   2.635
  879SOL    HW1 3536   3.985   2.222   2.709
  879SOL    HW2 3537   3.980   2.191   2.549
  880SOL     OW 3538   3.415   5.296   0.467
  880SOL    HW1 3539   3.332   5.268   0.417
  880SOL    HW2 3540   3.420   5.245   0.553
  881SOL     OW 3541   3.536   5.177   5.094
  881SOL    HW1 3542   3.525   5.101   5.158
  881SOL    HW2 3543   3.511   5.147   5.002
  882SOL     OW 3544   1.549   0.479   4.411
  882SOL    HW1 3545   1.454   0.488   4.380
  882SOL    HW2 3546   1.609   0.466   4.332
  883SOL     OW 3547   3.268   5.534   6.214
  883SOL    HW1 3548   3.270   5.458   6.279
  883SOL    HW2 3549   3.313   5.507   6.129
  884SOL     OW 3550   5.585   3.143   1.936
  884SOL    HW1 3551   5.684   3.160   1.938
  884SOL    HW2 3552   5.537   3.227   1.960
  885SOL     OW 3553   5.277   6.054   0.825
  885SOL    HW1 3554   5.271   6.146   0.785
  885SOL    HW2 3555   5.372   6.033   0.847
  886SOL     OW 3556   4.567   2.198   6.512
  886SOL    HW1 3557   4.583   2.147   6.597
  886SOL    HW2 3558   4.571   2.136   6.434
  887SOL     OW 3559   4.249   6.698   5.367
  887SOL    HW1 3560   4.226   6.770   5.433
  887SOL    HW2 3561   4.184   6.700   5.291
  888SOL     OW 3562   5.968   5.664   2.826
  888SOL    HW1 3563   6.036   5.612   2.878
  888SOL    HW2 3564   5.891   5.605   2.803
  889SOL     OW 3565   0.757   6.376   4.955
  889SOL    HW1 3566   0.836   6.419   4.912
  889SOL    HW2 3567   0.780   6.283   4.983
  890SOL     OW 3568   2.632   4.608   2.268
  890SOL    HW1 3569   2.683   4.587   2.184
  890SOL    HW2 3570   2.643   4.705   2.290
  891SOL     OW 3571   5.451   3.148   0.029
  891SOL    HW1 3572   5.409   3.059   0.012
  891SOL    HW2 3573   5.456   3.165   0.127
  892SOL     OW 3574   2.709   4.781   1.226
  892SOL    HW1 3575   2.754   4.763   1.313
  892SOL    HW2 3576   2.640   4.852   1.238
  893SOL     OW 3577   1.380   0.455   0.418
  893SOL    HW1 3578   1.326   0.535   0.392
  893SOL    HW2 3579   1.333   0.405   0.490
  894SOL     OW 3580   1.057   5.452   4.671
  894SOL    HW1 3581   1.040   5.368   4.618
  894SOL    HW2 3582   1.054   5.531   4.610
  895SOL     OW 3583   2.234   6.606   4.523
  895SOL    HW1 3584   2.157   6.562   4.568
  895SOL    HW2 3585   2.217   6.611   4.424
  896SOL     OW 3586   5.743   6.876   2.660
  896SOL    HW1 3587   5.706   6.908   2.748
  896SOL    HW2 3588   5.724   6.779   2.649
  897SOL     OW 3589   4.955   2.031   6.814
  897SOL    HW1 3590   4.875   2.018   6.873
  897SOL    HW2 3591   4.939   1.987   6.726
  898SOL     OW 3592   5.478   6.220   2.917
  898SOL    HW1 3593   5.442   6.189   2.829
  898SOL    HW2 3594   5.424   6.297   2.951
  899SOL     OW 3595   0.502   4.234   6.214
  899SOL    HW1 3596   0.413   4.277   6.230
  899SOL    HW2 3597   0.573   4.303   6.209
  900SOL     OW 3598   0.733   5.925   3.412
  900SOL    HW1 3599   0.763   6.008   3.459
  900SOL    HW2 3600   0.652   5.889   3.458
  901SOL     OW 3601   5.940   1.060   4.025
  901SOL    HW1 3602   6.005   1.007   4.080
  901SOL    HW2 3603   5.919   1.146   4.073
  902SOL     OW 3604   6.943   6.345   0.487
  902SOL    HW1 3605   6.999   6.393   0.555
  902SOL    HW2 3606   6.953   6.389   0.398
  903SOL     OW 3607   1.324   4.860   0.595
  903SOL    HW1 3608   1.348   4.956   0.586
  903SOL    HW2 3609   1.255   4.849   0.668
  904SOL     OW 3610   1.895   1.777   3.361
  904SOL    HW1 3611   1.986   1.748   3.392
  904SOL    HW2 3612   1.888   1.764   3.262
  905SOL     OW 3613   5.697   1.703   5.193
  905SOL    HW1 3614   5.645   1.701   5.108
  905SOL    HW2 3615   5.634   1.707   5.271
  906SOL     OW 3616   6.842   3.225   5.858
  906SOL    HW1 3617   6.773   3.154   5.852
  906SOL    HW2 3618   6.816   3.291   5.929
  907SOL     OW 3619   6.379   2.370   2.715
  907SOL    HW1 3620   6.401   2.296   2.778
  907SOL    HW2 3621   6.303   2.424   2.751
  908SOL     OW 3622   1.993   0.983   4.036
  908SOL    HW1 3623   1.970   0.933   3.952
  908SOL    HW2 3624   1.939   0.947   4.112
  909SOL     OW 3625   4.262   1.161   1.719
  909SOL    HW1 3626   4.260   1.162   1.819
  909SOL    HW2 3627   4.355   1.183   1.687
  910SOL     OW 3628   1.906   1.551   0.707
  910SOL    HW1 3629   1.832   1.555   0.639
  910SOL    HW2 3630   1.992   1.528   0.662
  911SOL     OW 3631   0.118   4.814   1.873
  911SOL    HW1 3632   0.117   4.913   1.858
  911SOL    HW2 3633   0.209   4.786   1.905
  912SOL     OW 3634   0.829   6.581   5.943
  912SOL    HW1 3635   0.905   6.616   5.999
  912SOL    HW2 3636   0.789   6.656   5.890
  913SOL     OW 3637   2.954   1.291   2.261
  913SOL    HW1 3638   2.953   1.366   2.328
  913SOL    HW2 3639   2.894   1.217   2.292
  914SOL     OW 3640   2.970   6.167   2.525
  914SOL    HW1 3641   3.063   6.131   2.535
  914SOL    HW2 3642   2.904   6.093   2.542
  915SOL     OW 3643   0.622   2.557   1.077
  915SOL    HW1 3644   0.616   2.620   1.155
  915SOL    HW2 3645   0.541   2.499   1.074
  916SOL     OW 3646   2.124   3.048   2.850
  916SOL    HW1 3647   2.144   2.980   2.921
  916SOL    HW2 3648   2.187   3.036   2.773
  917SOL     OW 3649   3.737   1.486   0.714
  917SOL    HW1 3650   3.775   1.517   0.628
  917SOL    HW2 3651   3.811   1.450   0.772
  918SOL     OW 3652   2.132   0.368   6.277
  918SOL    HW1 3653   2.072   0.336   6.351
  918SOL    HW2 3654   2.077   0.398   6.199
  919SOL     OW 3655   2.578   5.873   2.352
  919SOL    HW1 3656   2.479   5.887   2.352
  919SOL    HW2 3657   2.600   5.788   2.304
  920SOL     OW 3658   2.281   0.953   4.125
  920SOL    HW1 3659   2.205   0.912   4.075
  920SOL    HW2 3660   2.362   0.895   4.116
  921SOL     OW 3661   5.670   5.363   4.703
  921SOL    HW1 3662   5.610   5.377   4.625
  921SOL    HW2 3663   5.705   5.451   4.735
  922SOL     OW 3664   2.755   3.687   6.835
  922SOL    HW1 3665   2.748   3.782   6.805
  922SOL    HW2 3666   2.852   3.662   6.846
  923SOL     OW 3667   3.191   0.123   6.462
  923SOL    HW1 3668   3.236   0.191   6.404
  923SOL    HW2 3669   3.182   0.037   6.412
  924SOL     OW 3670   5.407   3.040   3.530
  924SOL    HW1 3671   5.471   2.990   3.473
  924SOL    HW2 3672   5.394   2.991   3.617
  925SOL     OW 3673   0.403   1.632   3.803
  925SOL    HW1 3674   0.347   1.640   3.885
  925SOL    HW2 3675   0.390   1.543   3.761
  926SOL     OW 3676   5.192   5.833   0.975
  926SOL    HW1 3677   5.184   5.875   1.066
  926SOL    HW2 3678   5.215   5.903   0.908
  927SOL     OW 3679   3.679   5.023   4.580
  927SOL    HW1 3680   3.629   5.104   4.612
  927SOL    HW2 3681   3.614   4.952   4.553
  928SOL     OW 3682   1.734   1.840   0.769
  928SOL    HW1 3683   1.788   1.756   0.758
  928SOL    HW2 3684   1.678   1.832   0.852
  929SOL     OW 3685   0.061   2.595   2.706
  929SOL    HW1 3686   0.005   2.678   2.712
  929SOL    HW2 3687   0.109   2.582   2.793
  930SOL     OW 3688   5.016   5.994   4.346
  930SOL    HW1 3689   4.925   6.005   4.305
  930SOL    HW2 3690   5.077   5.952   4.280
  931SOL     OW 3691   1.682   2.834   2.895
  931SOL    HW1 3692   1.594   2.821   2.851
  931SOL    HW2 3693   1.718   2.925   2.873
  932SOL     OW 3694   4.344   6.877   0.649
  932SOL    HW1 3695   4.323   6.849   0.555
  932SOL    HW2 3696   4.258   6.894   0.698
  933SOL     OW 3697   1.688   6.232   3.224
  933SOL    HW1 3698   1.729   6.203   3.137
  933SOL    HW2 3699   1.604   6.180   3.240
  934SOL     OW 3700   3.341   1.081   5.247
  934SOL    HW1 3701   3.414   1.033   5.296
  934SOL    HW2 3702   3.266   1.018   5.228
  935SOL     OW 3703   3.837   3.357   6.372
  935SOL    HW1 3704   3.891   3.415   6.310
  935SOL    HW2 3705   3.794   3.414   6.441
  936SOL     OW 3706   1.061   1.314   1.092
  936SOL    HW1 3707   1.003   1.386   1.131
  936SOL    HW2 3708   1.126   1.354   1.028
  937SOL     OW 3709   4.878   2.095   4.678
  937SOL    HW1 3710   4.859   2.179   4.628
  937SOL    HW2 3711   4.805   2.078   4.744
  938SOL     OW 3712   0.472   2.694   6.772
  938SOL    HW1 3713   0.560   2.651   6.789
  938SOL    HW2 3714   0.473   2.789   6.804
  939SOL     OW 3715   6.031   1.184   5.438
  939SOL    HW1 3716   5.943   1.200   5.394
  939SOL    HW2 3717   6.105   1.200   5.372
  940SOL     OW 3718   6.717   1.048   4.031
  940SOL    HW1 3719   6.810   1.082   4.041
  940SOL    HW2 3720   6.701   1.022   3.935
  941SOL     OW 3721   5.577   2.286   4.556
  941SOL    HW1 3722   5.571   2.369   4.499
  941SOL    HW2 3723   5.590   2.206   4.496
  942SOL     OW 3724   6.220   0.116   5.635
  942SOL    HW1 3725   6.291   0.144   5.699
  942SOL    HW2 3726   6.258   0.050   5.570
  943SOL     OW 3727   5.515   1.901   1.766
  943SOL    HW1 3728   5.485   1.880   1.673
  943SOL    HW2 3729   5.614   1.891   1.771
  944SOL     OW 3730   5.315   4.511   4.078
  944SOL    HW1 3731   5.349   4.417   4.073
  944SOL    HW2 3732   5.391   4.575   4.062
  945SOL     OW 3733   5.832   4.424   4.697
  945SOL    HW1 3734   5.741   4.387   4.716
  945SOL    HW2 3735   5.830   4.523   4.704
  946SOL     OW 3736   5.824   2.328   5.291
  946SOL    HW1 3737   5.756   2.354   5.222
  946SOL    HW2 3738   5.914   2.364   5.265
  947SOL     OW 3739   2.180   2.544   6.140
  947SOL    HW1 3740   2.119   2.596   6.200
  947SOL    HW2 3741   2.163   2.570   6.045
  948SOL     OW 3742   4.075   2.067   0.484
  948SOL    HW1 3743   4.048   2.160   0.459
  948SOL    HW2 3744   4.169   2.050   0.454
  949SOL     OW 3745   6.177   5.756   6.581
  949SOL    HW1 3746   6.262   5.793   6.546
  949SOL    HW2 3747   6.103   5.821   6.564
  950SOL     OW 3748   4.229   5.119   0.942
  950SOL    HW1 3749   4.265   5.166   1.022
  950SOL    HW2 3750   4.265   5.026   0.939
  951SOL     OW 3751   1.009   1.580   2.577
  951SOL    HW1 3752   1.035   1.595   2.672
  951SOL    HW2 3753   1.086   1.540   2.527
  952SOL     OW 3754   5.634   1.083   2.658
  952SOL    HW1 3755   5.596   1.103   2.568
  952SOL    HW2 3756   5.733   1.069   2.650
  953SOL     OW 3757   4.678   6.666   6.249
  953SOL    HW1 3758   4.599   6.637   6.304
  953SOL    HW2 3759   4.744   6.591   6.245
  954SOL     OW 3760   6.418   6.880   0.389
  954SOL    HW1 3761   6.388   6.849   0.480
  954SOL    HW2 3762   6.385   6.973   0.373
  955SOL     OW 3763   0.291   6.513   2.527
  955SOL    HW1 3764   0.312   6.541   2.621
  955SOL    HW2 3765   0.372   6.524   2.470
  956SOL     OW 3766   1.169   2.353   1.354
  956SOL    HW1 3767   1.218   2.416   1.294
  956SOL    HW2 3768   1.110   2.404   1.416
  957SOL     OW 3769   1.953   5.050   4.365
  957SOL    HW1 3770   1.870   5.085   4.322
  957SOL    HW2 3771   1.929   5.001   4.449
  958SOL     OW 3772   4.922   2.357   1.217
  958SOL    HW1 3773   4.868   2.409   1.283
  958SOL    HW2 3774   5.008   2.405   1.201
  959SOL     OW 3775   2.408   4.367   2.842
  959SOL    HW1 3776   2.362   4.311   2.774
  959SOL    HW2 3777   2.342   4.400   2.909
  960SOL     OW 3778   1.605   5.355   4.544
  960SOL    HW1 3779   1.640   5.312   4.627
  960SOL    HW2 3780   1.511   5.386   4.560
  961SOL     OW 3781   4.064   6.906   1.789
  961SOL    HW1 3782   4.112   6.838   1.845
  961SOL    HW2 3783   4.123   6.984   1.772
  962SOL     OW 3784   1.752   0.227   3.819
  962SOL    HW1 3785   1.684   0.245   3.748
  962SOL    HW2 3786   1.728   0.142   3.868
  963SOL     OW 3787   6.675   0.221   0.673
  963SOL    HW1 3788   6.704   0.128   0.700
  963SOL    HW2 3789   6.618   0.215   0.591
  964SOL     OW 3790   5.862   3.244   1.670
  964SOL    HW1 3791   5.842   3.202   1.759
  964SOL    HW2 3792   5.794   3.315   1.652
  965SOL     OW 3793   0.463   2.338   0.032
  965SOL    HW1 3794   0.412   2.341   0.119
  965SOL    HW2 3795   0.553   2.297   0.048
  966SOL     OW 3796   6.650   2.264   2.929
  966SOL    HW1 3797   6.737   2.254   2.978
  966SOL    HW2 3798   6.602   2.345   2.964
  967SOL     OW 3799   1.593   5.998   1.555
  967SOL    HW1 3800   1.674   6.009   1.612
  967SOL    HW2 3801   1.551   5.909   1.574
  968SOL     OW 3802   5.099   2.999   2.922
  968SOL    HW1 3803   5.140   3.089   2.913
  968SOL    HW2 3804   5.009   2.998   2.878
  969SOL     OW 3805   4.810   5.595   5.935
  969SOL    HW1 3806   4.826   5.598   5.836
  969SOL    HW2 3807   4.714   5.572   5.953
  970SOL     OW 3808   4.294   2.350   5.345
  970SOL    HW1 3809   4.353   2.412   5.397
  970SOL    HW2 3810   4.233   2.404   5.287
  971SOL     OW 3811   6.880   1.513   1.546
  971SOL    HW1 3812   6.797   1.498   1.601
  971SOL    HW2 3813   6.926   1.425   1.531
  972SOL     OW 3814   6.402   4.959   1.012
  972SOL    HW1 3815   6.312   4.917   1.000
  972SOL    HW2 3816   6.404   5.047   0.964
  973SOL     OW 3817   5.976   4.587   5.843
  973SOL    HW1 3818   6.035   4.569   5.922
  973SOL    HW2 3819   5.980   4.510   5.780
  974SOL     OW 3820   2.625   1.236   3.698
  974SOL    HW1 3821   2.598   1.220   3.793
  974SOL    HW2 3822   2.559   1.298   3.655
  975SOL     OW 3823   3.298   6.521   5.843
  975SOL    HW1 3824   3.206   6.491   5.817
  975SOL    HW2 3825   3.334   6.582   5.772
  976SOL     OW 3826   0.129   4.452   3.392
  976SOL    HW1 3827   0.212   4.411   3.356
  976SOL    HW2 3828   0.062   4.380   3.412
  977SOL     OW 3829   1.993   0.726   3.755
  977SOL    HW1 3830   1.900   0.745   3.789
  977SOL    HW2 3831   1.989   0.705   3.658
  978SOL     OW 3832   5.352   3.881   4.473
  978SOL    HW1 3833   5.278   3.827   4.433
  978SOL    HW2 3834   5.390   3.942   4.403
  979SOL     OW 3835   6.312   0.850   2.742
  979SOL    HW1 3836   6.213   0.853   2.746
  979SOL    HW2 3837   6.343   0.755   2.747
  980SOL     OW 3838   5.310   2.330   4.613
  980SOL    HW1 3839   5.307   2.414   4.559
  980SOL    HW2 3840   5.404   2.297   4.618
  981SOL     OW 3841   0.716   2.124   4.743
  981SOL    HW1 3842   0.665   2.050   4.700
  981SOL    HW2 3843   0.675   2.147   4.831
  982SOL     OW 3844   0.807   3.137   1.710
  982SOL    HW1 3845   0.896   3.108   1.744
  982SOL    HW2 3846   0.811   3.231   1.678
  983SOL     OW 3847   6.267   2.160   3.088
  983SOL    HW1 3848   6.321   2.109   3.155
  983SOL    HW2 3849   6.308   2.149   2.997
  984SOL     OW 3850   4.662   1.506   4.471
  984SOL    HW1 3851   4.734   1.574   4.461
  984SOL    HW2 3852   4.700   1.415   4.452
  985SOL     OW 3853   3.442   5.541   1.024
  985SOL    HW1 3854   3.351   5.520   1.062
  985SOL    HW2 3855   3.488   5.455   1.001
  986SOL     OW 3856   4.131   4.621   6.450
  986SOL    HW1 3857   4.216   4.670   6.431
  986SOL    HW2 3858   4.151   4.542   6.509
  987SOL     OW 3859   4.078   6.612   2.620
  987SOL    HW1 3860   4.082   6.593   2.718
  987SOL    HW2 3861   4.150   6.561   2.573
  988SOL     OW 3862   3.493   3.333   0.772
  988SOL    HW1 3863   3.525   3.250   0.728
  988SOL    HW2 3864   3.517   3.331   0.869
  989SOL     OW 3865   0.885   6.725   5.423
  989SOL    HW1 3866   0.928   6.813   5.444
  989SOL    HW2 3867   0.787   6.737   5.413
  990SOL     OW 3868   4.250   0.357   3.884
  990SOL    HW1 3869   4.229   0.301   3.964
  990SOL    HW2 3870   4.349   0.363   3.872
  991SOL     OW 3871   0.709   1.447   4.908
  991SOL    HW1 3872   0.749   1.419   4.820
  991SOL    HW2 3873   0.616   1.481   4.893
  992SOL     OW 3874   0.510   3.345   0.076
  992SOL    HW1 3875   0.473   3.262   0.117
  992SOL    HW2 3876   0.437   3.410   0.058
  993SOL     OW 3877   2.842   4.747   3.005
  993SOL    HW1 3878   2.866   4.806   3.082
  993SOL    HW2 3879   2.756   4.701   3.025
  994SOL     OW 3880   3.370   2.899   2.934
  994SOL    HW1 3881   3.391   2.902   2.837
  994SOL    HW2 3882   3.272   2.915   2.948
  995SOL     OW 3883   1.912   1.761   5.431
  995SOL    HW1 3884   1.927   1.727   5.524
  995SOL    HW2 3885   1.895   1.683   5.370
  996SOL     OW 3886   2.195   4.028   2.882
  996SOL    HW1 3887   2.274   3.967   2.874
  996SOL    HW2 3888   2.168   4.059   2.791
  997SOL     OW 3889   0.507   0.579   1.749
  997SOL    HW1 3890   0.466   0.670   1.755
  997SOL    HW2 3891   0.538   0.562   1.656
  998SOL     OW 3892   4.161   7.013   2.319
  998SOL    HW1 3893   4.244   0.021   2.272
  998SOL    HW2 3894   4.081   0.028   2.274
  999SOL     OW 3895   6.755   5.625   1.251
  999SOL    HW1 3896   6.809   5.682   1.313
  999SOL    HW2 3897   6.714   5.550   1.302
 1000SOL     OW 3898   2.799   2.253   4.266
 1000SOL    HW1 3899   2.823   2.278   4.172
 1000SOL    HW2 3900   2.878   2.209   4.310
 1001SOL     OW 3901   5.347   0.201   5.911
 1001SOL    HW1 3902   5.391   0.147   5.839
 1001SOL    HW2 3903   5.320   0.290   5.874
 1002SOL     OW 3904   6.034   1.491   0.029
 1002SOL    HW1 3905   6.037   1.425   0.104
 1002SOL    HW2 3906   6.094   1.568   0.050
 1003SOL     OW 3907   3.226   6.268   2.373
 1003SOL    HW1 3908   3.264   6.227   2.290
 1003SOL    HW2 3909   3.131   6.295   2.356
 1004SOL     OW 3910   6.400   6.683   0.200
 1004SOL    HW1 3911   6.350   6.708   0.117
 1004SOL    HW2 3912   6.403   6.761   0.262
 1005SOL     OW 3913   0.684   0.290   2.875
 1005SOL    HW1 3914   0.665   0.375   2.925
 1005SOL    HW2 3915   0.612   0.223   2.895
 1006SOL     OW 3916   2.653   5.184   1.225
 1006SOL    HW1 3917   2.704   5.098   1.232
 1006SOL    HW2 3918   2.555   5.165   1.236
 1007SOL     OW 3919   0.168   1.096   3.013
 1007SOL    HW1 3920   0.234   1.021   3.014
 1007SOL    HW2 3921   0.153   1.126   2.918
 1008SOL     OW 3922   1.261   3.510   3.873
 1008SOL    HW1 3923   1.334   3.571   3.841
 1008SOL    HW2 3924   1.267   3.423   3.824
 1009SOL     OW 3925   0.551   6.444   4.558
 1009SOL    HW1 3926   0.549   6.544   4.549
 1009SOL    HW2 3927   0.511   6.417   4.645
 1010SOL     OW 3928   4.113   2.494   0.829
 1010SOL    HW1 3929   4.132   2.403   0.866
 1010SOL    HW2 3930   4.031   2.491   0.771
 1011SOL     OW 3931   2.211   5.839   3.949
 1011SOL    HW1 3932   2.283   5.907   3.938
 1011SOL    HW2 3933   2.176   5.843   4.042
 1012SOL     OW 3934   5.413   5.427   0.323
 1012SOL    HW1 3935   5.387   5.357   0.257
 1012SOL    HW2 3936   5.356   5.420   0.405
 1013SOL     OW 3937   0.954   0.781   0.979
 1013SOL    HW1 3938   0.920   0.864   0.934
 1013SOL    HW2 3939   0.892   0.705   0.958
 1014SOL     OW 3940   4.840   6.214   5.985
 1014SOL    HW1 3941   4.827   6.122   5.948
 1014SOL    HW2 3942   4.937   6.238   5.983
 1015SOL     OW 3943   3.630   5.754   4.597
 1015SOL    HW1 3944   3.678   5.809   4.529
 1015SOL    HW2 3945   3.538   5.732   4.564
 1016SOL     OW 3946   3.779   2.847   1.316
 1016SOL    HW1 3947   3.773   2.765   1.373
 1016SOL    HW2 3948   3.737   2.828   1.227
 1017SOL     OW 3949   4.221   2.929   0.470
 1017SOL    HW1 3950   4.175   3.018   0.474
 1017SOL    HW2 3951   4.192   2.880   0.388
 1018SOL     OW 3952   0.922   2.991   3.959
 1018SOL    HW1 3953   0.883   3.063   3.901
 1018SOL    HW2 3954   1.002   3.027   4.007
 1019SOL     OW 3955   0.017   1.613   6.621
 1019SOL    HW1 3956   0.117   1.615   6.625
 1019SOL    HW2 3957   7.010   1.655   6.535
 1020SOL     OW 3958   2.677   1.371   1.197
 1020SOL    HW1 3959   2.737   1.428   1.254
 1020SOL    HW2 3960   2.730   1.294   1.160
 1021SOL     OW 3961   6.810   1.322   0.715
 1021SOL    HW1 3962   6.772   1.234   0.688
 1021SOL    HW2 3963   6.813   1.383   0.636
 1022SOL     OW 3964   4.033   3.354   6.100
 1022SOL    HW1 3965   3.975   3.341   6.020
 1022SOL    HW2 3966   4.027   3.449   6.130
 1023SOL     OW 3967   5.905   0.597   2.428
 1023SOL    HW1 3968   5.953   0.582   2.342
 1023SOL    HW2 3969   5.960   0.560   2.504
 1024SOL     OW 3970   6.777   1.582   4.096
 1024SOL    HW1 3971   6.782   1.610   4.000
 1024SOL    HW2 3972   6.685   1.599   4.131
 1025SOL     OW 3973   3.219   4.814   0.823
 1025SOL    HW1 3974   3.189   4.831   0.729
 1025SOL    HW2 3975   3.243   4.718   0.834
 1026SOL     OW 3976   2.145   2.233   6.865
 1026SOL    HW1 3977   2.071   2.277   6.916
 1026SOL    HW2 3978   2.155   2.138   6.894
 1027SOL     OW 3979   2.917   5.020   2.411
 1027SOL    HW1 3980   2.944   5.082   2.338
 1027SOL    HW2 3981   2.999   4.976   2.449
 1028SOL     OW 3982   1.677   5.871   0.773
 1028SOL    HW1 3983   1.671   5.860   0.674
 1028SOL    HW2 3984   1.616   5.945   0.802
 1029SOL     OW 3985   2.382   0.095   6.775
 1029SOL    HW1 3986   2.388   0.005   6.730
 1029SOL    HW2 3987   2.458   0.106   6.839
 1030SOL     OW 3988   4.124   3.786   5.161
 1030SOL    HW1 3989   4.110   3.687   5.155
 1030SOL    HW2 3990   4.070   3.831   5.090
 1031SOL     OW 3991   2.568   5.077   1.642
 1031SOL    HW1 3992   2.548   5.068   1.739
 1031SOL    HW2 3993   2.540   4.994   1.594
 1032SOL     OW 3994   1.496   1.362   4.499
 1032SOL    HW1 3995   1.449   1.449   4.515
 1032SOL    HW2 3996   1.433   1.287   4.516
 1033SOL     OW 3997   2.432   5.638   1.753
 1033SOL    HW1 3998   2.440   5.577   1.674
 1033SOL    HW2 3999   2.523   5.660   1.787
 1034SOL     OW 4000   2.347   5.186   3.636
 1034SOL    HW1 4001   2.314   5.280   3.633
 1034SOL    HW2 4002   2.402   5.172   3.718
 1035SOL     OW 4003   3.499   0.827   4.910
 1035SOL    HW1 4004   3.423   0.887   4.888
 1035SOL    HW2 4005   3.580   0.881   4.932
 1036SOL     OW 4006   4.382   2.484   1.161
 1036SOL    HW1 4007   4.288   2.512   1.137
 1036SOL    HW2 4008   4.399   2.392   1.126
 1037SOL     OW 4009   2.471   1.002   0.484
 1037SOL    HW1 4010   2.474   0.905   0.457
 1037SOL    HW2 4011   2.524   1.015   0.567
 1038SOL     OW 4012   2.022   1.178   5.537
 1038SOL    HW1 4013   2.035   1.274   5.512
 1038SOL    HW2 4014   1.969   1.173   5.622
 1039SOL     OW 4015   3.966   2.140   4.384
 1039SOL    HW1 4016   4.001   2.181   4.300
 1039SOL    HW2 4017   3.883   2.088   4.363
 1040SOL     OW 4018   5.500   4.232   2.800
 1040SOL    HW1 4019   5.530   4.282   2.718
 1040SOL    HW2 4020   5.512   4.290   2.881
 1041SOL     OW 4021   0.197   1.269   4.378
 1041SOL    HW1 4022   0.245   1.297   4.295
 1041SOL    HW2 4023   0.227   1.325   4.455
 1042SOL     OW 4024   5.445   4.925   0.700
 1042SOL    HW1 4025   5.471   5.007   0.752
 1042SOL    HW2 4026   5.499   4.921   0.616
 1043SOL     OW 4027   2.930   2.030   6.445
 1043SOL    HW1 4028   2.917   2.070   6.354
 1043SOL    HW2 4029   2.903   1.934   6.444
 1044SOL     OW 4030   3.759   3.340   1.713
 1044SOL    HW1 4031   3.691   3.300   1.774
 1044SOL    HW2 4032   3.797   3.269   1.655
 1045SOL     OW 4033   2.768   1.427   2.861
 1045SOL    HW1 4034   2.712   1.377   2.927
 1045SOL    HW2 4035   2.837   1.365   2.822
 1046SOL     OW 4036   3.670   6.893   1.055
 1046SOL    HW1 4037   3.752   6.835   1.053
 1046SOL    HW2 4038   3.655   6.931   0.964
 1047SOL     OW 4039   0.900   4.809   2.786
 1047SOL    HW1 4040   0.848   4.726   2.768
 1047SOL    HW2 4041   0.964   4.825   2.711
 1048SOL     OW 4042   5.112   4.224   4.846
 1048SOL    HW1 4043   5.165   4.203   4.763
 1048SOL    HW2 4044   5.077   4.139   4.885
 1049SOL     OW 4045   0.245   4.071   4.896
 1049SOL    HW1 4046   0.327   4.125   4.914
 1049SOL    HW2 4047   0.190   4.116   4.826
 1050SOL     OW 4048   3.674   0.219   6.795
 1050SOL    HW1 4049   3.587   0.268   6.788
 1050SOL    HW2 4050   3.734   0.267   6.858
 1051SOL     OW 4051   4.794   4.492   0.019
 1051SOL    HW1 4052   4.839   4.462   0.104
 1051SOL    HW2 4053   4.800   4.591   0.012
 1052SOL     OW 4054   3.681   0.231   5.127
 1052SOL    HW1 4055   3.591   0.208   5.089
 1052SOL    HW2 4056   3.672   0.309   5.190
 1053SOL     OW 4057   4.741   4.742   3.879
 1053SOL    HW1 4058   4.765   4.744   3.976
 1053SOL    HW2 4059   4.676   4.816   3.860
 1054SOL     OW 4060   3.292   5.405   4.913
 1054SOL    HW1 4061   3.322   5.446   4.827
 1054SOL    HW2 4062   3.344   5.444   4.989
 1055SOL     OW 4063   4.657   5.800   4.952
 1055SOL    HW1 4064   4.632   5.882   4.900
 1055SOL    HW2 4065   4.675   5.826   5.047
 1056SOL     OW 4066   1.869   6.372   5.388
 1056SOL    HW1 4067   1.831   6.423   5.464
 1056SOL    HW2 4068   1.850   6.274   5.400
 1057SOL     OW 4069   2.911   3.654   2.552
 1057SOL    HW1 4070   2.911   3.677   2.649
 1057SOL    HW2 4071   2.923   3.555   2.541
 1058SOL     OW 4072   3.603   1.289   1.834
 1058SOL    HW1 4073   3.576   1.224   1.905
 1058SOL    HW2 4074   3.538   1.284   1.758
 1059SOL     OW 4075   4.505   1.162   1.574
 1059SOL    HW1 4076   4.597   1.138   1.543
 1059SOL    HW2 4077   4.507   1.254   1.614
 1060SOL     OW 4078   1.241   2.137   5.889
 1060SOL    HW1 4079   1.249   2.038   5.899
 1060SOL    HW2 4080   1.268   2.164   5.797
 1061SOL     OW 4081   3.824   5.314   1.879
 1061SOL    HW1 4082   3.867   5.224   1.877
 1061SOL    HW2 4083   3.844   5.362   1.793
 1062SOL     OW 4084   6.163   6.204   5.444
 1062SOL    HW1 4085   6.065   6.216   5.430
 1062SOL    HW2 4086   6.183   6.108   5.462
 1063SOL     OW 4087   1.928   2.983   0.229
 1063SOL    HW1 4088   1.883   3.068   0.201
 1063SOL    HW2 4089   1.865   2.929   0.284
 1064SOL     OW 4090   0.400   3.001   1.785
 1064SOL    HW1 4091   0.310   3.003   1.741
 1064SOL    HW2 4092   0.389   3.009   1.884
 1065SOL     OW 4093   5.998   6.695   4.563
 1065SOL    HW1 4094   5.968   6.759   4.633
 1065SOL    HW2 4095   6.041   6.745   4.487
 1066SOL     OW 4096   4.593   0.548   3.691
 1066SOL    HW1 4097   4.626   0.532   3.598
 1066SOL    HW2 4098   4.645   0.624   3.731
 1067SOL     OW 4099   2.050   2.948   2.035
 1067SOL    HW1 4100   2.062   2.868   2.095
 1067SOL    HW2 4101   2.100   2.934   1.950
 1068SOL     OW 4102   0.289   4.067   2.402
 1068SOL    HW1 4103   0.199   4.037   2.435
 1068SOL    HW2 4104   0.354   3.991   2.412
 1069SOL     OW 4105   4.171   4.017   1.133
 1069SOL    HW1 4106   4.234   3.946   1.165
 1069SOL    HW2 4107   4.111   3.978   1.063
 1070SOL     OW 4108   2.300   0.974   0.755
 1070SOL    HW1 4109   2.340   1.061   0.728
 1070SOL    HW2 4110   2.371   0.917   0.797
 1071SOL     OW 4111   3.871   6.566   3.780
 1071SOL    HW1 4112   3.839   6.534   3.869
 1071SOL    HW2 4113   3.821   6.518   3.708
 1072SOL     OW 4114   3.385   6.415   2.712
 1072SOL    HW1 4115   3.382   6.413   2.812
 1072SOL    HW2 4116   3.306   6.465   2.677
 1073SOL     OW 4117   2.692   4.661   2.708
 1073SOL    HW1 4118   2.678   4.617   2.797
 1073SOL    HW2 4119   2.783   4.702   2.706
 1074SOL     OW 4120   0.800   4.792   1.792
 1074SOL    HW1 4121   0.752   4.797   1.705
 1074SOL    HW2 4122   0.850   4.877   1.808
 1075SOL     OW 4123   5.609   4.789   4.341
 1075SOL    HW1 4124   5.644   4.717   4.401
 1075SOL    HW2 4125   5.677   4.812   4.272
 1076SOL     OW 4126   0.562   4.363   3.750
 1076SOL    HW1 4127   0.503   4.405   3.819
 1076SOL    HW2 4128   0.555   4.263   3.757
 1077SOL     OW 4129   4.174   0.125   0.970
 1077SOL    HW1 4130   4.190   0.181   0.888
 1077SOL    HW2 4131   4.170   0.184   1.050
 1078SOL     OW 4132   1.405   2.197   1.452
 1078SOL    HW1 4133   1.442   2.266   1.515
 1078SOL    HW2 4134   1.334   2.239   1.396
 1079SOL     OW 4135   2.801   5.621   3.642
 1079SOL    HW1 4136   2.772   5.612   3.547
 1079SOL    HW2 4137   2.756   5.550   3.697
 1080SOL     OW 4138   1.815   5.054   4.079
 1080SOL    HW1 4139   1.801   4.992   4.002
 1080SOL    HW2 4140   1.751   5.131   4.072
 1081SOL     OW 4141   1.616   0.552   0.481
 1081SOL    HW1 4142   1.522   0.523   0.465
 1081SOL    HW2 4143   1.617   0.651   0.499
 1082SOL     OW 4144   1.278   0.083   5.927
 1082SOL    HW1 4145   1.353   0.117   5.983
 1082SOL    HW2 4146   1.300   7.014   5.893
 1083SOL     OW 4147   3.709   3.343   2.115
 1083SOL    HW1 4148   3.681   3.356   2.209
 1083SOL    HW2 4149   3.647   3.279   2.070
 1084SOL     OW 4150   5.623   4.042   1.181
 1084SOL    HW1 4151   5.584   3.950   1.171
 1084SOL    HW2 4152   5.553   4.103   1.219
 1085SOL     OW 4153   1.657   4.761   4.050
 1085SOL    HW1 4154   1.625   4.695   4.118
 1085SOL    HW2 4155   1.579   4.797   4.000
 1086SOL     OW 4156   4.175   4.672   2.016
 1086SOL    HW1 4157   4.157   4.628   2.104
 1086SOL    HW2 4158   4.241   4.618   1.964
 1087SOL     OW 4159   4.505   2.686   5.540
 1087SOL    HW1 4160   4.503   2.785   5.557
 1087SOL    HW2 4161   4.425   2.660   5.485
 1088SOL     OW 4162   5.072   4.480   4.397
 1088SOL    HW1 4163   5.157   4.527   4.421
 1088SOL    HW2 4164   5.067   4.393   4.446
 1089SOL     OW 4165   0.136   0.155   3.757
 1089SOL    HW1 4166   0.232   0.135   3.735
 1089SOL    HW2 4167   0.107   0.096   3.832
 1090SOL     OW 4168   1.493   1.797   6.991
 1090SOL    HW1 4169   1.503   1.788   0.067
 1090SOL    HW2 4170   1.548   1.726   6.945
 1091SOL     OW 4171   1.889   1.678   4.692
 1091SOL    HW1 4172   1.921   1.725   4.610
 1091SOL    HW2 4173   1.807   1.725   4.727
 1092SOL     OW 4174   2.421   4.057   1.573
 1092SOL    HW1 4175   2.382   4.098   1.656
 1092SOL    HW2 4176   2.432   4.128   1.503
 1093SOL     OW 4177   0.320   1.988   2.747
 1093SOL    HW1 4178   0.416   2.015   2.749
 1093SOL    HW2 4179   0.310   1.899   2.793
 1094SOL     OW 4180   0.084   6.734   0.972
 1094SOL    HW1 4181   0.029   6.752   1.054
 1094SOL    HW2 4182   0.181   6.747   0.994
 1095SOL     OW 4183   6.125   3.159   6.279
 1095SOL    HW1 4184   6.188   3.188   6.207
 1095SOL    HW2 4185   6.106   3.237   6.339
 1096SOL     OW 4186   3.534   4.305   1.796
 1096SOL    HW1 4187   3.458   4.322   1.733
 1096SOL    HW2 4188   3.571   4.392   1.828
 1097SOL     OW 4189   1.331   5.502   5.394
 1097SOL    HW1 4190   1.373   5.503   5.484
 1097SOL    HW2 4191   1.317   5.408   5.363
 1098SOL     OW 4192   4.577   2.127   2.550
 1098SOL    HW1 4193   4.583   2.108   2.452
 1098SOL    HW2 4194   4.668   2.144   2.587
 1099SOL     OW 4195   4.324   1.659   4.118
 1099SOL    HW1 4196   4.330   1.573   4.068
 1099SOL    HW2 4197   4.230   1.693   4.115
 1100SOL     OW 4198   0.554   0.819   0.036
 1100SOL    HW1 4199   0.508   0.833   6.971
 1100SOL    HW2 4200   0.493   0.770   0.098
 1101SOL     OW 4201   5.358   3.355   0.734
 1101SOL    HW1 4202   5.432   3.421   0.717
 1101SOL    HW2 4203   5.379   3.269   0.686
 1102SOL     OW 4204   0.733   4.442   3.559
 1102SOL    HW1 4205   0.674   4.425   3.638
 1102SOL    HW2 4206   0.740   4.541   3.544
 1103SOL     OW 4207   1.489   2.190   2.071
 1103SOL    HW1 4208   1.411   2.217   2.126
 1103SOL    HW2 4209   1.519   2.267   2.015
 1104SOL     OW 4210   3.508   4.884   6.076
 1104SOL    HW1 4211   3.462   4.798   6.057
 1104SOL    HW2 4212   3.494   4.948   6.001
 1105SOL     OW 4213   5.009   4.079   6.393
 1105SOL    HW1 4214   5.003   3.980   6.405
 1105SOL    HW2 4215   5.096   4.112   6.430
 1106SOL     OW 4216   0.262   2.737   5.974
 1106SOL    HW1 4217   0.248   2.831   6.007
 1106SOL    HW2 4218   0.273   2.676   6.052
 1107SOL     OW 4219   0.727   0.282   0.549
 1107SOL    HW1 4220   0.779   0.355   0.592
 1107SOL    HW2 4221   0.749   0.195   0.592
 1108SOL     OW 4222   1.663   1.260   5.573
 1108SOL    HW1 4223   1.604   1.229   5.648
 1108SOL    HW2 4224   1.645   1.357   5.555
 1109SOL     OW 4225   4.326   0.070   3.838
 1109SOL    HW1 4226   4.271   0.092   3.918
 1109SOL    HW2 4227   4.327   0.148   3.775
 1110SOL     OW 4228   2.850   3.527   1.816
 1110SOL    HW1 4229   2.759   3.522   1.774
 1110SOL    HW2 4230   2.854   3.607   1.876
 1111SOL     OW 4231   5.561   0.660   0.173
 1111SOL    HW1 4232   5.515   0.583   0.129
 1111SOL    HW2 4233   5.657   0.662   0.145
 1112SOL     OW 4234   6.637   0.979   2.078
 1112SOL    HW1 4235   6.637   0.914   2.154
 1112SOL    HW2 4236   6.640   0.928   1.992
 1113SOL     OW 4237   6.599   3.631   2.419
 1113SOL    HW1 4238   6.639   3.540   2.414
 1113SOL    HW2 4239   6.569   3.660   2.328
 1114SOL     OW 4240   4.459   1.588   5.319
 1114SOL    HW1 4241   4.526   1.534   5.268
 1114SOL    HW2 4242   4.450   1.551   5.411
 1115SOL     OW 4243   2.995   3.415   1.100
 1115SOL    HW1 4244   3.059   3.346   1.069
 1115SOL    HW2 4245   2.905   3.374   1.113
 1116SOL     OW 4246   3.915   6.752   4.302
 1116SOL    HW1 4247   3.910   6.731   4.400
 1116SOL    HW2 4248   3.824   6.743   4.261
 1117SOL     OW 4249   2.621   2.883   0.812
 1117SOL    HW1 4250   2.529   2.920   0.824
 1117SOL    HW2 4251   2.643   2.822   0.888
 1118SOL     OW 4252   2.303   4.346   3.534
 1118SOL    HW1 4253   2.274   4.436   3.500
 1118SOL    HW2 4254   2.299   4.280   3.459
 1119SOL     OW 4255   4.588   3.780   1.489
 1119SOL    HW1 4256   4.671   3.759   1.542
 1119SOL    HW2 4257   4.526   3.835   1.545
 1120SOL     OW 4258   4.336   0.511   5.269
 1120SOL    HW1 4259   4.367   0.488   5.177
 1120SOL    HW2 4260   4.272   0.441   5.301
 1121SOL     OW 4261   5.614   3.039   2.234
 1121SOL    HW1 4262   5.629   2.947   2.200
 1121SOL    HW2 4263   5.524   3.045   2.278
 1122SOL     OW 4264   5.227   3.683   6.513
 1122SOL    HW1 4265   5.241   3.680   6.414
 1122SOL    HW2 4266   5.302   3.633   6.558
 1123SOL     OW 4267   4.531   0.840   2.593
 1123SOL    HW1 4268   4.542   0.741   2.591
 1123SOL    HW2 4269   4.615   0.883   2.560
 1124SOL     OW 4270   0.088   4.179   4.664
 1124SOL    HW1 4271   0.059   4.084   4.653
 1124SOL    HW2 4272   0.118   4.215   4.576
 1125SOL     OW 4273   3.581   3.252   4.831
 1125SOL    HW1 4274   3.556   3.348   4.846
 1125SOL    HW2 4275   3.558   3.199   4.913
 1126SOL     OW 4276   5.222   6.210   1.591
 1126SOL    HW1 4277   5.189   6.285   1.647
 1126SOL    HW2 4278   5.176   6.212   1.502
 1127SOL     OW 4279   1.917   4.767   6.949
 1127SOL    HW1 4280   1.855   4.709   6.896
 1127SOL    HW2 4281   1.943   4.846   6.895
 1128SOL     OW 4282   3.280   1.653   4.369
 1128SOL    HW1 4283   3.298   1.654   4.468
 1128SOL    HW2 4284   3.219   1.577   4.348
 1129SOL     OW 4285   5.250   0.524   6.585
 1129SOL    HW1 4286   5.158   0.486   6.572
 1129SOL    HW2 4287   5.296   0.475   6.659
 1130SOL     OW 4288   1.243   4.340   6.792
 1130SOL    HW1 4289   1.246   4.412   6.723
 1130SOL    HW2 4290   1.198   4.376   6.874
 1131SOL     OW 4291   0.518   6.081   5.635
 1131SOL    HW1 4292   0.519   6.071   5.734
 1131SOL    HW2 4293   0.487   5.995   5.593
 1132SOL     OW 4294   5.040   6.644   5.587
 1132SOL    HW1 4295   5.106   6.592   5.533
 1132SOL    HW2 4296   4.962   6.670   5.529
 1133SOL     OW 4297   0.098   3.506   1.386
 1133SOL    HW1 4298   0.085   3.549   1.297
 1133SOL    HW2 4299   0.155   3.424   1.375
 1134SOL     OW 4300   5.011   2.909   6.137
 1134SOL    HW1 4301   4.914   2.898   6.119
 1134SOL    HW2 4302   5.027   2.997   6.183
 1135SOL     OW 4303   2.797   2.333   3.136
 1135SOL    HW1 4304   2.874   2.387   3.103
 1135SOL    HW2 4305   2.800   2.241   3.097
 1136SOL     OW 4306   3.321   5.650   3.738
 1136SOL    HW1 4307   3.227   5.622   3.721
 1136SOL    HW2 4308   3.321   5.727   3.802
 1137SOL     OW 4309   1.127   1.559   6.128
 1137SOL    HW1 4310   1.226   1.556   6.146
 1137SOL    HW2 4311   1.080   1.596   6.208
 1138SOL     OW 4312   0.967   3.460   6.040
 1138SOL    HW1 4313   0.984   3.498   5.949
 1138SOL    HW2 4314   0.894   3.393   6.035
 1139SOL     OW 4315   1.297   6.089   2.520
 1139SOL    HW1 4316   1.382   6.132   2.549
 1139SOL    HW2 4317   1.248   6.150   2.457
 1140SOL     OW 4318   3.454   1.457   3.839
 1140SOL    HW1 4319   3.440   1.388   3.910
 1140SOL    HW2 4320   3.549   1.488   3.842
 1141SOL     OW 4321   6.211   5.704   5.359
 1141SOL    HW1 4322   6.151   5.626   5.374
 1141SOL    HW2 4323   6.211   5.727   5.262
 1142SOL     OW 4324   5.572   0.592   3.803
 1142SOL    HW1 4325   5.582   0.527   3.879
 1142SOL    HW2 4326   5.503   0.660   3.826
 1143SOL     OW 4327   3.943   1.395   3.048
 1143SOL    HW1 4328   3.912   1.478   3.002
 1143SOL    HW2 4329   3.863   1.340   3.075
 1144SOL     OW 4330   0.243   5.232   4.393
 1144SOL    HW1 4331   0.309   5.228   4.318
 1144SOL    HW2 4332   0.237   5.326   4.428
 1145SOL     OW 4333   6.965   5.695   4.728
 1145SOL    HW1 4334   6.968   5.778   4.673
 1145SOL    HW2 4335   0.028   5.685   4.778
 1146SOL     OW 4336   5.896   1.892   0.971
 1146SOL    HW1 4337   5.824   1.850   1.025
 1146SOL    HW2 4338   5.906   1.843   0.884
 1147SOL     OW 4339   0.366   3.270   2.188
 1147SOL    HW1 4340   0.294   3.309   2.131
 1147SOL    HW2 4341   0.371   3.321   2.274
 1148SOL     OW 4342   3.526   6.704   0.117
 1148SOL    HW1 4343   3.516   6.616   0.070
 1148SOL    HW2 4344   3.490   6.696   0.210
 1149SOL     OW 4345   6.588   3.305   2.349
 1149SOL    HW1 4346   6.641   3.221   2.360
 1149SOL    HW2 4347   6.521   3.292   2.275
 1150SOL     OW 4348   1.785   4.921   0.373
 1150SOL    HW1 4349   1.710   4.988   0.374
 1150SOL    HW2 4350   1.854   4.947   0.441
 1151SOL     OW 4351   5.740   4.842   6.652
 1151SOL    HW1 4352   5.742   4.875   6.746
 1151SOL    HW2 4353   5.672   4.770   6.643
 1152SOL     OW 4354   1.811   0.073   5.005
 1152SOL    HW1 4355   1.727   0.033   4.967
 1152SOL    HW2 4356   1.792   0.167   5.035
 1153SOL     OW 4357   2.506   5.316   2.765
 1153SOL    HW1 4358   2.475   5.223   2.786
 1153SOL    HW2 4359   2.465   5.346   2.679
 1154SOL     OW 4360   0.608   3.814   2.086
 1154SOL    HW1 4361   0.684   3.830   2.148
 1154SOL    HW2 4362   0.571   3.722   2.101
 1155SOL     OW 4363   3.762   5.691   1.984
 1155SOL    HW1 4364   3.801   5.644   2.064
 1155SOL    HW2 4365   3.792   5.644   1.901
 1156SOL     OW 4366   2.358   0.168   4.215
 1156SOL    HW1 4367   2.297   0.096   4.251
 1156SOL    HW2 4368   2.429   0.126   4.158
 1157SOL     OW 4369   0.307   2.694   3.891
 1157SOL    HW1 4370   0.340   2.600   3.896
 1157SOL    HW2 4371   0.237   2.709   3.960
 1158SOL     OW 4372   5.309   5.123   5.339
 1158SOL    HW1 4373   5.244   5.197   5.319
 1158SOL    HW2 4374   5.258   5.042   5.370
 1159SOL     OW 4375   3.900   5.270   3.539
 1159SOL    HW1 4376   3.804   5.296   3.549
 1159SOL    HW2 4377   3.908   5.195   3.474
 1160SOL     OW 4378   3.515   3.708   1.557
 1160SOL    HW1 4379   3.456   3.632   1.529
 1160SOL    HW2 4380   3.578   3.730   1.482
 1161SOL     OW 4381   5.383   0.961   3.658
 1161SOL    HW1 4382   5.288   0.992   3.665
 1161SOL    HW2 4383   5.422   0.992   3.571
 1162SOL     OW 4384   3.368   4.107   1.867
 1162SOL    HW1 4385   3.428   4.184   1.844
 1162SOL    HW2 4386   3.418   4.042   1.924
 1163SOL     OW 4387   5.150   1.685   2.867
 1163SOL    HW1 4388   5.242   1.723   2.861
 1163SOL    HW2 4389   5.109   1.682   2.775
 1164SOL     OW 4390   6.016   3.186   3.552
 1164SOL    HW1 4391   5.984   3.092   3.548
 1164SOL    HW2 4392   5.943   3.247   3.519
 1165SOL     OW 4393   0.817   4.722   3.319
 1165SOL    HW1 4394   0.881   4.759   3.252
 1165SOL    HW2 4395   0.859   4.644   3.366
 1166SOL     OW 4396   4.340   2.689   6.010
 1166SOL    HW1 4397   4.255   2.682   5.957
 1166SOL    HW2 4398   4.360   2.785   6.029
 1167SOL     OW 4399   4.642   1.169   4.998
 1167SOL    HW1 4400   4.705   1.120   4.938
 1167SOL    HW2 4401   4.566   1.206   4.945
 1168SOL     OW 4402   6.580   6.731   3.218
 1168SOL    HW1 4403   6.539   6.723   3.309
 1168SOL    HW2 4404   6.634   6.649   3.199
 1169SOL     OW 4405   0.547   3.583   1.835
 1169SOL    HW1 4406   0.567   3.542   1.746
 1169SOL    HW2 4407   0.530   3.511   1.902
 1170SOL     OW 4408   3.279   1.117   1.661
 1170SOL    HW1 4409   3.182   1.094   1.655
 1170SOL    HW2 4410   3.333   1.033   1.668
 1171SOL     OW 4411   3.074   6.051   0.924
 1171SOL    HW1 4412   3.158   6.103   0.938
 1171SOL    HW2 4413   3.080   6.001   0.837
 1172SOL     OW 4414   3.148   3.446   5.107
 1172SOL    HW1 4415   3.059   3.454   5.153
 1172SOL    HW2 4416   3.173   3.350   5.100
 1173SOL     OW 4417   3.305   1.106   6.729
 1173SOL    HW1 4418   3.245   1.145   6.660
 1173SOL    HW2 4419   3.250   1.055   6.796
 1174SOL     OW 4420   3.296   6.170   0.992
 1174SOL    HW1 4421   3.311   6.201   1.086
 1174SOL    HW2 4422   3.379   6.185   0.938
 1175SOL     OW 4423   6.159   4.811   5.795
 1175SOL    HW1 4424   6.106   4.735   5.834
 1175SOL    HW2 4425   6.100   4.867   5.738
 1176SOL     OW 4426   5.554   4.573   0.983
 1176SOL    HW1 4427   5.638   4.527   1.014
 1176SOL    HW2 4428   5.570   4.671   0.977
 1177SOL     OW 4429   6.602   2.732   6.033
 1177SOL    HW1 4430   6.607   2.684   5.945
 1177SOL    HW2 4431   6.692   2.770   6.055
 1178SOL     OW 4432   6.091   3.460   1.803
 1178SOL    HW1 4433   6.059   3.458   1.897
 1178SOL    HW2 4434   6.062   3.377   1.756
 1179SOL     OW 4435   2.176   5.357   6.507
 1179SOL    HW1 4436   2.090   5.400   6.535
 1179SOL    HW2 4437   2.251   5.421   6.523
 1180SOL     OW 4438   2.716   1.830   4.067
 1180SOL    HW1 4439   2.808   1.866   4.050
 1180SOL    HW2 4440   2.657   1.853   3.990
 1181SOL     OW 4441   1.983   4.245   3.215
 1181SOL    HW1 4442   1.969   4.255   3.117
 1181SOL    HW2 4443   1.954   4.328   3.262
 1182SOL     OW 4444   2.263   4.596   3.830
 1182SOL    HW1 4445   2.275   4.637   3.920
 1182SOL    HW2 4446   2.264   4.497   3.838
 1183SOL     OW 4447   4.444   5.998   0.779
 1183SOL    HW1 4448   4.408   6.091   0.784
 1183SOL    HW2 4449   4.543   6.000   0.798
 1184SOL     OW 4450   2.922   2.804   5.681
 1184SOL    HW1 4451   3.016   2.816   5.713
 1184SOL    HW2 4452   2.861   2.862   5.735
 1185SOL     OW 4453   1.466   0.806   0.235
 1185SOL    HW1 4454   1.453   0.709   0.215
 1185SOL    HW2 4455   1.426   0.828   0.324
 1186SOL     OW 4456   4.853   1.293   4.485
 1186SOL    HW1 4457   4.940   1.276   4.439
 1186SOL    HW2 4458   4.801   1.208   4.492
 1187SOL     OW 4459   5.968   0.463   5.193
 1187SOL    HW1 4460   6.016   0.513   5.121
 1187SOL    HW2 4461   5.978   0.365   5.177
 1188SOL     OW 4462   1.910   0.525   6.156
 1188SOL    HW1 4463   1.847   0.459   6.197
 1188SOL    HW2 4464   1.864   0.577   6.084
 1189SOL     OW 4465   5.564   0.693   1.709
 1189SOL    HW1 4466   5.622   0.611   1.709
 1189SOL    HW2 4467   5.469   0.666   1.693
 1190SOL     OW 4468   4.620   5.086   2.388
 1190SOL    HW1 4469   4.610   4.995   2.347
 1190SOL    HW2 4470   4.715   5.117   2.379
 1191SOL     OW 4471   3.151   5.793   6.631
 1191SOL    HW1 4472   3.054   5.769   6.638
 1191SOL    HW2 4473   3.175   5.809   6.536
 1192SOL     OW 4474   5.504   5.323   3.013
 1192SOL    HW1 4475   5.438   5.295   2.943
 1192SOL    HW2 4476   5.456   5.374   3.084
 1193SOL     OW 4477   5.019   0.514   3.913
 1193SOL    HW1 4478   5.051   0.485   4.003
 1193SOL    HW2 4479   4.959   0.593   3.922
 1194SOL     OW 4480   6.109   0.335   0.417
 1194SOL    HW1 4481   6.127   0.270   0.491
 1194SOL    HW2 4482   6.045   0.294   0.352
 1195SOL     OW 4483   5.336   0.614   6.305
 1195SOL    HW1 4484   5.338   0.684   6.234
 1195SOL    HW2 4485   5.334   0.657   6.395
 1196SOL     OW 4486   0.254   5.277   2.662
 1196SOL    HW1 4487   0.172   5.243   2.708
 1196SOL    HW2 4488   0.253   5.377   2.659
 1197SOL     OW 4489   4.035   5.622   5.795
 1197SOL    HW1 4490   3.970   5.647   5.723
 1197SOL    HW2 4491   4.046   5.699   5.858
 1198SOL     OW 4492   3.231   2.071   2.672
 1198SOL    HW1 4493   3.289   2.090   2.593
 1198SOL    HW2 4494   3.136   2.060   2.642
 1199SOL     OW 4495   4.387   3.920   1.707
 1199SOL    HW1 4496   4.373   4.007   1.755
 1199SOL    HW2 4497   4.342   3.924   1.617
 1200SOL     OW 4498   4.190   4.210   6.763
 1200SOL    HW1 4499   4.099   4.168   6.759
 1200SOL    HW2 4500   4.245   4.164   6.833
 1201SOL     OW 4501   1.336   1.080   5.154
 1201SOL    HW1 4502   1.434   1.063   5.163
 1201SOL    HW2 4503   1.317   1.120   5.065
 1202SOL     OW 4504   5.885   0.261   4.999
 1202SOL    HW1 4505   5.981   0.287   4.990
 1202SOL    HW2 4506   5.873   0.165   4.972
 1203SOL     OW 4507   5.503   6.930   0.723
 1203SOL    HW1 4508   5.545   6.999   0.783
 1203SOL    HW2 4509   5.446   6.868   0.777
 1204SOL     OW 4510   3.505   0.646   0.666
 1204SOL    HW1 4511   3.523   0.605   0.576
 1204SOL    HW2 4512   3.437   0.719   0.656
 1205SOL     OW 4513   6.300   2.691   4.886
 1205SOL    HW1 4514   6.350   2.768   4.925
 1205SOL    HW2 4515   6.233   2.726   4.820
 1206SOL     OW 4516   1.965   1.924   4.834
 1206SOL    HW1 4517   1.866   1.927   4.847
 1206SOL    HW2 4518   1.994   1.830   4.822
 1207SOL     OW 4519   5.920   0.085   6.668
 1207SOL    HW1 4520   6.010   0.110   6.633
 1207SOL    HW2 4521   5.902   0.135   6.753
 1208SOL     OW 4522   3.619   3.444   3.057
 1208SOL    HW1 4523   3.575   3.531   3.079
 1208SOL    HW2 4524   3.594   3.376   3.127
 1209SOL     OW 4525   5.308   5.145   4.239
 1209SOL    HW1 4526   5.326   5.184   4.329
 1209SOL    HW2 4527   5.313   5.045   4.245
 1210SOL     OW 4528   3.704   0.047   2.080
 1210SOL    HW1 4529   3.786   0.087   2.122
 1210SOL    HW2 4530   3.630   0.046   2.146
 1211SOL     OW 4531   0.446   4.452   4.860
 1211SOL    HW1 4532   0.367   4.505   4.828
 1211SOL    HW2 4533   0.458   4.466   4.958
 1212SOL     OW 4534   1.896   3.638   5.225
 1212SOL    HW1 4535   1.931   3.577   5.154
 1212SOL    HW2 4536   1.954   3.630   5.306
 1213SOL     OW 4537   6.245   2.235   5.391
 1213SOL    HW1 4538   6.249   2.135   5.380
 1213SOL    HW2 4539   6.186   2.274   5.321
 1214SOL     OW 4540   2.083   3.861   3.640
 1214SOL    HW1 4541   2.079   3.859   3.540
 1214SOL    HW2 4542   2.112   3.951   3.670
 1215SOL     OW 4543   1.049   4.815   2.043
 1215SOL    HW1 4544   1.070   4.789   1.949
 1215SOL    HW2 4545   1.062   4.736   2.103
 1216SOL     OW 4546   2.025   0.087   2.168
 1216SOL    HW1 4547   2.032   0.000   2.118
 1216SOL    HW2 4548   2.116   0.113   2.200
 1217SOL     OW 4549   1.309   6.515   1.934
 1217SOL    HW1 4550   1.348   6.425   1.913
 1217SOL    HW2 4551   1.378   6.586   1.921
 1218SOL     OW 4552   0.657   3.913   4.099
 1218SOL    HW1 4553   0.603   3.915   4.183
 1218SOL    HW2 4554   0.673   3.818   4.073
 1219SOL     OW 4555   3.823   6.192   1.603
 1219SOL    HW1 4556   3.797   6.233   1.515
 1219SOL    HW2 4557   3.919   6.212   1.622
 1220SOL     OW 4558   5.870   3.784   3.801
 1220SOL    HW1 4559   5.779   3.823   3.789
 1220SOL    HW2 4560   5.939   3.855   3.786
 1221SOL     OW 4561   5.003   3.468   6.986
 1221SOL    HW1 4562   4.905   3.476   7.003
 1221SOL    HW2 4563   5.053   3.479   0.048
 1222SOL     OW 4564   6.949   6.292   1.289
 1222SOL    HW1 4565   6.986   6.199   1.278
 1222SOL    HW2 4566   6.851   6.287   1.305
 1223SOL     OW 4567   6.087   6.898   6.424
 1223SOL    HW1 4568   6.080   6.809   6.378
 1223SOL    HW2 4569   6.024   6.963   6.381
 1224SOL     OW 4570   4.951   5.343   1.572
 1224SOL    HW1 4571   5.046   5.313   1.582
 1224SOL    HW2 4572   4.921   5.387   1.657
 1225SOL     OW 4573   4.811   2.362   0.493
 1225SOL    HW1 4574   4.862   2.403   0.569
 1225SOL    HW2 4575   4.874   2.339   0.419
 1226SOL     OW 4576   5.502   5.928   1.011
 1226SOL    HW1 4577   5.601   5.942   1.019
 1226SOL    HW2 4578   5.481   5.831   1.025
 1227SOL     OW 4579   5.970   3.679   5.663
 1227SOL    HW1 4580   5.951   3.742   5.588
 1227SOL    HW2 4581   6.046   3.715   5.718
 1228SOL     OW 4582   4.119   3.551   3.099
 1228SOL    HW1 4583   4.108   3.647   3.127
 1228SOL    HW2 4584   4.107   3.544   3.000
 1229SOL     OW 4585   2.428   5.608   3.014
 1229SOL    HW1 4586   2.396   5.625   2.921
 1229SOL    HW2 4587   2.482   5.524   3.016
 1230SOL     OW 4588   5.139   4.719   1.264
 1230SOL    HW1 4589   5.089   4.805   1.256
 1230SOL    HW2 4590   5.131   4.684   1.357
 1231SOL     OW 4591   1.559   2.434   6.715
 1231SOL    HW1 4592   1.619   2.515   6.713
 1231SOL    HW2 4593   1.515   2.423   6.626
 1232SOL     OW 4594   3.157   0.654   5.807
 1232SOL    HW1 4595   3.141   0.684   5.901
 1232SOL    HW2 4596   3.207   0.725   5.757
 1233SOL     OW 4597   0.091   6.036   4.963
 1233SOL    HW1 4598   0.126   5.947   4.990
 1233SOL    HW2 4599   0.014   6.024   4.900
 1234SOL     OW 4600   6.836   3.150   0.094
 1234SOL    HW1 4601   6.752   3.105   0.123
 1234SOL    HW2 4602   6.840   3.154   7.018
 1235SOL     OW 4603   6.279   5.429   0.159
 1235SOL    HW1 4604   6.260   5.355   0.224
 1235SOL    HW2 4605   6.213   5.503   0.172
 1236SOL     OW 4606   1.346   1.757   1.891
 1236SOL    HW1 4607   1.342   1.847   1.847
 1236SOL    HW2 4608   1.441   1.732   1.909
 1237SOL     OW 4609   1.031   6.756   4.634
 1237SOL    HW1 4610   1.127   6.734   4.653
 1237SOL    HW2 4611   0.982   6.770   4.719
 1238SOL     OW 4612   6.845   0.754   4.237
 1238SOL    HW1 4613   6.842   0.699   4.320
 1238SOL    HW2 4614   6.826   0.850   4.260
 1239SOL     OW 4615   6.321   4.883   4.614
 1239SOL    HW1 4616   6.413   4.901   4.647
 1239SOL    HW2 4617   6.324   4.820   4.537
 1240SOL     OW 4618   6.142   4.550   3.961
 1240SOL    HW1 4619   6.044   4.549   3.944
 1240SOL    HW2 4620   6.192   4.547   3.874
 1241SOL     OW 4621   5.147   4.815   4.814
 1241SOL    HW1 4622   5.073   4.787   4.875
 1241SOL    HW2 4623   5.154   4.751   4.738
 1242SOL     OW 4624   1.332   4.698   6.978
 1242SOL    HW1 4625   1.346   4.618   0.014
 1242SOL    HW2 4626   1.421   4.735   6.951
 1243SOL     OW 4627   0.603   4.716   4.695
 1243SOL    HW1 4628   0.525   4.654   4.687
 1243SOL    HW2 4629   0.688   4.663   4.703
 1244SOL     OW 4630   4.958   6.879   4.810
 1244SOL    HW1 4631   4.944   6.935   4.729
 1244SOL    HW2 4632   4.874   6.875   4.863
 1245SOL     OW 4633   4.990   6.694   1.430
 1245SOL    HW1 4634   4.914   6.629   1.442
 1245SOL    HW2 4635   4.953   6.785   1.413
 1246SOL     OW 4636   4.730   1.812   0.519
 1246SOL    HW1 4637   4.767   1.880   0.583
 1246SOL    HW2 4638   4.690   1.858   0.440
 1247SOL     OW 4639   6.763   6.743   3.490
 1247SOL    HW1 4640   6.798   6.656   3.457
 1247SOL    HW2 4641   6.663   6.740   3.494
 1248SOL     OW 4642   1.302   6.769   4.701
 1248SOL    HW1 4643   1.338   6.700   4.764
 1248SOL    HW2 4644   1.344   6.857   4.721
 1249SOL     OW 4645   5.689   4.580   6.940
 1249SOL    HW1 4646   5.643   4.598   6.853
 1249SOL    HW2 4647   5.776   4.628   6.942
 1250SOL     OW 4648   6.689   3.069   4.779
 1250SOL    HW1 4649   6.682   3.009   4.699
 1250SOL    HW2 4650   6.613   3.134   4.778
 1251SOL     OW 4651   2.755   0.528   3.022
 1251SOL    HW1 4652   2.833   0.516   2.960
 1251SOL    HW2 4653   2.739   0.626   3.036
 1252SOL     OW 4654   1.367   5.387   6.983
 1252SOL    HW1 4655   1.428   5.432   0.026
 1252SOL    HW2 4656   1.377   5.288   6.990
 1253SOL     OW 4657   3.446   1.003   0.806
 1253SOL    HW1 4658   3.487   1.045   0.726
 1253SOL    HW2 4659   3.372   1.060   0.841
 1254SOL     OW 4660   6.748   1.088   1.470
 1254SOL    HW1 4661   6.739   1.000   1.424
 1254SOL    HW2 4662   6.780   1.157   1.404
 1255SOL     OW 4663   5.490   1.496   5.321
 1255SOL    HW1 4664   5.589   1.491   5.335
 1255SOL    HW2 4665   5.470   1.482   5.224
 1256SOL     OW 4666   0.808   5.882   4.700
 1256SOL    HW1 4667   0.797   5.859   4.603
 1256SOL    HW2 4668   0.836   5.801   4.751
 1257SOL     OW 4669   0.203   5.449   3.847
 1257SOL    HW1 4670   0.298   5.421   3.842
 1257SOL    HW2 4671   0.194   5.531   3.904
 1258SOL     OW 4672   3.490   6.103   4.577
 1258SOL    HW1 4673   3.555   6.027   4.584
 1258SOL    HW2 4674   3.534   6.187   4.610
 1259SOL     OW 4675   5.619   0.484   4.099
 1259SOL    HW1 4676   5.713   0.453   4.084
 1259SOL    HW2 4677   5.556   0.421   4.055
 1260SOL     OW 4678   2.049   0.838   2.060
 1260SOL    HW1 4679   2.052   0.820   2.159
 1260SOL    HW2 4680   2.100   0.921   2.039
 1261SOL     OW 4681   6.315   4.475   6.460
 1261SOL    HW1 4682   6.400   4.504   6.416
 1261SOL    HW2 4683   6.302   4.527   6.544
 1262SOL     OW 4684   4.840   5.149   6.922
 1262SOL    HW1 4685   4.922   5.092   6.918
 1262SOL    HW2 4686   4.759   5.091   6.932
 1263SOL     OW 4687   0.407   2.241   1.839
 1263SOL    HW1 4688   0.481   2.278   1.895
 1263SOL    HW2 4689   0.383   2.306   1.766
 1264SOL     OW 4690   0.291   3.563   3.642
 1264SOL    HW1 4691   0.385   3.586   3.667
 1264SOL    HW2 4692   0.276   3.465   3.653
 1265SOL     OW 4693   6.830   4.231   5.510
 1265SOL    HW1 4694   6.836   4.152   5.572
 1265SOL    HW2 4695   6.922   4.254   5.477
 1266SOL     OW 4696   3.198   1.658   5.171
 1266SOL    HW1 4697   3.192   1.599   5.090
 1266SOL    HW2 4698   3.122   1.638   5.233
 1267SOL     OW 4699   0.068   4.993   2.852
 1267SOL    HW1 4700   0.168   4.996   2.850
 1267SOL    HW2 4701   0.038   4.921   2.915
 1268SOL     OW 4702   5.388   2.518   0.252
 1268SOL    HW1 4703   5.407   2.615   0.241
 1268SOL    HW2 4704   5.319   2.490   0.185
 1269SOL     OW 4705   6.709   5.347   5.605
 1269SOL    HW1 4706   6.766   5.429   5.615
 1269SOL    HW2 4707   6.749   5.272   5.658
 1270SOL     OW 4708   1.909   3.277   4.758
 1270SOL    HW1 4709   1.851   3.267   4.840
 1270SOL    HW2 4710   1.911   3.190   4.709
 1271SOL     OW 4711   3.652   1.650   2.745
 1271SOL    HW1 4712   3.637   1.617   2.652
 1271SOL    HW2 4713   3.598   1.594   2.809
 1272SOL     OW 4714   0.108   5.474   1.493
 1272SOL    HW1 4715   0.163   5.460   1.410
 1272SOL    HW2 4716   0.086   5.386   1.534
 1273SOL     OW 4717   2.874   5.750   6.648
 1273SOL    HW1 4718   2.858   5.690   6.570
 1273SOL    HW2 4719   2.840   5.707   6.731
 1274SOL     OW 4720   6.820   2.500   2.171
 1274SOL    HW1 4721   6.874   2.497   2.256
 1274SOL    HW2 4722   6.826   2.592   2.131
 1275SOL     OW 4723   3.804   1.705   4.382
 1275SOL    HW1 4724   3.821   1.798   4.350
 1275SOL    HW2 4725   3.873   1.644   4.344
 1276SOL     OW 4726   0.695   0.072   2.479
 1276SOL    HW1 4727   0.670   7.004   2.512
 1276SOL    HW2 4728   0.764   0.111   2.540
 1277SOL     OW 4729   0.022   0.439   4.002
 1277SOL    HW1 4730   6.965   0.399   3.959
 1277SOL    HW2 4731   0.013   0.432   4.102
 1278SOL     OW 4732   2.108   1.954   5.682
 1278SOL    HW1 4733   2.010   1.960   5.700
 1278SOL    HW2 4734   2.159   1.965   5.767
 1279SOL     OW 4735   2.905   6.093   0.528
 1279SOL    HW1 4736   2.834   6.142   0.579
 1279SOL    HW2 4737   2.874   6.001   0.507
 1280SOL     OW 4738   2.717   6.983   3.220
 1280SOL    HW1 4739   2.687   6.922   3.293
 1280SOL    HW2 4740   2.676   6.954   3.133
 1281SOL     OW 4741   1.281   6.323   3.137
 1281SOL    HW1 4742   1.295   6.226   3.117
 1281SOL    HW2 4743   1.344   6.352   3.209
 1282SOL     OW 4744   0.948   1.071   1.188
 1282SOL    HW1 4745   0.848   1.072   1.190
 1282SOL    HW2 4746   0.982   1.155   1.146
 1283SOL     OW 4747   5.628   5.311   4.998
 1283SOL    HW1 4748   5.541   5.359   5.013
 1283SOL    HW2 4749   5.648   5.311   4.900
 1284SOL     OW 4750   2.979   2.573   1.696
 1284SOL    HW1 4751   2.930   2.660   1.687
 1284SOL    HW2 4752   2.945   2.524   1.776
 1285SOL     OW 4753   4.757   2.920   5.630
 1285SOL    HW1 4754   4.847   2.961   5.611
 1285SOL    HW2 4755   4.742   2.842   5.569
 1286SOL     OW 4756   5.396   4.093   1.917
 1286SOL    HW1 4757   5.377   4.182   1.959
 1286SOL    HW2 4758   5.336   4.080   1.838
 1287SOL     OW 4759   6.480   6.181   7.016
 1287SOL    HW1 4760   6.481   6.092   6.971
 1287SOL    HW2 4761   6.573   6.207   0.018
 1288SOL     OW 4762   6.995   3.203   0.784
 1288SOL    HW1 4763   0.008   3.269   0.849
 1288SOL    HW2 4764   6.914   3.240   0.739
 1289SOL     OW 4765   6.886   6.153   2.473
 1289SOL    HW1 4766   6.880   6.228   2.407
 1289SOL    HW2 4767   6.802   6.100   2.470
 1290SOL     OW 4768   0.497   6.646   0.249
 1290SOL    HW1 4769   0.587   6.625   0.287
 1290SOL    HW2 4770   0.505   6.724   0.187
 1291SOL     OW 4771   1.232   5.942   0.055
 1291SOL    HW1 4772   1.313   5.997   0.038
 1291SOL    HW2 4773   1.240   5.895   0.143
 1292SOL     OW 4774   0.617   4.990   1.025
 1292SOL    HW1 4775   0.668   5.036   0.952
 1292SOL    HW2 4776   0.634   5.038   1.112
 1293SOL     OW 4777   0.359   1.850   6.602
 1293SOL    HW1 4778   0.452   1.888   6.596
 1293SOL    HW2 4779   0.298   1.918   6.642
 1294SOL     OW 4780   6.985   2.760   2.068
 1294SOL    HW1 4781   6.967   2.832   2.001
 1294SOL    HW2 4782   0.041   2.706   2.039
 1295SOL     OW 4783   5.491   2.695   1.997
 1295SOL    HW1 4784   5.395   2.720   2.007
 1295SOL    HW2 4785   5.499   2.595   1.989
 1296SOL     OW 4786   3.152   1.868   6.566
 1296SOL    HW1 4787   3.252   1.867   6.566
 1296SOL    HW2 4788   3.119   1.958   6.538
 1297SOL     OW 4789   6.790   1.446   5.173
 1297SOL    HW1 4790   6.829   1.433   5.081
 1297SOL    HW2 4791   6.830   1.528   5.215
 1298SOL     OW 4792   6.203   3.057   2.634
 1298SOL    HW1 4793   6.291   3.076   2.590
 1298SOL    HW2 4794   6.218   3.032   2.730
 1299SOL     OW 4795   1.272   4.208   4.678
 1299SOL    HW1 4796   1.364   4.224   4.714
 1299SOL    HW2 4797   1.278   4.157   4.592
 1300SOL     OW 4798   3.450   2.834   2.172
 1300SOL    HW1 4799   3.380   2.844   2.101
 1300SOL    HW2 4800   3.478   2.738   2.177
 1301SOL     OW 4801   0.896   6.658   3.935
 1301SOL    HW1 4802   0.979   6.640   3.881
 1301SOL    HW2 4803   0.822   6.598   3.903
 1302SOL     OW 4804   2.269   6.747   4.906
 1302SOL    HW1 4805   2.224   6.824   4.862
 1302SOL    HW2 4806   2.363   6.771   4.928
 1303SOL     OW 4807   3.532   1.619   0.832
 1303SOL    HW1 4808   3.507   1.675   0.754
 1303SOL    HW2 4809   3.617   1.570   0.812
 1304SOL     OW 4810   1.939   0.300   6.477
 1304SOL    HW1 4811   1.849   0.328   6.443
 1304SOL    HW2 4812   1.957   0.346   6.565
 1305SOL     OW 4813   4.260   0.248   4.632
 1305SOL    HW1 4814   4.195   0.238   4.708
 1305SOL    HW2 4815   4.336   0.184   4.644
 1306SOL     OW 4816   0.498   4.442   4.155
 1306SOL    HW1 4817   0.579   4.408   4.108
 1306SOL    HW2 4818   0.493   4.402   4.246
 1307SOL     OW 4819   1.173   3.066   4.411
 1307SOL    HW1 4820   1.118   3.115   4.344
 1307SOL    HW2 4821   1.241   3.128   4.450
 1308SOL     OW 4822   4.502   6.148   4.051
 1308SOL    HW1 4823   4.479   6.136   4.147
 1308SOL    HW2 4824   4.547   6.065   4.017
 1309SOL     OW 4825   6.034   2.348   4.606
 1309SOL    HW1 4826   6.012   2.297   4.523
 1309SOL    HW2 4827   6.034   2.446   4.587
 1310SOL     OW 4828   5.694   3.873   4.311
 1310SOL    HW1 4829   5.759   3.846   4.382
 1310SOL    HW2 4830   5.673   3.795   4.253
 1311SOL     OW 4831   6.385   6.755   4.983
 1311SOL    HW1 4832   6.468   6.722   4.938
 1311SOL    HW2 4833   6.306   6.705   4.948
 1312SOL     OW 4834   0.449   0.206   0.495
 1312SOL    HW1 4835   0.433   0.147   0.416
 1312SOL    HW2 4836   0.543   0.194   0.528
 1313SOL     OW 4837   3.118   5.204   4.999
 1313SOL    HW1 4838   3.036   5.213   5.055
 1313SOL    HW2 4839   3.158   5.295   4.985
 1314SOL     OW 4840   1.259   1.448   5.329
 1314SOL    HW1 4841   1.198   1.460   5.251
 1314SOL    HW2 4842   1.281   1.537   5.369
 1315SOL     OW 4843   1.944   1.666   1.747
 1315SOL    HW1 4844   2.019   1.606   1.776
 1315SOL    HW2 4845   1.982   1.749   1.706
 1316SOL     OW 4846   2.678   6.762   3.922
 1316SOL    HW1 4847   2.700   6.759   3.825
 1316SOL    HW2 4848   2.581   6.742   3.935
 1317SOL     OW 4849   6.958   5.182   4.658
 1317SOL    HW1 4850   6.880   5.120   4.645
 1317SOL    HW2 4851   6.981   5.225   4.570
 1318SOL     OW 4852   0.281   0.016   0.274
 1318SOL    HW1 4853   0.284   0.095   0.212
 1318SOL    HW2 4854   0.200   6.985   0.254
 1319SOL     OW 4855   6.100   1.349   0.258
 1319SOL    HW1 4856   6.082   1.254   0.232
 1319SOL    HW2 4857   6.197   1.361   0.278
 1320SOL     OW 4858   6.115   4.557   6.088
 1320SOL    HW1 4859   6.068   4.643   6.107
 1320SOL    HW2 4860   6.119   4.502   6.172
 1321SOL     OW 4861   3.885   2.343   0.217
 1321SOL    HW1 4862   3.910   2.289   0.137
 1321SOL    HW2 4863   3.948   2.322   0.292
 1322SOL     OW 4864   6.583   1.316   3.633
 1322SOL    HW1 4865   6.676   1.320   3.668
 1322SOL    HW2 4866   6.520   1.351   3.702
 1323SOL     OW 4867   0.734   1.814   4.889
 1323SOL    HW1 4868   0.749   1.852   4.798
 1323SOL    HW2 4869   0.809   1.840   4.950
 1324SOL     OW 4870   1.598   3.127   1.752
 1324SOL    HW1 4871   1.611   3.034   1.787
 1324SOL    HW2 4872   1.504   3.157   1.772
 1325SOL     OW 4873   2.738   6.348   3.501
 1325SOL    HW1 4874   2.663   6.313   3.444
 1325SOL    HW2 4875   2.701   6.387   3.585
 1326SOL     OW 4876   5.567   2.995   4.128
 1326SOL    HW1 4877   5.592   2.969   4.221
 1326SOL    HW2 4878   5.469   2.980   4.115
 1327SOL     OW 4879   3.913   4.933   3.380
 1327SOL    HW1 4880   3.869   4.916   3.292
 1327SOL    HW2 4881   3.973   4.857   3.403
 1328SOL     OW 4882   1.570   1.640   0.267
 1328SOL    HW1 4883   1.494   1.579   0.247
 1328SOL    HW2 4884   1.656   1.594   0.245
 1329SOL     OW 4885   0.704   0.808   0.776
 1329SOL    HW1 4886   0.752   0.890   0.808
 1329SOL    HW2 4887   0.692   0.813   0.677
 1330SOL     OW 4888   6.534   0.341   0.898
 1330SOL    HW1 4889   6.585   0.297   0.824
 1330SOL    HW2 4890   6.513   0.273   0.969
 1331SOL     OW 4891   5.916   0.227   2.083
 1331SOL    HW1 4892   5.835   0.171   2.064
 1331SOL    HW2 4893   5.906   0.316   2.039
 1332SOL     OW 4894   4.573   1.002   1.133
 1332SOL    HW1 4895   4.521   1.052   1.202
 1332SOL    HW2 4896   4.561   0.904   1.146
 1333SOL     OW 4897   4.001   3.943   4.946
 1333SOL    HW1 4898   4.036   3.861   4.902
 1333SOL    HW2 4899   3.940   3.992   4.883
 1334SOL     OW 4900   0.857   3.865   5.465
 1334SOL    HW1 4901   0.820   3.772   5.464
 1334SOL    HW2 4902   0.835   3.910   5.378
 1335SOL     OW 4903   2.035   5.475   2.987
 1335SOL    HW1 4904   2.067   5.521   2.904
 1335SOL    HW2 4905   2.112   5.431   3.033
 1336SOL     OW 4906   0.716   1.066   5.404
 1336SOL    HW1 4907   0.642   1.130   5.426
 1336SOL    HW2 4908   0.684   1.001   5.334
 1337SOL     OW 4909   1.787   2.330   6.280
 1337SOL    HW1 4910   1.772   2.317   6.378
 1337SOL    HW2 4911   1.881   2.361   6.264
 1338SOL     OW 4912   4.289   4.870   6.555
 1338SOL    HW1 4913   4.309   4.873   6.457
 1338SOL    HW2 4914   4.216   4.936   6.576
 1339SOL     OW 4915   6.817   4.003   5.675
 1339SOL    HW1 4916   6.903   4.027   5.719
 1339SOL    HW2 4917   6.744   3.999   5.744
 1340SOL     OW 4918   1.609   2.236   0.374
 1340SOL    HW1 4919   1.531   2.298   0.387
 1340SOL    HW2 4920   1.578   2.153   0.327
 1341SOL     OW 4921   3.064   1.378   3.620
 1341SOL    HW1 4922   3.100   1.311   3.555
 1341SOL    HW2 4923   2.964   1.372   3.620
 1342SOL     OW 4924   0.771   6.103   0.310
 1342SOL    HW1 4925   0.787   6.113   0.211
 1342SOL    HW2 4926   0.855   6.072   0.354
 1343SOL     OW 4927   3.842   6.107   2.783
 1343SOL    HW1 4928   3.839   6.197   2.827
 1343SOL    HW2 4929   3.862   6.118   2.686
 1344SOL     OW 4930   6.501   1.029   2.451
 1344SOL    HW1 4931   6.479   0.937   2.420
 1344SOL    HW2 4932   6.431   1.092   2.418
 1345SOL     OW 4933   0.673   0.415   2.568
 1345SOL    HW1 4934   0.743   0.473   2.610
 1345SOL    HW2 4935   0.653   0.338   2.628
 1346SOL     OW 4936   6.580   0.106   3.597
 1346SOL    HW1 4937   6.658   0.053   3.631
 1346SOL    HW2 4938   6.607   0.158   3.516
 1347SOL     OW 4939   6.232   6.226   3.102
 1347SOL    HW1 4940   6.222   6.295   3.173
 1347SOL    HW2 4941   6.162   6.240   3.031
 1348SOL     OW 4942   5.863   4.545   4.137
 1348SOL    HW1 4943   5.815   4.563   4.223
 1348SOL    HW2 4944   5.797   4.530   4.064
 1349SOL     OW 4945   3.649   2.540   6.957
 1349SOL    HW1 4946   3.575   2.472   6.949
 1349SOL    HW2 4947   3.677   2.548   0.030
 1350SOL     OW 4948   2.977   0.218   6.605
 1350SOL    HW1 4949   2.911   0.151   6.638
 1350SOL    HW2 4950   3.059   0.172   6.572
 1351SOL     OW 4951   6.945   1.290   3.369
 1351SOL    HW1 4952   6.846   1.295   3.380
 1351SOL    HW2 4953   6.985   1.379   3.391
 1352SOL     OW 4954   0.383   0.889   2.319
 1352SOL    HW1 4955   0.314   0.823   2.290
 1352SOL    HW2 4956   0.407   0.874   2.414
 1353SOL     OW 4957   0.859   4.541   4.672
 1353SOL    HW1 4958   0.917   4.516   4.750
 1353SOL    HW2 4959   0.822   4.458   4.630
 1354SOL     OW 4960   0.389   0.180   1.655
 1354SOL    HW1 4961   0.409   0.129   1.572
 1354SOL    HW2 4962   0.303   0.147   1.695
 1355SOL     OW 4963   4.809   3.294   6.800
 1355SOL    HW1 4964   4.906   3.292   6.780
 1355SOL    HW2 4965   4.773   3.385   6.781
 1356SOL     OW 4966   3.626   3.541   2.691
 1356SOL    HW1 4967   3.548   3.487   2.723
 1356SOL    HW2 4968   3.626   3.631   2.734
 1357SOL     OW 4969   2.776   2.993   5.858
 1357SOL    HW1 4970   2.684   3.026   5.837
 1357SOL    HW2 4971   2.779   2.966   5.954
 1358SOL     OW 4972   2.409   2.929   6.367
 1358SOL    HW1 4973   2.350   3.009   6.374
 1358SOL    HW2 4974   2.364   2.850   6.408
 1359SOL     OW 4975   6.325   2.680   0.496
 1359SOL    HW1 4976   6.397   2.644   0.554
 1359SOL    HW2 4977   6.350   2.667   0.400
 1360SOL     OW 4978   3.568   3.798   3.470
 1360SOL    HW1 4979   3.484   3.794   3.524
 1360SOL    HW2 4980   3.581   3.711   3.422
 1361SOL     OW 4981   0.744   6.015   6.897
 1361SOL    HW1 4982   0.706   6.050   6.811
 1361SOL    HW2 4983   0.844   6.028   6.897
 1362SOL     OW 4984   2.736   3.413   6.080
 1362SOL    HW1 4985   2.806   3.389   6.012
 1362SOL    HW2 4986   2.778   3.418   6.170
 1363SOL     OW 4987   6.370   5.640   2.395
 1363SOL    HW1 4988   6.463   5.610   2.417
 1363SOL    HW2 4989   6.315   5.639   2.479
 1364SOL     OW 4990   0.024   3.322   1.009
 1364SOL    HW1 4991   0.071   3.397   1.056
 1364SOL    HW2 4992   0.056   3.235   1.046
 1365SOL     OW 4993   0.482   3.548   6.411
 1365SOL    HW1 4994   0.520   3.458   6.388
 1365SOL    HW2 4995   0.513   3.615   6.344
 1366SOL     OW 4996   0.026   1.811   0.322
 1366SOL    HW1 4997   6.957   1.845   0.337
 1366SOL    HW2 4998   0.029   1.760   0.236
 1367SOL     OW 4999   0.144   5.678   4.018
 1367SOL    HW1 5000   0.047   5.675   4.040
 1367SOL    HW2 5001   0.162   5.752   3.953
 1368SOL     OW 5002   6.698   6.953   4.019
 1368SOL    HW1 5003   6.659   6.990   4.103
 1368SOL    HW2 5004   6.710   6.854   4.027
 1369SOL     OW 5005   3.112   6.224   2.857
 1369SOL    HW1 5006   3.159   6.137   2.871
 1369SOL    HW2 5007   3.071   6.225   2.765
 1370SOL     OW 5008   6.888   2.301   3.027
 1370SOL    HW1 5009   6.862   2.244   3.104
 1370SOL    HW2 5010   6.944   2.378   3.060
 1371SOL     OW 5011   5.693   1.391   4.833
 1371SOL    HW1 5012   5.792   1.386   4.850
 1371SOL    HW2 5013   5.675   1.465   4.768
 1372SOL     OW 5014   6.322   2.765   6.964
 1372SOL    HW1 5015   6.392   2.718   6.911
 1372SOL    HW2 5016   6.231   2.739   6.931
 1373SOL     OW 5017   4.733   2.720   2.092
 1373SOL    HW1 5018   4.741   2.817   2.070
 1373SOL    HW2 5019   4.637   2.695   2.099
 1374SOL     OW 5020   5.293   4.448   0.232
 1374SOL    HW1 5021   5.349   4.530   0.219
 1374SOL    HW2 5022   5.254   4.419   0.145
 1375SOL     OW 5023   5.845   5.882   4.820
 1375SOL    HW1 5024   5.824   5.889   4.723
 1375SOL    HW2 5025   5.855   5.973   4.859
 1376SOL     OW 5026   2.443   5.019   6.979
 1376SOL    HW1 5027   2.421   5.109   6.942
 1376SOL    HW2 5028   2.383   4.998   0.033
 1377SOL     OW 5029   1.676   2.159   2.964
 1377SOL    HW1 5030   1.753   2.195   3.016
 1377SOL    HW2 5031   1.595   2.214   2.982
 1378SOL     OW 5032   4.443   2.231   4.477
 1378SOL    HW1 5033   4.537   2.248   4.448
 1378SOL    HW2 5034   4.442   2.210   4.575
 1379SOL     OW 5035   5.679   5.196   1.091
 1379SOL    HW1 5036   5.698   5.134   1.167
 1379SOL    HW2 5037   5.757   5.196   1.029
 1380SOL     OW 5038   6.954   5.583   1.053
 1380SOL    HW1 5039   7.009   5.666   1.062
 1380SOL    HW2 5040   6.873   5.590   1.111
 1381SOL     OW 5041   6.212   2.227   5.905
 1381SOL    HW1 5042   6.284   2.203   5.969
 1381SOL    HW2 5043   6.134   2.166   5.918
 1382SOL     OW 5044   4.096   2.726   1.458
 1382SOL    HW1 5045   4.104   2.773   1.546
 1382SOL    HW2 5046   4.160   2.766   1.392
 1383SOL     OW 5047   1.166   0.682   1.889
 1383SOL    HW1 5048   1.167   0.763   1.830
 1383SOL    HW2 5049   1.258   0.645   1.897
 1384SOL     OW 5050   5.605   0.193   0.636
 1384SOL    HW1 5051   5.595   0.221   0.731
 1384SOL    HW2 5052   5.649   0.104   0.632
 1385SOL     OW 5053   1.828   5.416   2.790
 1385SOL    HW1 5054   1.903   5.444   2.849
 1385SOL    HW2 5055   1.833   5.317   2.774
 1386SOL     OW 5056   2.722   5.996   4.132
 1386SOL    HW1 5057   2.659   5.923   4.106
 1386SOL    HW2 5058   2.816   5.967   4.114
 1387SOL     OW 5059   4.167   6.010   1.612
 1387SOL    HW1 5060   4.264   6.035   1.613
 1387SOL    HW2 5061   4.112   6.093   1.612
 1388SOL     OW 5062   6.484   0.341   1.264
 1388SOL    HW1 5063   6.467   0.433   1.301
 1388SOL    HW2 5064   6.581   0.320   1.274
 1389SOL     OW 5065   6.778   1.085   2.901
 1389SOL    HW1 5066   6.725   1.102   2.983
 1389SOL    HW2 5067   6.720   1.041   2.832
 1390SOL     OW 5068   0.587   2.867   5.502
 1390SOL    HW1 5069   0.625   2.956   5.525
 1390SOL    HW2 5070   0.628   2.835   5.416
 1391SOL     OW 5071   6.822   1.896   3.620
 1391SOL    HW1 5072   6.832   1.796   3.619
 1391SOL    HW2 5073   6.871   1.933   3.699
 1392SOL     OW 5074   5.165   5.330   5.200
 1392SOL    HW1 5075   5.077   5.340   5.246
 1392SOL    HW2 5076   5.157   5.260   5.129
 1393SOL     OW 5077   4.790   6.380   6.290
 1393SOL    HW1 5078   4.815   6.352   6.197
 1393SOL    HW2 5079   4.839   6.323   6.356
 1394SOL     OW 5080   3.007   5.934   5.665
 1394SOL    HW1 5081   2.924   5.879   5.664
 1394SOL    HW2 5082   2.992   6.018   5.614
 1395SOL     OW 5083   3.012   4.435   5.653
 1395SOL    HW1 5084   2.975   4.525   5.629
 1395SOL    HW2 5085   3.031   4.432   5.751
 1396SOL     OW 5086   6.560   6.768   4.482
 1396SOL    HW1 5087   6.476   6.820   4.470
 1396SOL    HW2 5088   6.582   6.719   4.397
 1397SOL     OW 5089   5.848   0.418   4.617
 1397SOL    HW1 5090   5.796   0.464   4.545
 1397SOL    HW2 5091   5.807   0.439   4.706
 1398SOL     OW 5092   1.369   1.228   4.905
 1398SOL    HW1 5093   1.276   1.209   4.875
 1398SOL    HW2 5094   1.399   1.315   4.868
 1399SOL     OW 5095   3.101   6.259   1.409
 1399SOL    HW1 5096   3.139   6.345   1.444
 1399SOL    HW2 5097   3.173   6.207   1.363
 1400SOL     OW 5098   0.013   1.318   1.984
 1400SOL    HW1 5099   6.995   1.379   2.051
 1400SOL    HW2 5100   6.981   1.317   1.900
 1401SOL     OW 5101   0.682   1.893   5.210
 1401SOL    HW1 5102   0.694   1.794   5.221
 1401SOL    HW2 5103   0.770   1.939   5.219
 1402SOL     OW 5104   0.071   3.506   6.764
 1402SOL    HW1 5105   0.022   3.421   6.781
 1402SOL    HW2 5106   0.169   3.491   6.773
 1403SOL     OW 5107   2.901   0.294   1.896
 1403SOL    HW1 5108   2.993   0.293   1.857
 1403SOL    HW2 5109   2.898   0.235   1.977
 1404SOL     OW 5110   5.060   0.418   0.413
 1404SOL    HW1 5111   4.970   0.421   0.455
 1404SOL    HW2 5112   5.118   0.489   0.453
 1405SOL     OW 5113   1.780   3.820   1.312
 1405SOL    HW1 5114   1.789   3.917   1.335
 1405SOL    HW2 5115   1.870   3.778   1.310
 1406SOL     OW 5116   1.377   4.858   1.532
 1406SOL    HW1 5117   1.456   4.815   1.576
 1406SOL    HW2 5118   1.391   4.957   1.530
 1407SOL     OW 5119   6.373   1.421   1.914
 1407SOL    HW1 5120   6.360   1.369   1.830
 1407SOL    HW2 5121   6.438   1.373   1.974
 1408SOL     OW 5122   5.366   0.807   6.119
 1408SOL    HW1 5123   5.436   0.862   6.165
 1408SOL    HW2 5124   5.355   0.840   6.025
 1409SOL     OW 5125   0.067   0.482   4.547
 1409SOL    HW1 5126   0.102   0.394   4.578
 1409SOL    HW2 5127   0.051   0.541   4.626
 1410SOL     OW 5128   1.408   3.151   6.620
 1410SOL    HW1 5129   1.388   3.213   6.695
 1410SOL    HW2 5130   1.457   3.201   6.548
 1411SOL     OW 5131   1.958   6.616   2.992
 1411SOL    HW1 5132   1.969   6.709   3.028
 1411SOL    HW2 5133   2.041   6.591   2.942
 1412SOL     OW 5134   1.722   3.095   0.485
 1412SOL    HW1 5135   1.647   3.091   0.419
 1412SOL    HW2 5136   1.692   3.057   0.573
 1413SOL     OW 5137   2.276   0.569   4.420
 1413SOL    HW1 5138   2.182   0.556   4.389
 1413SOL    HW2 5139   2.276   0.627   4.501
 1414SOL     OW 5140   2.654   1.701   1.765
 1414SOL    HW1 5141   2.650   1.610   1.725
 1414SOL    HW2 5142   2.749   1.734   1.765
 1415SOL     OW 5143   2.925   6.270   4.509
 1415SOL    HW1 5144   2.868   6.203   4.460
 1415SOL    HW2 5145   2.869   6.347   4.538
 1416SOL     OW 5146   4.467   4.490   2.708
 1416SOL    HW1 5147   4.414   4.537   2.778
 1416SOL    HW2 5148   4.466   4.544   2.624
 1417SOL     OW 5149   2.718   2.220   6.677
 1417SOL    HW1 5150   2.789   2.285   6.651
 1417SOL    HW2 5151   2.715   2.146   6.610
 1418SOL     OW 5152   2.968   3.718   2.811
 1418SOL    HW1 5153   2.986   3.816   2.825
 1418SOL    HW2 5154   3.008   3.665   2.885
 1419SOL     OW 5155   2.677   6.812   4.606
 1419SOL    HW1 5156   2.578   6.798   4.606
 1419SOL    HW2 5157   2.714   6.784   4.695
 1420SOL     OW 5158   1.183   6.336   2.330
 1420SOL    HW1 5159   1.085   6.340   2.351
 1420SOL    HW2 5160   1.214   6.427   2.302
 1421SOL     OW 5161   1.921   2.781   3.304
 1421SOL    HW1 5162   1.875   2.817   3.222
 1421SOL    HW2 5163   2.001   2.837   3.324
 1422SOL     OW 5164   2.428   4.385   2.267
 1422SOL    HW1 5165   2.388   4.358   2.354
 1422SOL    HW2 5166   2.461   4.479   2.273
 1423SOL     OW 5167   5.798   6.173   1.620
 1423SOL    HW1 5168   5.860   6.242   1.657
 1423SOL    HW2 5169   5.706   6.213   1.611
 1424SOL     OW 5170   5.470   4.738   4.787
 1424SOL    HW1 5171   5.484   4.826   4.832
 1424SOL    HW2 5172   5.372   4.722   4.775
 1425SOL     OW 5173   1.406   6.072   4.100
 1425SOL    HW1 5174   1.348   6.092   4.179
 1425SOL    HW2 5175   1.356   6.016   4.034
 1426SOL     OW 5176   0.901   1.895   5.484
 1426SOL    HW1 5177   0.906   1.932   5.392
 1426SOL    HW2 5178   0.806   1.888   5.513
 1427SOL     OW 5179   0.032   0.233   3.095
 1427SOL    HW1 5180   7.022   0.164   3.159
 1427SOL    HW2 5181   0.008   0.206   3.001
 1428SOL     OW 5182   6.119   2.647   0.668
 1428SOL    HW1 5183   6.040   2.617   0.615
 1428SOL    HW2 5184   6.203   2.631   0.616
 1429SOL     OW 5185   6.139   1.539   0.551
 1429SOL    HW1 5186   6.184   1.499   0.631
 1429SOL    HW2 5187   6.098   1.466   0.495
 1430SOL     OW 5188   1.161   4.162   4.215
 1430SOL    HW1 5189   1.143   4.067   4.190
 1430SOL    HW2 5190   1.124   4.180   4.307
 1431SOL     OW 5191   2.096   1.826   1.586
 1431SOL    HW1 5192   2.087   1.918   1.547
 1431SOL    HW2 5193   2.176   1.781   1.547
 1432SOL     OW 5194   2.293   1.594   3.411
 1432SOL    HW1 5195   2.256   1.567   3.322
 1432SOL    HW2 5196   2.218   1.604   3.477
 1433SOL     OW 5197   4.194   0.996   3.811
 1433SOL    HW1 5198   4.239   0.934   3.747
 1433SOL    HW2 5199   4.136   0.943   3.873
 1434SOL     OW 5200   0.494   1.213   5.386
 1434SOL    HW1 5201   0.532   1.249   5.300
 1434SOL    HW2 5202   0.424   1.145   5.365
 1435SOL     OW 5203   6.064   1.291   2.219
 1435SOL    HW1 5204   5.976   1.256   2.251
 1435SOL    HW2 5205   6.077   1.384   2.254
 1436SOL     OW 5206   4.318   4.082   6.960
 1436SOL    HW1 5207   4.297   4.087   0.034
 1436SOL    HW2 5208   4.352   3.991   6.937
 1437SOL     OW 5209   2.983   1.870   4.033
 1437SOL    HW1 5210   2.990   1.960   3.991
 1437SOL    HW2 5211   3.071   1.822   4.021
 1438SOL     OW 5212   3.965   5.993   1.227
 1438SOL    HW1 5213   3.933   6.087   1.214
 1438SOL    HW2 5214   3.898   5.930   1.188
 1439SOL     OW 5215   0.196   6.005   1.569
 1439SOL    HW1 5216   0.234   6.084   1.617
 1439SOL    HW2 5217   0.270   5.944   1.542
 1440SOL     OW 5218   3.160   4.170   1.345
 1440SOL    HW1 5219   3.088   4.230   1.380
 1440SOL    HW2 5220   3.153   4.080   1.388
 1441SOL     OW 5221   6.471   0.728   1.600
 1441SOL    HW1 5222   6.391   0.787   1.610
 1441SOL    HW2 5223   6.491   0.716   1.503
 1442SOL     OW 5224   6.175   6.115   6.626
 1442SOL    HW1 5225   6.266   6.113   6.584
 1442SOL    HW2 5226   6.109   6.076   6.562
 1443SOL     OW 5227   0.389   2.652   2.621
 1443SOL    HW1 5228   0.370   2.703   2.705
 1443SOL    HW2 5229   0.361   2.557   2.633
 1444SOL     OW 5230   5.299   6.747   1.214
 1444SOL    HW1 5231   5.384   6.695   1.224
 1444SOL    HW2 5232   5.239   6.700   1.150
 1445SOL     OW 5233   0.732   3.523   2.870
 1445SOL    HW1 5234   0.737   3.548   2.967
 1445SOL    HW2 5235   0.636   3.505   2.846
 1446SOL     OW 5236   6.377   0.362   6.371
 1446SOL    HW1 5237   6.466   0.405   6.385
 1446SOL    HW2 5238   6.313   0.428   6.333
 1447SOL     OW 5239   5.313   5.451   3.165
 1447SOL    HW1 5240   5.247   5.400   3.109
 1447SOL    HW2 5241   5.327   5.403   3.251
 1448SOL     OW 5242   0.338   3.266   4.779
 1448SOL    HW1 5243   0.368   3.180   4.739
 1448SOL    HW2 5244   0.410   3.303   4.838
 1449SOL     OW 5245   1.769   3.895   5.084
 1449SOL    HW1 5246   1.844   3.953   5.055
 1449SOL    HW2 5247   1.802   3.802   5.099
 1450SOL     OW 5248   0.995   1.998   5.720
 1450SOL    HW1 5249   0.957   1.945   5.645
 1450SOL    HW2 5250   0.987   2.096   5.700
 1451SOL     OW 5251   1.473   6.240   2.116
 1451SOL    HW1 5252   1.526   6.319   2.146
 1451SOL    HW2 5253   1.495   6.161   2.174
 1452SOL     OW 5254   4.316   3.370   5.749
 1452SOL    HW1 5255   4.294   3.273   5.752
 1452SOL    HW2 5256   4.339   3.402   5.842
 1453SOL     OW 5257   0.825   4.601   5.389
 1453SOL    HW1 5258   0.860   4.517   5.346
 1453SOL    HW2 5259   0.861   4.609   5.482
 1454SOL     OW 5260   2.739   1.980   3.137
 1454SOL    HW1 5261   2.761   2.024   3.224
 1454SOL    HW2 5262   2.795   1.898   3.125
 1455SOL     OW 5263   1.222   6.057   2.908
 1455SOL    HW1 5264   1.197   6.063   2.811
 1455SOL    HW2 5265   1.319   6.037   2.917
 1456SOL     OW 5266   6.621   5.779   6.243
 1456SOL    HW1 5267   6.658   5.709   6.303
 1456SOL    HW2 5268   6.696   5.831   6.201
 1457SOL     OW 5269   0.752   4.062   0.625
 1457SOL    HW1 5270   0.667   4.106   0.656
 1457SOL    HW2 5271   0.738   4.025   0.533
 1458SOL     OW 5272   5.688   5.058   5.486
 1458SOL    HW1 5273   5.701   5.156   5.503
 1458SOL    HW2 5274   5.745   5.030   5.408
 1459SOL     OW 5275   5.099   0.038   5.878
 1459SOL    HW1 5276   5.127   6.967   5.858
 1459SOL    HW2 5277   5.179   0.092   5.903
 1460SOL     OW 5278   1.757   6.568   5.600
 1460SOL    HW1 5279   1.663   6.538   5.619
 1460SOL    HW2 5280   1.754   6.656   5.552
 1461SOL     OW 5281   0.125   3.761   2.915
 1461SOL    HW1 5282   0.143   3.710   2.999
 1461SOL    HW2 5283   0.204   3.754   2.854
 1462SOL     OW 5284   0.816   0.818   6.979
 1462SOL    HW1 5285   0.850   0.732   6.940
 1462SOL    HW2 5286   0.720   0.807   7.005
 1463SOL     OW 5287   1.687   5.469   6.722
 1463SOL    HW1 5288   1.705   5.463   6.820
 1463SOL    HW2 5289   1.589   5.480   6.707
 1464SOL     OW 5290   6.221   4.123   3.807
 1464SOL    HW1 5291   6.204   4.217   3.779
 1464SOL    HW2 5292   6.235   4.119   3.906
 1465SOL     OW 5293   2.078   1.610   3.916
 1465SOL    HW1 5294   1.990   1.643   3.881
 1465SOL    HW2 5295   2.093   1.516   3.886
 1466SOL     OW 5296   3.685   2.598   1.742
 1466SOL    HW1 5297   3.699   2.678   1.801
 1466SOL    HW2 5298   3.682   2.516   1.799
 1467SOL     OW 5299   1.250   0.938   3.874
 1467SOL    HW1 5300   1.241   1.013   3.809
 1467SOL    HW2 5301   1.163   0.923   3.921
 1468SOL     OW 5302   3.160   5.615   2.031
 1468SOL    HW1 5303   3.198   5.596   2.121
 1468SOL    HW2 5304   3.218   5.573   1.961
 1469SOL     OW 5305   6.369   6.264   3.442
 1469SOL    HW1 5306   6.316   6.318   3.377
 1469SOL    HW2 5307   6.315   6.185   3.472
 1470SOL     OW 5308   0.117   2.834   1.182
 1470SOL    HW1 5309   0.163   2.759   1.134
 1470SOL    HW2 5310   0.031   2.800   1.220
 1471SOL     OW 5311   6.789   7.002   0.791
 1471SOL    HW1 5312   6.874   6.950   0.788
 1471SOL    HW2 5313   6.765   7.021   0.886
 1472SOL     OW 5314   2.657   6.702   6.283
 1472SOL    HW1 5315   2.690   6.670   6.372
 1472SOL    HW2 5316   2.661   6.801   6.279
 1473SOL     OW 5317   3.329   4.965   5.084
 1473SOL    HW1 5318   3.320   5.057   5.047
 1473SOL    HW2 5319   3.242   4.916   5.073
 1474SOL     OW 5320   4.513   5.045   1.569
 1474SOL    HW1 5321   4.540   4.959   1.526
 1474SOL    HW2 5322   4.573   5.118   1.537
 1475SOL     OW 5323   5.086   1.092   0.471
 1475SOL    HW1 5324   5.151   1.018   0.489
 1475SOL    HW2 5325   5.109   1.171   0.528
 1476SOL     OW 5326   3.275   1.238   1.221
 1476SOL    HW1 5327   3.295   1.213   1.126
 1476SOL    HW2 5328   3.251   1.334   1.226
 1477SOL     OW 5329   4.238   6.824   0.406
 1477SOL    HW1 5330   4.201   6.761   0.337
 1477SOL    HW2 5331   4.176   6.901   0.418
 1478SOL     OW 5332   5.055   6.794   5.165
 1478SOL    HW1 5333   5.042   6.869   5.099
 1478SOL    HW2 5334   5.145   6.753   5.153
 1479SOL     OW 5335   3.860   3.955   1.942
 1479SOL    HW1 5336   3.807   4.019   1.886
 1479SOL    HW2 5337   3.854   3.864   1.902
 1480SOL     OW 5338   2.776   0.919   5.945
 1480SOL    HW1 5339   2.686   0.912   5.987
 1480SOL    HW2 5340   2.797   0.834   5.896
 1481SOL     OW 5341   5.268   2.766   5.113
 1481SOL    HW1 5342   5.277   2.675   5.073
 1481SOL    HW2 5343   5.274   2.835   5.041
 1482SOL     OW 5344   4.656   0.367   0.729
 1482SOL    HW1 5345   4.593   0.429   0.776
 1482SOL    HW2 5346   4.655   0.278   0.773
 1483SOL     OW 5347   4.431   1.835   5.819
 1483SOL    HW1 5348   4.363   1.877   5.879
 1483SOL    HW2 5349   4.392   1.820   5.729
 1484SOL     OW 5350   3.378   4.959   4.464
 1484SOL    HW1 5351   3.353   4.938   4.559
 1484SOL    HW2 5352   3.363   4.878   4.407
 1485SOL     OW 5353   5.059   1.170   3.052
 1485SOL    HW1 5354   5.117   1.246   3.023
 1485SOL    HW2 5355   5.015   1.129   2.972
 1486SOL     OW 5356   5.117   6.979   3.601
 1486SOL    HW1 5357   5.098   6.954   3.696
 1486SOL    HW2 5358   5.097   6.901   3.542
 1487SOL     OW 5359   0.070   0.736   0.187
 1487SOL    HW1 5360   0.047   0.828   0.218
 1487SOL    HW2 5361   0.037   0.669   0.253
 1488SOL     OW 5362   6.217   0.329   2.623
 1488SOL    HW1 5363   6.254   0.315   2.714
 1488SOL    HW2 5364   6.145   0.262   2.605
 1489SOL     OW 5365   4.207   4.729   6.751
 1489SOL    HW1 5366   4.205   4.632   6.727
 1489SOL    HW2 5367   4.247   4.782   6.676
 1490SOL     OW 5368   0.731   2.497   2.185
 1490SOL    HW1 5369   0.695   2.544   2.266
 1490SOL    HW2 5370   0.828   2.478   2.198
 1491SOL     OW 5371   0.009   3.356   1.683
 1491SOL    HW1 5372   6.943   3.367   1.728
 1491SOL    HW2 5373   0.058   3.443   1.685
 1492SOL     OW 5374   6.373   0.780   2.418
 1492SOL    HW1 5375   6.376   0.683   2.443
 1492SOL    HW2 5376   6.278   0.809   2.409
 1493SOL     OW 5377   4.495   1.502   5.584
 1493SOL    HW1 5378   4.500   1.403   5.573
 1493SOL    HW2 5379   4.408   1.525   5.628
 1494SOL     OW 5380   5.539   2.637   6.127
 1494SOL    HW1 5381   5.591   2.717   6.157
 1494SOL    HW2 5382   5.454   2.667   6.083
 1495SOL     OW 5383   5.816   3.491   3.768
 1495SOL    HW1 5384   5.817   3.591   3.769
 1495SOL    HW2 5385   5.844   3.458   3.858
 1496SOL     OW 5386   0.094   6.275   0.228
 1496SOL    HW1 5387   0.022   6.344   0.223
 1496SOL    HW2 5388   0.181   6.321   0.249
 1497SOL     OW 5389   5.049   2.191   3.019
 1497SOL    HW1 5390   5.107   2.268   2.995
 1497SOL    HW2 5391   5.033   2.136   2.937
 1498SOL     OW 5392   2.961   4.372   1.478
 1498SOL    HW1 5393   2.990   4.356   1.572
 1498SOL    HW2 5394   2.985   4.465   1.451
 1499SOL     OW 5395   0.070   3.600   5.819
 1499SOL    HW1 5396   0.063   3.623   5.916
 1499SOL    HW2 5397   7.005   3.568   5.785
 1500SOL     OW 5398   1.095   5.774   0.356
 1500SOL    HW1 5399   1.042   5.699   0.393
 1500SOL    HW2 5400   1.054   5.804   0.269
 1501SOL     OW 5401   5.938   1.616   6.301
 1501SOL    HW1 5402   6.031   1.649   6.317
 1501SOL    HW2 5403   5.878   1.694   6.284
 1502SOL     OW 5404   0.133   1.090   6.152
 1502SOL    HW1 5405   0.081   1.005   6.145
 1502SOL    HW2 5406   0.177   1.095   6.242
 1503SOL     OW 5407   0.494   3.555   2.205
 1503SOL    HW1 5408   0.571   3.498   2.234
 1503SOL    HW2 5409   0.456   3.603   2.284
 1504SOL     OW 5410   0.612   6.880   3.537
 1504SOL    HW1 5411   0.707   6.849   3.529
 1504SOL    HW2 5412   0.592   6.948   3.467
 1505SOL     OW 5413   5.881   6.696   4.939
 1505SOL    HW1 5414   5.808   6.745   4.892
 1505SOL    HW2 5415   5.846   6.657   5.024
 1506SOL     OW 5416   1.496   0.650   1.199
 1506SOL    HW1 5417   1.404   0.625   1.167
 1506SOL    HW2 5418   1.536   0.714   1.134
 1507SOL     OW 5419   1.293   1.768   4.354
 1507SOL    HW1 5420   1.290   1.830   4.276
 1507SOL    HW2 5421   1.305   1.820   4.438
 1508SOL     OW 5422   0.520   1.426   0.407
 1508SOL    HW1 5423   0.507   1.336   0.450
 1508SOL    HW2 5424   0.524   1.414   0.307
 1509SOL     OW 5425   5.401   1.435   5.063
 1509SOL    HW1 5426   5.413   1.368   4.990
 1509SOL    HW2 5427   5.305   1.436   5.092
 1510SOL     OW 5428   3.801   6.823   3.963
 1510SOL    HW1 5429   3.717   6.867   3.934
 1510SOL    HW2 5430   3.825   6.751   3.897
 1511SOL     OW 5431   3.140   4.103   4.331
 1511SOL    HW1 5432   3.126   4.201   4.318
 1511SOL    HW2 5433   3.105   4.076   4.420
 1512SOL     OW 5434   6.298   5.485   0.989
 1512SOL    HW1 5435   6.249   5.530   0.915
 1512SOL    HW2 5436   6.349   5.554   1.042
 1513SOL     OW 5437   3.112   6.833   5.742
 1513SOL    HW1 5438   3.095   6.846   5.840
 1513SOL    HW2 5439   3.036   6.781   5.702
 1514SOL     OW 5440   3.462   2.395   5.657
 1514SOL    HW1 5441   3.541   2.455   5.672
 1514SOL    HW2 5442   3.480   2.336   5.579
 1515SOL     OW 5443   6.665   1.757   2.744
 1515SOL    HW1 5444   6.623   1.722   2.660
 1515SOL    HW2 5445   6.599   1.815   2.791
 1516SOL     OW 5446   6.650   6.286   4.620
 1516SOL    HW1 5447   6.702   6.345   4.558
 1516SOL    HW2 5448   6.553   6.311   4.616
 1517SOL     OW 5449   3.466   6.592   3.570
 1517SOL    HW1 5450   3.518   6.669   3.533
 1517SOL    HW2 5451   3.387   6.573   3.511
 1518SOL     OW 5452   6.626   2.808   7.007
 1518SOL    HW1 5453   6.612   2.846   6.915
 1518SOL    HW2 5454   6.654   2.712   6.999
 1519SOL     OW 5455   6.906   4.832   0.414
 1519SOL    HW1 5456   6.812   4.817   0.443
 1519SOL    HW2 5457   6.968   4.786   0.478
 1520SOL     OW 5458   1.035   4.949   1.419
 1520SOL    HW1 5459   0.969   5.013   1.458
 1520SOL    HW2 5460   1.127   4.972   1.450
 1521SOL     OW 5461   2.880   4.621   0.115
 1521SOL    HW1 5462   2.852   4.702   0.167
 1521SOL    HW2 5463   2.914   4.649   0.026
 1522SOL     OW 5464   5.443   5.817   5.077
 1522SOL    HW1 5465   5.380   5.758   5.025
 1522SOL    HW2 5466   5.406   5.831   5.169
 1523SOL     OW 5467   3.826   0.062   6.639
 1523SOL    HW1 5468   3.772   0.116   6.703
 1523SOL    HW2 5469   3.764   0.014   6.576
 1524SOL     OW 5470   2.572   2.388   3.275
 1524SOL    HW1 5471   2.660   2.382   3.227
 1524SOL    HW2 5472   2.512   2.314   3.244
 1525SOL     OW 5473   6.168   2.916   0.654
 1525SOL    HW1 5474   6.266   2.934   0.662
 1525SOL    HW2 5475   6.150   2.819   0.670
 1526SOL     OW 5476   0.439   1.870   7.006
 1526SOL    HW1 5477   0.462   1.815   6.925
 1526SOL    HW2 5478   0.467   1.820   0.065
 1527SOL     OW 5479   3.720   1.322   4.986
 1527SOL    HW1 5480   3.693   1.295   4.894
 1527SOL    HW2 5481   3.649   1.296   5.051
 1528SOL     OW 5482   4.458   3.727   0.898
 1528SOL    HW1 5483   4.490   3.819   0.877
 1528SOL    HW2 5484   4.375   3.709   0.845
 1529SOL     OW 5485   5.610   1.221   6.584
 1529SOL    HW1 5486   5.549   1.262   6.517
 1529SOL    HW2 5487   5.693   1.277   6.592
 1530SOL     OW 5488   3.212   0.258   1.467
 1530SOL    HW1 5489   3.167   0.172   1.442
 1530SOL    HW2 5490   3.144   0.332   1.467
 1531SOL     OW 5491   4.052   0.607   3.811
 1531SOL    HW1 5492   3.956   0.598   3.787
 1531SOL    HW2 5493   4.097   0.518   3.803
 1532SOL     OW 5494   3.464   4.643   5.933
 1532SOL    HW1 5495   3.411   4.591   5.865
 1532SOL    HW2 5496   3.557   4.656   5.900
 1533SOL     OW 5497   5.223   5.462   0.991
 1533SOL    HW1 5498   5.179   5.476   0.903
 1533SOL    HW2 5499   5.270   5.374   0.992
 1534SOL     OW 5500   3.781   6.085   0.189
 1534SOL    HW1 5501   3.779   6.132   0.278
 1534SOL    HW2 5502   3.864   6.111   0.140
 1535SOL     OW 5503   6.291   0.021   4.925
 1535SOL    HW1 5504   6.210   0.032   4.868
 1535SOL    HW2 5505   6.311   6.947   4.938
 1536SOL     OW 5506   4.121   4.472   6.697
 1536SOL    HW1 5507   4.169   4.386   6.715
 1536SOL    HW2 5508   4.027   4.466   6.731
 1537SOL     OW 5509   3.650   5.331   3.952
 1537SOL    HW1 5510   3.609   5.373   4.033
 1537SOL    HW2 5511   3.586   5.268   3.910
 1538SOL     OW 5512   3.684   1.358   0.178
 1538SOL    HW1 5513   3.771   1.364   0.129
 1538SOL    HW2 5514   3.613   1.405   0.125
 1539SOL     OW 5515   5.161   2.931   1.582
 1539SOL    HW1 5516   5.249   2.902   1.545
 1539SOL    HW2 5517   5.163   2.923   1.682
 1540SOL     OW 5518   1.597   6.953   4.910
 1540SOL    HW1 5519   1.608   6.885   4.837
 1540SOL    HW2 5520   1.554   0.012   4.873
 1541SOL     OW 5521   4.117   3.274   4.505
 1541SOL    HW1 5522   4.034   3.218   4.504
 1541SOL    HW2 5523   4.125   3.323   4.419
 1542SOL     OW 5524   6.574   6.303   2.143
 1542SOL    HW1 5525   6.586   6.222   2.085
 1542SOL    HW2 5526   6.497   6.356   2.109
 1543SOL     OW 5527   3.756   5.766   6.050
 1543SOL    HW1 5528   3.713   5.749   5.961
 1543SOL    HW2 5529   3.693   5.739   6.122
 1544SOL     OW 5530   3.685   3.744   4.096
 1544SOL    HW1 5531   3.689   3.647   4.118
 1544SOL    HW2 5532   3.704   3.757   3.999
 1545SOL     OW 5533   6.021   0.446   1.589
 1545SOL    HW1 5534   6.061   0.369   1.539
 1545SOL    HW2 5535   6.041   0.437   1.687
 1546SOL     OW 5536   5.457   0.013   5.733
 1546SOL    HW1 5537   5.400   6.957   5.753
 1546SOL    HW2 5538   5.552   7.016   5.758
 1547SOL     OW 5539   1.157   4.068   0.895
 1547SOL    HW1 5540   1.224   4.047   0.825
 1547SOL    HW2 5541   1.067   4.082   0.853
 1548SOL     OW 5542   6.399   3.431   0.334
 1548SOL    HW1 5543   6.398   3.511   0.394
 1548SOL    HW2 5544   6.406   3.348   0.389
 1549SOL     OW 5545   3.920   1.308   4.479
 1549SOL    HW1 5546   3.971   1.362   4.413
 1549SOL    HW2 5547   3.942   1.340   4.572
 1550SOL     OW 5548   4.125   3.194   2.694
 1550SOL    HW1 5549   4.107   3.239   2.782
 1550SOL    HW2 5550   4.054   3.126   2.677
 1551SOL     OW 5551   1.135   5.005   0.145
 1551SOL    HW1 5552   1.112   4.911   0.119
 1551SOL    HW2 5553   1.065   5.067   0.111
 1552SOL     OW 5554   2.850   4.800   1.004
 1552SOL    HW1 5555   2.777   4.786   1.071
 1552SOL    HW2 5556   2.937   4.815   1.050
 1553SOL     OW 5557   0.389   1.747   6.333
 1553SOL    HW1 5558   0.383   1.647   6.342
 1553SOL    HW2 5559   0.378   1.789   6.423
 1554SOL     OW 5560   3.065   1.909   3.711
 1554SOL    HW1 5561   3.071   1.928   3.613
 1554SOL    HW2 5562   3.023   1.987   3.757
 1555SOL     OW 5563   5.754   2.708   5.894
 1555SOL    HW1 5564   5.789   2.740   5.806
 1555SOL    HW2 5565   5.735   2.610   5.888
 1556SOL     OW 5566   1.936   0.997   6.291
 1556SOL    HW1 5567   1.899   0.904   6.287
 1556SOL    HW2 5568   2.026   0.995   6.336
 1557SOL     OW 5569   1.783   3.452   6.110
 1557SOL    HW1 5570   1.879   3.467   6.133
 1557SOL    HW2 5571   1.774   3.443   6.011
 1558SOL     OW 5572   6.399   0.943   4.536
 1558SOL    HW1 5573   6.473   0.882   4.510
 1558SOL    HW2 5574   6.315   0.915   4.489
 1559SOL     OW 5575   0.840   2.526   6.427
 1559SOL    HW1 5576   0.859   2.549   6.331
 1559SOL    HW2 5577   0.926   2.512   6.475
 1560SOL     OW 5578   6.917   1.016   6.440
 1560SOL    HW1 5579   6.999   1.053   6.397
 1560SOL    HW2 5580   6.861   1.090   6.477
 1561SOL     OW 5581   4.633   6.414   2.767
 1561SOL    HW1 5582   4.676   6.413   2.677
 1561SOL    HW2 5583   4.617   6.320   2.798
 1562SOL     OW 5584   4.472   6.646   1.883
 1562SOL    HW1 5585   4.536   6.570   1.897
 1562SOL    HW2 5586   4.524   6.729   1.862
 1563SOL     OW 5587   3.302   0.582   6.168
 1563SOL    HW1 5588   3.354   0.508   6.126
 1563SOL    HW2 5589   3.280   0.559   6.262
 1564SOL     OW 5590   1.730   0.531   2.061
 1564SOL    HW1 5591   1.809   0.486   2.103
 1564SOL    HW2 5592   1.761   0.613   2.013
 1565SOL     OW 5593   4.887   3.926   2.088
 1565SOL    HW1 5594   4.817   3.995   2.106
 1565SOL    HW2 5595   4.879   3.894   1.994
 1566SOL     OW 5596   5.398   4.070   3.628
 1566SOL    HW1 5597   5.431   3.986   3.586
 1566SOL    HW2 5598   5.348   4.124   3.560
 1567SOL     OW 5599   5.940   5.967   6.538
 1567SOL    HW1 5600   5.934   6.034   6.463
 1567SOL    HW2 5601   5.872   5.988   6.608
 1568SOL     OW 5602   1.041   0.153   0.411
 1568SOL    HW1 5603   0.948   0.146   0.447
 1568SOL    HW2 5604   1.048   0.103   0.325
 1569SOL     OW 5605   4.244   6.406   4.376
 1569SOL    HW1 5606   4.254   6.454   4.290
 1569SOL    HW2 5607   4.269   6.466   4.452
 1570SOL     OW 5608   2.916   1.811   1.640
 1570SOL    HW1 5609   2.878   1.886   1.584
 1570SOL    HW2 5610   2.982   1.760   1.585
 1571SOL     OW 5611   6.376   3.127   1.826
 1571SOL    HW1 5612   6.403   3.222   1.815
 1571SOL    HW2 5613   6.323   3.098   1.746
 1572SOL     OW 5614   0.419   0.490   2.390
 1572SOL    HW1 5615   0.403   0.533   2.479
 1572SOL    HW2 5616   0.498   0.534   2.346
 1573SOL     OW 5617   5.305   6.420   1.868
 1573SOL    HW1 5618   5.325   6.407   1.770
 1573SOL    HW2 5619   5.316   6.516   1.892
 1574SOL     OW 5620   0.717   2.026   2.060
 1574SOL    HW1 5621   0.680   1.969   1.987
 1574SOL    HW2 5622   0.775   1.970   2.120
 1575SOL     OW 5623   2.530   2.559   0.797
 1575SOL    HW1 5624   2.573   2.537   0.709
 1575SOL    HW2 5625   2.436   2.526   0.798
 1576SOL     OW 5626   5.411   6.214   3.729
 1576SOL    HW1 5627   5.365   6.292   3.772
 1576SOL    HW2 5628   5.449   6.154   3.799
 1577SOL     OW 5629   2.360   0.751   5.383
 1577SOL    HW1 5630   2.357   0.719   5.478
 1577SOL    HW2 5631   2.423   0.829   5.377
 1578SOL     OW 5632   5.896   3.886   5.500
 1578SOL    HW1 5633   5.840   3.937   5.435
 1578SOL    HW2 5634   5.979   3.938   5.521
 1579SOL     OW 5635   0.513   1.203   2.903
 1579SOL    HW1 5636   0.475   1.242   2.987
 1579SOL    HW2 5637   0.488   1.261   2.826
 1580SOL     OW 5638   2.684   4.468   5.322
 1580SOL    HW1 5639   2.663   4.372   5.303
 1580SOL    HW2 5640   2.773   4.491   5.283
 1581SOL     OW 5641   6.426   4.065   4.264
 1581SOL    HW1 5642   6.456   3.996   4.330
 1581SOL    HW2 5643   6.466   4.154   4.289
 1582SOL     OW 5644   0.207   5.061   4.693
 1582SOL    HW1 5645   0.241   5.151   4.720
 1582SOL    HW2 5646   0.111   5.067   4.666
 1583SOL     OW 5647   2.221   3.029   4.402
 1583SOL    HW1 5648   2.300   2.999   4.350
 1583SOL    HW2 5649   2.169   2.950   4.434
 1584SOL     OW 5650   2.810   6.492   5.163
 1584SOL    HW1 5651   2.757   6.428   5.218
 1584SOL    HW2 5652   2.809   6.582   5.207
 1585SOL     OW 5653   5.471   2.250   3.240
 1585SOL    HW1 5654   5.423   2.337   3.257
 1585SOL    HW2 5655   5.403   2.177   3.229
 1586SOL     OW 5656   3.657   3.976   2.189
 1586SOL    HW1 5657   3.735   3.935   2.142
 1586SOL    HW2 5658   3.685   4.005   2.281
 1587SOL     OW 5659   3.389   6.340   6.751
 1587SOL    HW1 5660   3.326   6.278   6.704
 1587SOL    HW2 5661   3.383   6.326   6.850
 1588SOL     OW 5662   5.554   1.580   2.581
 1588SOL    HW1 5663   5.635   1.629   2.611
 1588SOL    HW2 5664   5.475   1.607   2.637
 1589SOL     OW 5665   5.428   4.493   3.775
 1589SOL    HW1 5666   5.359   4.423   3.792
 1589SOL    HW2 5667   5.488   4.502   3.854
 1590SOL     OW 5668   1.670   6.719   0.451
 1590SOL    HW1 5669   1.703   6.752   0.540
 1590SOL    HW2 5670   1.723   6.763   0.378
 1591SOL     OW 5671   1.142   5.033   2.170
 1591SOL    HW1 5672   1.074   5.043   2.242
 1591SOL    HW2 5673   1.111   4.964   2.104
 1592SOL     OW 5674   2.994   3.286   2.438
 1592SOL    HW1 5675   2.908   3.237   2.425
 1592SOL    HW2 5676   3.069   3.230   2.402
 1593SOL     OW 5677   0.346   6.325   4.400
 1593SOL    HW1 5678   0.279   6.373   4.457
 1593SOL    HW2 5679   0.415   6.390   4.368
 1594SOL     OW 5680   6.558   5.516   2.779
 1594SOL    HW1 5681   6.503   5.479   2.704
 1594SOL    HW2 5682   6.608   5.442   2.824
 1595SOL     OW 5683   0.441   4.607   6.431
 1595SOL    HW1 5684   0.370   4.553   6.386
 1595SOL    HW2 5685   0.461   4.568   6.521
 1596SOL     OW 5686   1.628   5.009   6.191
 1596SOL    HW1 5687   1.662   4.957   6.269
 1596SOL    HW2 5688   1.668   5.100   6.191
 1597SOL     OW 5689   2.327   6.526   2.429
 1597SOL    HW1 5690   2.240   6.495   2.466
 1597SOL    HW2 5691   2.345   6.481   2.342
 1598SOL     OW 5692   0.219   4.182   0.977
 1598SOL    HW1 5693   0.243   4.278   0.962
 1598SOL    HW2 5694   0.127   4.176   1.016
 1599SOL     OW 5695   3.762   4.612   6.547
 1599SOL    HW1 5696   3.757   4.513   6.534
 1599SOL    HW2 5697   3.670   4.651   6.536
 1600SOL     OW 5698   5.113   1.676   5.178
 1600SOL    HW1 5699   5.129   1.646   5.084
 1600SOL    HW2 5700   5.036   1.625   5.216
 1601SOL     OW 5701   1.572   4.640   5.232
 1601SOL    HW1 5702   1.550   4.655   5.136
 1601SOL    HW2 5703   1.671   4.629   5.242
 1602SOL     OW 5704   1.505   5.844   3.203
 1602SOL    HW1 5705   1.603   5.862   3.213
 1602SOL    HW2 5706   1.492   5.754   3.160
 1603SOL     OW 5707   0.546   6.419   2.139
 1603SOL    HW1 5708   0.486   6.497   2.122
 1603SOL    HW2 5709   0.502   6.336   2.104
 1604SOL     OW 5710   0.151   5.413   6.859
 1604SOL    HW1 5711   0.206   5.337   6.825
 1604SOL    HW2 5712   0.134   5.401   6.957
 1605SOL     OW 5713   6.408   0.029   2.730
 1605SOL    HW1 5714   6.485   7.004   2.771
 1605SOL    HW2 5715   6.434   0.066   2.641
 1606SOL     OW 5716   4.630   6.941   5.328
 1606SOL    HW1 5717   4.665   6.958   5.236
 1606SOL    HW2 5718   4.584   6.852   5.330
 1607SOL     OW 5719   4.038   2.193   1.191
 1607SOL    HW1 5720   4.039   2.186   1.291
 1607SOL    HW2 5721   4.003   2.107   1.152
 1608SOL     OW 5722   2.580   6.803   0.388
 1608SOL    HW1 5723   2.678   6.822   0.378
 1608SOL    HW2 5724   2.536   6.880   0.436
 1609SOL     OW 5725   5.382   1.995   5.950
 1609SOL    HW1 5726   5.427   2.082   5.930
 1609SOL    HW2 5727   5.345   1.956   5.866
 1610SOL     OW 5728   6.439   6.294   4.371
 1610SOL    HW1 5729   6.416   6.198   4.387
 1610SOL    HW2 5730   6.416   6.347   4.453
 1611SOL     OW 5731   4.085   3.391   2.466
 1611SOL    HW1 5732   4.104   3.342   2.381
 1611SOL    HW2 5733   4.102   3.331   2.544
 1612SOL     OW 5734   2.463   1.416   5.050
 1612SOL    HW1 5735   2.462   1.317   5.061
 1612SOL    HW2 5736   2.524   1.441   4.975
 1613SOL     OW 5737   1.961   5.928   0.754
 1613SOL    HW1 5738   1.931   6.013   0.709
 1613SOL    HW2 5739   1.881   5.877   0.786
 1614SOL     OW 5740   6.039   2.395   6.940
 1614SOL    HW1 5741   5.954   2.364   6.983
 1614SOL    HW2 5742   6.052   2.347   6.853
 1615SOL     OW 5743   6.829   4.379   6.502
 1615SOL    HW1 5744   6.778   4.295   6.522
 1615SOL    HW2 5745   6.806   4.449   6.569
 1616SOL     OW 5746   3.614   1.668   5.944
 1616SOL    HW1 5747   3.659   1.756   5.957
 1616SOL    HW2 5748   3.621   1.641   5.848
 1617SOL     OW 5749   5.832   0.833   2.571
 1617SOL    HW1 5750   5.733   0.845   2.583
 1617SOL    HW2 5751   5.849   0.751   2.515
 1618SOL     OW 5752   6.702   3.519   1.274
 1618SOL    HW1 5753   6.744   3.514   1.364
 1618SOL    HW2 5754   6.603   3.509   1.282
 1619SOL     OW 5755   1.452   3.558   4.174
 1619SOL    HW1 5756   1.528   3.501   4.207
 1619SOL    HW2 5757   1.488   3.628   4.113
 1620SOL     OW 5758   2.631   5.918   1.547
 1620SOL    HW1 5759   2.536   5.937   1.570
 1620SOL    HW2 5760   2.656   5.966   1.462
 1621SOL     OW 5761   0.843   0.477   0.929
 1621SOL    HW1 5762   0.751   0.440   0.941
 1621SOL    HW2 5763   0.905   0.433   0.994
 1622SOL     OW 5764   1.747   1.810   4.391
 1622SOL    HW1 5765   1.847   1.818   4.395
 1622SOL    HW2 5766   1.722   1.733   4.333
 1623SOL     OW 5767   2.558   2.568   6.394
 1623SOL    HW1 5768   2.604   2.657   6.383
 1623SOL    HW2 5769   2.461   2.582   6.411
 1624SOL     OW 5770   3.279   1.117   0.099
 1624SOL    HW1 5771   3.354   1.085   0.041
 1624SOL    HW2 5772   3.227   1.188   0.050
 1625SOL     OW 5773   0.747   5.230   2.098
 1625SOL    HW1 5774   0.776   5.302   2.162
 1625SOL    HW2 5775   0.802   5.148   2.113
 1626SOL     OW 5776   2.039   3.070   6.619
 1626SOL    HW1 5777   2.023   3.063   6.520
 1626SOL    HW2 5778   2.123   3.021   6.642
 1627SOL     OW 5779   6.387   2.069   3.609
 1627SOL    HW1 5780   6.344   1.991   3.564
 1627SOL    HW2 5781   6.337   2.153   3.586
 1628SOL     OW 5782   3.153   4.892   1.064
 1628SOL    HW1 5783   3.152   4.869   0.966
 1628SOL    HW2 5784   3.237   4.943   1.085
 1629SOL     OW 5785   3.581   2.079   4.574
 1629SOL    HW1 5786   3.606   2.016   4.647
 1629SOL    HW2 5787   3.596   2.173   4.604
 1630SOL     OW 5788   0.801   4.831   5.813
 1630SOL    HW1 5789   0.744   4.911   5.795
 1630SOL    HW2 5790   0.894   4.847   5.780
 1631SOL     OW 5791   0.046   0.300   5.471
 1631SOL    HW1 5792   0.130   0.293   5.524
 1631SOL    HW2 5793   0.053   0.244   5.389
 1632SOL     OW 5794   6.985   1.076   0.216
 1632SOL    HW1 5795   6.976   1.175   0.218
 1632SOL    HW2 5796   0.057   1.052   0.194
 1633SOL     OW 5797   5.825   1.811   3.127
 1633SOL    HW1 5798   5.750   1.874   3.145
 1633SOL    HW2 5799   5.910   1.863   3.113
 1634SOL     OW 5800   2.653   6.424   6.091
 1634SOL    HW1 5801   2.684   6.334   6.061
 1634SOL    HW2 5802   2.655   6.487   6.014
 1635SOL     OW 5803   0.226   5.873   4.654
 1635SOL    HW1 5804   0.129   5.882   4.631
 1635SOL    HW2 5805   0.273   5.958   4.633
 1636SOL     OW 5806   2.667   5.660   1.490
 1636SOL    HW1 5807   2.584   5.618   1.527
 1636SOL    HW2 5808   2.656   5.760   1.490
 1637SOL     OW 5809   6.766   3.436   2.179
 1637SOL    HW1 5810   6.826   3.376   2.232
 1637SOL    HW2 5811   6.671   3.409   2.194
 1638SOL     OW 5812   0.339   3.536   4.083
 1638SOL    HW1 5813   0.284   3.536   3.999
 1638SOL    HW2 5814   0.412   3.469   4.075
 1639SOL     OW 5815   4.613   5.871   2.841
 1639SOL    HW1 5816   4.630   5.852   2.938
 1639SOL    HW2 5817   4.677   5.818   2.786
 1640SOL     OW 5818   6.384   1.316   0.302
 1640SOL    HW1 5819   6.417   1.314   0.396
 1640SOL    HW2 5820   6.437   1.250   0.247
 1641SOL     OW 5821   6.022   3.520   4.505
 1641SOL    HW1 5822   5.974   3.465   4.437
 1641SOL    HW2 5823   6.004   3.482   4.596
 1642SOL     OW 5824   6.607   2.717   0.280
 1642SOL    HW1 5825   6.600   2.766   0.366
 1642SOL    HW2 5826   6.515   2.705   0.241
 1643SOL     OW 5827   3.452   6.541   5.279
 1643SOL    HW1 5828   3.524   6.472   5.274
 1643SOL    HW2 5829   3.365   6.501   5.248
 1644SOL     OW 5830   3.245   1.523   1.196
 1644SOL    HW1 5831   3.292   1.544   1.282
 1644SOL    HW2 5832   3.275   1.587   1.125
 1645SOL     OW 5833   3.603   6.138   6.234
 1645SOL    HW1 5834   3.570   6.107   6.144
 1645SOL    HW2 5835   3.527   6.137   6.299
 1646SOL     OW 5836   1.375   4.304   0.889
 1646SOL    HW1 5837   1.355   4.214   0.851
 1646SOL    HW2 5838   1.455   4.343   0.844
 1647SOL     OW 5839   5.688   3.194   3.692
 1647SOL    HW1 5840   5.748   3.241   3.626
 1647SOL    HW2 5841   5.593   3.216   3.671
 1648SOL     OW 5842   4.496   0.162   1.844
 1648SOL    HW1 5843   4.428   0.089   1.832
 1648SOL    HW2 5844   4.554   0.140   1.922
 1649SOL     OW 5845   2.827   0.681   3.299
 1649SOL    HW1 5846   2.901   0.732   3.342
 1649SOL    HW2 5847   2.818   0.709   3.203
 1650SOL     OW 5848   2.922   0.770   4.178
 1650SOL    HW1 5849   3.010   0.725   4.190
 1650SOL    HW2 5850   2.863   0.751   4.256
 1651SOL     OW 5851   0.318   0.279   0.125
 1651SOL    HW1 5852   0.231   0.319   0.155
 1651SOL    HW2 5853   0.304   0.230   0.039
 1652SOL     OW 5854   2.991   2.410   1.464
 1652SOL    HW1 5855   3.036   2.446   1.545
 1652SOL    HW2 5856   2.948   2.486   1.414
 1653SOL     OW 5857   0.126   5.392   0.630
 1653SOL    HW1 5858   0.214   5.425   0.664
 1653SOL    HW2 5859   0.056   5.460   0.647
 1654SOL     OW 5860   6.769   3.578   2.883
 1654SOL    HW1 5861   6.809   3.658   2.928
 1654SOL    HW2 5862   6.814   3.564   2.795
 1655SOL     OW 5863   5.341   4.105   6.171
 1655SOL    HW1 5864   5.344   4.177   6.240
 1655SOL    HW2 5865   5.425   4.052   6.174
 1656SOL     OW 5866   1.021   4.719   3.656
 1656SOL    HW1 5867   0.935   4.751   3.697
 1656SOL    HW2 5868   1.037   4.625   3.684
 1657SOL     OW 5869   1.628   0.974   5.542
 1657SOL    HW1 5870   1.553   1.006   5.599
 1657SOL    HW2 5871   1.686   1.051   5.516
 1658SOL     OW 5872   5.749   6.180   2.537
 1658SOL    HW1 5873   5.763   6.265   2.588
 1658SOL    HW2 5874   5.757   6.198   2.439
 1659SOL     OW 5875   3.395   1.927   6.511
 1659SOL    HW1 5876   3.473   1.898   6.456
 1659SOL    HW2 5877   3.426   1.956   6.602
 1660SOL     OW 5878   1.349   5.878   3.843
 1660SOL    HW1 5879   1.313   5.914   3.757
 1660SOL    HW2 5880   1.314   5.785   3.858
 1661SOL     OW 5881   3.105   1.665   2.233
 1661SOL    HW1 5882   3.083   1.763   2.236
 1661SOL    HW2 5883   3.043   1.618   2.170
 1662SOL     OW 5884   6.985   1.541   3.040
 1662SOL    HW1 5885   6.974   1.449   3.077
 1662SOL    HW2 5886   6.934   1.548   2.954
 1663SOL     OW 5887   3.166   6.981   2.881
 1663SOL    HW1 5888   3.172   6.882   2.892
 1663SOL    HW2 5889   3.079   7.013   2.916
 1664SOL     OW 5890   1.750   6.573   4.498
 1664SOL    HW1 5891   1.839   6.570   4.544
 1664SOL    HW2 5892   1.728   6.483   4.460
 1665SOL     OW 5893   0.760   1.547   2.469
 1665SOL    HW1 5894   0.860   1.549   2.470
 1665SOL    HW2 5895   0.727   1.582   2.382
 1666SOL     OW 5896   5.826   2.482   5.547
 1666SOL    HW1 5897   5.883   2.467   5.465
 1666SOL    HW2 5898   5.834   2.577   5.575
 1667SOL     OW 5899   6.469   6.905   6.140
 1667SOL    HW1 5900   6.494   6.815   6.175
 1667SOL    HW2 5901   6.442   6.897   6.044
 1668SOL     OW 5902   3.970   0.264   4.258
 1668SOL    HW1 5903   3.944   0.358   4.277
 1668SOL    HW2 5904   4.068   0.259   4.239
 1669SOL     OW 5905   5.793   6.765   6.158
 1669SOL    HW1 5906   5.891   6.781   6.146
 1669SOL    HW2 5907   5.749   6.846   6.196
 1670SOL     OW 5908   5.538   4.475   5.569
 1670SOL    HW1 5909   5.573   4.412   5.639
 1670SOL    HW2 5910   5.447   4.507   5.596
 1671SOL     OW 5911   4.640   3.419   0.368
 1671SOL    HW1 5912   4.729   3.412   0.414
 1671SOL    HW2 5913   4.575   3.357   0.412
 1672SOL     OW 5914   1.935   4.478   2.303
 1672SOL    HW1 5915   2.020   4.453   2.256
 1672SOL    HW2 5916   1.955   4.545   2.374
 1673SOL     OW 5917   6.892   3.643   4.425
 1673SOL    HW1 5918   6.861   3.737   4.413
 1673SOL    HW2 5919   6.987   3.635   4.394
 1674SOL     OW 5920   0.736   3.773   0.755
 1674SOL    HW1 5921   0.741   3.801   0.851
 1674SOL    HW2 5922   0.764   3.849   0.697
 1675SOL     OW 5923   4.851   1.586   6.605
 1675SOL    HW1 5924   4.898   1.585   6.517
 1675SOL    HW2 5925   4.910   1.547   6.675
 1676SOL     OW 5926   2.197   0.978   2.440
 1676SOL    HW1 5927   2.171   0.883   2.424
 1676SOL    HW2 5928   2.131   1.021   2.502
 1677SOL     OW 5929   5.832   1.454   5.072
 1677SOL    HW1 5930   5.793   1.520   5.137
 1677SOL    HW2 5931   5.759   1.417   5.015
 1678SOL     OW 5932   5.059   6.381   2.061
 1678SOL    HW1 5933   4.960   6.369   2.056
 1678SOL    HW2 5934   5.095   6.402   1.970
 1679SOL     OW 5935   1.054   3.001   5.766
 1679SOL    HW1 5936   1.082   2.906   5.748
 1679SOL    HW2 5937   1.047   3.015   5.865
 1680SOL     OW 5938   0.783   1.175   3.884
 1680SOL    HW1 5939   0.710   1.190   3.951
 1680SOL    HW2 5940   0.744   1.132   3.802
 1681SOL     OW 5941   6.409   5.097   0.722
 1681SOL    HW1 5942   6.497   5.052   0.703
 1681SOL    HW2 5943   6.421   5.160   0.799
 1682SOL     OW 5944   0.335   3.429   5.108
 1682SOL    HW1 5945   0.293   3.480   5.032
 1682SOL    HW2 5946   0.264   3.399   5.171
 1683SOL     OW 5947   4.658   5.272   0.997
 1683SOL    HW1 5948   4.601   5.196   0.968
 1683SOL    HW2 5949   4.620   5.358   0.963
 1684SOL     OW 5950   0.610   6.660   5.436
 1684SOL    HW1 5951   0.521   6.705   5.425
 1684SOL    HW2 5952   0.629   6.604   5.355
 1685SOL     OW 5953   1.758   1.077   0.528
 1685SOL    HW1 5954   1.856   1.064   0.520
 1685SOL    HW2 5955   1.717   1.087   0.438
 1686SOL     OW 5956   1.350   5.484   5.668
 1686SOL    HW1 5957   1.301   5.568   5.646
 1686SOL    HW2 5958   1.364   5.478   5.767
 1687SOL     OW 5959   1.632   4.807   2.225
 1687SOL    HW1 5960   1.702   4.869   2.259
 1687SOL    HW2 5961   1.542   4.851   2.232
 1688SOL     OW 5962   1.671   1.898   3.093
 1688SOL    HW1 5963   1.679   1.994   3.065
 1688SOL    HW2 5964   1.763   1.860   3.106
 1689SOL     OW 5965   2.883   1.664   2.437
 1689SOL    HW1 5966   2.916   1.585   2.490
 1689SOL    HW2 5967   2.926   1.664   2.347
 1690SOL     OW 5968   1.529   1.576   2.173
 1690SOL    HW1 5969   1.452   1.514   2.161
 1690SOL    HW2 5970   1.570   1.595   2.084
 1691SOL     OW 5971   5.221   3.374   3.190
 1691SOL    HW1 5972   5.315   3.359   3.219
 1691SOL    HW2 5973   5.158   3.334   3.256
 1692SOL     OW 5974   0.662   0.129   1.679
 1692SOL    HW1 5975   0.564   0.148   1.673
 1692SOL    HW2 5976   0.713   0.213   1.659
 1693SOL     OW 5977   2.489   2.576   3.855
 1693SOL    HW1 5978   2.415   2.546   3.916
 1693SOL    HW2 5979   2.577   2.565   3.901
 1694SOL     OW 5980   4.417   5.708   5.017
 1694SOL    HW1 5981   4.497   5.760   4.989
 1694SOL    HW2 5982   4.421   5.616   4.977
 1695SOL     OW 5983   2.958   2.853   5.350
 1695SOL    HW1 5984   2.948   2.860   5.449
 1695SOL    HW2 5985   2.991   2.762   5.326
 1696SOL     OW 5986   4.874   5.089   0.412
 1696SOL    HW1 5987   4.963   5.121   0.380
 1696SOL    HW2 5988   4.802   5.140   0.363
 1697SOL     OW 5989   1.312   0.410   1.607
 1697SOL    HW1 5990   1.357   0.368   1.527
 1697SOL    HW2 5991   1.232   0.461   1.576
 1698SOL     OW 5992   4.891   2.138   1.758
 1698SOL    HW1 5993   4.959   2.203   1.723
 1698SOL    HW2 5994   4.928   2.089   1.836
 1699SOL     OW 5995   2.710   3.202   1.025
 1699SOL    HW1 5996   2.710   3.285   1.082
 1699SOL    HW2 5997   2.634   3.143   1.053
 1700SOL     OW 5998   6.639   2.779   3.061
 1700SOL    HW1 5999   6.738   2.774   3.054
 1700SOL    HW2 6000   6.598   2.754   2.974
 1701SOL     OW 6001   6.161   2.541   4.312
 1701SOL    HW1 6002   6.080   2.529   4.254
 1701SOL    HW2 6003   6.219   2.613   4.274
 1702SOL     OW 6004   5.845   3.365   1.250
 1702SOL    HW1 6005   5.790   3.313   1.315
 1702SOL    HW2 6006   5.840   3.323   1.160
 1703SOL     OW 6007   2.187   3.731   0.691
 1703SOL    HW1 6008   2.218   3.784   0.770
 1703SOL    HW2 6009   2.138   3.791   0.628
 1704SOL     OW 6010   6.877   0.555   1.310
 1704SOL    HW1 6011   6.883   0.554   1.210
 1704SOL    HW2 6012   6.967   0.533   1.348
 1705SOL     OW 6013   3.768   2.610   1.465
 1705SOL    HW1 6014   3.750   2.588   1.561
 1705SOL    HW2 6015   3.804   2.529   1.418
 1706SOL     OW 6016   3.705   0.654   0.196
 1706SOL    HW1 6017   3.803   0.636   0.207
 1706SOL    HW2 6018   3.670   0.603   0.117
 1707SOL     OW 6019   5.867   1.826   2.815
 1707SOL    HW1 6020   5.942   1.891   2.818
 1707SOL    HW2 6021   5.838   1.803   2.908
 1708SOL     OW 6022   6.359   6.275   2.629
 1708SOL    HW1 6023   6.440   6.225   2.659
 1708SOL    HW2 6024   6.386   6.351   2.571
 1709SOL     OW 6025   2.802   6.399   2.505
 1709SOL    HW1 6026   2.868   6.324   2.499
 1709SOL    HW2 6027   2.816   6.448   2.591
 1710SOL     OW 6028   0.560   4.923   4.046
 1710SOL    HW1 6029   0.609   4.838   4.066
 1710SOL    HW2 6030   0.575   4.949   3.951
 1711SOL     OW 6031   1.538   4.847   5.752
 1711SOL    HW1 6032   1.577   4.904   5.825
 1711SOL    HW2 6033   1.485   4.772   5.793
 1712SOL     OW 6034   6.854   4.156   0.134
 1712SOL    HW1 6035   6.845   4.151   0.035
 1712SOL    HW2 6036   6.951   4.164   0.158
 1713SOL     OW 6037   1.682   2.673   1.376
 1713SOL    HW1 6038   1.751   2.715   1.316
 1713SOL    HW2 6039   1.666   2.732   1.455
 1714SOL     OW 6040   3.321   1.913   6.964
 1714SOL    HW1 6041   3.361   1.909   0.032
 1714SOL    HW2 6042   3.221   1.914   6.971
 1715SOL     OW 6043   0.785   3.240   2.872
 1715SOL    HW1 6044   0.828   3.202   2.954
 1715SOL    HW2 6045   0.789   3.340   2.875
 1716SOL     OW 6046   6.903   6.448   0.205
 1716SOL    HW1 6047   6.813   6.490   0.219
 1716SOL    HW2 6048   6.951   6.496   0.132
 1717SOL     OW 6049   2.641   6.693   6.766
 1717SOL    HW1 6050   2.737   6.667   6.751
 1717SOL    HW2 6051   2.621   6.775   6.714
 1718SOL     OW 6052   2.428   4.293   0.666
 1718SOL    HW1 6053   2.420   4.214   0.727
 1718SOL    HW2 6054   2.342   4.344   0.666
 1719SOL     OW 6055   1.869   3.512   1.368
 1719SOL    HW1 6056   1.920   3.437   1.325
 1719SOL    HW2 6057   1.929   3.562   1.431
 1720SOL     OW 6058   6.726   1.478   0.504
 1720SOL    HW1 6059   6.643   1.432   0.535
 1720SOL    HW2 6060   6.703   1.569   0.469
 1721SOL     OW 6061   1.614   6.643   3.481
 1721SOL    HW1 6062   1.598   6.686   3.391
 1721SOL    HW2 6063   1.623   6.715   3.550
 1722SOL     OW 6064   5.961   0.309   2.339
 1722SOL    HW1 6065   6.056   0.280   2.349
 1722SOL    HW2 6066   5.926   0.280   2.250
 1723SOL     OW 6067   0.296   1.701   2.849
 1723SOL    HW1 6068   0.312   1.752   2.933
 1723SOL    HW2 6069   0.298   1.603   2.868
 1724SOL     OW 6070   5.049   1.188   6.848
 1724SOL    HW1 6071   4.957   1.208   6.882
 1724SOL    HW2 6072   5.067   1.241   6.765
 1725SOL     OW 6073   3.433   4.178   1.363
 1725SOL    HW1 6074   3.334   4.162   1.359
 1725SOL    HW2 6075   3.457   4.218   1.451
 1726SOL     OW 6076   6.752   4.979   5.321
 1726SOL    HW1 6077   6.694   4.923   5.261
 1726SOL    HW2 6078   6.775   5.064   5.275
 1727SOL     OW 6079   4.184   3.509   5.178
 1727SOL    HW1 6080   4.156   3.422   5.217
 1727SOL    HW2 6081   4.272   3.537   5.218
 1728SOL     OW 6082   4.477   4.482   4.098
 1728SOL    HW1 6083   4.452   4.560   4.155
 1728SOL    HW2 6084   4.426   4.401   4.127
 1729SOL     OW 6085   1.175   4.120   2.883
 1729SOL    HW1 6086   1.256   4.078   2.925
 1729SOL    HW2 6087   1.191   4.131   2.785
 1730SOL     OW 6088   6.744   1.780   4.761
 1730SOL    HW1 6089   6.724   1.854   4.697
 1730SOL    HW2 6090   6.705   1.802   4.851
 1731SOL     OW 6091   2.015   4.928   1.202
 1731SOL    HW1 6092   1.948   4.921   1.276
 1731SOL    HW2 6093   1.969   4.960   1.119
 1732SOL     OW 6094   2.064   4.679   0.157
 1732SOL    HW1 6095   2.009   4.605   0.197
 1732SOL    HW2 6096   2.030   4.701   0.066
 1733SOL     OW 6097   1.520   3.761   1.919
 1733SOL    HW1 6098   1.478   3.776   1.830
 1733SOL    HW2 6099   1.512   3.845   1.974
 1734SOL     OW 6100   3.920   2.731   0.827
 1734SOL    HW1 6101   4.013   2.762   0.847
 1734SOL    HW2 6102   3.913   2.633   0.845
 1735SOL     OW 6103   5.880   4.967   1.472
 1735SOL    HW1 6104   5.926   5.030   1.410
 1735SOL    HW2 6105   5.948   4.914   1.523
 1736SOL     OW 6106   3.187   3.082   7.006
 1736SOL    HW1 6107   3.200   2.991   6.967
 1736SOL    HW2 6108   3.247   3.094   0.061
 1737SOL     OW 6109   2.172   0.358   4.084
 1737SOL    HW1 6110   2.248   0.318   4.134
 1737SOL    HW2 6111   2.198   0.369   3.988
 1738SOL     OW 6112   2.216   3.006   2.335
 1738SOL    HW1 6113   2.278   3.051   2.270
 1738SOL    HW2 6114   2.177   2.924   2.292
 1739SOL     OW 6115   4.491   2.196   4.858
 1739SOL    HW1 6116   4.495   2.129   4.785
 1739SOL    HW2 6117   4.567   2.181   4.922
 1740SOL     OW 6118   6.936   0.582   6.687
 1740SOL    HW1 6119   7.021   0.599   6.738
 1740SOL    HW2 6120   6.888   0.669   6.674
 1741SOL     OW 6121   2.154   0.681   2.359
 1741SOL    HW1 6122   2.080   0.614   2.360
 1741SOL    HW2 6123   2.234   0.642   2.403
 1742SOL     OW 6124   5.767   0.485   4.869
 1742SOL    HW1 6125   5.810   0.569   4.901
 1742SOL    HW2 6126   5.812   0.406   4.912
 1743SOL     OW 6127   3.434   1.645   1.342
 1743SOL    HW1 6128   3.491   1.563   1.348
 1743SOL    HW2 6129   3.445   1.686   1.252
 1744SOL     OW 6130   2.486   0.905   2.018
 1744SOL    HW1 6131   2.470   0.888   1.920
 1744SOL    HW2 6132   2.519   0.999   2.030
 1745SOL     OW 6133   6.914   1.754   3.203
 1745SOL    HW1 6134   6.969   1.834   3.224
 1745SOL    HW2 6135   6.969   1.687   3.153
 1746SOL     OW 6136   2.907   0.576   6.620
 1746SOL    HW1 6137   2.865   0.565   6.710
 1746SOL    HW2 6138   2.838   0.565   6.549
 1747SOL     OW 6139   3.577   0.049   1.232
 1747SOL    HW1 6140   3.583   6.990   1.175
 1747SOL    HW2 6141   3.649   0.113   1.205
 1748SOL     OW 6142   6.026   1.936   3.708
 1748SOL    HW1 6143   5.987   1.845   3.691
 1748SOL    HW2 6144   6.061   1.973   3.622
 1749SOL     OW 6145   4.496   6.800   6.676
 1749SOL    HW1 6146   4.475   6.871   6.609
 1749SOL    HW2 6147   4.442   6.718   6.657
 1750SOL     OW 6148   5.122   1.208   2.400
 1750SOL    HW1 6149   5.128   1.119   2.357
 1750SOL    HW2 6150   5.167   1.205   2.489
 1751SOL     OW 6151   1.947   5.245   4.575
 1751SOL    HW1 6152   1.976   5.211   4.486
 1751SOL    HW2 6153   1.871   5.190   4.609
 1752SOL     OW 6154   6.702   2.105   0.856
 1752SOL    HW1 6155   6.766   2.080   0.930
 1752SOL    HW2 6156   6.654   2.189   0.881
 1753SOL     OW 6157   0.614   6.852   0.475
 1753SOL    HW1 6158   0.577   6.900   0.395
 1753SOL    HW2 6159   0.696   6.901   0.508
 1754SOL     OW 6160   3.255   2.982   1.145
 1754SOL    HW1 6161   3.353   2.963   1.133
 1754SOL    HW2 6162   3.230   3.061   1.088
 1755SOL     OW 6163   5.305   4.839   1.627
 1755SOL    HW1 6164   5.258   4.757   1.596
 1755SOL    HW2 6165   5.309   4.906   1.552
 1756SOL     OW 6166   6.282   4.968   4.254
 1756SOL    HW1 6167   6.258   4.984   4.159
 1756SOL    HW2 6168   6.260   5.049   4.308
 1757SOL     OW 6169   2.810   6.494   4.578
 1757SOL    HW1 6170   2.719   6.498   4.620
 1757SOL    HW2 6171   2.833   6.583   4.539
 1758SOL     OW 6172   3.046   1.136   3.459
 1758SOL    HW1 6173   3.128   1.164   3.409
 1758SOL    HW2 6174   2.968   1.192   3.429
 1759SOL     OW 6175   0.130   4.496   5.860
 1759SOL    HW1 6176   0.064   4.442   5.912
 1759SOL    HW2 6177   0.085   4.575   5.818
 1760SOL     OW 6178   6.106   1.553   1.519
 1760SOL    HW1 6179   6.053   1.477   1.558
 1760SOL    HW2 6180   6.196   1.557   1.563
 1761SOL     OW 6181   5.533   0.913   0.931
 1761SOL    HW1 6182   5.565   1.008   0.925
 1761SOL    HW2 6183   5.513   0.879   0.839
 1762SOL     OW 6184   6.678   2.271   5.652
 1762SOL    HW1 6185   6.688   2.339   5.724
 1762SOL    HW2 6186   6.730   2.300   5.571
 1763SOL     OW 6187   1.812   4.169   4.189
 1763SOL    HW1 6188   1.837   4.079   4.153
 1763SOL    HW2 6189   1.786   4.161   4.285
 1764SOL     OW 6190   1.184   3.199   3.055
 1764SOL    HW1 6191   1.096   3.154   3.067
 1764SOL    HW2 6192   1.226   3.167   2.970
 1765SOL     OW 6193   2.374   1.439   0.333
 1765SOL    HW1 6194   2.345   1.535   0.332
 1765SOL    HW2 6195   2.436   1.421   0.257
 1766SOL     OW 6196   5.296   3.187   4.783
 1766SOL    HW1 6197   5.374   3.250   4.790
 1766SOL    HW2 6198   5.235   3.217   4.710
 1767SOL     OW 6199   5.440   3.736   2.250
 1767SOL    HW1 6200   5.389   3.678   2.187
 1767SOL    HW2 6201   5.383   3.814   2.276
 1768SOL     OW 6202   4.279   0.421   3.424
 1768SOL    HW1 6203   4.367   0.389   3.458
 1768SOL    HW2 6204   4.241   0.489   3.487
 1769SOL     OW 6205   3.846   1.438   3.715
 1769SOL    HW1 6206   3.919   1.405   3.774
 1769SOL    HW2 6207   3.818   1.365   3.653
 1770SOL     OW 6208   1.701   5.513   5.440
 1770SOL    HW1 6209   1.797   5.535   5.423
 1770SOL    HW2 6210   1.644   5.580   5.393
 1771SOL     OW 6211   3.192   6.418   0.001
 1771SOL    HW1 6212   3.127   6.392   6.953
 1771SOL    HW2 6213   3.158   6.386   0.090
 1772SOL     OW 6214   3.364   6.978   3.688
 1772SOL    HW1 6215   3.421   6.994   3.768
 1772SOL    HW2 6216   3.302   6.902   3.705
 1773SOL     OW 6217   2.531   4.953   6.343
 1773SOL    HW1 6218   2.514   4.994   6.253
 1773SOL    HW2 6219   2.460   4.982   6.407
 1774SOL     OW 6220   4.228   5.436   1.649
 1774SOL    HW1 6221   4.218   5.494   1.730
 1774SOL    HW2 6222   4.227   5.340   1.676
 1775SOL     OW 6223   0.580   3.993   2.399
 1775SOL    HW1 6224   0.578   4.073   2.339
 1775SOL    HW2 6225   0.525   4.011   2.480
 1776SOL     OW 6226   4.355   6.162   4.404
 1776SOL    HW1 6227   4.325   6.250   4.367
 1776SOL    HW2 6228   4.275   6.104   4.419
 1777SOL     OW 6229   3.528   5.842   6.781
 1777SOL    HW1 6230   3.460   5.914   6.772
 1777SOL    HW2 6231   3.618   5.883   6.798
 1778SOL     OW 6232   4.409   3.328   5.455
 1778SOL    HW1 6233   4.365   3.340   5.544
 1778SOL    HW2 6234   4.365   3.253   5.406
 1779SOL     OW 6235   3.775   0.586   4.888
 1779SOL    HW1 6236   3.822   0.520   4.947
 1779SOL    HW2 6237   3.768   0.674   4.936
 1780SOL     OW 6238   3.411   3.000   6.056
 1780SOL    HW1 6239   3.417   2.951   6.143
 1780SOL    HW2 6240   3.358   2.945   5.991
 1781SOL     OW 6241   4.059   6.553   3.354
 1781SOL    HW1 6242   4.095   6.628   3.299
 1781SOL    HW2 6243   4.011   6.590   3.434
 1782SOL     OW 6244   3.098   1.549   2.985
 1782SOL    HW1 6245   3.144   1.548   3.074
 1782SOL    HW2 6246   3.019   1.611   2.988
 1783SOL     OW 6247   2.996   5.148   6.302
 1783SOL    HW1 6248   3.042   5.191   6.225
 1783SOL    HW2 6249   2.905   5.189   6.314
 1784SOL     OW 6250   4.041   0.725   5.628
 1784SOL    HW1 6251   4.136   0.753   5.635
 1784SOL    HW2 6252   3.981   0.798   5.661
 1785SOL     OW 6253   6.504   3.966   2.601
 1785SOL    HW1 6254   6.576   3.898   2.590
 1785SOL    HW2 6255   6.471   3.965   2.696
 1786SOL     OW 6256   2.350   2.711   6.953
 1786SOL    HW1 6257   2.306   2.674   0.011
 1786SOL    HW2 6258   2.361   2.810   6.963
 1787SOL     OW 6259   3.209   1.205   5.461
 1787SOL    HW1 6260   3.294   1.171   5.420
 1787SOL    HW2 6261   3.230   1.262   5.540
 1788SOL     OW 6262   2.094   4.620   6.539
 1788SOL    HW1 6263   2.134   4.592   6.452
 1788SOL    HW2 6264   2.082   4.540   6.598
 1789SOL     OW 6265   5.847   2.128   0.837
 1789SOL    HW1 6266   5.838   2.042   0.888
 1789SOL    HW2 6267   5.851   2.107   0.739
 1790SOL     OW 6268   4.218   6.307   3.565
 1790SOL    HW1 6269   4.226   6.405   3.548
 1790SOL    HW2 6270   4.140   6.271   3.514
 1791SOL     OW 6271   6.886   0.720   2.343
 1791SOL    HW1 6272   6.908   0.688   2.435
 1791SOL    HW2 6273   6.928   0.810   2.328
 1792SOL     OW 6274   0.059   3.883   4.989
 1792SOL    HW1 6275   6.992   3.926   4.993
 1792SOL    HW2 6276   0.125   3.948   4.951
 1793SOL     OW 6277   6.162   0.195   3.740
 1793SOL    HW1 6278   6.214   0.111   3.757
 1793SOL    HW2 6279   6.223   0.266   3.706
 1794SOL     OW 6280   5.201   5.986   5.849
 1794SOL    HW1 6281   5.241   5.919   5.787
 1794SOL    HW2 6282   5.134   6.042   5.800
 1795SOL     OW 6283   0.868   2.908   1.291
 1795SOL    HW1 6284   0.932   2.841   1.252
 1795SOL    HW2 6285   0.836   2.875   1.380
 1796SOL     OW 6286   2.989   1.296   5.852
 1796SOL    HW1 6287   3.034   1.369   5.903
 1796SOL    HW2 6288   2.939   1.237   5.915
 1797SOL     OW 6289   1.204   0.298   6.992
 1797SOL    HW1 6290   1.154   0.236   6.931
 1797SOL    HW2 6291   1.145   0.375   7.017
 1798SOL     OW 6292   4.361   2.431   4.290
 1798SOL    HW1 6293   4.320   2.387   4.210
 1798SOL    HW2 6294   4.375   2.362   4.362
 1799SOL     OW 6295   0.021   2.837   4.394
 1799SOL    HW1 6296   7.021   2.907   4.327
 1799SOL    HW2 6297   6.969   2.828   4.460
 1800SOL     OW 6298   4.325   4.231   1.468
 1800SOL    HW1 6299   4.258   4.274   1.528
 1800SOL    HW2 6300   4.408   4.211   1.519
 1801SOL     OW 6301   0.352   0.973   2.073
 1801SOL    HW1 6302   0.256   0.997   2.086
 1801SOL    HW2 6303   0.397   0.968   2.162
 1802SOL     OW 6304   5.827   6.113   4.294
 1802SOL    HW1 6305   5.786   6.122   4.203
 1802SOL    HW2 6306   5.922   6.145   4.291
 1803SOL     OW 6307   0.604   5.270   6.641
 1803SOL    HW1 6308   0.516   5.273   6.594
 1803SOL    HW2 6309   0.634   5.364   6.660
 1804SOL     OW 6310   2.586   4.205   5.316
 1804SOL    HW1 6311   2.549   4.215   5.408
 1804SOL    HW2 6312   2.551   4.121   5.275
 1805SOL     OW 6313   5.014   3.659   6.165
 1805SOL    HW1 6314   4.971   3.669   6.255
 1805SOL    HW2 6315   4.973   3.581   6.117
 1806SOL     OW 6316   0.370   0.102   6.895
 1806SOL    HW1 6317   0.403   0.020   6.848
 1806SOL    HW2 6318   0.287   0.079   6.946
 1807SOL     OW 6319   5.207   2.752   4.744
 1807SOL    HW1 6320   5.118   2.733   4.785
 1807SOL    HW2 6321   5.248   2.831   4.789
 1808SOL     OW 6322   0.031   4.734   5.804
 1808SOL    HW1 6323   0.004   4.775   5.892
 1808SOL    HW2 6324   0.095   4.795   5.758
 1809SOL     OW 6325   2.483   2.243   5.388
 1809SOL    HW1 6326   2.558   2.191   5.430
 1809SOL    HW2 6327   2.481   2.225   5.290
 1810SOL     OW 6328   2.703   0.365   3.957
 1810SOL    HW1 6329   2.755   0.308   4.021
 1810SOL    HW2 6330   2.704   0.323   3.866
 1811SOL     OW 6331   5.804   5.969   3.786
 1811SOL    HW1 6332   5.868   6.034   3.827
 1811SOL    HW2 6333   5.787   5.894   3.850
 1812SOL     OW 6334   3.952   5.732   5.000
 1812SOL    HW1 6335   4.013   5.723   4.921
 1812SOL    HW2 6336   3.937   5.829   5.019
 1813SOL     OW 6337   5.704   4.021   0.631
 1813SOL    HW1 6338   5.762   4.020   0.712
 1813SOL    HW2 6339   5.735   3.950   0.567
 1814SOL     OW 6340   4.751   0.116   1.501
 1814SOL    HW1 6341   4.789   0.204   1.526
 1814SOL    HW2 6342   4.746   0.108   1.401
 1815SOL     OW 6343   0.516   1.720   2.513
 1815SOL    HW1 6344   0.481   1.809   2.483
 1815SOL    HW2 6345   0.572   1.680   2.440
 1816SOL     OW 6346   2.951   3.034   0.985
 1816SOL    HW1 6347   2.889   3.111   0.999
 1816SOL    HW2 6348   2.899   2.949   0.982
 1817SOL     OW 6349   1.435   6.367   2.473
 1817SOL    HW1 6350   1.463   6.458   2.503
 1817SOL    HW2 6351   1.335   6.364   2.464
 1818SOL     OW 6352   1.134   0.290   3.304
 1818SOL    HW1 6353   1.050   0.333   3.337
 1818SOL    HW2 6354   1.111   0.205   3.257
 1819SOL     OW 6355   1.112   4.307   2.221
 1819SOL    HW1 6356   1.105   4.261   2.310
 1819SOL    HW2 6357   1.184   4.264   2.167
 1820SOL     OW 6358   4.596   1.273   2.359
 1820SOL    HW1 6359   4.688   1.300   2.331
 1820SOL    HW2 6360   4.542   1.355   2.378
 1821SOL     OW 6361   1.851   1.213   2.767
 1821SOL    HW1 6362   1.756   1.201   2.796
 1821SOL    HW2 6363   1.884   1.302   2.799
 1822SOL     OW 6364   3.230   2.519   1.714
 1822SOL    HW1 6365   3.132   2.534   1.728
 1822SOL    HW2 6366   3.249   2.421   1.713
 1823SOL     OW 6367   3.584   6.264   2.621
 1823SOL    HW1 6368   3.503   6.318   2.645
 1823SOL    HW2 6369   3.661   6.326   2.605
 1824SOL     OW 6370   4.239   2.349   1.352
 1824SOL    HW1 6371   4.308   2.410   1.313
 1824SOL    HW2 6372   4.223   2.273   1.289
 1825SOL     OW 6373   1.200   0.110   1.380
 1825SOL    HW1 6374   1.247   0.095   1.293
 1825SOL    HW2 6375   1.132   0.038   1.394
 1826SOL     OW 6376   3.223   1.583   1.594
 1826SOL    HW1 6377   3.187   1.642   1.522
 1826SOL    HW2 6378   3.242   1.637   1.676
 1827SOL     OW 6379   6.827   4.871   1.953
 1827SOL    HW1 6380   6.878   4.855   2.037
 1827SOL    HW2 6381   6.796   4.966   1.951
 1828SOL     OW 6382   0.981   2.969   0.132
 1828SOL    HW1 6383   0.919   3.004   0.201
 1828SOL    HW2 6384   0.972   2.869   0.126
 1829SOL     OW 6385   5.359   6.264   3.301
 1829SOL    HW1 6386   5.318   6.257   3.210
 1829SOL    HW2 6387   5.367   6.360   3.327
 1830SOL     OW 6388   4.661   0.135   3.895
 1830SOL    HW1 6389   4.653   0.038   3.919
 1830SOL    HW2 6390   4.705   0.143   3.805
 1831SOL     OW 6391   6.171   6.782   2.494
 1831SOL    HW1 6392   6.161   6.682   2.486
 1831SOL    HW2 6393   6.261   6.804   2.531
 1832SOL     OW 6394   4.491   2.455   1.467
 1832SOL    HW1 6395   4.488   2.357   1.445
 1832SOL    HW2 6396   4.423   2.475   1.537
 1833SOL     OW 6397   5.030   0.384   5.072
 1833SOL    HW1 6398   5.093   0.324   5.023
 1833SOL    HW2 6399   4.963   0.330   5.122
 1834SOL     OW 6400   3.019   3.818   0.840
 1834SOL    HW1 6401   3.042   3.771   0.926
 1834SOL    HW2 6402   2.976   3.906   0.860
 1835SOL     OW 6403   1.913   4.368   1.389
 1835SOL    HW1 6404   1.839   4.305   1.416
 1835SOL    HW2 6405   1.996   4.345   1.440
 1836SOL     OW 6406   0.066   1.756   0.624
 1836SOL    HW1 6407   7.014   1.754   0.690
 1836SOL    HW2 6408   0.031   1.783   0.535
 1837SOL     OW 6409   1.038   2.263   4.349
 1837SOL    HW1 6410   1.132   2.237   4.371
 1837SOL    HW2 6411   1.019   2.239   4.254
 1838SOL     OW 6412   6.970   2.537   3.818
 1838SOL    HW1 6413   6.878   2.572   3.799
 1838SOL    HW2 6414   6.979   2.445   3.780
 1839SOL     OW 6415   5.671   3.185   4.902
 1839SOL    HW1 6416   5.597   3.248   4.880
 1839SOL    HW2 6417   5.683   3.181   5.002
 1840SOL     OW 6418   2.502   5.957   1.109
 1840SOL    HW1 6419   2.439   5.880   1.121
 1840SOL    HW2 6420   2.534   5.959   1.014
 1841SOL     OW 6421   2.085   3.711   4.139
 1841SOL    HW1 6422   2.120   3.726   4.046
 1841SOL    HW2 6423   2.143   3.760   4.204
 1842SOL     OW 6424   0.310   4.864   0.904
 1842SOL    HW1 6425   0.329   4.959   0.878
 1842SOL    HW2 6426   0.352   4.845   0.993
 1843SOL     OW 6427   1.872   1.790   5.133
 1843SOL    HW1 6428   1.914   1.699   5.131
 1843SOL    HW2 6429   1.896   1.837   5.218
 1844SOL     OW 6430   4.059   2.113   5.068
 1844SOL    HW1 6431   4.083   2.055   5.145
 1844SOL    HW2 6432   3.975   2.163   5.089
 1845SOL     OW 6433   2.904   6.833   6.478
 1845SOL    HW1 6434   2.964   6.883   6.540
 1845SOL    HW2 6435   2.891   6.886   6.394
 1846SOL     OW 6436   4.286   2.072   6.901
 1846SOL    HW1 6437   4.378   2.047   6.932
 1846SOL    HW2 6438   4.267   2.167   6.926
 1847SOL     OW 6439   0.728   0.108   0.291
 1847SOL    HW1 6440   0.767   0.050   0.363
 1847SOL    HW2 6441   0.688   0.190   0.332
 1848SOL     OW 6442   2.725   5.918   2.624
 1848SOL    HW1 6443   2.633   5.957   2.626
 1848SOL    HW2 6444   2.746   5.885   2.532
 1849SOL     OW 6445   3.984   0.602   0.182
 1849SOL    HW1 6446   4.013   0.507   0.173
 1849SOL    HW2 6447   4.029   0.658   0.112
 1850SOL     OW 6448   6.231   1.718   3.065
 1850SOL    HW1 6449   6.278   1.666   2.994
 1850SOL    HW2 6450   6.214   1.659   3.144
 1851SOL     OW 6451   0.175   1.485   1.473
 1851SOL    HW1 6452   0.098   1.426   1.450
 1851SOL    HW2 6453   0.159   1.577   1.438
 1852SOL     OW 6454   4.484   3.907   0.222
 1852SOL    HW1 6455   4.543   3.848   0.166
 1852SOL    HW2 6456   4.513   4.002   0.212
 1853SOL     OW 6457   0.776   3.847   1.666
 1853SOL    HW1 6458   0.709   3.851   1.740
 1853SOL    HW2 6459   0.728   3.840   1.578
 1854SOL     OW 6460   2.978   5.939   4.049
 1854SOL    HW1 6461   3.011   5.932   3.955
 1854SOL    HW2 6462   3.035   5.883   4.109
 1855SOL     OW 6463   4.940   5.347   0.576
 1855SOL    HW1 6464   4.945   5.266   0.634
 1855SOL    HW2 6465   4.847   5.357   0.541
 1856SOL     OW 6466   5.558   2.293   5.663
 1856SOL    HW1 6467   5.476   2.241   5.640
 1856SOL    HW2 6468   5.625   2.285   5.589
 1857SOL     OW 6469   4.289   0.902   4.535
 1857SOL    HW1 6470   4.227   0.824   4.527
 1857SOL    HW2 6471   4.253   0.979   4.482
 1858SOL     OW 6472   5.672   3.655   4.155
 1858SOL    HW1 6473   5.756   3.628   4.108
 1858SOL    HW2 6474   5.625   3.574   4.190
 1859SOL     OW 6475   4.238   2.222   3.685
 1859SOL    HW1 6476   4.274   2.299   3.738
 1859SOL    HW2 6477   4.216   2.252   3.593
 1860SOL     OW 6478   6.526   1.303   3.981
 1860SOL    HW1 6479   6.465   1.266   4.051
 1860SOL    HW2 6480   6.615   1.258   3.988
 1861SOL     OW 6481   4.774   6.427   2.063
 1861SOL    HW1 6482   4.725   6.472   2.137
 1861SOL    HW2 6483   4.725   6.343   2.036
 1862SOL     OW 6484   1.995   0.525   6.928
 1862SOL    HW1 6485   2.077   0.510   6.873
 1862SOL    HW2 6486   2.007   0.607   6.984
 1863SOL     OW 6487   2.931   2.291   0.902
 1863SOL    HW1 6488   2.956   2.198   0.875
 1863SOL    HW2 6489   2.927   2.350   0.821
 1864SOL     OW 6490   0.696   6.790   4.851
 1864SOL    HW1 6491   0.636   6.790   4.771
 1864SOL    HW2 6492   0.675   6.711   4.908
 1865SOL     OW 6493   3.665   1.773   5.674
 1865SOL    HW1 6494   3.634   1.868   5.674
 1865SOL    HW2 6495   3.611   1.720   5.609
 1866SOL     OW 6496   4.344   4.533   1.863
 1866SOL    HW1 6497   4.393   4.457   1.905
 1866SOL    HW2 6498   4.384   4.554   1.774
 1867SOL     OW 6499   0.325   3.918   0.115
 1867SOL    HW1 6500   0.240   3.883   0.155
 1867SOL    HW2 6501   0.325   3.899   0.016
 1868SOL     OW 6502   5.804   4.292   6.803
 1868SOL    HW1 6503   5.719   4.301   6.752
 1868SOL    HW2 6504   5.786   4.305   6.901
 1869SOL     OW 6505   6.766   2.316   5.095
 1869SOL    HW1 6506   6.755   2.217   5.102
 1869SOL    HW2 6507   6.862   2.340   5.112
 1870SOL     OW 6508   2.107   4.515   5.748
 1870SOL    HW1 6509   2.108   4.536   5.650
 1870SOL    HW2 6510   2.080   4.597   5.799
 1871SOL     OW 6511   2.036   0.234   1.025
 1871SOL    HW1 6512   2.101   0.169   0.987
 1871SOL    HW2 6513   1.977   0.269   0.952
 1872SOL     OW 6514   3.068   4.550   0.300
 1872SOL    HW1 6515   3.148   4.610   0.292
 1872SOL    HW2 6516   3.009   4.562   0.220
 1873SOL     OW 6517   3.845   0.917   5.584
 1873SOL    HW1 6518   3.861   1.015   5.569
 1873SOL    HW2 6519   3.857   0.868   5.498
 1874SOL     OW 6520   2.160   2.039   2.025
 1874SOL    HW1 6521   2.222   2.007   1.953
 1874SOL    HW2 6522   2.069   1.999   2.012
 1875SOL     OW 6523   0.683   0.048   6.183
 1875SOL    HW1 6524   0.774   0.013   6.204
 1875SOL    HW2 6525   0.645   0.093   6.263
 1876SOL     OW 6526   2.826   6.931   4.885
 1876SOL    HW1 6527   2.911   6.975   4.859
 1876SOL    HW2 6528   2.765   6.999   4.928
 1877SOL     OW 6529   0.582   0.033   4.111
 1877SOL    HW1 6530   0.630   0.121   4.113
 1877SOL    HW2 6531   0.584   7.018   4.019
 1878SOL     OW 6532   0.230   1.636   4.016
 1878SOL    HW1 6533   0.157   1.685   4.064
 1878SOL    HW2 6534   0.269   1.566   4.077
 1879SOL     OW 6535   1.321   3.291   4.445
 1879SOL    HW1 6536   1.304   3.330   4.536
 1879SOL    HW2 6537   1.279   3.350   4.376
 1880SOL     OW 6538   6.807   1.715   5.266
 1880SOL    HW1 6539   6.878   1.756   5.210
 1880SOL    HW2 6540   6.721   1.764   5.253
 1881SOL     OW 6541   6.391   1.671   1.218
 1881SOL    HW1 6542   6.365   1.739   1.286
 1881SOL    HW2 6543   6.480   1.695   1.179
 1882SOL     OW 6544   1.392   3.947   6.585
 1882SOL    HW1 6545   1.429   3.882   6.652
 1882SOL    HW2 6546   1.391   3.904   6.494
 1883SOL     OW 6547   6.402   2.466   2.443
 1883SOL    HW1 6548   6.453   2.385   2.412
 1883SOL    HW2 6549   6.410   2.474   2.543
 1884SOL     OW 6550   0.963   1.477   0.726
 1884SOL    HW1 6551   1.059   1.475   0.754
 1884SOL    HW2 6552   0.943   1.565   0.683
 1885SOL     OW 6553   1.959   1.598   5.678
 1885SOL    HW1 6554   1.990   1.518   5.627
 1885SOL    HW2 6555   2.018   1.612   5.758
 1886SOL     OW 6556   2.288   6.998   2.250
 1886SOL    HW1 6557   2.368   6.950   2.214
 1886SOL    HW2 6558   2.292   7.001   2.350
 1887SOL     OW 6559   1.029   5.523   6.084
 1887SOL    HW1 6560   1.015   5.475   5.997
 1887SOL    HW2 6561   0.959   5.593   6.094
 1888SOL     OW 6562   3.325   2.280   0.264
 1888SOL    HW1 6563   3.299   2.341   0.189
 1888SOL    HW2 6564   3.258   2.207   0.272
 1889SOL     OW 6565   1.031   3.438   4.457
 1889SOL    HW1 6566   0.993   3.512   4.512
 1889SOL    HW2 6567   1.114   3.469   4.411
 1890SOL     OW 6568   0.556   5.504   4.380
 1890SOL    HW1 6569   0.565   5.428   4.445
 1890SOL    HW2 6570   0.576   5.471   4.288
 1891SOL     OW 6571   3.936   3.069   1.847
 1891SOL    HW1 6572   3.885   2.996   1.802
 1891SOL    HW2 6573   3.936   3.151   1.789
 1892SOL     OW 6574   0.043   0.407   1.785
 1892SOL    HW1 6575   0.108   0.462   1.837
 1892SOL    HW2 6576   0.079   0.314   1.773
 1893SOL     OW 6577   3.968   2.977   2.381
 1893SOL    HW1 6578   4.061   2.941   2.384
 1893SOL    HW2 6579   3.949   3.015   2.291
 1894SOL     OW 6580   3.190   3.810   4.296
 1894SOL    HW1 6581   3.188   3.908   4.318
 1894SOL    HW2 6582   3.221   3.759   4.376
 1895SOL     OW 6583   4.314   0.391   1.019
 1895SOL    HW1 6584   4.250   0.451   1.066
 1895SOL    HW2 6585   4.321   0.418   0.923
 1896SOL     OW 6586   6.218   1.670   0.860
 1896SOL    HW1 6587   6.240   1.740   0.928
 1896SOL    HW2 6588   6.123   1.680   0.830
 1897SOL     OW 6589   1.587   5.355   2.492
 1897SOL    HW1 6590   1.669   5.408   2.514
 1897SOL    HW2 6591   1.546   5.390   2.407
 1898SOL     OW 6592   2.061   4.931   2.931
 1898SOL    HW1 6593   1.970   4.969   2.913
 1898SOL    HW2 6594   2.129   5.004   2.926
 1899SOL     OW 6595   0.572   0.445   1.496
 1899SOL    HW1 6596   0.477   0.451   1.466
 1899SOL    HW2 6597   0.625   0.520   1.457
 1900SOL     OW 6598   2.800   0.058   6.854
 1900SOL    HW1 6599   2.841   0.023   6.938
 1900SOL    HW2 6600   2.781   7.005   6.792
 1901SOL     OW 6601   2.097   3.106   1.290
 1901SOL    HW1 6602   2.138   3.186   1.246
 1901SOL    HW2 6603   2.046   3.053   1.222
 1902SOL     OW 6604   2.781   0.218   4.775
 1902SOL    HW1 6605   2.708   0.218   4.844
 1902SOL    HW2 6606   2.778   0.304   4.724
 1903SOL     OW 6607   0.652   2.824   3.412
 1903SOL    HW1 6608   0.729   2.819   3.349
 1903SOL    HW2 6609   0.686   2.826   3.506
 1904SOL     OW 6610   5.845   5.203   2.724
 1904SOL    HW1 6611   5.938   5.169   2.732
 1904SOL    HW2 6612   5.791   5.143   2.665
 1905SOL     OW 6613   0.864   0.410   3.358
 1905SOL    HW1 6614   0.833   0.480   3.422
 1905SOL    HW2 6615   0.792   0.391   3.291
 1906SOL     OW 6616   2.889   0.696   5.809
 1906SOL    HW1 6617   2.876   0.653   5.898
 1906SOL    HW2 6618   2.985   0.693   5.784
 1907SOL     OW 6619   4.939   2.408   0.736
 1907SOL    HW1 6620   4.851   2.373   0.767
 1907SOL    HW2 6621   5.013   2.357   0.779
 1908SOL     OW 6622   3.758   6.741   6.889
 1908SOL    HW1 6623   3.781   6.673   6.958
 1908SOL    HW2 6624   3.721   6.822   6.933
 1909SOL     OW 6625   0.130   3.660   4.492
 1909SOL    HW1 6626   0.135   3.583   4.555
 1909SOL    HW2 6627   0.199   3.650   4.420
 1910SOL     OW 6628   6.494   6.017   5.859
 1910SOL    HW1 6629   6.557   6.060   5.794
 1910SOL    HW2 6630   6.530   5.928   5.886
 1911SOL     OW 6631   6.976   4.760   4.234
 1911SOL    HW1 6632   0.029   4.700   4.257
 1911SOL    HW2 6633   7.008   4.832   4.172
 1912SOL     OW 6634   2.705   4.964   2.620
 1912SOL    HW1 6635   2.660   4.875   2.628
 1912SOL    HW2 6636   2.767   4.963   2.542
 1913SOL     OW 6637   2.128   5.530   4.964
 1913SOL    HW1 6638   2.139   5.450   4.905
 1913SOL    HW2 6639   2.218   5.562   4.992
 1914SOL     OW 6640   2.826   4.055   5.922
 1914SOL    HW1 6641   2.846   4.101   5.836
 1914SOL    HW2 6642   2.879   4.097   5.996
 1915SOL     OW 6643   4.353   2.972   6.053
 1915SOL    HW1 6644   4.290   3.021   6.113
 1915SOL    HW2 6645   4.444   3.014   6.059
 1916SOL     OW 6646   3.857   0.157   1.314
 1916SOL    HW1 6647   3.842   0.150   1.412
 1916SOL    HW2 6648   3.952   0.133   1.293
 1917SOL     OW 6649   2.740   4.754   0.767
 1917SOL    HW1 6650   2.767   4.778   0.860
 1917SOL    HW2 6651   2.685   4.671   0.768
 1918SOL     OW 6652   0.877   0.791   4.851
 1918SOL    HW1 6653   0.892   0.704   4.803
 1918SOL    HW2 6654   0.780   0.802   4.871
 1919SOL     OW 6655   1.482   2.187   1.174
 1919SOL    HW1 6656   1.490   2.212   1.271
 1919SOL    HW2 6657   1.514   2.262   1.118
 1920SOL     OW 6658   5.529   2.427   2.061
 1920SOL    HW1 6659   5.504   2.334   2.036
 1920SOL    HW2 6660   5.622   2.446   2.029
 1921SOL     OW 6661   1.303   2.620   0.295
 1921SOL    HW1 6662   1.242   2.676   0.239
 1921SOL    HW2 6663   1.336   2.675   0.372
 1922SOL     OW 6664   3.330   3.131   1.795
 1922SOL    HW1 6665   3.374   3.092   1.714
 1922SOL    HW2 6666   3.270   3.062   1.836
 1923SOL     OW 6667   5.235   0.186   6.202
 1923SOL    HW1 6668   5.276   0.114   6.145
 1923SOL    HW2 6669   5.164   0.234   6.150
 1924SOL     OW 6670   4.516   0.138   1.108
 1924SOL    HW1 6671   4.549   0.170   1.019
 1924SOL    HW2 6672   4.439   0.195   1.137
 1925SOL     OW 6673   1.320   4.561   1.341
 1925SOL    HW1 6674   1.242   4.617   1.369
 1925SOL    HW2 6675   1.288   4.487   1.282
 1926SOL     OW 6676   3.835   0.524   1.585
 1926SOL    HW1 6677   3.908   0.544   1.650
 1926SOL    HW2 6678   3.859   0.560   1.495
 1927SOL     OW 6679   2.302   4.714   1.442
 1927SOL    HW1 6680   2.347   4.648   1.382
 1927SOL    HW2 6681   2.207   4.686   1.458
 1928SOL     OW 6682   4.629   4.294   4.236
 1928SOL    HW1 6683   4.609   4.363   4.166
 1928SOL    HW2 6684   4.722   4.259   4.222
 1929SOL     OW 6685   2.952   1.262   2.734
 1929SOL    HW1 6686   3.042   1.268   2.778
 1929SOL    HW2 6687   2.933   1.167   2.711
 1930SOL     OW 6688   4.829   3.221   6.535
 1930SOL    HW1 6689   4.817   3.216   6.634
 1930SOL    HW2 6690   4.740   3.226   6.491
 1931SOL     OW 6691   1.134   1.607   5.757
 1931SOL    HW1 6692   1.168   1.523   5.800
 1931SOL    HW2 6693   1.043   1.628   5.792
 1932SOL     OW 6694   4.340   2.058   3.370
 1932SOL    HW1 6695   4.262   1.995   3.377
 1932SOL    HW2 6696   4.411   2.016   3.312
 1933SOL     OW 6697   0.632   2.081   0.002
 1933SOL    HW1 6698   0.545   2.034   7.014
 1933SOL    HW2 6699   0.674   2.053   0.088
 1934SOL     OW 6700   0.034   0.395   5.006
 1934SOL    HW1 6701   7.011   0.352   4.928
 1934SOL    HW2 6702   7.005   0.474   5.035
 1935SOL     OW 6703   5.449   4.714   3.578
 1935SOL    HW1 6704   5.436   4.632   3.633
 1935SOL    HW2 6705   5.362   4.762   3.570
 1936SOL     OW 6706   5.587   3.329   4.553
 1936SOL    HW1 6707   5.573   3.413   4.605
 1936SOL    HW2 6708   5.513   3.265   4.572
 1937SOL     OW 6709   4.894   5.365   6.725
 1937SOL    HW1 6710   4.867   5.272   6.698
 1937SOL    HW2 6711   4.930   5.363   6.818
 1938SOL     OW 6712   0.894   2.336   6.691
 1938SOL    HW1 6713   0.901   2.434   6.676
 1938SOL    HW2 6714   0.808   2.316   6.738
 1939SOL     OW 6715   0.912   5.739   5.353
 1939SOL    HW1 6716   0.913   5.779   5.445
 1939SOL    HW2 6717   1.006   5.726   5.322
 1940SOL     OW 6718   6.054   4.811   1.673
 1940SOL    HW1 6719   6.126   4.854   1.726
 1940SOL    HW2 6720   5.970   4.808   1.726
 1941SOL     OW 6721   0.406   2.849   4.153
 1941SOL    HW1 6722   0.311   2.824   4.136
 1941SOL    HW2 6723   0.456   2.770   4.190
 1942SOL     OW 6724   5.477   3.228   2.467
 1942SOL    HW1 6725   5.418   3.156   2.432
 1942SOL    HW2 6726   5.459   3.240   2.565
 1943SOL     OW 6727   1.535   1.268   2.170
 1943SOL    HW1 6728   1.448   1.307   2.200
 1943SOL    HW2 6729   1.610   1.326   2.199
 1944SOL     OW 6730   0.370   3.035   0.882
 1944SOL    HW1 6731   0.365   2.997   0.790
 1944SOL    HW2 6732   0.404   2.965   0.945
 1945SOL     OW 6733   4.111   6.926   0.770
 1945SOL    HW1 6734   4.014   6.908   0.754
 1945SOL    HW2 6735   4.120   6.996   0.842
 1946SOL     OW 6736   6.674   6.037   1.222
 1946SOL    HW1 6737   6.609   6.109   1.243
 1946SOL    HW2 6738   6.748   6.038   1.290
 1947SOL     OW 6739   5.692   4.003   3.041
 1947SOL    HW1 6740   5.640   4.002   3.126
 1947SOL    HW2 6741   5.674   4.089   2.992
 1948SOL     OW 6742   5.632   3.485   2.961
 1948SOL    HW1 6743   5.579   3.417   2.910
 1948SOL    HW2 6744   5.569   3.553   3.001
 1949SOL     OW 6745   3.665   4.974   0.360
 1949SOL    HW1 6746   3.737   4.922   0.315
 1949SOL    HW2 6747   3.684   5.072   0.351
 1950SOL     OW 6748   3.351   4.114   3.922
 1950SOL    HW1 6749   3.391   4.036   3.874
 1950SOL    HW2 6750   3.274   4.151   3.869
 1951SOL     OW 6751   6.514   5.026   5.621
 1951SOL    HW1 6752   6.521   4.930   5.648
 1951SOL    HW2 6753   6.494   5.081   5.702
 1952SOL     OW 6754   5.245   4.043   0.270
 1952SOL    HW1 6755   5.345   4.038   0.270
 1952SOL    HW2 6756   5.208   3.956   0.238
 1953SOL     OW 6757   0.709   1.420   6.343
 1953SOL    HW1 6758   0.682   1.511   6.313
 1953SOL    HW2 6759   0.639   1.354   6.316
 1954SOL     OW 6760   3.501   6.893   1.425
 1954SOL    HW1 6761   3.513   6.917   1.522
 1954SOL    HW2 6762   3.497   6.976   1.370
 1955SOL     OW 6763   0.921   1.747   2.132
 1955SOL    HW1 6764   0.935   1.811   2.056
 1955SOL    HW2 6765   0.954   1.656   2.105
 1956SOL     OW 6766   6.415   0.742   2.035
 1956SOL    HW1 6767   6.319   0.726   2.059
 1956SOL    HW2 6768   6.462   0.784   2.113
 1957SOL     OW 6769   5.282   2.595   3.672
 1957SOL    HW1 6770   5.345   2.566   3.600
 1957SOL    HW2 6771   5.334   2.624   3.753
 1958SOL     OW 6772   4.631   1.718   0.829
 1958SOL    HW1 6773   4.626   1.788   0.900
 1958SOL    HW2 6774   4.546   1.719   0.776
 1959SOL     OW 6775   6.793   6.994   3.696
 1959SOL    HW1 6776   6.824   6.930   3.626
 1959SOL    HW2 6777   6.776   6.944   3.781
 1960SOL     OW 6778   5.768   3.369   2.707
 1960SOL    HW1 6779   5.861   3.353   2.741
 1960SOL    HW2 6780   5.705   3.369   2.784
 1961SOL     OW 6781   6.532   4.217   5.425
 1961SOL    HW1 6782   6.523   4.155   5.346
 1961SOL    HW2 6783   6.629   4.232   5.445
 1962SOL     OW 6784   1.031   6.977   2.783
 1962SOL    HW1 6785   0.984   0.042   2.790
 1962SOL    HW2 6786   1.004   6.917   2.858
 1963SOL     OW 6787   0.857   1.731   1.814
 1963SOL    HW1 6788   0.811   1.780   1.740
 1963SOL    HW2 6789   0.909   1.655   1.777
 1964SOL     OW 6790   5.529   4.518   1.980
 1964SOL    HW1 6791   5.499   4.609   2.008
 1964SOL    HW2 6792   5.486   4.449   2.040
 1965SOL     OW 6793   0.307   4.659   4.012
 1965SOL    HW1 6794   0.346   4.612   4.091
 1965SOL    HW2 6795   0.241   4.727   4.042
 1966SOL     OW 6796   1.777   4.579   0.966
 1966SOL    HW1 6797   1.798   4.610   1.059
 1966SOL    HW2 6798   1.679   4.592   0.948
 1967SOL     OW 6799   6.298   2.845   3.196
 1967SOL    HW1 6800   6.297   2.842   3.296
 1967SOL    HW2 6801   6.355   2.921   3.166
 1968SOL     OW 6802   2.265   1.173   5.399
 1968SOL    HW1 6803   2.335   1.103   5.411
 1968SOL    HW2 6804   2.192   1.159   5.467
 1969SOL     OW 6805   2.772   6.548   0.682
 1969SOL    HW1 6806   2.846   6.549   0.614
 1969SOL    HW2 6807   2.797   6.607   0.759
 1970SOL     OW 6808   6.301   5.805   5.072
 1970SOL    HW1 6809   6.363   5.875   5.037
 1970SOL    HW2 6810   6.298   5.728   5.008
 1971SOL     OW 6811   1.718   6.828   5.558
 1971SOL    HW1 6812   1.675   6.859   5.643
 1971SOL    HW2 6813   1.782   6.897   5.525
 1972SOL     OW 6814   6.134   2.607   1.908
 1972SOL    HW1 6815   6.062   2.595   1.977
 1972SOL    HW2 6816   6.120   2.541   1.834
 1973SOL     OW 6817   1.975   4.100   0.876
 1973SOL    HW1 6818   1.984   4.125   0.779
 1973SOL    HW2 6819   2.066   4.093   0.917
 1974SOL     OW 6820   3.579   6.746   5.146
 1974SOL    HW1 6821   3.664   6.749   5.199
 1974SOL    HW2 6822   3.517   6.679   5.188
 1975SOL     OW 6823   1.492   3.157   3.157
 1975SOL    HW1 6824   1.438   3.235   3.187
 1975SOL    HW2 6825   1.479   3.144   3.058
 1976SOL     OW 6826   0.088   0.240   5.903
 1976SOL    HW1 6827   0.016   0.297   5.944
 1976SOL    HW2 6828   0.172   0.252   5.955
 1977SOL     OW 6829   1.696   3.748   6.604
 1977SOL    HW1 6830   1.658   3.686   6.536
 1977SOL    HW2 6831   1.677   3.843   6.578
 1978SOL     OW 6832   2.494   6.832   2.177
 1978SOL    HW1 6833   2.583   6.873   2.157
 1978SOL    HW2 6834   2.493   6.798   2.270
 1979SOL     OW 6835   6.130   5.486   6.524
 1979SOL    HW1 6836   6.138   5.585   6.530
 1979SOL    HW2 6837   6.179   5.444   6.600
 1980SOL     OW 6838   2.946   1.764   1.905
 1980SOL    HW1 6839   2.974   1.841   1.962
 1980SOL    HW2 6840   2.976   1.780   1.811
 1981SOL     OW 6841   4.483   2.412   3.383
 1981SOL    HW1 6842   4.522   2.364   3.461
 1981SOL    HW2 6843   4.533   2.497   3.367
 1982SOL     OW 6844   6.633   2.810   3.963
 1982SOL    HW1 6845   6.687   2.794   4.045
 1982SOL    HW2 6846   6.537   2.825   3.988
 1983SOL     OW 6847   6.939   0.000   1.216
 1983SOL    HW1 6848   6.996   0.079   1.239
 1983SOL    HW2 6849   6.859   0.031   1.164
 1984SOL     OW 6850   5.951   2.977   5.543
 1984SOL    HW1 6851   5.974   3.016   5.454
 1984SOL    HW2 6852   5.887   3.036   5.590
 1985SOL     OW 6853   6.382   4.781   2.083
 1985SOL    HW1 6854   6.424   4.828   2.006
 1985SOL    HW2 6855   6.449   4.767   2.155
 1986SOL     OW 6856   3.475   1.820   0.599
 1986SOL    HW1 6857   3.433   1.882   0.532
 1986SOL    HW2 6858   3.565   1.854   0.624
 1987SOL     OW 6859   1.560   6.963   3.074
 1987SOL    HW1 6860   1.647   6.980   3.027
 1987SOL    HW2 6861   1.491   0.005   3.040
 1988SOL     OW 6862   0.127   2.241   1.515
 1988SOL    HW1 6863   0.147   2.173   1.585
 1988SOL    HW2 6864   0.150   2.204   1.425
 1989SOL     OW 6865   2.894   4.993   5.239
 1989SOL    HW1 6866   2.836   4.913   5.253
 1989SOL    HW2 6867   2.990   4.964   5.234
 1990SOL     OW 6868   3.506   0.495   0.445
 1990SOL    HW1 6869   3.431   0.479   0.381
 1990SOL    HW2 6870   3.590   0.514   0.393
 1991SOL     OW 6871   3.222   5.695   0.384
 1991SOL    HW1 6872   3.199   5.753   0.463
 1991SOL    HW2 6873   3.316   5.662   0.393
 1992SOL     OW 6874   0.507   6.207   0.576
 1992SOL    HW1 6875   0.565   6.154   0.638
 1992SOL    HW2 6876   0.535   6.303   0.579
 1993SOL     OW 6877   2.122   3.561   4.465
 1993SOL    HW1 6878   2.146   3.470   4.429
 1993SOL    HW2 6879   2.152   3.568   4.560
 1994SOL     OW 6880   3.306   3.641   0.218
 1994SOL    HW1 6881   3.268   3.708   0.282
 1994SOL    HW2 6882   3.351   3.568   0.268
 1995SOL     OW 6883   5.480   2.880   4.404
 1995SOL    HW1 6884   5.393   2.928   4.390
 1995SOL    HW2 6885   5.473   2.787   4.367
 1996SOL     OW 6886   3.601   1.262   0.583
 1996SOL    HW1 6887   3.648   1.339   0.625
 1996SOL    HW2 6888   3.543   1.295   0.508
 1997SOL     OW 6889   3.541   1.111   3.379
 1997SOL    HW1 6890   3.474   1.176   3.415
 1997SOL    HW2 6891   3.593   1.071   3.454
 1998SOL     OW 6892   1.324   3.220   1.801
 1998SOL    HW1 6893   1.320   3.300   1.861
 1998SOL    HW2 6894   1.331   3.250   1.706
 1999SOL     OW 6895   1.257   6.950   5.028
 1999SOL    HW1 6896   1.230   6.997   4.944
 1999SOL    HW2 6897   1.237   7.009   5.107
 2000SOL     OW 6898   3.550   3.637   6.643
 2000SOL    HW1 6899   3.495   3.554   6.634
 2000SOL    HW2 6900   3.516   3.691   6.720
 2001SOL     OW 6901   2.320   1.407   6.550
 2001SOL    HW1 6902   2.301   1.376   6.456
 2001SOL    HW2 6903   2.296   1.503   6.559
 2002SOL     OW 6904   6.779   4.914   1.154
 2002SOL    HW1 6905   6.695   4.884   1.199
 2002SOL    HW2 6906   6.775   5.013   1.138
 2003SOL     OW 6907   6.445   5.151   2.218
 2003SOL    HW1 6908   6.539   5.181   2.203
 2003SOL    HW2 6909   6.387   5.230   2.238
 2004SOL     OW 6910   3.460   1.023   3.097
 2004SOL    HW1 6911   3.494   1.109   3.135
 2004SOL    HW2 6912   3.536   0.974   3.053
 2005SOL     OW 6913   1.322   6.132   0.610
 2005SOL    HW1 6914   1.249   6.138   0.677
 2005SOL    HW2 6915   1.293   6.175   0.525
 2006SOL     OW 6916   5.225   7.023   3.271
 2006SOL    HW1 6917   5.156   6.952   3.259
 2006SOL    HW2 6918   5.181   0.085   3.301
 2007SOL     OW 6919   5.357   4.462   0.498
 2007SOL    HW1 6920   5.331   4.466   0.402
 2007SOL    HW2 6921   5.418   4.384   0.512
 2008SOL     OW 6922   2.140   4.124   3.682
 2008SOL    HW1 6923   2.064   4.161   3.735
 2008SOL    HW2 6924   2.169   4.191   3.613
 2009SOL     OW 6925   6.718   6.009   2.068
 2009SOL    HW1 6926   6.792   5.955   2.108
 2009SOL    HW2 6927   6.756   6.068   1.996
 2010SOL     OW 6928   1.591   2.428   1.541
 2010SOL    HW1 6929   1.658   2.367   1.584
 2010SOL    HW2 6930   1.638   2.510   1.507
 2011SOL     OW 6931   0.174   5.838   5.748
 2011SOL    HW1 6932   0.180   5.746   5.709
 2011SOL    HW2 6933   0.255   5.855   5.805
 2012SOL     OW 6934   1.377   2.992   2.731
 2012SOL    HW1 6935   1.282   2.988   2.764
 2012SOL    HW2 6936   1.419   3.079   2.759
 2013SOL     OW 6937   0.772   3.230   3.298
 2013SOL    HW1 6938   0.784   3.152   3.359
 2013SOL    HW2 6939   0.687   3.277   3.320
 2014SOL     OW 6940   3.156   0.503   3.942
 2014SOL    HW1 6941   3.115   0.419   3.907
 2014SOL    HW2 6942   3.249   0.483   3.974
 2015SOL     OW 6943   4.019   0.561   1.805
 2015SOL    HW1 6944   3.942   0.580   1.865
 2015SOL    HW2 6945   4.079   0.640   1.800
 2016SOL     OW 6946   1.763   0.131   6.091
 2016SOL    HW1 6947   1.708   0.165   6.015
 2016SOL    HW2 6948   1.856   0.114   6.060
 2017SOL     OW 6949   3.874   0.116   2.550
 2017SOL    HW1 6950   3.803   0.127   2.481
 2017SOL    HW2 6951   3.910   0.023   2.546
 2018SOL     OW 6952   0.783   1.363   3.074
 2018SOL    HW1 6953   0.773   1.287   3.010
 2018SOL    HW2 6954   0.695   1.408   3.087
 2019SOL     OW 6955   6.173   4.754   6.336
 2019SOL    HW1 6956   6.119   4.705   6.404
 2019SOL    HW2 6957   6.118   4.768   6.254
 2020SOL     OW 6958   1.758   6.479   6.258
 2020SOL    HW1 6959   1.666   6.451   6.286
 2020SOL    HW2 6960   1.812   6.503   6.339
 2021SOL     OW 6961   6.040   6.232   3.598
 2021SOL    HW1 6962   6.119   6.175   3.575
 2021SOL    HW2 6963   5.985   6.248   3.516
 2022SOL     OW 6964   2.165   4.359   4.917
 2022SOL    HW1 6965   2.247   4.378   4.970
 2022SOL    HW2 6966   2.191   4.322   4.828
 2023SOL     OW 6967   0.086   6.803   6.977
 2023SOL    HW1 6968   0.179   6.774   6.954
 2023SOL    HW2 6969   0.068   6.785   0.051
 2024SOL     OW 6970   0.440   5.742   4.751
 2024SOL    HW1 6971   0.465   5.769   4.844
 2024SOL    HW2 6972   0.363   5.797   4.719
 2025SOL     OW 6973   2.563   0.303   4.925
 2025SOL    HW1 6974   2.596   0.376   4.985
 2025SOL    HW2 6975   2.464   0.314   4.911
 2026SOL     OW 6976   6.559   1.214   6.271
 2026SOL    HW1 6977   6.530   1.119   6.265
 2026SOL    HW2 6978   6.557   1.255   6.180
 2027SOL     OW 6979   0.240   6.201   2.520
 2027SOL    HW1 6980   0.192   6.144   2.453
 2027SOL    HW2 6981   0.251   6.293   2.484
 2028SOL     OW 6982   4.150   6.015   2.901
 2028SOL    HW1 6983   4.119   6.015   2.996
 2028SOL    HW2 6984   4.092   6.076   2.847
 2029SOL     OW 6985   6.418   2.896   6.123
 2029SOL    HW1 6986   6.483   2.828   6.090
 2029SOL    HW2 6987   6.464   2.960   6.184
 2030SOL     OW 6988   2.583   6.072   3.186
 2030SOL    HW1 6989   2.676   6.060   3.219
 2030SOL    HW2 6990   2.553   5.989   3.139
 2031SOL     OW 6991   6.196   5.558   3.348
 2031SOL    HW1 6992   6.108   5.547   3.301
 2031SOL    HW2 6993   6.222   5.471   3.390
 2032SOL     OW 6994   3.020   1.874   6.128
 2032SOL    HW1 6995   3.031   1.929   6.211
 2032SOL    HW2 6996   2.939   1.904   6.078
 2033SOL     OW 6997   1.878   1.509   1.186
 2033SOL    HW1 6998   1.861   1.602   1.218
 2033SOL    HW2 6999   1.886   1.447   1.264
 2034SOL     OW 7000   0.023   4.059   5.822
 2034SOL    HW1 7001   0.121   4.044   5.810
 2034SOL    HW2 7002   0.005   4.156   5.840
 2035SOL     OW 7003   5.784   6.848   2.322
 2035SOL    HW1 7004   5.810   6.753   2.336
 2035SOL    HW2 7005   5.711   6.872   2.387
 2036SOL     OW 7006   1.051   3.821   2.378
 2036SOL    HW1 7007   1.040   3.834   2.279
 2036SOL    HW2 7008   1.114   3.746   2.395
 2037SOL     OW 7009   0.403   3.061   6.530
 2037SOL    HW1 7010   0.359   2.975   6.556
 2037SOL    HW2 7011   0.445   3.103   6.611
 2038SOL     OW 7012   2.050   1.054   0.489
 2038SOL    HW1 7013   2.074   1.023   0.581
 2038SOL    HW2 7014   2.072   1.151   0.480
 2039SOL     OW 7015   6.446   6.038   2.183
 2039SOL    HW1 7016   6.384   5.962   2.161
 2039SOL    HW2 7017   6.531   6.028   2.132
 2040SOL     OW 7018   2.214   3.012   7.013
 2040SOL    HW1 7019   2.232   3.110   0.000
 2040SOL    HW2 7020   2.174   2.976   0.075
 2041SOL     OW 7021   1.716   0.356   6.301
 2041SOL    HW1 7022   1.646   0.427   6.311
 2041SOL    HW2 7023   1.672   0.269   6.280
 2042SOL     OW 7024   4.879   1.235   5.167
 2042SOL    HW1 7025   4.930   1.150   5.159
 2042SOL    HW2 7026   4.790   1.225   5.122
 2043SOL     OW 7027   6.215   4.440   0.853
 2043SOL    HW1 7028   6.171   4.378   0.788
 2043SOL    HW2 7029   6.150   4.465   0.925
 2044SOL     OW 7030   4.814   0.490   0.558
 2044SOL    HW1 7031   4.806   0.587   0.581
 2044SOL    HW2 7032   4.754   0.436   0.617
 2045SOL     OW 7033   1.839   6.227   6.580
 2045SOL    HW1 7034   1.881   6.313   6.549
 2045SOL    HW2 7035   1.879   6.151   6.529
 2046SOL     OW 7036   1.339   2.517   4.881
 2046SOL    HW1 7037   1.340   2.489   4.785
 2046SOL    HW2 7038   1.331   2.436   4.940
 2047SOL     OW 7039   0.050   1.238   6.924
 2047SOL    HW1 7040   7.002   1.172   6.948
 2047SOL    HW2 7041   0.018   1.330   6.944
 2048SOL     OW 7042   1.190   1.516   4.292
 2048SOL    HW1 7043   1.091   1.512   4.306
 2048SOL    HW2 7044   1.220   1.611   4.294
 2049SOL     OW 7045   4.852   1.542   4.943
 2049SOL    HW1 7046   4.925   1.598   4.902
 2049SOL    HW2 7047   4.795   1.504   4.870
 2050SOL     OW 7048   0.579   1.131   4.068
 2050SOL    HW1 7049   0.503   1.155   4.008
 2050SOL    HW2 7050   0.571   1.035   4.094
 2051SOL     OW 7051   3.564   6.174   0.930
 2051SOL    HW1 7052   3.590   6.237   0.857
 2051SOL    HW2 7053   3.624   6.188   1.009
 2052SOL     OW 7054   1.670   3.960   6.974
 2052SOL    HW1 7055   1.661   4.057   6.949
 2052SOL    HW2 7056   1.762   3.928   6.949
 2053SOL     OW 7057   0.909   4.940   3.981
 2053SOL    HW1 7058   0.852   4.861   3.958
 2053SOL    HW2 7059   0.908   4.954   4.080
 2054SOL     OW 7060   3.233   3.169   3.480
 2054SOL    HW1 7061   3.185   3.124   3.555
 2054SOL    HW2 7062   3.323   3.199   3.512
 2055SOL     OW 7063   2.542   2.204   5.748
 2055SOL    HW1 7064   2.501   2.197   5.657
 2055SOL    HW2 7065   2.554   2.301   5.771
 2056SOL     OW 7066   3.935   4.877   0.971
 2056SOL    HW1 7067   3.983   4.803   0.923
 2056SOL    HW2 7068   3.942   4.961   0.917
 2057SOL     OW 7069   6.011   2.286   4.180
 2057SOL    HW1 7070   6.033   2.287   4.082
 2057SOL    HW2 7071   5.956   2.366   4.203
 2058SOL     OW 7072   0.554   5.834   3.225
 2058SOL    HW1 7073   0.637   5.874   3.265
 2058SOL    HW2 7074   0.566   5.735   3.217
 2059SOL     OW 7075   1.509   6.983   6.040
 2059SOL    HW1 7076   1.539   0.045   6.084
 2059SOL    HW2 7077   1.527   6.906   6.100
 2060SOL     OW 7078   1.172   3.519   0.048
 2060SOL    HW1 7079   1.127   3.572   6.999
 2060SOL    HW2 7080   1.238   3.578   0.096
 2061SOL     OW 7081   2.162   2.326   2.711
 2061SOL    HW1 7082   2.238   2.391   2.714
 2061SOL    HW2 7083   2.104   2.346   2.632
 2062SOL     OW 7084   6.332   5.210   5.208
 2062SOL    HW1 7085   6.336   5.110   5.214
 2062SOL    HW2 7086   6.389   5.250   5.279
 2063SOL     OW 7087   1.577   0.803   5.333
 2063SOL    HW1 7088   1.606   0.874   5.397
 2063SOL    HW2 7089   1.559   0.718   5.382
 2064SOL     OW 7090   0.424   2.987   3.429
 2064SOL    HW1 7091   0.505   2.933   3.410
 2064SOL    HW2 7092   0.368   2.941   3.499
 2065SOL     OW 7093   4.496   2.972   5.576
 2065SOL    HW1 7094   4.584   2.987   5.620
 2065SOL    HW2 7095   4.423   3.007   5.635
 2066SOL     OW 7096   6.504   2.899   5.315
 2066SOL    HW1 7097   6.481   2.938   5.226
 2066SOL    HW2 7098   6.560   2.963   5.366
 2067SOL     OW 7099   6.380   4.864   1.243
 2067SOL    HW1 7100   6.323   4.784   1.225
 2067SOL    HW2 7101   6.408   4.906   1.157
 2068SOL     OW 7102   3.946   0.523   4.283
 2068SOL    HW1 7103   4.034   0.514   4.235
 2068SOL    HW2 7104   3.946   0.607   4.337
 2069SOL     OW 7105   0.400   2.402   3.630
 2069SOL    HW1 7106   0.427   2.429   3.722
 2069SOL    HW2 7107   0.312   2.444   3.606
 2070SOL     OW 7108   0.574   4.384   1.827
 2070SOL    HW1 7109   0.601   4.470   1.870
 2070SOL    HW2 7110   0.647   4.317   1.836
 2071SOL     OW 7111   6.901   1.165   5.831
 2071SOL    HW1 7112   6.976   1.100   5.844
 2071SOL    HW2 7113   6.928   1.234   5.763
 2072SOL     OW 7114   3.973   4.603   5.623
 2072SOL    HW1 7115   4.056   4.641   5.582
 2072SOL    HW2 7116   3.998   4.533   5.689
 2073SOL     OW 7117   3.350   6.104   0.264
 2073SOL    HW1 7118   3.357   6.160   0.346
 2073SOL    HW2 7119   3.257   6.108   0.229
 2074SOL     OW 7120   1.129   3.802   5.609
 2074SOL    HW1 7121   1.147   3.704   5.594
 2074SOL    HW2 7122   1.046   3.828   5.560
 2075SOL     OW 7123   6.617   1.939   1.422
 2075SOL    HW1 7124   6.678   1.994   1.479
 2075SOL    HW2 7125   6.527   1.935   1.464
 2076SOL     OW 7126   5.191   6.728   4.823
 2076SOL    HW1 7127   5.112   6.779   4.789
 2076SOL    HW2 7128   5.161   6.637   4.853
 2077SOL     OW 7129   6.929   4.273   0.811
 2077SOL    HW1 7130   6.833   4.297   0.800
 2077SOL    HW2 7131   6.953   4.273   0.908
 2078SOL     OW 7132   1.310   3.199   5.545
 2078SOL    HW1 7133   1.387   3.257   5.519
 2078SOL    HW2 7134   1.336   3.141   5.622
 2079SOL     OW 7135   4.852   2.019   2.196
 2079SOL    HW1 7136   4.773   2.075   2.222
 2079SOL    HW2 7137   4.851   1.933   2.247
 2080SOL     OW 7138   2.292   3.302   5.599
 2080SOL    HW1 7139   2.329   3.221   5.554
 2080SOL    HW2 7140   2.354   3.379   5.582
 2081SOL     OW 7141   6.342   6.974   3.112
 2081SOL    HW1 7142   6.356   6.875   3.112
 2081SOL    HW2 7143   6.315   7.003   3.020
 2082SOL     OW 7144   0.087   6.267   2.809
 2082SOL    HW1 7145   0.085   6.176   2.851
 2082SOL    HW2 7146   0.136   6.261   2.721
 2083SOL     OW 7147   0.328   6.147   4.184
 2083SOL    HW1 7148   0.369   6.212   4.248
 2083SOL    HW2 7149   0.371   6.157   4.095
 2084SOL     OW 7150   0.128   2.447   2.216
 2084SOL    HW1 7151   0.164   2.521   2.159
 2084SOL    HW2 7152   0.040   2.475   2.255
 2085SOL     OW 7153   5.001   5.487   0.806
 2085SOL    HW1 7154   4.950   5.437   0.876
 2085SOL    HW2 7155   4.961   5.469   0.716
 2086SOL     OW 7156   4.276   0.160   6.894
 2086SOL    HW1 7157   4.198   0.107   6.859
 2086SOL    HW2 7158   4.353   0.151   6.831
 2087SOL     OW 7159   4.544   2.369   6.778
 2087SOL    HW1 7160   4.527   2.424   6.696
 2087SOL    HW2 7161   4.590   2.284   6.752
 2088SOL     OW 7162   0.145   5.825   5.132
 2088SOL    HW1 7163   0.224   5.773   5.099
 2088SOL    HW2 7164   0.061   5.775   5.112
 2089SOL     OW 7165   3.083   3.584   6.820
 2089SOL    HW1 7166   3.096   3.506   6.759
 2089SOL    HW2 7167   3.092   3.669   6.767
 2090SOL     OW 7168   4.429   3.537   5.294
 2090SOL    HW1 7169   4.522   3.556   5.264
 2090SOL    HW2 7170   4.431   3.463   5.361
 2091SOL     OW 7171   5.998   5.575   1.598
 2091SOL    HW1 7172   5.993   5.660   1.650
 2091SOL    HW2 7173   6.094   5.556   1.575
 2092SOL     OW 7174   4.875   3.666   1.552
 2092SOL    HW1 7175   4.854   3.611   1.471
 2092SOL    HW2 7176   4.962   3.713   1.538
 2093SOL     OW 7177   3.895   1.600   2.877
 2093SOL    HW1 7178   3.817   1.634   2.824
 2093SOL    HW2 7179   3.966   1.669   2.879
 2094SOL     OW 7180   5.448   2.572   6.493
 2094SOL    HW1 7181   5.363   2.588   6.442
 2094SOL    HW2 7182   5.454   2.636   6.569
 2095SOL     OW 7183   5.021   6.508   3.312
 2095SOL    HW1 7184   5.051   6.541   3.222
 2095SOL    HW2 7185   4.922   6.508   3.316
 2096SOL     OW 7186   5.054   6.438   2.594
 2096SOL    HW1 7187   5.079   6.342   2.601
 2096SOL    HW2 7188   5.044   6.477   2.686
 2097SOL     OW 7189   1.132   4.755   6.505
 2097SOL    HW1 7190   1.159   4.792   6.416
 2097SOL    HW2 7191   1.088   4.826   6.559
 2098SOL     OW 7192   3.537   6.231   3.361
 2098SOL    HW1 7193   3.542   6.164   3.287
 2098SOL    HW2 7194   3.603   6.206   3.432
 2099SOL     OW 7195   5.498   0.956   7.004
 2099SOL    HW1 7196   5.565   1.012   0.029
 2099SOL    HW2 7197   5.545   0.893   6.942
 2100SOL     OW 7198   5.477   0.664   1.068
 2100SOL    HW1 7199   5.564   0.616   1.060
 2100SOL    HW2 7200   5.486   0.755   1.028
 2101SOL     OW 7201   6.991   6.564   1.854
 2101SOL    HW1 7202   0.049   6.510   1.874
 2101SOL    HW2 7203   6.980   6.635   1.923
 2102SOL     OW 7204   3.432   3.437   0.349
 2102SOL    HW1 7205   3.443   3.447   0.447
 2102SOL    HW2 7206   3.519   3.412   0.307
 2103SOL     OW 7207   2.852   6.251   0.983
 2103SOL    HW1 7208   2.919   6.181   0.958
 2103SOL    HW2 7209   2.789   6.266   0.906
 2104SOL     OW 7210   1.251   5.104   2.646
 2104SOL    HW1 7211   1.274   5.068   2.736
 2104SOL    HW2 7212   1.171   5.054   2.610
 2105SOL     OW 7213   5.852   3.977   6.414
 2105SOL    HW1 7214   5.940   3.964   6.369
 2105SOL    HW2 7215   5.791   4.030   6.355
 2106SOL     OW 7216   5.155   3.756   1.531
 2106SOL    HW1 7217   5.165   3.775   1.629
 2106SOL    HW2 7218   5.220   3.811   1.479
 2107SOL     OW 7219   5.639   3.369   5.508
 2107SOL    HW1 7220   5.589   3.454   5.492
 2107SOL    HW2 7221   5.733   3.390   5.535
 2108SOL     OW 7222   5.928   0.740   5.964
 2108SOL    HW1 7223   5.897   0.800   6.038
 2108SOL    HW2 7224   5.884   0.651   5.972
 2109SOL     OW 7225   2.319   6.085   3.327
 2109SOL    HW1 7226   2.389   6.156   3.317
 2109SOL    HW2 7227   2.357   5.997   3.297
 2110SOL     OW 7228   4.430   0.502   6.796
 2110SOL    HW1 7229   4.468   0.418   6.835
 2110SOL    HW2 7230   4.442   0.502   6.697
 2111SOL     OW 7231   1.304   2.227   5.648
 2111SOL    HW1 7232   1.300   2.327   5.644
 2111SOL    HW2 7233   1.397   2.197   5.626
 2112SOL     OW 7234   0.214   1.028   0.167
 2112SOL    HW1 7235   0.270   1.024   0.250
 2112SOL    HW2 7236   0.271   1.012   0.087
 2113SOL     OW 7237   1.107   7.007   4.570
 2113SOL    HW1 7238   1.034   0.053   4.573
 2113SOL    HW2 7239   1.068   6.917   4.554
 2114SOL     OW 7240   1.994   2.037   6.090
 2114SOL    HW1 7241   2.004   2.000   6.182
 2114SOL    HW2 7242   2.024   2.133   6.090
 2115SOL     OW 7243   6.420   5.747   3.112
 2115SOL    HW1 7244   6.363   5.821   3.147
 2115SOL    HW2 7245   6.460   5.697   3.188
 2116SOL     OW 7246   0.290   2.608   7.021
 2116SOL    HW1 7247   0.217   2.541   7.012
 2116SOL    HW2 7248   0.376   2.567   6.993
 2117SOL     OW 7249   5.821   1.250   1.987
 2117SOL    HW1 7250   5.767   1.320   1.940
 2117SOL    HW2 7251   5.889   1.294   2.045
 2118SOL     OW 7252   6.182   2.545   2.277
 2118SOL    HW1 7253   6.164   2.452   2.247
 2118SOL    HW2 7254   6.268   2.548   2.329
 2119SOL     OW 7255   3.082   0.874   0.120
 2119SOL    HW1 7256   3.176   0.908   0.124
 2119SOL    HW2 7257   3.020   0.945   0.155
 2120SOL     OW 7258   5.585   1.736   0.845
 2120SOL    HW1 7259   5.560   1.709   0.752
 2120SOL    HW2 7260   5.594   1.654   0.902
 2121SOL     OW 7261   1.441   0.525   6.646
 2121SOL    HW1 7262   1.375   0.600   6.652
 2121SOL    HW2 7263   1.475   0.502   6.737
 2122SOL     OW 7264   6.052   1.240   4.470
 2122SOL    HW1 7265   6.134   1.231   4.527
 2122SOL    HW2 7266   5.972   1.211   4.523
 2123SOL     OW 7267   1.785   5.874   3.256
 2123SOL    HW1 7268   1.817   5.782   3.279
 2123SOL    HW2 7269   1.862   5.937   3.256
 2124SOL     OW 7270   3.884   3.383   5.860
 2124SOL    HW1 7271   3.796   3.424   5.885
 2124SOL    HW2 7272   3.948   3.456   5.836
 2125SOL     OW 7273   1.261   5.642   3.928
 2125SOL    HW1 7274   1.330   5.573   3.905
 2125SOL    HW2 7275   1.178   5.625   3.875
 2126SOL     OW 7276   3.552   4.053   6.813
 2126SOL    HW1 7277   3.518   4.128   6.869
 2126SOL    HW2 7278   3.634   4.014   6.855
 2127SOL     OW 7279   0.779   2.426   5.014
 2127SOL    HW1 7280   0.877   2.435   4.997
 2127SOL    HW2 7281   0.729   2.484   4.950
 2128SOL     OW 7282   5.218   2.833   1.978
 2128SOL    HW1 7283   5.267   2.918   1.998
 2128SOL    HW2 7284   5.126   2.838   2.018
 2129SOL     OW 7285   5.089   4.665   4.045
 2129SOL    HW1 7286   5.027   4.610   4.101
 2129SOL    HW2 7287   5.173   4.613   4.027
 2130SOL     OW 7288   2.373   0.583   2.818
 2130SOL    HW1 7289   2.374   0.543   2.727
 2130SOL    HW2 7290   2.436   0.532   2.877
 2131SOL     OW 7291   5.859   1.665   5.500
 2131SOL    HW1 7292   5.900   1.619   5.579
 2131SOL    HW2 7293   5.792   1.604   5.458
 2132SOL     OW 7294   2.964   2.626   0.042
 2132SOL    HW1 7295   2.865   2.621   0.040
 2132SOL    HW2 7296   3.000   2.608   6.974
 2133SOL     OW 7297   2.655   2.138   2.095
 2133SOL    HW1 7298   2.738   2.189   2.119
 2133SOL    HW2 7299   2.633   2.155   1.999
 2134SOL     OW 7300   0.953   6.775   4.909
 2134SOL    HW1 7301   0.985   6.849   4.968
 2134SOL    HW2 7302   0.854   6.783   4.896
 2135SOL     OW 7303   0.752   1.096   3.215
 2135SOL    HW1 7304   0.792   1.047   3.137
 2135SOL    HW2 7305   0.793   1.186   3.222
 2136SOL     OW 7306   0.655   4.318   3.331
 2136SOL    HW1 7307   0.703   4.323   3.419
 2136SOL    HW2 7308   0.567   4.366   3.339
 2137SOL     OW 7309   1.425   0.416   5.118
 2137SOL    HW1 7310   1.380   0.482   5.178
 2137SOL    HW2 7311   1.362   0.340   5.099
 2138SOL     OW 7312   0.643   2.643   0.792
 2138SOL    HW1 7313   0.693   2.729   0.782
 2138SOL    HW2 7314   0.635   2.620   0.888
 2139SOL     OW 7315   2.831   1.415   5.662
 2139SOL    HW1 7316   2.875   1.370   5.584
 2139SOL    HW2 7317   2.874   1.385   5.747
 2140SOL     OW 7318   2.333   5.598   2.777
 2140SOL    HW1 7319   2.391   5.631   2.702
 2140SOL    HW2 7320   2.241   5.581   2.743
 2141SOL     OW 7321   5.468   2.040   0.819
 2141SOL    HW1 7322   5.462   1.946   0.784
 2141SOL    HW2 7323   5.454   2.041   0.918
 2142SOL     OW 7324   1.886   2.244   3.120
 2142SOL    HW1 7325   1.876   2.158   3.171
 2142SOL    HW2 7326   1.982   2.255   3.094
 2143SOL     OW 7327   2.941   6.940   1.001
 2143SOL    HW1 7328   3.036   6.907   1.007
 2143SOL    HW2 7329   2.918   6.987   1.086
 2144SOL     OW 7330   0.380   1.294   3.158
 2144SOL    HW1 7331   0.453   1.334   3.213
 2144SOL    HW2 7332   0.314   1.248   3.217
 2145SOL     OW 7333   4.125   5.194   3.165
 2145SOL    HW1 7334   4.073   5.162   3.244
 2145SOL    HW2 7335   4.103   5.289   3.146
 2146SOL     OW 7336   4.102   3.234   2.975
 2146SOL    HW1 7337   4.130   3.177   3.052
 2146SOL    HW2 7338   4.142   3.325   2.984
 2147SOL     OW 7339   0.980   0.491   5.223
 2147SOL    HW1 7340   0.939   0.477   5.313
 2147SOL    HW2 7341   0.909   0.517   5.158
 2148SOL     OW 7342   4.881   3.358   2.642
 2148SOL    HW1 7343   4.908   3.434   2.701
 2148SOL    HW2 7344   4.782   3.360   2.628
 2149SOL     OW 7345   4.040   0.887   2.678
 2149SOL    HW1 7346   4.133   0.913   2.707
 2149SOL    HW2 7347   4.042   0.794   2.641
 2150SOL     OW 7348   3.406   2.086   3.184
 2150SOL    HW1 7349   3.490   2.111   3.231
 2150SOL    HW2 7350   3.425   2.071   3.087
 2151SOL     OW 7351   3.841   2.834   5.581
 2151SOL    HW1 7352   3.835   2.891   5.499
 2151SOL    HW2 7353   3.918   2.864   5.637
 2152SOL     OW 7354   6.052   5.945   1.419
 2152SOL    HW1 7355   5.986   5.933   1.493
 2152SOL    HW2 7356   6.045   5.868   1.355
 2153SOL     OW 7357   4.666   2.592   3.331
 2153SOL    HW1 7358   4.665   2.618   3.234
 2153SOL    HW2 7359   4.678   2.674   3.387
 2154SOL     OW 7360   3.971   6.263   5.203
 2154SOL    HW1 7361   4.056   6.241   5.251
 2154SOL    HW2 7362   3.898   6.279   5.269
 2155SOL     OW 7363   6.728   3.962   0.303
 2155SOL    HW1 7364   6.776   4.049   0.289
 2155SOL    HW2 7365   6.742   3.903   0.223
 2156SOL     OW 7366   2.226   0.297   1.921
 2156SOL    HW1 7367   2.282   0.331   1.845
 2156SOL    HW2 7368   2.215   0.370   1.989
 2157SOL     OW 7369   1.172   1.557   4.822
 2157SOL    HW1 7370   1.222   1.542   4.737
 2157SOL    HW2 7371   1.107   1.633   4.810
 2158SOL     OW 7372   3.283   6.512   1.783
 2158SOL    HW1 7373   3.334   6.467   1.709
 2158SOL    HW2 7374   3.347   6.557   1.845
 2159SOL     OW 7375   1.689   6.385   4.810
 2159SOL    HW1 7376   1.626   6.458   4.834
 2159SOL    HW2 7377   1.781   6.408   4.842
 2160SOL     OW 7378   2.909   4.076   0.892
 2160SOL    HW1 7379   2.934   4.089   0.988
 2160SOL    HW2 7380   2.958   4.143   0.836
 2161SOL     OW 7381   5.111   2.267   3.422
 2161SOL    HW1 7382   5.073   2.201   3.358
 2161SOL    HW2 7383   5.038   2.328   3.454
 2162SOL     OW 7384   0.990   0.621   6.868
 2162SOL    HW1 7385   1.083   0.654   6.882
 2162SOL    HW2 7386   0.968   0.554   6.939
 2163SOL     OW 7387   1.821   1.963   0.539
 2163SOL    HW1 7388   1.828   1.911   0.454
 2163SOL    HW2 7389   1.786   1.904   0.612
 2164SOL     OW 7390   0.937   1.100   0.547
 2164SOL    HW1 7391   0.951   1.142   0.636
 2164SOL    HW2 7392   1.010   1.034   0.529
 2165SOL     OW 7393   2.437   6.913   2.699
 2165SOL    HW1 7394   2.532   6.882   2.708
 2165SOL    HW2 7395   2.414   6.973   2.776
 2166SOL     OW 7396   0.119   3.002   6.633
 2166SOL    HW1 7397   0.099   3.070   6.563
 2166SOL    HW2 7398   0.171   2.927   6.593
 2167SOL     OW 7399   3.170   0.521   2.430
 2167SOL    HW1 7400   3.107   0.584   2.475
 2167SOL    HW2 7401   3.120   0.466   2.363
 2168SOL     OW 7402   5.571   4.974   4.885
 2168SOL    HW1 7403   5.640   5.017   4.827
 2168SOL    HW2 7404   5.578   5.009   4.978
 2169SOL     OW 7405   5.134   1.754   5.983
 2169SOL    HW1 7406   5.207   1.772   6.049
 2169SOL    HW2 7407   5.173   1.712   5.901
 2170SOL     OW 7408   3.946   4.947   4.530
 2170SOL    HW1 7409   3.950   4.936   4.431
 2170SOL    HW2 7410   3.850   4.959   4.558
 2171SOL     OW 7411   0.185   2.857   6.970
 2171SOL    HW1 7412   0.140   2.824   0.030
 2171SOL    HW2 7413   0.258   2.794   6.944
 2172SOL     OW 7414   3.145   0.885   1.173
 2172SOL    HW1 7415   3.143   0.981   1.145
 2172SOL    HW2 7416   3.147   0.880   1.273
 2173SOL     OW 7417   5.731   1.424   5.426
 2173SOL    HW1 7418   5.782   1.365   5.364
 2173SOL    HW2 7419   5.689   1.368   5.497
 2174SOL     OW 7420   0.150   5.600   4.888
 2174SOL    HW1 7421   0.170   5.536   4.813
 2174SOL    HW2 7422   0.236   5.640   4.921
 2175SOL     OW 7423   1.977   6.538   4.649
 2175SOL    HW1 7424   1.975   6.637   4.662
 2175SOL    HW2 7425   1.973   6.493   4.738
 2176SOL     OW 7426   1.771   2.467   3.258
 2176SOL    HW1 7427   1.835   2.539   3.283
 2176SOL    HW2 7428   1.816   2.402   3.197
 2177SOL     OW 7429   6.990   2.480   1.404
 2177SOL    HW1 7430   7.008   2.538   1.324
 2177SOL    HW2 7431   0.033   2.406   1.406
 2178SOL     OW 7432   0.568   4.603   0.169
 2178SOL    HW1 7433   0.618   4.633   0.088
 2178SOL    HW2 7434   0.475   4.642   0.167
 2179SOL     OW 7435   1.661   5.432   4.286
 2179SOL    HW1 7436   1.594   5.384   4.231
 2179SOL    HW2 7437   1.653   5.405   4.382
 2180SOL     OW 7438   3.904   3.057   2.642
 2180SOL    HW1 7439   3.805   3.069   2.649
 2180SOL    HW2 7440   3.924   2.999   2.563
 2181SOL     OW 7441   5.277   5.110   5.808
 2181SOL    HW1 7442   5.274   5.173   5.730
 2181SOL    HW2 7443   5.210   5.137   5.876
 2182SOL     OW 7444   6.379   3.070   6.441
 2182SOL    HW1 7445   6.325   3.127   6.379
 2182SOL    HW2 7446   6.322   3.043   6.519
 2183SOL     OW 7447   3.400   3.366   1.051
 2183SOL    HW1 7448   3.324   3.321   1.004
 2183SOL    HW2 7449   3.379   3.463   1.062
 2184SOL     OW 7450   3.997   2.586   6.450
 2184SOL    HW1 7451   4.086   2.629   6.432
 2184SOL    HW2 7452   3.925   2.638   6.403
 2185SOL     OW 7453   1.331   1.485   1.409
 2185SOL    HW1 7454   1.371   1.553   1.472
 2185SOL    HW2 7455   1.354   1.393   1.441
 2186SOL     OW 7456   0.542   6.068   2.977
 2186SOL    HW1 7457   0.630   6.042   3.016
 2186SOL    HW2 7458   0.477   6.088   3.050
 2187SOL     OW 7459   0.178   1.085   6.458
 2187SOL    HW1 7460   0.277   1.081   6.464
 2187SOL    HW2 7461   0.146   1.175   6.489
 2188SOL     OW 7462   5.706   0.266   2.999
 2188SOL    HW1 7463   5.618   0.225   3.021
 2188SOL    HW2 7464   5.707   0.295   2.903
 2189SOL     OW 7465   2.316   0.209   6.531
 2189SOL    HW1 7466   2.334   0.174   6.623
 2189SOL    HW2 7467   2.360   0.151   6.463
 2190SOL     OW 7468   5.014   2.000   1.969
 2190SOL    HW1 7469   4.956   2.017   2.049
 2190SOL    HW2 7470   5.103   2.044   1.982
 2191SOL     OW 7471   3.250   2.725   6.647
 2191SOL    HW1 7472   3.243   2.768   6.556
 2191SOL    HW2 7473   3.312   2.647   6.642
 2192SOL     OW 7474   5.111   5.691   4.722
 2192SOL    HW1 7475   5.142   5.623   4.655
 2192SOL    HW2 7476   5.080   5.773   4.674
 2193SOL     OW 7477   0.869   4.665   6.200
 2193SOL    HW1 7478   0.969   4.672   6.192
 2193SOL    HW2 7479   0.838   4.722   6.276
 2194SOL     OW 7480   2.690   0.432   1.777
 2194SOL    HW1 7481   2.640   0.386   1.851
 2194SOL    HW2 7482   2.788   0.416   1.788
 2195SOL     OW 7483   1.521   4.580   2.619
 2195SOL    HW1 7484   1.537   4.671   2.584
 2195SOL    HW2 7485   1.429   4.550   2.595
 2196SOL     OW 7486   3.542   2.519   6.249
 2196SOL    HW1 7487   3.479   2.510   6.172
 2196SOL    HW2 7488   3.592   2.433   6.260
 2197SOL     OW 7489   4.497   5.138   0.596
 2197SOL    HW1 7490   4.516   5.105   0.688
 2197SOL    HW2 7491   4.517   5.066   0.529
 2198SOL     OW 7492   6.126   4.195   0.253
 2198SOL    HW1 7493   6.174   4.143   0.183
 2198SOL    HW2 7494   6.036   4.154   0.269
 2199SOL     OW 7495   4.934   0.653   1.508
 2199SOL    HW1 7496   4.983   0.602   1.439
 2199SOL    HW2 7497   4.838   0.624   1.509
 2200SOL     OW 7498   2.911   0.544   4.882
 2200SOL    HW1 7499   2.888   0.491   4.964
 2200SOL    HW2 7500   2.862   0.507   4.804
 2201SOL     OW 7501   5.436   3.359   1.950
 2201SOL    HW1 7502   5.394   3.351   2.040
 2201SOL    HW2 7503   5.453   3.456   1.929
 2202SOL     OW 7504   4.493   6.314   3.783
 2202SOL    HW1 7505   4.446   6.232   3.814
 2202SOL    HW2 7506   4.473   6.330   3.686
 2203SOL     OW 7507   3.392   1.958   2.882
 2203SOL    HW1 7508   3.346   2.011   2.811
 2203SOL    HW2 7509   3.490   1.954   2.864
 2204SOL     OW 7510   3.237   2.576   0.339
 2204SOL    HW1 7511   3.329   2.538   0.346
 2204SOL    HW2 7512   3.202   2.594   0.431
 2205SOL     OW 7513   2.801   6.920   0.307
 2205SOL    HW1 7514   2.897   6.896   0.299
 2205SOL    HW2 7515   2.786   7.011   0.269
 2206SOL     OW 7516   2.266   2.944   6.745
 2206SOL    HW1 7517   2.236   2.997   6.825
 2206SOL    HW2 7518   2.366   2.939   6.745
 2207SOL     OW 7519   0.862   4.073   5.287
 2207SOL    HW1 7520   0.868   4.125   5.372
 2207SOL    HW2 7521   0.834   4.134   5.213
 2208SOL     OW 7522   0.697   4.109   2.114
 2208SOL    HW1 7523   0.677   4.016   2.083
 2208SOL    HW2 7524   0.611   4.155   2.135
 2209SOL     OW 7525   1.239   5.811   0.589
 2209SOL    HW1 7526   1.202   5.747   0.656
 2209SOL    HW2 7527   1.193   5.800   0.502
 2210SOL     OW 7528   0.737   5.977   4.122
 2210SOL    HW1 7529   0.655   5.955   4.070
 2210SOL    HW2 7530   0.811   6.002   4.059
 2211SOL     OW 7531   6.368   1.520   5.613
 2211SOL    HW1 7532   6.334   1.508   5.520
 2211SOL    HW2 7533   6.293   1.553   5.671
 2212SOL     OW 7534   1.457   0.227   6.104
 2212SOL    HW1 7535   1.428   0.208   6.198
 2212SOL    HW2 7536   1.452   0.326   6.087
 2213SOL     OW 7537   3.514   1.415   3.443
 2213SOL    HW1 7538   3.598   1.394   3.393
 2213SOL    HW2 7539   3.531   1.491   3.506
 2214SOL     OW 7540   4.046   6.983   4.507
 2214SOL    HW1 7541   4.084   0.052   4.502
 2214SOL    HW2 7542   4.113   6.922   4.550
 2215SOL     OW 7543   6.009   2.546   5.348
 2215SOL    HW1 7544   5.992   2.601   5.266
 2215SOL    HW2 7545   6.071   2.596   5.409
 2216SOL     OW 7546   2.131   0.055   1.738
 2216SOL    HW1 7547   2.186   0.102   1.807
 2216SOL    HW2 7548   2.079   0.121   1.685
 2217SOL     OW 7549   3.914   0.620   1.327
 2217SOL    HW1 7550   3.966   0.623   1.241
 2217SOL    HW2 7551   3.821   0.589   1.308
 2218SOL     OW 7552   0.975   5.768   0.992
 2218SOL    HW1 7553   0.885   5.811   1.001
 2218SOL    HW2 7554   1.036   5.828   0.940
 2219SOL     OW 7555   1.204   3.458   3.096
 2219SOL    HW1 7556   1.222   3.366   3.062
 2219SOL    HW2 7557   1.260   3.476   3.177
 2220SOL     OW 7558   0.264   1.062   6.878
 2220SOL    HW1 7559   0.186   1.123   6.893
 2220SOL    HW2 7560   0.232   0.977   6.836
 2221SOL     OW 7561   6.906   2.463   0.943
 2221SOL    HW1 7562   6.952   2.420   1.021
 2221SOL    HW2 7563   6.917   2.406   0.862
 2222SOL     OW 7564   5.449   6.595   2.650
 2222SOL    HW1 7565   5.416   6.669   2.592
 2222SOL    HW2 7566   5.377   6.566   2.713
 2223SOL     OW 7567   5.279   5.414   2.268
 2223SOL    HW1 7568   5.326   5.483   2.323
 2223SOL    HW2 7569   5.344   5.371   2.205
 2224SOL     OW 7570   1.298   5.234   1.134
 2224SOL    HW1 7571   1.267   5.139   1.133
 2224SOL    HW2 7572   1.259   5.282   1.212
 2225SOL     OW 7573   6.373   4.909   1.522
 2225SOL    HW1 7574   6.470   4.914   1.545
 2225SOL    HW2 7575   6.362   4.902   1.423
 2226SOL     OW 7576   4.364   3.832   1.307
 2226SOL    HW1 7577   4.440   3.842   1.371
 2226SOL    HW2 7578   4.364   3.739   1.269
 2227SOL     OW 7579   0.796   4.003   4.930
 2227SOL    HW1 7580   0.824   3.908   4.914
 2227SOL    HW2 7581   0.796   4.053   4.843
 2228SOL     OW 7582   2.921   4.905   5.593
 2228SOL    HW1 7583   3.013   4.885   5.626
 2228SOL    HW2 7584   2.861   4.827   5.609
 2229SOL     OW 7585   4.882   0.556   3.292
 2229SOL    HW1 7586   4.848   0.620   3.223
 2229SOL    HW2 7587   4.807   0.534   3.356
 2230SOL     OW 7588   1.270   6.254   0.349
 2230SOL    HW1 7589   1.354   6.224   0.306
 2230SOL    HW2 7590   1.212   6.300   0.282
 2231SOL     OW 7591   2.831   6.840   1.667
 2231SOL    HW1 7592   2.925   6.811   1.653
 2231SOL    HW2 7593   2.797   6.805   1.755
 2232SOL     OW 7594   6.632   3.226   2.975
 2232SOL    HW1 7595   6.636   3.259   2.881
 2232SOL    HW2 7596   6.719   3.246   3.021
 2233SOL     OW 7597   3.809   0.851   6.788
 2233SOL    HW1 7598   3.909   0.843   6.783
 2233SOL    HW2 7599   3.768   0.786   6.725
 2234SOL     OW 7600   3.236   1.869   0.740
 2234SOL    HW1 7601   3.219   1.771   0.754
 2234SOL    HW2 7602   3.323   1.880   0.692
 2235SOL     OW 7603   1.909   6.892   1.379
 2235SOL    HW1 7604   1.977   6.840   1.431
 2235SOL    HW2 7605   1.926   6.990   1.389
 2236SOL     OW 7606   6.432   4.420   0.584
 2236SOL    HW1 7607   6.372   4.342   0.566
 2236SOL    HW2 7608   6.467   4.415   0.678
 2237SOL     OW 7609   6.385   2.186   3.886
 2237SOL    HW1 7610   6.446   2.110   3.908
 2237SOL    HW2 7611   6.373   2.192   3.787
 2238SOL     OW 7612   0.688   6.112   2.062
 2238SOL    HW1 7613   0.779   6.120   2.023
 2238SOL    HW2 7614   0.674   6.019   2.096
 2239SOL     OW 7615   4.483   4.858   3.146
 2239SOL    HW1 7616   4.516   4.829   3.056
 2239SOL    HW2 7617   4.436   4.781   3.190
 2240SOL     OW 7618   5.482   3.575   2.695
 2240SOL    HW1 7619   5.529   3.645   2.748
 2240SOL    HW2 7620   5.519   3.572   2.603
 2241SOL     OW 7621   0.470   0.279   2.169
 2241SOL    HW1 7622   0.479   0.304   2.073
 2241SOL    HW2 7623   0.469   0.362   2.225
 2242SOL     OW 7624   5.152   2.331   2.643
 2242SOL    HW1 7625   5.061   2.352   2.680
 2242SOL    HW2 7626   5.175   2.397   2.572
 2243SOL     OW 7627   2.342   5.898   5.594
 2243SOL    HW1 7628   2.378   5.848   5.515
 2243SOL    HW2 7629   2.308   5.987   5.564
 2244SOL     OW 7630   2.774   0.640   5.278
 2244SOL    HW1 7631   2.869   0.627   5.307
 2244SOL    HW2 7632   2.722   0.557   5.296
 2245SOL     OW 7633   1.046   1.882   1.571
 2245SOL    HW1 7634   1.068   1.816   1.643
 2245SOL    HW2 7635   1.108   1.960   1.578
 2246SOL     OW 7636   1.400   3.589   4.891
 2246SOL    HW1 7637   1.420   3.594   4.989
 2246SOL    HW2 7638   1.476   3.628   4.839
 2247SOL     OW 7639   1.845   1.949   5.694
 2247SOL    HW1 7640   1.794   1.945   5.780
 2247SOL    HW2 7641   1.780   1.949   5.617
 2248SOL     OW 7642   5.681   3.885   5.180
 2248SOL    HW1 7643   5.755   3.818   5.173
 2248SOL    HW2 7644   5.700   3.948   5.255
 2249SOL     OW 7645   4.770   5.559   4.491
 2249SOL    HW1 7646   4.791   5.467   4.458
 2249SOL    HW2 7647   4.795   5.567   4.587
 2250SOL     OW 7648   5.665   4.907   0.182
 2250SOL    HW1 7649   5.750   4.858   0.167
 2250SOL    HW2 7650   5.615   4.865   0.258
 2251SOL     OW 7651   6.602   0.908   7.013
 2251SOL    HW1 7652   6.626   0.838   6.946
 2251SOL    HW2 7653   6.559   0.865   0.069
 2252SOL     OW 7654   3.870   1.762   5.839
 2252SOL    HW1 7655   3.785   1.758   5.787
 2252SOL    HW2 7656   3.938   1.817   5.790
 2253SOL     OW 7657   2.128   2.696   6.712
 2253SOL    HW1 7658   2.175   2.776   6.748
 2253SOL    HW2 7659   2.157   2.615   6.762
 2254SOL     OW 7660   2.295   3.163   6.429
 2254SOL    HW1 7661   2.352   3.243   6.410
 2254SOL    HW2 7662   2.201   3.193   6.444
 2255SOL     OW 7663   5.813   2.645   1.976
 2255SOL    HW1 7664   5.795   2.556   1.934
 2255SOL    HW2 7665   5.804   2.717   1.908
 2256SOL     OW 7666   4.201   4.902   1.912
 2256SOL    HW1 7667   4.191   4.807   1.945
 2256SOL    HW2 7668   4.113   4.934   1.877
 2257SOL     OW 7669   1.930   4.200   3.838
 2257SOL    HW1 7670   1.876   4.123   3.870
 2257SOL    HW2 7671   1.940   4.267   3.912
 2258SOL     OW 7672   1.624   5.201   3.962
 2258SOL    HW1 7673   1.641   5.297   3.981
 2258SOL    HW2 7674   1.621   5.187   3.863
 2259SOL     OW 7675   5.713   2.794   6.518
 2259SOL    HW1 7676   5.681   2.888   6.509
 2259SOL    HW2 7677   5.793   2.781   6.461
 2260SOL     OW 7678   5.336   5.183   0.988
 2260SOL    HW1 7679   5.344   5.120   1.065
 2260SOL    HW2 7680   5.404   5.160   0.918
 2261SOL     OW 7681   4.372   6.270   6.167
 2261SOL    HW1 7682   4.363   6.209   6.088
 2261SOL    HW2 7683   4.326   6.229   6.246
 2262SOL     OW 7684   4.193   1.364   2.907
 2262SOL    HW1 7685   4.276   1.407   2.942
 2262SOL    HW2 7686   4.113   1.406   2.950
 2263SOL     OW 7687   6.997   4.664   6.259
 2263SOL    HW1 7688   6.991   4.566   6.239
 2263SOL    HW2 7689   0.069   4.693   6.256
 2264SOL     OW 7690   3.561   4.123   3.657
 2264SOL    HW1 7691   3.657   4.107   3.635
 2264SOL    HW2 7692   3.521   4.039   3.695
 2265SOL     OW 7693   6.963   0.624   1.639
 2265SOL    HW1 7694   6.987   0.611   1.735
 2265SOL    HW2 7695   6.934   0.536   1.600
 2266SOL     OW 7696   5.890   6.641   0.887
 2266SOL    HW1 7697   5.936   6.556   0.910
 2266SOL    HW2 7698   5.801   6.622   0.846
 2267SOL     OW 7699   5.389   1.905   5.676
 2267SOL    HW1 7700   5.474   1.944   5.711
 2267SOL    HW2 7701   5.360   1.955   5.594
 2268SOL     OW 7702   6.565   5.504   0.375
 2268SOL    HW1 7703   6.466   5.510   0.391
 2268SOL    HW2 7704   6.613   5.510   0.462
 2269SOL     OW 7705   6.977   5.399   5.334
 2269SOL    HW1 7706   0.006   5.431   5.255
 2269SOL    HW2 7707   7.009   5.308   5.360
 2270SOL     OW 7708   4.313   3.415   1.785
 2270SOL    HW1 7709   4.405   3.379   1.768
 2270SOL    HW2 7710   4.315   3.515   1.780
 2271SOL     OW 7711   5.658   4.459   2.924
 2271SOL    HW1 7712   5.748   4.503   2.929
 2271SOL    HW2 7713   5.589   4.527   2.900
 2272SOL     OW 7714   5.551   1.899   6.403
 2272SOL    HW1 7715   5.477   1.846   6.360
 2272SOL    HW2 7716   5.526   1.996   6.405
 2273SOL     OW 7717   1.539   1.548   3.459
 2273SOL    HW1 7718   1.493   1.508   3.539
 2273SOL    HW2 7719   1.483   1.622   3.422
 2274SOL     OW 7720   1.622   3.488   3.627
 2274SOL    HW1 7721   1.564   3.407   3.634
 2274SOL    HW2 7722   1.644   3.521   3.719
 2275SOL     OW 7723   5.013   6.855   3.234
 2275SOL    HW1 7724   4.930   6.905   3.209
 2275SOL    HW2 7725   4.996   6.802   3.317
 2276SOL     OW 7726   4.957   4.943   1.489
 2276SOL    HW1 7727   4.922   4.852   1.510
 2276SOL    HW2 7728   4.890   4.992   1.433
 2277SOL     OW 7729   3.133   3.839   0.405
 2277SOL    HW1 7730   3.096   3.747   0.420
 2277SOL    HW2 7731   3.066   3.893   0.354
 2278SOL     OW 7732   5.479   6.544   0.955
 2278SOL    HW1 7733   5.501   6.539   0.857
 2278SOL    HW2 7734   5.438   6.458   0.984
 2279SOL     OW 7735   5.613   4.415   5.061
 2279SOL    HW1 7736   5.616   4.424   5.160
 2279SOL    HW2 7737   5.533   4.363   5.034
 2280SOL     OW 7738   5.652   6.718   5.899
 2280SOL    HW1 7739   5.696   6.715   5.989
 2280SOL    HW2 7740   5.652   6.627   5.859
 2281SOL     OW 7741   3.212   3.262   0.741
 2281SOL    HW1 7742   3.151   3.290   0.667
 2281SOL    HW2 7743   3.306   3.285   0.718
 2282SOL     OW 7744   3.704   5.227   3.024
 2282SOL    HW1 7745   3.793   5.232   2.978
 2282SOL    HW2 7746   3.631   5.250   2.960
 2283SOL     OW 7747   0.241   3.631   3.125
 2283SOL    HW1 7748   0.214   3.673   3.212
 2283SOL    HW2 7749   0.322   3.574   3.140
 2284SOL     OW 7750   2.324   2.649   1.979
 2284SOL    HW1 7751   2.356   2.738   1.945
 2284SOL    HW2 7752   2.402   2.596   2.012
 2285SOL     OW 7753   2.278   4.554   0.486
 2285SOL    HW1 7754   2.240   4.646   0.483
 2285SOL    HW2 7755   2.245   4.507   0.568
 2286SOL     OW 7756   5.662   6.793   4.783
 2286SOL    HW1 7757   5.679   6.876   4.730
 2286SOL    HW2 7758   5.623   6.723   4.723
 2287SOL     OW 7759   1.908   3.160   1.932
 2287SOL    HW1 7760   1.943   3.094   1.998
 2287SOL    HW2 7761   1.967   3.241   1.930
 2288SOL     OW 7762   0.648   6.425   4.195
 2288SOL    HW1 7763   0.611   6.334   4.215
 2288SOL    HW2 7764   0.747   6.422   4.201
 2289SOL     OW 7765   4.736   2.530   1.401
 2289SOL    HW1 7766   4.748   2.609   1.462
 2289SOL    HW2 7767   4.645   2.491   1.415
 2290SOL     OW 7768   3.250   3.471   2.777
 2290SOL    HW1 7769   3.171   3.417   2.746
 2290SOL    HW2 7770   3.221   3.565   2.796
 2291SOL     OW 7771   1.565   2.212   6.885
 2291SOL    HW1 7772   1.621   2.233   6.965
 2291SOL    HW2 7773   1.579   2.282   6.815
 2292SOL     OW 7774   4.321   1.895   2.977
 2292SOL    HW1 7775   4.351   1.877   2.883
 2292SOL    HW2 7776   4.378   1.843   3.040
 2293SOL     OW 7777   6.920   1.444   7.015
 2293SOL    HW1 7778   6.934   1.467   0.088
 2293SOL    HW2 7779   6.891   1.526   6.965
 2294SOL     OW 7780   0.211   2.042   5.926
 2294SOL    HW1 7781   0.183   2.121   5.980
 2294SOL    HW2 7782   0.131   1.988   5.902
 2295SOL     OW 7783   6.061   6.387   0.879
 2295SOL    HW1 7784   5.982   6.355   0.828
 2295SOL    HW2 7785   6.145   6.358   0.832
 2296SOL     OW 7786   3.153   5.624   4.433
 2296SOL    HW1 7787   3.166   5.537   4.384
 2296SOL    HW2 7788   3.058   5.629   4.465
 2297SOL     OW 7789   4.107   4.361   5.349
 2297SOL    HW1 7790   4.199   4.372   5.387
 2297SOL    HW2 7791   4.113   4.345   5.251
 2298SOL     OW 7792   3.931   3.604   4.515
 2298SOL    HW1 7793   3.903   3.591   4.420
 2298SOL    HW2 7794   3.980   3.692   4.524
 2299SOL     OW 7795   5.540   3.604   4.451
 2299SOL    HW1 7796   5.570   3.518   4.409
 2299SOL    HW2 7797   5.464   3.641   4.398
 2300SOL     OW 7798   4.656   6.526   2.279
 2300SOL    HW1 7799   4.633   6.616   2.244
 2300SOL    HW2 7800   4.576   6.466   2.274
 2301SOL     OW 7801   3.958   3.032   4.149
 2301SOL    HW1 7802   3.977   3.121   4.191
 2301SOL    HW2 7803   4.006   2.960   4.199
 2302SOL     OW 7804   4.400   2.289   0.784
 2302SOL    HW1 7805   4.423   2.378   0.744
 2302SOL    HW2 7806   4.305   2.290   0.815
 2303SOL     OW 7807   4.044   2.039   6.799
 2303SOL    HW1 7808   4.083   2.076   6.715
 2303SOL    HW2 7809   4.116   2.030   6.868
 2304SOL     OW 7810   5.031   5.970   2.216
 2304SOL    HW1 7811   5.095   6.040   2.184
 2304SOL    HW2 7812   5.077   5.881   2.219
 2305SOL     OW 7813   2.164   0.915   5.242
 2305SOL    HW1 7814   2.222   0.845   5.284
 2305SOL    HW2 7815   2.183   0.920   5.144
 2306SOL     OW 7816   2.092   5.013   4.115
 2306SOL    HW1 7817   2.077   5.035   4.211
 2306SOL    HW2 7818   2.008   4.978   4.075
 2307SOL     OW 7819   6.836   3.451   6.064
 2307SOL    HW1 7820   6.776   3.500   6.001
 2307SOL    HW2 7821   6.903   3.515   6.102
 2308SOL     OW 7822   1.930   4.847   1.678
 2308SOL    HW1 7823   1.834   4.869   1.661
 2308SOL    HW2 7824   1.976   4.926   1.717
 2309SOL     OW 7825   2.310   6.410   5.585
 2309SOL    HW1 7826   2.214   6.421   5.613
 2309SOL    HW2 7827   2.369   6.411   5.666
 2310SOL     OW 7828   5.046   6.618   1.162
 2310SOL    HW1 7829   5.046   6.661   1.252
 2310SOL    HW2 7830   4.970   6.655   1.107
 2311SOL     OW 7831   3.039   5.855   1.517
 2311SOL    HW1 7832   3.122   5.863   1.572
 2311SOL    HW2 7833   3.006   5.761   1.520
 2312SOL     OW 7834   3.199   4.927   2.797
 2312SOL    HW1 7835   3.103   4.911   2.772
 2312SOL    HW2 7836   3.209   4.920   2.896
 2313SOL     OW 7837   4.714   5.636   1.296
 2313SOL    HW1 7838   4.618   5.609   1.303
 2313SOL    HW2 7839   4.734   5.707   1.363
 2314SOL     OW 7840   2.053   5.429   4.405
 2314SOL    HW1 7841   2.018   5.482   4.481
 2314SOL    HW2 7842   2.000   5.449   4.322
 2315SOL     OW 7843   4.191   2.902   6.519
 2315SOL    HW1 7844   4.131   2.971   6.478
 2315SOL    HW2 7845   4.286   2.927   6.505
 2316SOL     OW 7846   5.391   3.395   2.230
 2316SOL    HW1 7847   5.383   3.364   2.325
 2316SOL    HW2 7848   5.482   3.371   2.195
 2317SOL     OW 7849   0.701   4.711   4.118
 2317SOL    HW1 7850   0.660   4.621   4.105
 2317SOL    HW2 7851   0.752   4.713   4.204
 2318SOL     OW 7852   6.854   1.339   3.719
 2318SOL    HW1 7853   6.882   1.246   3.694
 2318SOL    HW2 7854   6.931   1.385   3.764
 2319SOL     OW 7855   0.805   4.113   3.991
 2319SOL    HW1 7856   0.802   4.124   3.892
 2319SOL    HW2 7857   0.776   4.021   4.016
 2320SOL     OW 7858   6.401   4.201   4.893
 2320SOL    HW1 7859   6.315   4.242   4.863
 2320SOL    HW2 7860   6.384   4.111   4.933
 2321SOL     OW 7861   2.456   5.719   5.393
 2321SOL    HW1 7862   2.473   5.660   5.472
 2321SOL    HW2 7863   2.506   5.684   5.314
 2322SOL     OW 7864   2.388   0.330   6.262
 2322SOL    HW1 7865   2.427   0.417   6.232
 2322SOL    HW2 7866   2.289   0.333   6.253
 2323SOL     OW 7867   5.293   4.751   1.889
 2323SOL    HW1 7868   5.298   4.784   1.795
 2323SOL    HW2 7869   5.382   4.761   1.933
 2324SOL     OW 7870   6.613   5.065   3.724
 2324SOL    HW1 7871   6.529   5.059   3.777
 2324SOL    HW2 7872   6.593   5.092   3.630
 2325SOL     OW 7873   6.419   3.013   0.676
 2325SOL    HW1 7874   6.417   3.002   0.775
 2325SOL    HW2 7875   6.514   3.022   0.646
 2326SOL     OW 7876   1.999   5.270   6.962
 2326SOL    HW1 7877   1.921   5.327   6.936
 2326SOL    HW2 7878   1.979   5.224   0.025
 2327SOL     OW 7879   5.618   2.380   5.097
 2327SOL    HW1 7880   5.655   2.308   5.039
 2327SOL    HW2 7881   5.624   2.468   5.048
 2328SOL     OW 7882   5.419   6.927   3.437
 2328SOL    HW1 7883   5.489   6.997   3.421
 2328SOL    HW2 7884   5.339   6.947   3.381
 2329SOL     OW 7885   6.977   6.006   3.386
 2329SOL    HW1 7886   0.028   5.940   3.401
 2329SOL    HW2 7887   6.943   5.997   3.292
 2330SOL     OW 7888   0.414   3.627   2.448
 2330SOL    HW1 7889   0.385   3.534   2.428
 2330SOL    HW2 7890   0.339   3.677   2.493
 2331SOL     OW 7891   1.089   4.499   5.555
 2331SOL    HW1 7892   1.096   4.516   5.456
 2331SOL    HW2 7893   1.029   4.567   5.596
 2332SOL     OW 7894   5.684   2.563   4.873
 2332SOL    HW1 7895   5.757   2.631   4.878
 2332SOL    HW2 7896   5.721   2.476   4.841
 2333SOL     OW 7897   1.383   5.562   4.331
 2333SOL    HW1 7898   1.430   5.570   4.243
 2333SOL    HW2 7899   1.413   5.635   4.392
 2334SOL     OW 7900   2.783   0.155   0.205
 2334SOL    HW1 7901   2.687   0.181   0.195
 2334SOL    HW2 7902   2.821   0.134   0.115
 2335SOL     OW 7903   4.782   0.156   3.651
 2335SOL    HW1 7904   4.806   0.239   3.701
 2335SOL    HW2 7905   4.828   0.156   3.563
 2336SOL     OW 7906   4.573   1.765   6.192
 2336SOL    HW1 7907   4.498   1.811   6.240
 2336SOL    HW2 7908   4.658   1.777   6.243
 2337SOL     OW 7909   5.713   0.383   2.705
 2337SOL    HW1 7910   5.790   0.445   2.723
 2337SOL    HW2 7911   5.725   0.339   2.616
 2338SOL     OW 7912   0.968   6.981   6.231
 2338SOL    HW1 7913   1.054   6.936   6.256
 2338SOL    HW2 7914   0.985   0.030   6.164
 2339SOL     OW 7915   3.681   4.508   0.069
 2339SOL    HW1 7916   3.652   4.542   7.003
 2339SOL    HW2 7917   3.766   4.455   0.059
 2340SOL     OW 7918   3.400   5.169   4.833
 2340SOL    HW1 7919   3.319   5.226   4.847
 2340SOL    HW2 7920   3.375   5.089   4.779
 2341SOL     OW 7921   5.897   5.381   0.254
 2341SOL    HW1 7922   5.822   5.317   0.234
 2341SOL    HW2 7923   5.927   5.424   0.169
 2342SOL     OW 7924   6.704   0.262   5.253
 2342SOL    HW1 7925   6.786   0.211   5.278
 2342SOL    HW2 7926   6.657   0.214   5.179
 2343SOL     OW 7927   1.179   6.836   0.402
 2343SOL    HW1 7928   1.269   6.849   0.444
 2343SOL    HW2 7929   1.145   6.745   0.423
 2344SOL     OW 7930   2.068   1.592   2.507
 2344SOL    HW1 7931   2.120   1.507   2.504
 2344SOL    HW2 7932   2.131   1.670   2.515
 2345SOL     OW 7933   2.434   1.442   3.914
 2345SOL    HW1 7934   2.357   1.500   3.886
 2345SOL    HW2 7935   2.419   1.410   4.007
 2346SOL     OW 7936   4.761   3.562   5.830
 2346SOL    HW1 7937   4.697   3.605   5.893
 2346SOL    HW2 7938   4.725   3.569   5.737
 2347SOL     OW 7939   1.198   3.076   1.204
 2347SOL    HW1 7940   1.268   3.092   1.134
 2347SOL    HW2 7941   1.108   3.098   1.167
 2348SOL     OW 7942   2.769   6.531   2.241
 2348SOL    HW1 7943   2.770   6.452   2.303
 2348SOL    HW2 7944   2.720   6.607   2.285
 2349SOL     OW 7945   4.937   5.396   6.052
 2349SOL    HW1 7946   5.007   5.436   6.111
 2349SOL    HW2 7947   4.882   5.469   6.011
 2350SOL     OW 7948   2.659   6.271   5.362
 2350SOL    HW1 7949   2.618   6.185   5.332
 2350SOL    HW2 7950   2.652   6.278   5.462
 2351SOL     OW 7951   2.425   5.486   4.273
 2351SOL    HW1 7952   2.376   5.519   4.354
 2351SOL    HW2 7953   2.523   5.491   4.288
 2352SOL     OW 7954   0.123   3.102   2.240
 2352SOL    HW1 7955   0.040   3.051   2.265
 2352SOL    HW2 7956   0.116   3.134   2.146
 2353SOL     OW 7957   2.277   4.001   6.327
 2353SOL    HW1 7958   2.203   3.938   6.305
 2353SOL    HW2 7959   2.364   3.963   6.296
 2354SOL     OW 7960   3.979   2.838   1.085
 2354SOL    HW1 7961   3.895   2.833   1.031
 2354SOL    HW2 7962   3.956   2.858   1.180
 2355SOL     OW 7963   0.683   0.099   0.906
 2355SOL    HW1 7964   0.634   0.017   0.935
 2355SOL    HW2 7965   0.656   0.176   0.964
 2356SOL     OW 7966   2.916   5.204   3.200
 2356SOL    HW1 7967   2.894   5.301   3.208
 2356SOL    HW2 7968   2.891   5.173   3.108
 2357SOL     OW 7969   6.565   4.456   1.125
 2357SOL    HW1 7970   6.554   4.422   1.032
 2357SOL    HW2 7971   6.479   4.498   1.155
 2358SOL     OW 7972   4.242   1.530   5.719
 2358SOL    HW1 7973   4.178   1.602   5.694
 2358SOL    HW2 7974   4.192   1.446   5.738
 2359SOL     OW 7975   1.586   1.513   5.480
 2359SOL    HW1 7976   1.587   1.570   5.562
 2359SOL    HW2 7977   1.515   1.546   5.417
 2360SOL     OW 7978   4.317   4.272   0.376
 2360SOL    HW1 7979   4.368   4.345   0.421
 2360SOL    HW2 7980   4.374   4.231   0.306
 2361SOL     OW 7981   4.081   5.761   1.777
 2361SOL    HW1 7982   4.160   5.809   1.741
 2361SOL    HW2 7983   4.111   5.689   1.840
 2362SOL     OW 7984   3.969   6.098   3.880
 2362SOL    HW1 7985   3.963   6.007   3.841
 2362SOL    HW2 7986   3.915   6.102   3.964
 2363SOL     OW 7987   2.933   4.310   0.744
 2363SOL    HW1 7988   2.944   4.409   0.739
 2363SOL    HW2 7989   2.932   4.271   0.652
 2364SOL     OW 7990   4.439   1.569   2.399
 2364SOL    HW1 7991   4.468   1.643   2.337
 2364SOL    HW2 7992   4.356   1.527   2.364
 2365SOL     OW 7993   4.873   3.439   3.435
 2365SOL    HW1 7994   4.938   3.371   3.469
 2365SOL    HW2 7995   4.852   3.420   3.339
 2366SOL     OW 7996   2.576   4.666   5.008
 2366SOL    HW1 7997   2.546   4.688   5.101
 2366SOL    HW2 7998   2.675   4.651   5.008
 2367SOL     OW 7999   6.405   4.708   6.207
 2367SOL    HW1 8000   6.320   4.740   6.247
 2367SOL    HW2 8001   6.460   4.663   6.278
 2368SOL     OW 8002   5.451   6.715   4.088
 2368SOL    HW1 8003   5.394   6.633   4.088
 2368SOL    HW2 8004   5.502   6.720   4.002
 2369SOL     OW 8005   3.112   1.888   4.573
 2369SOL    HW1 8006   3.183   1.820   4.590
 2369SOL    HW2 8007   3.072   1.872   4.482
 2370SOL     OW 8008   5.559   2.506   1.393
 2370SOL    HW1 8009   5.654   2.486   1.369
 2370SOL    HW2 8010   5.534   2.596   1.357
 2371SOL     OW 8011   0.951   6.809   3.011
 2371SOL    HW1 8012   0.899   6.743   2.958
 2371SOL    HW2 8013   0.889   6.869   3.061
 2372SOL     OW 8014   6.391   0.881   5.826
 2372SOL    HW1 8015   6.467   0.837   5.873
 2372SOL    HW2 8016   6.421   0.969   5.789
 2373SOL     OW 8017   6.014   5.537   0.012
 2373SOL    HW1 8018   6.027   5.621   6.983
 2373SOL    HW2 8019   6.020   5.459   6.974
 2374SOL     OW 8020   5.918   6.050   1.897
 2374SOL    HW1 8021   5.971   6.038   1.981
 2374SOL    HW2 8022   5.934   6.142   1.861
 2375SOL     OW 8023   0.658   7.008   4.390
 2375SOL    HW1 8024   0.739   6.952   4.410
 2375SOL    HW2 8025   0.628   6.992   4.297
 2376SOL     OW 8026   5.837   1.198   3.123
 2376SOL    HW1 8027   5.865   1.293   3.136
 2376SOL    HW2 8028   5.894   1.138   3.179
 2377SOL     OW 8029   4.177   4.758   5.537
 2377SOL    HW1 8030   4.185   4.834   5.472
 2377SOL    HW2 8031   4.167   4.795   5.629
 2378SOL     OW 8032   6.749   1.078   0.342
 2378SOL    HW1 8033   6.833   1.049   0.296
 2378SOL    HW2 8034   6.772   1.133   0.422
 2379SOL     OW 8035   6.753   4.487   1.323
 2379SOL    HW1 8036   6.691   4.438   1.262
 2379SOL    HW2 8037   6.791   4.423   1.390
 2380SOL     OW 8038   4.740   4.861   4.910
 2380SOL    HW1 8039   4.653   4.855   4.959
 2380SOL    HW2 8040   4.781   4.770   4.904
 2381SOL     OW 8041   2.316   4.747   4.894
 2381SOL    HW1 8042   2.411   4.732   4.921
 2381SOL    HW2 8043   2.266   4.661   4.896
 2382SOL     OW 8044   0.507   6.295   2.535
 2382SOL    HW1 8045   0.419   6.247   2.534
 2382SOL    HW2 8046   0.572   6.246   2.476
 2383SOL     OW 8047   5.956   5.667   5.585
 2383SOL    HW1 8048   5.866   5.648   5.624
 2383SOL    HW2 8049   6.003   5.736   5.640
 2384SOL     OW 8050   0.779   1.914   2.327
 2384SOL    HW1 8051   0.802   1.840   2.263
 2384SOL    HW2 8052   0.797   1.883   2.420
 2385SOL     OW 8053   0.440   2.317   1.090
 2385SOL    HW1 8054   0.420   2.342   0.996
 2385SOL    HW2 8055   0.423   2.219   1.102
 2386SOL     OW 8056   5.194   5.925   3.724
 2386SOL    HW1 8057   5.168   6.019   3.748
 2386SOL    HW2 8058   5.117   5.880   3.679
 2387SOL     OW 8059   1.537   1.873   4.056
 2387SOL    HW1 8060   1.456   1.930   4.065
 2387SOL    HW2 8061   1.618   1.932   4.045
 2388SOL     OW 8062   0.125   1.888   5.505
 2388SOL    HW1 8063   0.132   1.818   5.434
 2388SOL    HW2 8064   0.136   1.846   5.595
 2389SOL     OW 8065   5.139   4.493   4.852
 2389SOL    HW1 8066   5.158   4.518   4.756
 2389SOL    HW2 8067   5.101   4.401   4.856
 2390SOL     OW 8068   4.363   3.929   5.673
 2390SOL    HW1 8069   4.357   3.992   5.596
 2390SOL    HW2 8070   4.354   3.835   5.640
 2391SOL     OW 8071   3.456   4.426   6.123
 2391SOL    HW1 8072   3.474   4.503   6.063
 2391SOL    HW2 8073   3.458   4.341   6.070
 2392SOL     OW 8074   3.657   5.358   5.386
 2392SOL    HW1 8075   3.602   5.427   5.432
 2392SOL    HW2 8076   3.665   5.380   5.289
 2393SOL     OW 8077   3.343   5.163   1.674
 2393SOL    HW1 8078   3.409   5.170   1.749
 2393SOL    HW2 8079   3.250   5.166   1.711
 2394SOL     OW 8080   0.994   2.360   3.611
 2394SOL    HW1 8081   1.001   2.350   3.511
 2394SOL    HW2 8082   1.063   2.424   3.642
 2395SOL     OW 8083   0.114   2.310   4.564
 2395SOL    HW1 8084   0.162   2.390   4.600
 2395SOL    HW2 8085   0.144   2.293   4.470
 2396SOL     OW 8086   6.932   0.763   5.034
 2396SOL    HW1 8087   6.859   0.695   5.043
 2396SOL    HW2 8088   6.891   0.853   5.015
 2397SOL     OW 8089   0.549   4.441   5.860
 2397SOL    HW1 8090   0.583   4.445   5.766
 2397SOL    HW2 8091   0.601   4.505   5.917
 2398SOL     OW 8092   3.531   6.273   3.854
 2398SOL    HW1 8093   3.541   6.216   3.935
 2398SOL    HW2 8094   3.493   6.220   3.779
 2399SOL     OW 8095   3.238   2.155   4.078
 2399SOL    HW1 8096   3.316   2.100   4.107
 2399SOL    HW2 8097   3.172   2.160   4.152
 2400SOL     OW 8098   0.591   4.278   0.733
 2400SOL    HW1 8099   0.665   4.312   0.792
 2400SOL    HW2 8100   0.504   4.317   0.764
 2401SOL     OW 8101   2.621   6.960   5.973
 2401SOL    HW1 8102   2.689   7.019   6.017
 2401SOL    HW2 8103   2.629   6.968   5.874
 2402SOL     OW 8104   1.380   4.259   2.596
 2402SOL    HW1 8105   1.478   4.269   2.577
 2402SOL    HW2 8106   1.337   4.206   2.522
 2403SOL     OW 8107   3.777   4.040   3.071
 2403SOL    HW1 8108   3.735   4.062   3.160
 2403SOL    HW2 8109   3.720   4.078   2.998
 2404SOL     OW 8110   6.391   1.741   0.556
 2404SOL    HW1 8111   6.386   1.673   0.483
 2404SOL    HW2 8112   6.300   1.755   0.594
 2405SOL     OW 8113   1.956   3.344   0.836
 2405SOL    HW1 8114   1.858   3.328   0.849
 2405SOL    HW2 8115   1.992   3.280   0.768
 2406SOL     OW 8116   2.351   6.263   4.700
 2406SOL    HW1 8117   2.345   6.350   4.748
 2406SOL    HW2 8118   2.446   6.245   4.675
 2407SOL     OW 8119   3.416   1.233   3.993
 2407SOL    HW1 8120   3.501   1.197   3.956
 2407SOL    HW2 8121   3.340   1.207   3.934
 2408SOL     OW 8122   3.187   5.760   4.845
 2408SOL    HW1 8123   3.161   5.845   4.799
 2408SOL    HW2 8124   3.109   5.723   4.893
 2409SOL     OW 8125   1.782   3.265   1.594
 2409SOL    HW1 8126   1.726   3.209   1.656
 2409SOL    HW2 8127   1.858   3.305   1.644
 2410SOL     OW 8128   0.852   3.344   5.300
 2410SOL    HW1 8129   0.834   3.437   5.331
 2410SOL    HW2 8130   0.946   3.319   5.323
 2411SOL     OW 8131   2.938   3.942   0.260
 2411SOL    HW1 8132   2.987   3.912   0.178
 2411SOL    HW2 8133   2.875   4.015   0.237
 2412SOL     OW 8134   3.362   1.517   6.958
 2412SOL    HW1 8135   3.425   1.570   7.015
 2412SOL    HW2 8136   3.355   1.560   6.868
 2413SOL     OW 8137   6.597   3.043   0.146
 2413SOL    HW1 8138   6.585   2.947   0.123
 2413SOL    HW2 8139   6.510   3.091   0.136
 2414SOL     OW 8140   6.459   2.457   4.605
 2414SOL    HW1 8141   6.503   2.451   4.515
 2414SOL    HW2 8142   6.521   2.421   4.675
 2415SOL     OW 8143   2.498   5.562   0.790
 2415SOL    HW1 8144   2.502   5.463   0.777
 2415SOL    HW2 8145   2.545   5.586   0.875
 2416SOL     OW 8146   6.806   3.706   2.233
 2416SOL    HW1 8147   6.796   3.613   2.198
 2416SOL    HW2 8148   6.896   3.717   2.275
 2417SOL     OW 8149   2.885   2.947   1.431
 2417SOL    HW1 8150   2.845   2.887   1.361
 2417SOL    HW2 8151   2.984   2.944   1.424
 2418SOL     OW 8152   4.640   3.855   5.816
 2418SOL    HW1 8153   4.666   3.910   5.895
 2418SOL    HW2 8154   4.562   3.797   5.840
 2419SOL     OW 8155   1.639   6.393   4.221
 2419SOL    HW1 8156   1.697   6.465   4.184
 2419SOL    HW2 8157   1.692   6.309   4.230
 2420SOL     OW 8158   1.652   4.327   2.613
 2420SOL    HW1 8159   1.618   4.418   2.587
 2420SOL    HW2 8160   1.702   4.287   2.537
 2421SOL     OW 8161   2.393   6.035   4.302
 2421SOL    HW1 8162   2.444   6.106   4.255
 2421SOL    HW2 8163   2.316   6.076   4.351
 2422SOL     OW 8164   4.606   6.386   0.076
 2422SOL    HW1 8165   4.657   6.300   0.075
 2422SOL    HW2 8166   4.650   6.453   0.016
 2423SOL     OW 8167   2.473   5.051   2.878
 2423SOL    HW1 8168   2.444   4.970   2.827
 2423SOL    HW2 8169   2.548   5.027   2.940
 2424SOL     OW 8170   5.653   1.336   5.679
 2424SOL    HW1 8171   5.752   1.321   5.685
 2424SOL    HW2 8172   5.635   1.434   5.684
 2425SOL     OW 8173   5.135   5.524   5.428
 2425SOL    HW1 8174   5.154   5.542   5.524
 2425SOL    HW2 8175   5.222   5.509   5.380
 2426SOL     OW 8176   2.099   3.810   6.245
 2426SOL    HW1 8177   2.079   3.810   6.343
 2426SOL    HW2 8178   2.014   3.823   6.194
 2427SOL     OW 8179   5.161   0.701   0.269
 2427SOL    HW1 8180   5.122   0.770   0.209
 2427SOL    HW2 8181   5.139   0.610   0.234
 2428SOL     OW 8182   0.471   0.603   3.403
 2428SOL    HW1 8183   0.450   0.546   3.323
 2428SOL    HW2 8184   0.470   0.699   3.376
 2429SOL     OW 8185   5.211   5.383   1.684
 2429SOL    HW1 8186   5.160   5.466   1.704
 2429SOL    HW2 8187   5.300   5.408   1.646
 2430SOL     OW 8188   6.106   2.069   6.251
 2430SOL    HW1 8189   6.115   1.974   6.220
 2430SOL    HW2 8190   6.018   2.081   6.297
 2431SOL     OW 8191   6.761   2.385   1.856
 2431SOL    HW1 8192   6.714   2.315   1.910
 2431SOL    HW2 8193   6.694   2.438   1.805
 2432SOL     OW 8194   3.522   5.195   2.838
 2432SOL    HW1 8195   3.561   5.102   2.842
 2432SOL    HW2 8196   3.426   5.190   2.812
 2433SOL     OW 8197   6.129   4.382   6.300
 2433SOL    HW1 8198   6.147   4.284   6.290
 2433SOL    HW2 8199   6.193   4.420   6.367
 2434SOL     OW 8200   4.669   1.526   3.037
 2434SOL    HW1 8201   4.740   1.591   3.010
 2434SOL    HW2 8202   4.653   1.532   3.135
 2435SOL     OW 8203   5.688   6.660   6.761
 2435SOL    HW1 8204   5.729   6.728   6.700
 2435SOL    HW2 8205   5.760   6.603   6.800
 2436SOL     OW 8206   1.959   1.916   1.905
 2436SOL    HW1 8207   1.957   1.818   1.885
 2436SOL    HW2 8208   1.867   1.953   1.898
 2437SOL     OW 8209   0.081   4.492   2.982
 2437SOL    HW1 8210   0.161   4.433   2.994
 2437SOL    HW2 8211   0.105   4.586   3.005
 2438SOL     OW 8212   3.409   1.453   4.937
 2438SOL    HW1 8213   3.332   1.510   4.964
 2438SOL    HW2 8214   3.408   1.441   4.838
 2439SOL     OW 8215   0.957   6.109   0.936
 2439SOL    HW1 8216   0.987   6.098   1.030
 2439SOL    HW2 8217   1.021   6.063   0.874
 2440SOL     OW 8218   5.328   1.040   5.021
 2440SOL    HW1 8219   5.298   1.104   4.951
 2440SOL    HW2 8220   5.360   1.090   5.101
 2441SOL     OW 8221   5.937   0.292   0.139
 2441SOL    HW1 8222   5.979   0.210   0.101
 2441SOL    HW2 8223   5.997   0.370   0.124
 2442SOL     OW 8224   5.362   3.055   2.067
 2442SOL    HW1 8225   5.450   3.087   2.032
 2442SOL    HW2 8226   5.297   3.131   2.068
 2443SOL     OW 8227   0.857   2.224   0.918
 2443SOL    HW1 8228   0.856   2.132   0.956
 2443SOL    HW2 8229   0.931   2.232   0.851
 2444SOL     OW 8230   3.910   5.640   1.416
 2444SOL    HW1 8231   3.973   5.717   1.423
 2444SOL    HW2 8232   3.847   5.654   1.340
 2445SOL     OW 8233   6.753   2.586   0.658
 2445SOL    HW1 8234   6.701   2.522   0.602
 2445SOL    HW2 8235   6.834   2.541   0.694
 2446SOL     OW 8236   1.853   4.592   1.247
 2446SOL    HW1 8237   1.759   4.624   1.245
 2446SOL    HW2 8238   1.856   4.500   1.287
 2447SOL     OW 8239   3.055   6.993   0.629
 2447SOL    HW1 8240   3.041   0.055   0.578
 2447SOL    HW2 8241   2.973   6.937   0.625
 2448SOL     OW 8242   5.889   1.676   3.748
 2448SOL    HW1 8243   5.942   1.592   3.733
 2448SOL    HW2 8244   5.817   1.682   3.679
 2449SOL     OW 8245   1.626   4.588   1.876
 2449SOL    HW1 8246   1.680   4.520   1.826
 2449SOL    HW2 8247   1.658   4.592   1.971
 2450SOL     OW 8248   1.435   6.151   6.050
 2450SOL    HW1 8249   1.524   6.194   6.040
 2450SOL    HW2 8250   1.443   6.066   6.102
 2451SOL     OW 8251   0.485   0.087   4.804
 2451SOL    HW1 8252   0.486   0.158   4.733
 2451SOL    HW2 8253   0.508   0.128   4.892
 2452SOL     OW 8254   3.062   1.839   4.315
 2452SOL    HW1 8255   3.150   1.797   4.289
 2452SOL    HW2 8256   3.022   1.883   4.235
 2453SOL     OW 8257   0.965   1.375   0.064
 2453SOL    HW1 8258   0.991   1.341   6.996
 2453SOL    HW2 8259   1.047   1.392   0.118
 2454SOL     OW 8260   3.276   6.085   1.263
 2454SOL    HW1 8261   3.354   6.033   1.230
 2454SOL    HW2 8262   3.195   6.027   1.267
 2455SOL     OW 8263   3.729   1.718   0.102
 2455SOL    HW1 8264   3.798   1.691   0.035
 2455SOL    HW2 8265   3.768   1.785   0.166
 2456SOL     OW 8266   1.008   4.524   6.598
 2456SOL    HW1 8267   1.051   4.450   6.547
 2456SOL    HW2 8268   1.052   4.611   6.575
 2457SOL     OW 8269   5.742   2.158   5.484
 2457SOL    HW1 8270   5.804   2.205   5.422
 2457SOL    HW2 8271   5.789   2.138   5.570
 2458SOL     OW 8272   1.677   6.896   1.922
 2458SOL    HW1 8273   1.730   6.823   1.880
 2458SOL    HW2 8274   1.670   6.974   1.859
 2459SOL     OW 8275   2.704   5.981   1.290
 2459SOL    HW1 8276   2.652   5.991   1.205
 2459SOL    HW2 8277   2.750   6.067   1.311
 2460SOL     OW 8278   1.587   0.719   5.687
 2460SOL    HW1 8279   1.610   0.801   5.635
 2460SOL    HW2 8280   1.489   0.716   5.705
 2461SOL     OW 8281   3.599   1.572   4.541
 2461SOL    HW1 8282   3.653   1.539   4.619
 2461SOL    HW2 8283   3.659   1.621   4.478
 2462SOL     OW 8284   0.087   4.696   0.895
 2462SOL    HW1 8285   0.003   4.747   0.880
 2462SOL    HW2 8286   0.160   4.759   0.921
 2463SOL     OW 8287   6.786   1.272   6.482
 2463SOL    HW1 8288   6.868   1.319   6.512
 2463SOL    HW2 8289   6.753   1.312   6.396
 2464SOL     OW 8290   0.542   1.432   3.358
 2464SOL    HW1 8291   0.628   1.453   3.404
 2464SOL    HW2 8292   0.484   1.378   3.419
 2465SOL     OW 8293   0.841   4.599   5.675
 2465SOL    HW1 8294   0.773   4.525   5.671
 2465SOL    HW2 8295   0.806   4.672   5.733
 2466SOL     OW 8296   1.148   2.512   2.052
 2466SOL    HW1 8297   1.190   2.485   1.965
 2466SOL    HW2 8298   1.125   2.430   2.104
 2467SOL     OW 8299   4.969   1.351   5.814
 2467SOL    HW1 8300   4.971   1.334   5.716
 2467SOL    HW2 8301   4.874   1.351   5.846
 2468SOL     OW 8302   3.378   6.826   5.696
 2468SOL    HW1 8303   3.430   6.910   5.715
 2468SOL    HW2 8304   3.281   6.843   5.714
 2469SOL     OW 8305   3.321   2.649   5.565
 2469SOL    HW1 8306   3.254   2.580   5.595
 2469SOL    HW2 8307   3.412   2.608   5.564
 2470SOL     OW 8308   3.657   5.010   6.984
 2470SOL    HW1 8309   3.647   5.109   6.982
 2470SOL    HW2 8310   3.600   4.972   0.034
 2471SOL     OW 8311   4.400   5.881   1.235
 2471SOL    HW1 8312   4.493   5.874   1.270
 2471SOL    HW2 8313   4.335   5.859   1.309
 2472SOL     OW 8314   4.822   1.749   4.470
 2472SOL    HW1 8315   4.835   1.831   4.526
 2472SOL    HW2 8316   4.804   1.776   4.376
 2473SOL     OW 8317   6.955   4.722   4.896
 2473SOL    HW1 8318   6.932   4.749   4.989
 2473SOL    HW2 8319   0.010   4.659   4.897
 2474SOL     OW 8320   0.720   5.704   1.633
 2474SOL    HW1 8321   0.755   5.611   1.647
 2474SOL    HW2 8322   0.793   5.762   1.599
 2475SOL     OW 8323   5.082   0.315   0.816
 2475SOL    HW1 8324   5.144   0.264   0.877
 2475SOL    HW2 8325   5.072   0.265   0.730
 2476SOL     OW 8326   6.021   0.558   0.560
 2476SOL    HW1 8327   5.948   0.524   0.621
 2476SOL    HW2 8328   6.059   0.481   0.509
 2477SOL     OW 8329   3.486   0.579   3.272
 2477SOL    HW1 8330   3.539   0.509   3.321
 2477SOL    HW2 8331   3.455   0.541   3.185
 2478SOL     OW 8332   4.063   1.696   3.195
 2478SOL    HW1 8333   3.998   1.687   3.119
 2478SOL    HW2 8334   4.113   1.611   3.206
 2479SOL     OW 8335   0.684   3.299   0.622
 2479SOL    HW1 8336   0.657   3.394   0.642
 2479SOL    HW2 8337   0.664   3.278   0.527
 2480SOL     OW 8338   3.201   2.284   1.362
 2480SOL    HW1 8339   3.115   2.336   1.362
 2480SOL    HW2 8340   3.235   2.276   1.455
 2481SOL     OW 8341   3.157   0.905   1.451
 2481SOL    HW1 8342   3.142   0.845   1.530
 2481SOL    HW2 8343   3.127   0.997   1.473
 2482SOL     OW 8344   5.300   3.916   6.947
 2482SOL    HW1 8345   5.337   4.008   6.953
 2482SOL    HW2 8346   5.278   3.883   0.016
 2483SOL     OW 8347   0.613   2.502   0.526
 2483SOL    HW1 8348   0.655   2.584   0.563
 2483SOL    HW2 8349   0.630   2.425   0.588
 2484SOL     OW 8350   5.113   1.446   2.621
 2484SOL    HW1 8351   5.022   1.431   2.661
 2484SOL    HW2 8352   5.165   1.361   2.623
 2485SOL     OW 8353   4.822   2.489   6.266
 2485SOL    HW1 8354   4.740   2.448   6.227
 2485SOL    HW2 8355   4.879   2.526   6.193
 2486SOL     OW 8356   0.414   4.012   5.604
 2486SOL    HW1 8357   0.375   3.963   5.682
 2486SOL    HW2 8358   0.349   4.079   5.570
 2487SOL     OW 8359   4.930   6.131   0.313
 2487SOL    HW1 8360   4.866   6.121   0.388
 2487SOL    HW2 8361   5.020   6.096   0.340
 2488SOL     OW 8362   6.645   4.489   2.128
 2488SOL    HW1 8363   6.612   4.464   2.037
 2488SOL    HW2 8364   6.734   4.447   2.145
 2489SOL     OW 8365   0.403   6.011   3.782
 2489SOL    HW1 8366   0.311   5.990   3.817
 2489SOL    HW2 8367   0.467   5.941   3.813
 2490SOL     OW 8368   2.181   6.282   2.523
 2490SOL    HW1 8369   2.171   6.207   2.458
 2490SOL    HW2 8370   2.091   6.312   2.555
 2491SOL     OW 8371   4.161   4.860   1.490
 2491SOL    HW1 8372   4.073   4.906   1.494
 2491SOL    HW2 8373   4.162   4.783   1.554
 2492SOL     OW 8374   5.264   3.733   0.876
 2492SOL    HW1 8375   5.297   3.644   0.908
 2492SOL    HW2 8376   5.164   3.730   0.868
 2493SOL     OW 8377   6.593   6.502   1.441
 2493SOL    HW1 8378   6.647   6.531   1.520
 2493SOL    HW2 8379   6.502   6.545   1.446
 2494SOL     OW 8380   5.739   2.417   1.836
 2494SOL    HW1 8381   5.790   2.337   1.868
 2494SOL    HW2 8382   5.707   2.401   1.743
 2495SOL     OW 8383   5.380   5.758   3.401
 2495SOL    HW1 8384   5.376   5.851   3.439
 2495SOL    HW2 8385   5.320   5.752   3.322
 2496SOL     OW 8386   6.859   4.100   6.755
 2496SOL    HW1 8387   6.790   4.069   6.821
 2496SOL    HW2 8388   6.894   4.189   6.783
 2497SOL     OW 8389   0.257   0.366   1.492
 2497SOL    HW1 8390   0.286   0.376   1.397
 2497SOL    HW2 8391   0.309   0.293   1.535
 2498SOL     OW 8392   2.898   3.266   5.910
 2498SOL    HW1 8393   2.952   3.204   5.968
 2498SOL    HW2 8394   2.826   3.214   5.864
 2499SOL     OW 8395   6.263   2.988   1.588
 2499SOL    HW1 8396   6.224   2.899   1.563
 2499SOL    HW2 8397   6.217   3.060   1.536
 2500SOL     OW 8398   3.679   3.898   6.151
 2500SOL    HW1 8399   3.745   3.840   6.199
 2500SOL    HW2 8400   3.638   3.847   6.076
 2501SOL     OW 8401   5.616   6.026   0.173
 2501SOL    HW1 8402   5.665   5.981   0.098
 2501SOL    HW2 8403   5.659   6.003   0.260
 2502SOL     OW 8404   2.378   5.966   4.974
 2502SOL    HW1 8405   2.402   5.880   4.929
 2502SOL    HW2 8406   2.281   5.964   4.999
 2503SOL     OW 8407   2.934   6.686   5.611
 2503SOL    HW1 8408   2.996   6.673   5.534
 2503SOL    HW2 8409   2.842   6.658   5.585
 2504SOL     OW 8410   3.221   5.794   2.793
 2504SOL    HW1 8411   3.149   5.725   2.790
 2504SOL    HW2 8412   3.302   5.756   2.837
 2505SOL     OW 8413   0.503   5.548   2.832
 2505SOL    HW1 8414   0.553   5.462   2.841
 2505SOL    HW2 8415   0.405   5.530   2.834
 2506SOL     OW 8416   5.950   3.577   6.331
 2506SOL    HW1 8417   6.036   3.618   6.360
 2506SOL    HW2 8418   5.923   3.615   6.242
 2507SOL     OW 8419   6.866   3.198   0.364
 2507SOL    HW1 8420   6.864   3.203   0.264
 2507SOL    HW2 8421   6.939   3.136   0.393
 2508SOL     OW 8422   2.911   2.314   5.227
 2508SOL    HW1 8423   3.003   2.329   5.193
 2508SOL    HW2 8424   2.911   2.317   5.327
 2509SOL     OW 8425   6.686   4.072   6.951
 2509SOL    HW1 8426   6.599   4.115   6.976
 2509SOL    HW2 8427   6.698   3.988   7.003
 2510SOL     OW 8428   3.953   4.237   1.604
 2510SOL    HW1 8429   3.989   4.205   1.516
 2510SOL    HW2 8430   3.890   4.169   1.641
 2511SOL     OW 8431   2.332   0.933   5.000
 2511SOL    HW1 8432   2.315   0.969   4.908
 2511SOL    HW2 8433   2.427   0.902   5.007
 2512SOL     OW 8434   3.835   4.298   5.285
 2512SOL    HW1 8435   3.842   4.395   5.308
 2512SOL    HW2 8436   3.925   4.261   5.265
 2513SOL     OW 8437   2.465   6.390   5.833
 2513SOL    HW1 8438   2.539   6.458   5.830
 2513SOL    HW2 8439   2.389   6.426   5.887
 2514SOL     OW 8440   0.952   3.621   3.998
 2514SOL    HW1 8441   1.029   3.670   4.039
 2514SOL    HW2 8442   0.981   3.576   3.914
 2515SOL     OW 8443   2.097   0.435   1.538
 2515SOL    HW1 8444   2.068   0.381   1.459
 2515SOL    HW2 8445   2.182   0.397   1.575
 2516SOL     OW 8446   4.936   1.536   3.257
 2516SOL    HW1 8447   4.956   1.467   3.187
 2516SOL    HW2 8448   4.838   1.537   3.277
 2517SOL     OW 8449   1.996   0.427   5.613
 2517SOL    HW1 8450   2.027   0.521   5.597
 2517SOL    HW2 8451   1.896   0.424   5.609
 2518SOL     OW 8452   2.350   5.750   1.203
 2518SOL    HW1 8453   2.422   5.681   1.211
 2518SOL    HW2 8454   2.295   5.732   1.121
 2519SOL     OW 8455   3.079   1.150   1.451
 2519SOL    HW1 8456   3.071   1.233   1.506
 2519SOL    HW2 8457   3.151   1.162   1.382
 2520SOL     OW 8458   3.343   1.960   0.404
 2520SOL    HW1 8459   3.408   1.988   0.334
 2520SOL    HW2 8460   3.289   2.040   0.433
 2521SOL     OW 8461   3.950   1.796   4.940
 2521SOL    HW1 8462   3.935   1.719   5.003
 2521SOL    HW2 8463   3.893   1.873   4.967
 2522SOL     OW 8464   1.476   1.496   5.140
 2522SOL    HW1 8465   1.394   1.455   5.180
 2522SOL    HW2 8466   1.473   1.487   5.041
 2523SOL     OW 8467   1.735   4.098   1.329
 2523SOL    HW1 8468   1.648   4.137   1.360
 2523SOL    HW2 8469   1.764   4.145   1.245
 2524SOL     OW 8470   0.103   6.825   4.347
 2524SOL    HW1 8471   0.038   6.825   4.272
 2524SOL    HW2 8472   0.195   6.841   4.311
 2525SOL     OW 8473   1.321   2.803   4.842
 2525SOL    HW1 8474   1.264   2.830   4.765
 2525SOL    HW2 8475   1.324   2.704   4.848
 2526SOL     OW 8476   1.770   4.591   6.817
 2526SOL    HW1 8477   1.764   4.494   6.840
 2526SOL    HW2 8478   1.792   4.600   6.719
 2527SOL     OW 8479   5.647   5.933   5.587
 2527SOL    HW1 8480   5.596   5.874   5.649
 2527SOL    HW2 8481   5.714   5.879   5.537
 2528SOL     OW 8482   5.521   3.914   5.830
 2528SOL    HW1 8483   5.621   3.914   5.832
 2528SOL    HW2 8484   5.488   4.007   5.813
 2529SOL     OW 8485   0.838   0.646   6.422
 2529SOL    HW1 8486   0.932   0.628   6.453
 2529SOL    HW2 8487   0.841   0.682   6.328
 2530SOL     OW 8488   2.232   5.757   5.803
 2530SOL    HW1 8489   2.275   5.801   5.724
 2530SOL    HW2 8490   2.211   5.825   5.873
 2531SOL     OW 8491   5.367   5.758   5.989
 2531SOL    HW1 8492   5.335   5.670   5.953
 2531SOL    HW2 8493   5.310   5.832   5.952
 2532SOL     OW 8494   0.581   6.202   0.973
 2532SOL    HW1 8495   0.603   6.151   0.889
 2532SOL    HW2 8496   0.537   6.289   0.948
 2533SOL     OW 8497   4.837   1.225   3.212
 2533SOL    HW1 8498   4.758   1.228   3.150
 2533SOL    HW2 8499   4.920   1.210   3.160
 2534SOL     OW 8500   5.016   1.807   1.772
 2534SOL    HW1 8501   4.978   1.733   1.827
 2534SOL    HW2 8502   5.037   1.885   1.831
 2535SOL     OW 8503   3.606   2.703   6.611
 2535SOL    HW1 8504   3.627   2.693   6.708
 2535SOL    HW2 8505   3.535   2.637   6.586
 2536SOL     OW 8506   1.371   0.926   5.999
 2536SOL    HW1 8507   1.375   0.888   5.906
 2536SOL    HW2 8508   1.277   0.951   6.020
 2537SOL     OW 8509   3.556   0.008   6.540
 2537SOL    HW1 8510   3.534   6.946   6.589
 2537SOL    HW2 8511   3.567   7.012   6.443
 2538SOL     OW 8512   0.054   3.979   4.132
 2538SOL    HW1 8513   0.092   3.984   4.224
 2538SOL    HW2 8514   6.991   3.930   4.134
 2539SOL     OW 8515   5.743   0.877   3.463
 2539SOL    HW1 8516   5.759   0.970   3.497
 2539SOL    HW2 8517   5.809   0.857   3.391
 2540SOL     OW 8518   4.074   1.808   2.908
 2540SOL    HW1 8519   4.149   1.856   2.953
 2540SOL    HW2 8520   4.065   1.842   2.814
 2541SOL     OW 8521   2.779   0.358   5.870
 2541SOL    HW1 8522   2.701   0.357   5.807
 2541SOL    HW2 8523   2.860   0.389   5.821
 2542SOL     OW 8524   3.054   4.097   6.894
 2542SOL    HW1 8525   3.065   4.179   6.951
 2542SOL    HW2 8526   2.961   4.062   6.903
 2543SOL     OW 8527   0.907   0.945   4.008
 2543SOL    HW1 8528   0.884   1.030   3.961
 2543SOL    HW2 8529   0.845   0.873   3.978
 2544SOL     OW 8530   0.941   5.905   0.654
 2544SOL    HW1 8531   1.027   5.908   0.704
 2544SOL    HW2 8532   0.900   5.814   0.663
 2545SOL     OW 8533   1.351   7.000   2.045
 2545SOL    HW1 8534   1.320   6.954   2.129
 2545SOL    HW2 8535   1.413   0.051   2.069
 2546SOL     OW 8536   6.502   1.768   0.809
 2546SOL    HW1 8537   6.439   1.835   0.850
 2546SOL    HW2 8538   6.473   1.746   0.717
 2547SOL     OW 8539   0.197   3.774   6.669
 2547SOL    HW1 8540   0.106   3.782   6.709
 2547SOL    HW2 8541   0.201   3.694   6.610
 2548SOL     OW 8542   6.923   6.803   4.180
 2548SOL    HW1 8543   6.900   6.729   4.242
 2548SOL    HW2 8544   6.881   6.787   4.091
 2549SOL     OW 8545   1.105   0.553   1.495
 2549SOL    HW1 8546   1.139   0.613   1.423
 2549SOL    HW2 8547   1.014   0.583   1.524
 2550SOL     OW 8548   6.004   6.710   0.423
 2550SOL    HW1 8549   6.053   6.700   0.337
 2550SOL    HW2 8550   6.028   6.797   0.466
 2551SOL     OW 8551   3.268   4.719   0.339
 2551SOL    HW1 8552   3.356   4.679   0.315
 2551SOL    HW2 8553   3.255   4.803   0.286
 2552SOL     OW 8554   2.661   5.010   4.973
 2552SOL    HW1 8555   2.623   4.992   5.064
 2552SOL    HW2 8556   2.587   5.033   4.910
 2553SOL     OW 8557   3.720   3.619   6.048
 2553SOL    HW1 8558   3.761   3.688   5.988
 2553SOL    HW2 8559   3.667   3.555   5.994
 2554SOL     OW 8560   2.247   1.254   0.456
 2554SOL    HW1 8561   2.291   1.166   0.475
 2554SOL    HW2 8562   2.309   1.310   0.400
 2555SOL     OW 8563   5.231   3.015   4.402
 2555SOL    HW1 8564   5.186   2.958   4.333
 2555SOL    HW2 8565   5.192   2.996   4.492
 2556SOL     OW 8566   3.689   6.052   0.594
 2556SOL    HW1 8567   3.624   6.058   0.670
 2556SOL    HW2 8568   3.670   5.970   0.541
 2557SOL     OW 8569   1.935   3.251   6.828
 2557SOL    HW1 8570   1.973   3.339   6.801
 2557SOL    HW2 8571   1.974   3.179   6.770
 2558SOL     OW 8572   4.798   1.114   5.591
 2558SOL    HW1 8573   4.859   1.181   5.549
 2558SOL    HW2 8574   4.844   1.074   5.671
 2559SOL     OW 8575   1.032   4.092   5.743
 2559SOL    HW1 8576   1.061   4.001   5.714
 2559SOL    HW2 8577   0.933   4.093   5.757
 2560SOL     OW 8578   6.898   2.760   6.108
 2560SOL    HW1 8579   6.958   2.751   6.188
 2560SOL    HW2 8580   6.886   2.857   6.086
 2561SOL     OW 8581   3.299   4.941   4.713
 2561SOL    HW1 8582   3.308   4.884   4.795
 2561SOL    HW2 8583   3.205   4.974   4.706
 2562SOL     OW 8584   2.422   4.304   1.090
 2562SOL    HW1 8585   2.503   4.246   1.082
 2562SOL    HW2 8586   2.353   4.274   1.024
 2563SOL     OW 8587   2.664   0.663   0.522
 2563SOL    HW1 8588   2.746   0.712   0.552
 2563SOL    HW2 8589   2.638   0.596   0.590
 2564SOL     OW 8590   1.357   5.216   0.863
 2564SOL    HW1 8591   1.372   5.233   0.960
 2564SOL    HW2 8592   1.289   5.281   0.828
 2565SOL     OW 8593   0.481   0.620   0.514
 2565SOL    HW1 8594   0.552   0.678   0.474
 2565SOL    HW2 8595   0.448   0.555   0.445
 2566SOL     OW 8596   2.356   6.196   1.255
 2566SOL    HW1 8597   2.411   6.135   1.198
 2566SOL    HW2 8598   2.411   6.226   1.334
 2567SOL     OW 8599   1.325   0.056   0.801
 2567SOL    HW1 8600   1.299   0.019   0.890
 2567SOL    HW2 8601   1.408   0.010   0.769
 2568SOL     OW 8602   4.677   2.574   6.899
 2568SOL    HW1 8603   4.704   2.522   6.980
 2568SOL    HW2 8604   4.623   2.516   6.838
 2569SOL     OW 8605   3.259   1.223   3.298
 2569SOL    HW1 8606   3.248   1.320   3.274
 2569SOL    HW2 8607   3.309   1.176   3.225
 2570SOL     OW 8608   5.673   1.094   5.914
 2570SOL    HW1 8609   5.670   1.028   5.839
 2570SOL    HW2 8610   5.616   1.173   5.892
 2571SOL     OW 8611   1.406   4.565   3.954
 2571SOL    HW1 8612   1.388   4.663   3.947
 2571SOL    HW2 8613   1.320   4.514   3.944
 2572SOL     OW 8614   2.920   4.841   2.747
 2572SOL    HW1 8615   2.938   4.791   2.832
 2572SOL    HW2 8616   2.834   4.891   2.756
 2573SOL     OW 8617   0.475   1.584   0.632
 2573SOL    HW1 8618   0.529   1.544   0.706
 2573SOL    HW2 8619   0.488   1.530   0.549
 2574SOL     OW 8620   5.664   3.137   0.904
 2574SOL    HW1 8621   5.747   3.193   0.911
 2574SOL    HW2 8622   5.690   3.040   0.904
 2575SOL     OW 8623   5.951   5.920   0.081
 2575SOL    HW1 8624   5.908   5.866   0.154
 2575SOL    HW2 8625   5.901   5.905   7.018
 2576SOL     OW 8626   4.388   6.204   4.721
 2576SOL    HW1 8627   4.421   6.285   4.673
 2576SOL    HW2 8628   4.319   6.232   4.788
 2577SOL     OW 8629   3.023   4.854   2.084
 2577SOL    HW1 8630   2.983   4.767   2.111
 2577SOL    HW2 8631   3.114   4.838   2.045
 2578SOL     OW 8632   3.732   1.208   4.145
 2578SOL    HW1 8633   3.788   1.287   4.171
 2578SOL    HW2 8634   3.662   1.192   4.214
 2579SOL     OW 8635   0.256   6.119   3.596
 2579SOL    HW1 8636   0.325   6.077   3.656
 2579SOL    HW2 8637   0.205   6.188   3.648
 2580SOL     OW 8638   2.452   4.682   0.249
 2580SOL    HW1 8639   2.475   4.668   0.345
 2580SOL    HW2 8640   2.374   4.624   0.225
 2581SOL     OW 8641   2.630   6.183   6.373
 2581SOL    HW1 8642   2.532   6.199   6.377
 2581SOL    HW2 8643   2.667   6.221   6.288
 2582SOL     OW 8644   6.853   3.725   1.111
 2582SOL    HW1 8645   6.793   3.660   1.157
 2582SOL    HW2 8646   6.840   3.817   1.149
 2583SOL     OW 8647   0.077   0.337   0.812
 2583SOL    HW1 8648   7.018   0.362   0.761
 2583SOL    HW2 8649   0.158   0.370   0.763
 2584SOL     OW 8650   3.930   5.260   5.437
 2584SOL    HW1 8651   3.931   5.178   5.494
 2584SOL    HW2 8652   3.835   5.286   5.419
 2585SOL     OW 8653   3.136   5.057   6.781
 2585SOL    HW1 8654   3.155   5.077   6.684
 2585SOL    HW2 8655   3.156   5.138   6.836
 2586SOL     OW 8656   2.553   1.289   5.745
 2586SOL    HW1 8657   2.634   1.347   5.733
 2586SOL    HW2 8658   2.480   1.321   5.684
 2587SOL     OW 8659   0.735   0.900   2.777
 2587SOL    HW1 8660   0.745   0.889   2.678
 2587SOL    HW2 8661   0.811   0.955   2.813
 2588SOL     OW 8662   4.108   2.175   5.453
 2588SOL    HW1 8663   4.182   2.223   5.405
 2588SOL    HW2 8664   4.146   2.125   5.531
 2589SOL     OW 8665   0.986   6.486   6.775
 2589SOL    HW1 8666   0.964   6.581   6.793
 2589SOL    HW2 8667   1.080   6.479   6.741
 2590SOL     OW 8668   3.116   5.090   0.484
 2590SOL    HW1 8669   3.084   5.146   0.408
 2590SOL    HW2 8670   3.072   5.120   0.568
 2591SOL     OW 8671   6.123   5.575   3.717
 2591SOL    HW1 8672   6.083   5.536   3.800
 2591SOL    HW2 8673   6.180   5.653   3.740
 2592SOL     OW 8674   2.441   4.165   6.737
 2592SOL    HW1 8675   2.485   4.195   6.822
 2592SOL    HW2 8676   2.489   4.205   6.659
 2593SOL     OW 8677   3.313   5.758   0.924
 2593SOL    HW1 8678   3.361   5.678   0.961
 2593SOL    HW2 8679   3.354   5.841   0.960
 2594SOL     OW 8680   2.255   4.325   5.955
 2594SOL    HW1 8681   2.318   4.267   5.905
 2594SOL    HW2 8682   2.208   4.387   5.892
 2595SOL     OW 8683   1.348   1.450   4.086
 2595SOL    HW1 8684   1.332   1.355   4.060
 2595SOL    HW2 8685   1.282   1.477   4.156
 2596SOL     OW 8686   1.912   2.804   1.302
 2596SOL    HW1 8687   1.976   2.832   1.230
 2596SOL    HW2 8688   1.922   2.864   1.381
 2597SOL     OW 8689   0.547   5.069   6.076
 2597SOL    HW1 8690   0.557   5.007   6.154
 2597SOL    HW2 8691   0.637   5.105   6.050
 2598SOL     OW 8692   5.955   1.770   1.973
 2598SOL    HW1 8693   5.917   1.774   2.065
 2598SOL    HW2 8694   6.055   1.766   1.978
 2599SOL     OW 8695   3.265   6.042   1.776
 2599SOL    HW1 8696   3.192   6.107   1.755
 2599SOL    HW2 8697   3.289   5.991   1.694
 2600SOL     OW 8698   6.463   3.747   4.813
 2600SOL    HW1 8699   6.433   3.829   4.763
 2600SOL    HW2 8700   6.563   3.746   4.819
 2601SOL     OW 8701   1.318   1.408   2.236
 2601SOL    HW1 8702   1.271   1.481   2.286
 2601SOL    HW2 8703   1.252   1.339   2.208
 2602SOL     OW 8704   1.930   4.714   4.273
 2602SOL    HW1 8705   1.961   4.805   4.246
 2602SOL    HW2 8706   1.943   4.651   4.197
 2603SOL     OW 8707   2.835   1.151   2.012
 2603SOL    HW1 8708   2.883   1.160   2.100
 2603SOL    HW2 8709   2.873   1.073   1.961
 2604SOL     OW 8710   5.656   1.585   1.651
 2604SOL    HW1 8711   5.643   1.684   1.655
 2604SOL    HW2 8712   5.717   1.556   1.724
 2605SOL     OW 8713   1.257   3.979   2.125
 2605SOL    HW1 8714   1.246   3.879   2.117
 2605SOL    HW2 8715   1.337   4.007   2.072
 2606SOL     OW 8716   5.213   4.448   1.280
 2606SOL    HW1 8717   5.152   4.369   1.280
 2606SOL    HW2 8718   5.161   4.530   1.253
 2607SOL     OW 8719   1.607   2.345   0.935
 2607SOL    HW1 8720   1.535   2.412   0.916
 2607SOL    HW2 8721   1.625   2.290   0.854
 2608SOL     OW 8722   2.130   5.989   6.738
 2608SOL    HW1 8723   2.173   6.039   6.662
 2608SOL    HW2 8724   2.078   6.052   6.794
 2609SOL     OW 8725   0.485   1.025   1.327
 2609SOL    HW1 8726   0.396   0.981   1.330
 2609SOL    HW2 8727   0.513   1.051   1.420
 2610SOL     OW 8728   0.918   4.842   4.597
 2610SOL    HW1 8729   1.013   4.823   4.574
 2610SOL    HW2 8730   0.880   4.767   4.650
 2611SOL     OW 8731   4.726   6.584   6.986
 2611SOL    HW1 8732   4.796   6.596   0.033
 2611SOL    HW2 8733   4.674   6.669   6.975
 2612SOL     OW 8734   5.357   0.504   4.688
 2612SOL    HW1 8735   5.382   0.499   4.784
 2612SOL    HW2 8736   5.440   0.503   4.632
 2613SOL     OW 8737   0.586   5.539   6.690
 2613SOL    HW1 8738   0.576   5.568   6.595
 2613SOL    HW2 8739   0.532   5.599   6.749
 2614SOL     OW 8740   6.187   1.276   5.955
 2614SOL    HW1 8741   6.199   1.322   5.867
 2614SOL    HW2 8742   6.116   1.206   5.947
 2615SOL     OW 8743   1.186   3.627   1.192
 2615SOL    HW1 8744   1.163   3.672   1.106
 2615SOL    HW2 8745   1.105   3.625   1.251
 2616SOL     OW 8746   1.227   0.585   5.311
 2616SOL    HW1 8747   1.210   0.576   5.409
 2616SOL    HW2 8748   1.148   0.552   5.260
 2617SOL     OW 8749   5.645   0.350   0.421
 2617SOL    HW1 8750   5.611   0.293   0.347
 2617SOL    HW2 8751   5.646   0.297   0.506
 2618SOL     OW 8752   1.519   5.715   6.086
 2618SOL    HW1 8753   1.537   5.731   5.989
 2618SOL    HW2 8754   1.440   5.653   6.095
 2619SOL     OW 8755   4.387   1.734   1.875
 2619SOL    HW1 8756   4.393   1.769   1.969
 2619SOL    HW2 8757   4.337   1.798   1.819
 2620SOL     OW 8758   6.716   6.134   1.512
 2620SOL    HW1 8759   6.714   6.037   1.535
 2620SOL    HW2 8760   6.624   6.166   1.491
 2621SOL     OW 8761   1.129   5.742   2.801
 2621SOL    HW1 8762   1.226   5.716   2.798
 2621SOL    HW2 8763   1.113   5.820   2.740
 2622SOL     OW 8764   2.853   3.449   6.323
 2622SOL    HW1 8765   2.935   3.393   6.310
 2622SOL    HW2 8766   2.810   3.424   6.410
 2623SOL     OW 8767   0.589   6.951   3.796
 2623SOL    HW1 8768   0.565   6.924   3.703
 2623SOL    HW2 8769   0.574   6.874   3.858
 2624SOL     OW 8770   6.775   2.058   4.564
 2624SOL    HW1 8771   6.783   2.065   4.664
 2624SOL    HW2 8772   6.807   2.144   4.522
 2625SOL     OW 8773   1.655   5.226   5.488
 2625SOL    HW1 8774   1.753   5.222   5.510
 2625SOL    HW2 8775   1.626   5.321   5.481
 2626SOL     OW 8776   6.406   6.616   5.485
 2626SOL    HW1 8777   6.432   6.604   5.389
 2626SOL    HW2 8778   6.368   6.530   5.520
 2627SOL     OW 8779   1.113   6.699   5.729
 2627SOL    HW1 8780   1.183   6.693   5.658
 2627SOL    HW2 8781   1.157   6.703   5.819
 2628SOL     OW 8782   1.638   3.927   3.184
 2628SOL    HW1 8783   1.607   3.897   3.274
 2628SOL    HW2 8784   1.722   3.878   3.160
 2629SOL     OW 8785   3.321   4.123   3.341
 2629SOL    HW1 8786   3.281   4.198   3.288
 2629SOL    HW2 8787   3.356   4.054   3.278
 2630SOL     OW 8788   3.892   1.236   3.501
 2630SOL    HW1 8789   3.827   1.172   3.541
 2630SOL    HW2 8790   3.986   1.208   3.524
 2631SOL     OW 8791   5.544   0.720   6.851
 2631SOL    HW1 8792   5.587   0.630   6.845
 2631SOL    HW2 8793   5.496   0.728   6.938
 2632SOL     OW 8794   5.784   5.020   2.171
 2632SOL    HW1 8795   5.793   4.922   2.191
 2632SOL    HW2 8796   5.739   5.065   2.247
 2633SOL     OW 8797   6.822   2.979   5.318
 2633SOL    HW1 8798   6.885   2.903   5.335
 2633SOL    HW2 8799   6.790   2.977   5.223
 2634SOL     OW 8800   6.162   0.357   4.942
 2634SOL    HW1 8801   6.226   0.321   5.010
 2634SOL    HW2 8802   6.213   0.396   4.865
 2635SOL     OW 8803   5.279   5.497   3.925
 2635SOL    HW1 8804   5.301   5.546   3.840
 2635SOL    HW2 8805   5.331   5.536   4.001
 2636SOL     OW 8806   3.661   0.471   5.870
 2636SOL    HW1 8807   3.718   0.543   5.830
 2636SOL    HW2 8808   3.647   0.490   5.967
 2637SOL     OW 8809   1.488   1.365   3.054
 2637SOL    HW1 8810   1.527   1.456   3.067
 2637SOL    HW2 8811   1.388   1.371   3.059
 2638SOL     OW 8812   0.981   0.192   4.273
 2638SOL    HW1 8813   0.959   0.159   4.365
 2638SOL    HW2 8814   0.959   0.121   4.206
 2639SOL     OW 8815   4.783   5.303   4.410
 2639SOL    HW1 8816   4.798   5.228   4.474
 2639SOL    HW2 8817   4.852   5.299   4.337
 2640SOL     OW 8818   0.845   6.781   4.449
 2640SOL    HW1 8819   0.882   6.764   4.358
 2640SOL    HW2 8820   0.912   6.753   4.518
 2641SOL     OW 8821   5.058   2.453   6.962
 2641SOL    HW1 8822   5.036   2.458   6.865
 2641SOL    HW2 8823   5.023   2.534   7.009
 2642SOL     OW 8824   0.134   1.375   4.080
 2642SOL    HW1 8825   0.062   1.369   4.149
 2642SOL    HW2 8826   0.102   1.431   4.003
 2643SOL     OW 8827   1.081   4.042   3.276
 2643SOL    HW1 8828   1.179   4.062   3.277
 2643SOL    HW2 8829   1.057   3.999   3.188
 2644SOL     OW 8830   5.213   5.669   4.970
 2644SOL    HW1 8831   5.146   5.632   5.035
 2644SOL    HW2 8832   5.166   5.703   4.889
 2645SOL     OW 8833   4.815   4.801   3.355
 2645SOL    HW1 8834   4.814   4.887   3.406
 2645SOL    HW2 8835   4.726   4.755   3.365
 2646SOL     OW 8836   0.434   3.453   5.968
 2646SOL    HW1 8837   0.420   3.428   6.063
 2646SOL    HW2 8838   0.478   3.543   5.963
 2647SOL     OW 8839   5.053   6.961   1.703
 2647SOL    HW1 8840   5.133   6.904   1.720
 2647SOL    HW2 8841   5.073   0.002   1.629
 2648SOL     OW 8842   0.318   0.127   4.118
 2648SOL    HW1 8843   0.313   0.182   4.035
 2648SOL    HW2 8844   0.413   0.104   4.137
 2649SOL     OW 8845   4.819   2.351   2.162
 2649SOL    HW1 8846   4.888   2.423   2.162
 2649SOL    HW2 8847   4.835   2.290   2.084
 2650SOL     OW 8848   3.626   5.994   5.260
 2650SOL    HW1 8849   3.573   6.078   5.275
 2650SOL    HW2 8850   3.689   6.007   5.184
 2651SOL     OW 8851   4.268   1.895   5.195
 2651SOL    HW1 8852   4.337   1.827   5.169
 2651SOL    HW2 8853   4.297   1.986   5.165
 2652SOL     OW 8854   5.487   3.696   5.153
 2652SOL    HW1 8855   5.540   3.780   5.145
 2652SOL    HW2 8856   5.433   3.681   5.070
 2653SOL     OW 8857   3.125   6.490   6.638
 2653SOL    HW1 8858   3.133   6.394   6.662
 2653SOL    HW2 8859   3.039   6.526   6.675
 2654SOL     OW 8860   5.383   0.865   0.269
 2654SOL    HW1 8861   5.306   0.808   0.244
 2654SOL    HW2 8862   5.449   0.867   0.194
 2655SOL     OW 8863   5.177   6.275   3.030
 2655SOL    HW1 8864   5.091   6.318   3.059
 2655SOL    HW2 8865   5.158   6.182   3.000
 2656SOL     OW 8866   3.466   5.426   3.667
 2656SOL    HW1 8867   3.442   5.521   3.688
 2656SOL    HW2 8868   3.431   5.366   3.740
 2657SOL     OW 8869   2.735   3.459   0.328
 2657SOL    HW1 8870   2.788   3.377   0.305
 2657SOL    HW2 8871   2.656   3.432   0.384
 2658SOL     OW 8872   4.315   4.610   6.049
 2658SOL    HW1 8873   4.369   4.640   5.970
 2658SOL    HW2 8874   4.218   4.617   6.026
 2659SOL     OW 8875   6.288   2.186   4.678
 2659SOL    HW1 8876   6.266   2.274   4.636
 2659SOL    HW2 8877   6.205   2.133   4.689
 2660SOL     OW 8878   0.759   2.204   1.368
 2660SOL    HW1 8879   0.725   2.119   1.406
 2660SOL    HW2 8880   0.682   2.262   1.341
 2661SOL     OW 8881   1.662   0.975   1.038
 2661SOL    HW1 8882   1.578   1.026   1.057
 2661SOL    HW2 8883   1.738   1.017   1.088
 2662SOL     OW 8884   3.046   0.715   2.669
 2662SOL    HW1 8885   3.137   0.749   2.692
 2662SOL    HW2 8886   3.005   0.774   2.600
 2663SOL     OW 8887   4.094   6.870   6.337
 2663SOL    HW1 8888   3.999   6.841   6.323
 2663SOL    HW2 8889   4.149   6.790   6.360
 2664SOL     OW 8890   4.075   2.701   5.886
 2664SOL    HW1 8891   3.992   2.660   5.925
 2664SOL    HW2 8892   4.054   2.792   5.852
 2665SOL     OW 8893   2.258   4.143   5.339
 2665SOL    HW1 8894   2.293   4.103   5.255
 2665SOL    HW2 8895   2.312   4.111   5.417
 2666SOL     OW 8896   2.291   4.160   2.358
 2666SOL    HW1 8897   2.227   4.182   2.284
 2666SOL    HW2 8898   2.382   4.145   2.321
 2667SOL     OW 8899   5.680   4.171   3.834
 2667SOL    HW1 8900   5.681   4.075   3.807
 2667SOL    HW2 8901   5.732   4.183   3.918
 2668SOL     OW 8902   5.795   1.645   4.472
 2668SOL    HW1 8903   5.710   1.598   4.496
 2668SOL    HW2 8904   5.847   1.664   4.555
 2669SOL     OW 8905   2.064   0.543   0.745
 2669SOL    HW1 8906   2.084   0.636   0.715
 2669SOL    HW2 8907   1.985   0.508   0.695
 2670SOL     OW 8908   0.019   0.843   6.097
 2670SOL    HW1 8909   6.961   0.901   6.110
 2670SOL    HW2 8910   0.002   0.777   6.025
 2671SOL     OW 8911   4.163   5.395   5.702
 2671SOL    HW1 8912   4.128   5.480   5.740
 2671SOL    HW2 8913   4.184   5.407   5.605
 2672SOL     OW 8914   4.152   0.784   1.787
 2672SOL    HW1 8915   4.216   0.772   1.711
 2672SOL    HW2 8916   4.195   0.836   1.860
 2673SOL     OW 8917   5.175   0.122   2.543
 2673SOL    HW1 8918   5.106   0.050   2.551
 2673SOL    HW2 8919   5.131   0.207   2.512
 2674SOL     OW 8920   1.251   5.616   2.992
 2674SOL    HW1 8921   1.238   5.645   3.087
 2674SOL    HW2 8922   1.186   5.663   2.933
 2675SOL     OW 8923   6.159   0.041   4.157
 2675SOL    HW1 8924   6.232   0.105   4.178
 2675SOL    HW2 8925   6.197   6.981   4.115
 2676SOL     OW 8926   3.158   3.647   3.012
 2676SOL    HW1 8927   3.240   3.609   3.056
 2676SOL    HW2 8928   3.160   3.747   3.020
 2677SOL     OW 8929   2.138   4.973   1.456
 2677SOL    HW1 8930   2.105   4.972   1.361
 2677SOL    HW2 8931   2.158   4.879   1.484
 2678SOL     OW 8932   5.503   2.424   2.616
 2678SOL    HW1 8933   5.529   2.405   2.521
 2678SOL    HW2 8934   5.477   2.339   2.661
 2679SOL     OW 8935   2.236   5.156   3.391
 2679SOL    HW1 8936   2.271   5.154   3.485
 2679SOL    HW2 8937   2.290   5.094   3.334
 2680SOL     OW 8938   1.257   1.922   6.599
 2680SOL    HW1 8939   1.307   1.939   6.684
 2680SOL    HW2 8940   1.198   2.000   6.578
 2681SOL     OW 8941   1.570   2.377   5.215
 2681SOL    HW1 8942   1.614   2.306   5.271
 2681SOL    HW2 8943   1.631   2.402   5.140
 2682SOL     OW 8944   4.827   4.384   1.528
 2682SOL    HW1 8945   4.859   4.298   1.568
 2682SOL    HW2 8946   4.794   4.444   1.601
 2683SOL     OW 8947   1.980   4.294   2.764
 2683SOL    HW1 8948   2.035   4.261   2.687
 2683SOL    HW2 8949   1.947   4.217   2.818
 2684SOL     OW 8950   5.752   6.151   2.264
 2684SOL    HW1 8951   5.801   6.067   2.288
 2684SOL    HW2 8952   5.659   6.129   2.235
 2685SOL     OW 8953   0.549   5.881   4.979
 2685SOL    HW1 8954   0.649   5.886   4.974
 2685SOL    HW2 8955   0.512   5.972   4.996
 2686SOL     OW 8956   1.300   1.156   4.542
 2686SOL    HW1 8957   1.258   1.144   4.632
 2686SOL    HW2 8958   1.238   1.122   4.471
 2687SOL     OW 8959   4.044   1.445   1.921
 2687SOL    HW1 8960   3.994   1.498   1.853
 2687SOL    HW2 8961   4.020   1.349   1.914
 2688SOL     OW 8962   3.591   3.201   5.877
 2688SOL    HW1 8963   3.552   3.109   5.866
 2688SOL    HW2 8964   3.662   3.199   5.947
 2689SOL     OW 8965   0.799   3.919   3.248
 2689SOL    HW1 8966   0.708   3.957   3.267
 2689SOL    HW2 8967   0.839   3.968   3.170
 2690SOL     OW 8968   3.404   1.474   5.903
 2690SOL    HW1 8969   3.474   1.403   5.912
 2690SOL    HW2 8970   3.444   1.564   5.921
 2691SOL     OW 8971   0.292   4.475   3.601
 2691SOL    HW1 8972   0.231   4.462   3.522
 2691SOL    HW2 8973   0.381   4.434   3.582
 2692SOL     OW 8974   3.002   5.630   2.680
 2692SOL    HW1 8975   3.004   5.657   2.583
 2692SOL    HW2 8976   2.907   5.617   2.709
 2693SOL     OW 8977   1.677   5.653   3.636
 2693SOL    HW1 8978   1.642   5.607   3.554
 2693SOL    HW2 8979   1.693   5.749   3.616
 2694SOL     OW 8980   2.937   6.783   4.017
 2694SOL    HW1 8981   2.842   6.795   3.987
 2694SOL    HW2 8982   2.996   6.845   3.965
 2695SOL     OW 8983   6.751   5.871   3.071
 2695SOL    HW1 8984   6.846   5.902   3.071
 2695SOL    HW2 8985   6.697   5.931   3.130
 2696SOL     OW 8986   4.711   4.505   5.881
 2696SOL    HW1 8987   4.739   4.474   5.790
 2696SOL    HW2 8988   4.787   4.490   5.945
 2697SOL     OW 8989   3.882   2.470   0.691
 2697SOL    HW1 8990   3.852   2.375   0.700
 2697SOL    HW2 8991   3.805   2.525   0.658
 2698SOL     OW 8992   1.713   3.984   5.937
 2698SOL    HW1 8993   1.760   4.020   5.856
 2698SOL    HW2 8994   1.683   4.059   5.995
 2699SOL     OW 8995   3.469   5.727   2.002
 2699SOL    HW1 8996   3.435   5.700   2.092
 2699SOL    HW2 8997   3.567   5.708   1.996
 2700SOL     OW 8998   2.741   2.054   1.557
 2700SOL    HW1 8999   2.711   2.113   1.481
 2700SOL    HW2 9000   2.791   2.109   1.624
 2701SOL     OW 9001   5.057   2.943   4.589
 2701SOL    HW1 9002   5.076   2.895   4.674
 2701SOL    HW2 9003   4.968   2.989   4.595
 2702SOL     OW 9004   2.639   1.852   5.066
 2702SOL    HW1 9005   2.677   1.944   5.074
 2702SOL    HW2 9006   2.618   1.833   4.970
 2703SOL     OW 9007   1.311   6.575   2.199
 2703SOL    HW1 9008   1.396   6.624   2.222
 2703SOL    HW2 9009   1.314   6.547   2.103
 2704SOL     OW 9010   6.190   6.453   3.339
 2704SOL    HW1 9011   6.190   6.536   3.283
 2704SOL    HW2 9012   6.096   6.425   3.358
 2705SOL     OW 9013   0.486   0.500   4.767
 2705SOL    HW1 9014   0.472   0.585   4.718
 2705SOL    HW2 9015   0.404   0.478   4.821
 2706SOL     OW 9016   6.760   4.123   4.265
 2706SOL    HW1 9017   6.669   4.091   4.239
 2706SOL    HW2 9018   6.812   4.144   4.182
 2707SOL     OW 9019   3.899   0.438   2.783
 2707SOL    HW1 9020   3.927   0.466   2.875
 2707SOL    HW2 9021   3.956   0.483   2.715
 2708SOL     OW 9022   5.416   2.680   7.011
 2708SOL    HW1 9023   5.501   2.692   6.960
 2708SOL    HW2 9024   5.378   2.769   0.012
 2709SOL     OW 9025   5.461   0.537   5.009
 2709SOL    HW1 9026   5.560   0.542   5.024
 2709SOL    HW2 9027   5.415   0.599   5.073
 2710SOL     OW 9028   1.412   2.936   3.803
 2710SOL    HW1 9029   1.418   2.885   3.889
 2710SOL    HW2 9030   1.343   2.893   3.745
 2711SOL     OW 9031   3.658   1.904   2.940
 2711SOL    HW1 9032   3.676   1.861   3.029
 2711SOL    HW2 9033   3.698   1.849   2.867
 2712SOL     OW 9034   3.959   5.248   2.596
 2712SOL    HW1 9035   3.926   5.240   2.501
 2712SOL    HW2 9036   4.015   5.169   2.618
 2713SOL     OW 9037   3.902   4.793   6.391
 2713SOL    HW1 9038   3.844   4.729   6.440
 2713SOL    HW2 9039   3.998   4.773   6.411
 2714SOL     OW 9040   3.237   4.055   0.200
 2714SOL    HW1 9041   3.228   4.003   0.285
 2714SOL    HW2 9042   3.186   4.141   0.208
 2715SOL     OW 9043   4.489   0.817   0.894
 2715SOL    HW1 9044   4.466   0.720   0.893
 2715SOL    HW2 9045   4.529   0.841   0.982
 2716SOL     OW 9046   4.053   1.924   2.640
 2716SOL    HW1 9047   4.042   1.869   2.557
 2716SOL    HW2 9048   3.989   2.001   2.637
 2717SOL     OW 9049   0.803   1.478   2.768
 2717SOL    HW1 9050   0.707   1.507   2.771
 2717SOL    HW2 9051   0.840   1.494   2.677
 2718SOL     OW 9052   0.331   0.228   6.016
 2718SOL    HW1 9053   0.289   0.218   6.106
 2718SOL    HW2 9054   0.388   0.148   5.997
 2719SOL     OW 9055   1.795   3.805   2.251
 2719SOL    HW1 9056   1.796   3.740   2.327
 2719SOL    HW2 9057   1.848   3.886   2.275
 2720SOL     OW 9058   1.364   6.554   5.235
 2720SOL    HW1 9059   1.265   6.545   5.236
 2720SOL    HW2 9060   1.390   6.635   5.183
 2721SOL     OW 9061   3.329   5.505   1.793
 2721SOL    HW1 9062   3.278   5.457   1.721
 2721SOL    HW2 9063   3.306   5.602   1.790
 2722SOL     OW 9064   4.503   5.243   6.713
 2722SOL    HW1 9065   4.444   5.165   6.735
 2722SOL    HW2 9066   4.533   5.235   6.618
 2723SOL     OW 9067   3.168   6.668   0.582
 2723SOL    HW1 9068   3.195   6.572   0.579
 2723SOL    HW2 9069   3.084   6.681   0.529
 2724SOL     OW 9070   1.324   5.811   1.002
 2724SOL    HW1 9071   1.267   5.789   1.082
 2724SOL    HW2 9072   1.415   5.771   1.015
 2725SOL     OW 9073   5.703   3.679   4.651
 2725SOL    HW1 9074   5.663   3.658   4.562
 2725SOL    HW2 9075   5.630   3.709   4.713
 2726SOL     OW 9076   0.340   1.682   1.296
 2726SOL    HW1 9077   0.295   1.756   1.345
 2726SOL    HW2 9078   0.291   1.666   1.210
 2727SOL     OW 9079   2.223   4.193   4.430
 2727SOL    HW1 9080   2.246   4.254   4.354
 2727SOL    HW2 9081   2.235   4.098   4.401
 2728SOL     OW 9082   5.065   5.383   6.479
 2728SOL    HW1 9083   5.137   5.424   6.536
 2728SOL    HW2 9084   4.981   5.374   6.533
 2729SOL     OW 9085   5.642   6.034   5.990
 2729SOL    HW1 9086   5.621   5.953   6.045
 2729SOL    HW2 9087   5.741   6.044   5.982
 2730SOL     OW 9088   0.582   5.864   2.125
 2730SOL    HW1 9089   0.504   5.832   2.179
 2730SOL    HW2 9090   0.593   5.806   2.044
 2731SOL     OW 9091   3.450   2.861   3.425
 2731SOL    HW1 9092   3.399   2.908   3.497
 2731SOL    HW2 9093   3.393   2.787   3.387
 2732SOL     OW 9094   5.514   1.349   1.662
 2732SOL    HW1 9095   5.555   1.439   1.650
 2732SOL    HW2 9096   5.414   1.358   1.661
 2733SOL     OW 9097   0.608   0.356   5.977
 2733SOL    HW1 9098   0.508   0.345   5.975
 2733SOL    HW2 9099   0.650   0.273   6.013
 2734SOL     OW 9100   3.482   5.807   1.745
 2734SOL    HW1 9101   3.572   5.764   1.735
 2734SOL    HW2 9102   3.464   5.824   1.842
 2735SOL     OW 9103   0.584   1.897   1.321
 2735SOL    HW1 9104   0.522   1.827   1.355
 2735SOL    HW2 9105   0.634   1.861   1.242
 2736SOL     OW 9106   4.405   5.650   2.791
 2736SOL    HW1 9107   4.319   5.667   2.838
 2736SOL    HW2 9108   4.447   5.737   2.764
 2737SOL     OW 9109   2.499   1.798   6.613
 2737SOL    HW1 9110   2.542   1.879   6.574
 2737SOL    HW2 9111   2.401   1.814   6.625
 2738SOL     OW 9112   5.833   0.186   1.324
 2738SOL    HW1 9113   5.802   0.093   1.307
 2738SOL    HW2 9114   5.927   0.184   1.357
 2739SOL     OW 9115   0.816   5.392   2.309
 2739SOL    HW1 9116   0.802   5.491   2.306
 2739SOL    HW2 9117   0.798   5.359   2.402
 2740SOL     OW 9118   6.746   5.924   2.795
 2740SOL    HW1 9119   6.723   5.884   2.883
 2740SOL    HW2 9120   6.845   5.921   2.782
 2741SOL     OW 9121   1.371   2.487   4.266
 2741SOL    HW1 9122   1.278   2.511   4.295
 2741SOL    HW2 9123   1.399   2.401   4.310
 2742SOL     OW 9124   3.288   4.828   2.005
 2742SOL    HW1 9125   3.384   4.799   2.004
 2742SOL    HW2 9126   3.284   4.928   1.998
 2743SOL     OW 9127   6.122   4.331   2.232
 2743SOL    HW1 9128   6.161   4.410   2.185
 2743SOL    HW2 9129   6.191   4.290   2.292
 2744SOL     OW 9130   3.470   3.732   2.918
 2744SOL    HW1 9131   3.447   3.635   2.905
 2744SOL    HW2 9132   3.404   3.788   2.869
 2745SOL     OW 9133   6.938   0.503   5.661
 2745SOL    HW1 9134   6.970   0.554   5.581
 2745SOL    HW2 9135   6.903   0.414   5.632
 2746SOL     OW 9136   1.625   0.844   3.244
 2746SOL    HW1 9137   1.678   0.915   3.197
 2746SOL    HW2 9138   1.593   0.777   3.178
 2747SOL     OW 9139   3.730   6.241   1.132
 2747SOL    HW1 9140   3.751   6.227   1.229
 2747SOL    HW2 9141   3.809   6.280   1.086
 2748SOL     OW 9142   4.409   6.533   1.159
 2748SOL    HW1 9143   4.397   6.588   1.076
 2748SOL    HW2 9144   4.420   6.437   1.135
 2749SOL     OW 9145   2.093   3.458   0.552
 2749SOL    HW1 9146   2.104   3.555   0.574
 2749SOL    HW2 9147   2.024   3.448   0.480
 2750SOL     OW 9148   2.409   5.426   2.513
 2750SOL    HW1 9149   2.434   5.520   2.534
 2750SOL    HW2 9150   2.314   5.410   2.538
 2751SOL     OW 9151   1.371   2.900   1.441
 2751SOL    HW1 9152   1.310   2.968   1.400
 2751SOL    HW2 9153   1.466   2.926   1.423
 2752SOL     OW 9154   4.026   4.487   6.017
 2752SOL    HW1 9155   4.009   4.580   6.049
 2752SOL    HW2 9156   4.027   4.424   6.096
 2753SOL     OW 9157   6.119   6.254   5.050
 2753SOL    HW1 9158   6.045   6.309   5.090
 2753SOL    HW2 9159   6.147   6.184   5.115
 2754SOL     OW 9160   0.463   6.485   6.315
 2754SOL    HW1 9161   0.419   6.532   6.391
 2754SOL    HW2 9162   0.556   6.458   6.341
 2755SOL     OW 9163   2.900   6.703   3.343
 2755SOL    HW1 9164   2.977   6.639   3.335
 2755SOL    HW2 9165   2.815   6.651   3.354
 2756SOL     OW 9166   5.325   6.404   0.192
 2756SOL    HW1 9167   5.231   6.380   0.216
 2756SOL    HW2 9168   5.365   6.460   0.264
 2757SOL     OW 9169   0.677   5.049   1.380
 2757SOL    HW1 9170   0.593   5.103   1.370
 2757SOL    HW2 9171   0.746   5.082   1.317
 2758SOL     OW 9172   4.840   0.980   5.865
 2758SOL    HW1 9173   4.878   0.917   5.932
 2758SOL    HW2 9174   4.766   1.033   5.907
 2759SOL     OW 9175   5.580   6.491   4.319
 2759SOL    HW1 9176   5.603   6.470   4.224
 2759SOL    HW2 9177   5.480   6.493   4.329
 2760SOL     OW 9178   2.267   5.235   2.349
 2760SOL    HW1 9179   2.340   5.193   2.402
 2760SOL    HW2 9180   2.250   5.181   2.266
 2761SOL     OW 9181   1.679   5.642   2.834
 2761SOL    HW1 9182   1.741   5.716   2.858
 2761SOL    HW2 9183   1.732   5.559   2.815
 2762SOL     OW 9184   1.375   6.341   5.396
 2762SOL    HW1 9185   1.401   6.410   5.328
 2762SOL    HW2 9186   1.277   6.347   5.414
 2763SOL     OW 9187   5.801   2.411   3.654
 2763SOL    HW1 9188   5.810   2.370   3.563
 2763SOL    HW2 9189   5.853   2.497   3.658
 2764SOL     OW 9190   5.297   0.435   1.007
 2764SOL    HW1 9191   5.342   0.512   1.052
 2764SOL    HW2 9192   5.213   0.466   0.962
 2765SOL     OW 9193   5.858   1.531   1.837
 2765SOL    HW1 9194   5.900   1.619   1.856
 2765SOL    HW2 9195   5.922   1.474   1.786
 2766SOL     OW 9196   5.737   1.494   1.324
 2766SOL    HW1 9197   5.810   1.550   1.285
 2766SOL    HW2 9198   5.775   1.431   1.391
 2767SOL     OW 9199   5.799   3.663   6.104
 2767SOL    HW1 9200   5.815   3.653   6.006
 2767SOL    HW2 9201   5.710   3.705   6.119
 2768SOL     OW 9202   5.012   1.541   6.815
 2768SOL    HW1 9203   5.096   1.572   6.770
 2768SOL    HW2 9204   5.034   1.505   6.906
 2769SOL     OW 9205   6.822   4.025   2.333
 2769SOL    HW1 9206   6.788   4.070   2.251
 2769SOL    HW2 9207   6.749   3.967   2.372
 2770SOL     OW 9208   1.446   5.046   1.980
 2770SOL    HW1 9209   1.362   5.014   1.935
 2770SOL    HW2 9210   1.449   5.012   2.074
 2771SOL     OW 9211   5.508   2.038   1.292
 2771SOL    HW1 9212   5.479   1.993   1.208
 2771SOL    HW2 9213   5.464   1.994   1.371
 2772SOL     OW 9214   4.268   2.725   0.096
 2772SOL    HW1 9215   4.366   2.742   0.086
 2772SOL    HW2 9216   4.237   2.669   0.020
 2773SOL     OW 9217   4.664   4.213   6.176
 2773SOL    HW1 9218   4.595   4.284   6.162
 2773SOL    HW2 9219   4.742   4.253   6.225
 2774SOL     OW 9220   5.851   3.134   1.928
 2774SOL    HW1 9221   5.878   3.048   1.885
 2774SOL    HW2 9222   5.904   3.148   2.012
 2775SOL     OW 9223   0.142   5.704   1.178
 2775SOL    HW1 9224   0.186   5.626   1.221
 2775SOL    HW2 9225   0.072   5.741   1.240
 2776SOL     OW 9226   3.893   6.653   5.876
 2776SOL    HW1 9227   3.815   6.669   5.937
 2776SOL    HW2 9228   3.978   6.659   5.928
 2777SOL     OW 9229   3.225   1.335   2.423
 2777SOL    HW1 9230   3.300   1.379   2.374
 2777SOL    HW2 9231   3.173   1.277   2.359
 2778SOL     OW 9232   2.227   1.959   5.929
 2778SOL    HW1 9233   2.141   1.964   5.979
 2778SOL    HW2 9234   2.294   1.907   5.983
 2779SOL     OW 9235   5.212   0.075   6.799
 2779SOL    HW1 9236   5.246   0.095   6.890
 2779SOL    HW2 9237   5.122   0.117   6.787
 2780SOL     OW 9238   4.569   5.132   6.453
 2780SOL    HW1 9239   4.555   5.033   6.461
 2780SOL    HW2 9240   4.639   5.150   6.384
 2781SOL     OW 9241   6.054   4.473   1.866
 2781SOL    HW1 9242   6.131   4.422   1.826
 2781SOL    HW2 9243   5.991   4.408   1.910
 2782SOL     OW 9244   3.299   2.162   6.351
 2782SOL    HW1 9245   3.344   2.074   6.361
 2782SOL    HW2 9246   3.247   2.183   6.433
 2783SOL     OW 9247   0.101   4.415   5.558
 2783SOL    HW1 9248   0.044   4.490   5.524
 2783SOL    HW2 9249   0.143   4.442   5.645
 2784SOL     OW 9250   1.943   2.460   1.064
 2784SOL    HW1 9251   1.972   2.472   1.159
 2784SOL    HW2 9252   1.916   2.364   1.050
 2785SOL     OW 9253   6.374   0.861   0.276
 2785SOL    HW1 9254   6.322   0.939   0.310
 2785SOL    HW2 9255   6.448   0.840   0.340
 2786SOL     OW 9256   4.110   6.566   0.695
 2786SOL    HW1 9257   4.054   6.643   0.665
 2786SOL    HW2 9258   4.085   6.484   0.645
 2787SOL     OW 9259   2.000   3.018   6.335
 2787SOL    HW1 9260   2.024   3.115   6.345
 2787SOL    HW2 9261   2.027   2.987   6.244
 2788SOL     OW 9262   2.854   4.582   0.476
 2788SOL    HW1 9263   2.931   4.591   0.414
 2788SOL    HW2 9264   2.888   4.571   0.570
 2789SOL     OW 9265   1.151   1.375   3.818
 2789SOL    HW1 9266   1.204   1.447   3.773
 2789SOL    HW2 9267   1.210   1.323   3.879
 2790SOL     OW 9268   3.325   5.071   3.257
 2790SOL    HW1 9269   3.332   5.166   3.225
 2790SOL    HW2 9270   3.250   5.064   3.323
 2791SOL     OW 9271   1.556   4.021   5.006
 2791SOL    HW1 9272   1.627   3.957   5.035
 2791SOL    HW2 9273   1.477   4.014   5.067
 2792SOL     OW 9274   1.049   0.950   4.951
 2792SOL    HW1 9275   1.037   0.960   5.050
 2792SOL    HW2 9276   0.990   0.876   4.919
 2793SOL     OW 9277   5.291   1.231   2.602
 2793SOL    HW1 9278   5.308   1.165   2.675
 2793SOL    HW2 9279   5.370   1.235   2.541
 2794SOL     OW 9280   0.196   1.963   0.114
 2794SOL    HW1 9281   0.133   1.903   0.064
 2794SOL    HW2 9282   0.290   1.933   0.096
 2795SOL     OW 9283   2.940   4.135   1.172
 2795SOL    HW1 9284   3.031   4.146   1.213
 2795SOL    HW2 9285   2.870   4.143   1.243
 2796SOL     OW 9286   5.959   3.790   2.838
 2796SOL    HW1 9287   5.928   3.827   2.925
 2796SOL    HW2 9288   5.880   3.767   2.781
 2797SOL     OW 9289   4.958   5.503   4.825
 2797SOL    HW1 9290   5.013   5.454   4.893
 2797SOL    HW2 9291   5.010   5.580   4.789
 2798SOL     OW 9292   1.140   3.938   3.528
 2798SOL    HW1 9293   1.090   3.900   3.450
 2798SOL    HW2 9294   1.119   4.035   3.537
 2799SOL     OW 9295   6.911   5.072   6.128
 2799SOL    HW1 9296   6.999   5.088   6.173
 2799SOL    HW2 9297   6.865   5.159   6.111
 2800SOL     OW 9298   3.924   4.756   6.714
 2800SOL    HW1 9299   4.021   4.733   6.709
 2800SOL    HW2 9300   3.871   4.690   6.660
 2801SOL     OW 9301   4.957   5.379   2.459
 2801SOL    HW1 9302   5.039   5.414   2.414
 2801SOL    HW2 9303   4.961   5.279   2.462
 2802SOL     OW 9304   4.002   1.584   5.389
 2802SOL    HW1 9305   3.964   1.500   5.427
 2802SOL    HW2 9306   4.025   1.648   5.463
 2803SOL     OW 9307   2.393   6.398   6.199
 2803SOL    HW1 9308   2.485   6.386   6.161
 2803SOL    HW2 9309   2.384   6.491   6.235
 2804SOL     OW 9310   6.726   4.606   3.879
 2804SOL    HW1 9311   6.710   4.645   3.789
 2804SOL    HW2 9312   6.638   4.591   3.925
 2805SOL     OW 9313   5.398   2.784   1.039
 2805SOL    HW1 9314   5.386   2.692   1.001
 2805SOL    HW2 9315   5.347   2.791   1.125
 2806SOL     OW 9316   6.209   5.096   3.082
 2806SOL    HW1 9317   6.136   5.157   3.114
 2806SOL    HW2 9318   6.297   5.140   3.097
 2807SOL     OW 9319   4.219   4.661   3.711
 2807SOL    HW1 9320   4.153   4.711   3.766
 2807SOL    HW2 9321   4.277   4.605   3.770
 2808SOL     OW 9322   5.514   1.483   3.213
 2808SOL    HW1 9323   5.437   1.546   3.223
 2808SOL    HW2 9324   5.526   1.433   3.299
 2809SOL     OW 9325   6.188   2.637   1.284
 2809SOL    HW1 9326   6.169   2.694   1.204
 2809SOL    HW2 9327   6.136   2.552   1.276
 2810SOL     OW 9328   2.826   6.911   5.397
 2810SOL    HW1 9329   2.880   6.853   5.335
 2810SOL    HW2 9330   2.871   6.914   5.486
 2811SOL     OW 9331   0.816   0.845   2.511
 2811SOL    HW1 9332   0.771   0.905   2.444
 2811SOL    HW2 9333   0.866   0.773   2.462
 2812SOL     OW 9334   4.859   3.914   2.759
 2812SOL    HW1 9335   4.853   3.832   2.702
 2812SOL    HW2 9336   4.901   3.988   2.706
 2813SOL     OW 9337   6.315   6.915   5.486
 2813SOL    HW1 9338   6.410   6.935   5.510
 2813SOL    HW2 9339   6.282   6.838   5.542
 2814SOL     OW 9340   4.258   4.209   5.849
 2814SOL    HW1 9341   4.187   4.264   5.803
 2814SOL    HW2 9342   4.293   4.141   5.785
 2815SOL     OW 9343   6.543   1.176   4.458
 2815SOL    HW1 9344   6.534   1.257   4.517
 2815SOL    HW2 9345   6.472   1.110   4.481
 2816SOL     OW 9346   5.963   7.021   3.733
 2816SOL    HW1 9347   5.872   0.024   3.764
 2816SOL    HW2 9348   6.016   0.081   3.714
 2817SOL     OW 9349   1.614   1.259   1.346
 2817SOL    HW1 9350   1.701   1.309   1.356
 2817SOL    HW2 9351   1.588   1.221   1.434
 2818SOL     OW 9352   6.762   4.757   6.369
 2818SOL    HW1 9353   6.723   4.770   6.278
 2818SOL    HW2 9354   6.857   4.727   6.361
 2819SOL     OW 9355   0.305   2.766   0.458
 2819SOL    HW1 9356   0.326   2.777   0.556
 2819SOL    HW2 9357   0.388   2.780   0.405
 2820SOL     OW 9358   0.202   2.553   2.965
 2820SOL    HW1 9359   0.233   2.463   2.933
 2820SOL    HW2 9360   0.166   2.545   3.058
 2821SOL     OW 9361   2.295   4.431   5.382
 2821SOL    HW1 9362   2.222   4.484   5.427
 2821SOL    HW2 9363   2.264   4.337   5.369
 2822SOL     OW 9364   4.798   2.407   0.088
 2822SOL    HW1 9365   4.824   2.478   0.153
 2822SOL    HW2 9366   4.881   2.367   0.047
 2823SOL     OW 9367   2.576   6.550   2.746
 2823SOL    HW1 9368   2.480   6.577   2.742
 2823SOL    HW2 9369   2.585   6.455   2.716
 2824SOL     OW 9370   2.381   1.172   5.153
 2824SOL    HW1 9371   2.329   1.100   5.106
 2824SOL    HW2 9372   2.332   1.199   5.235
 2825SOL     OW 9373   6.936   6.338   0.980
 2825SOL    HW1 9374   6.865   6.268   0.970
 2825SOL    HW2 9375   6.951   6.356   1.077
 2826SOL     OW 9376   5.346   2.166   5.556
 2826SOL    HW1 9377   5.299   2.087   5.517
 2826SOL    HW2 9378   5.354   2.237   5.486
 2827SOL     OW 9379   6.457   1.499   4.967
 2827SOL    HW1 9380   6.407   1.571   5.016
 2827SOL    HW2 9381   6.556   1.515   4.977
 2828SOL     OW 9382   4.160   1.077   6.183
 2828SOL    HW1 9383   4.130   1.172   6.194
 2828SOL    HW2 9384   4.080   1.017   6.191
 2829SOL     OW 9385   3.779   5.365   6.410
 2829SOL    HW1 9386   3.814   5.318   6.490
 2829SOL    HW2 9387   3.732   5.300   6.350
 2830SOL     OW 9388   5.428   3.291   6.238
 2830SOL    HW1 9389   5.362   3.366   6.231
 2830SOL    HW2 9390   5.519   3.324   6.216
 2831SOL     OW 9391   5.692   6.345   4.528
 2831SOL    HW1 9392   5.607   6.312   4.570
 2831SOL    HW2 9393   5.670   6.403   4.450
 2832SOL     OW 9394   0.162   1.398   1.050
 2832SOL    HW1 9395   0.092   1.408   0.979
 2832SOL    HW2 9396   0.186   1.302   1.061
 2833SOL     OW 9397   5.932   2.235   1.967
 2833SOL    HW1 9398   5.959   2.282   2.051
 2833SOL    HW2 9399   5.844   2.190   1.980
 2834SOL     OW 9400   3.364   1.469   6.523
 2834SOL    HW1 9401   3.400   1.479   6.430
 2834SOL    HW2 9402   3.431   1.420   6.579
 2835SOL     OW 9403   0.469   6.761   1.872
 2835SOL    HW1 9404   0.502   6.787   1.963
 2835SOL    HW2 9405   0.516   6.816   1.803
 2836SOL     OW 9406   6.604   6.787   1.661
 2836SOL    HW1 9407   6.632   6.857   1.727
 2836SOL    HW2 9408   6.638   6.698   1.690
 2837SOL     OW 9409   5.185   3.602   3.379
 2837SOL    HW1 9410   5.134   3.649   3.452
 2837SOL    HW2 9411   5.122   3.575   3.307
 2838SOL     OW 9412   2.543   4.629   1.894
 2838SOL    HW1 9413   2.572   4.648   1.800
 2838SOL    HW2 9414   2.623   4.603   1.949
 2839SOL     OW 9415   5.689   1.471   2.082
 2839SOL    HW1 9416   5.721   1.481   2.177
 2839SOL    HW2 9417   5.654   1.558   2.049
 2840SOL     OW 9418   0.146   1.584   4.833
 2840SOL    HW1 9419   0.191   1.667   4.866
 2840SOL    HW2 9420   0.099   1.603   4.747
 2841SOL     OW 9421   0.987   6.321   0.448
 2841SOL    HW1 9422   1.026   6.240   0.406
 2841SOL    HW2 9423   0.887   6.317   0.442
 2842SOL     OW 9424   0.013   3.343   3.956
 2842SOL    HW1 9425   0.052   3.434   3.942
 2842SOL    HW2 9426   7.006   3.334   4.051
 2843SOL     OW 9427   3.764   1.083   4.467
 2843SOL    HW1 9428   3.682   1.105   4.414
 2843SOL    HW2 9429   3.826   1.161   4.466
 2844SOL     OW 9430   1.224   3.956   6.989
 2844SOL    HW1 9431   1.128   3.954   6.961
 2844SOL    HW2 9432   1.243   4.042   0.014
 2845SOL     OW 9433   0.526   3.804   0.253
 2845SOL    HW1 9434   0.449   3.845   0.202
 2845SOL    HW2 9435   0.571   3.736   0.195
 2846SOL     OW 9436   5.075   1.560   0.105
 2846SOL    HW1 9437   4.985   1.519   0.093
 2846SOL    HW2 9438   5.069   1.658   0.090
 2847SOL     OW 9439   5.924   4.326   3.657
 2847SOL    HW1 9440   5.931   4.417   3.700
 2847SOL    HW2 9441   5.859   4.270   3.709
 2848SOL     OW 9442   0.473   4.405   5.398
 2848SOL    HW1 9443   0.488   4.311   5.368
 2848SOL    HW2 9444   0.391   4.441   5.354
 2849SOL     OW 9445   3.267   1.075   0.371
 2849SOL    HW1 9446   3.258   1.084   0.272
 2849SOL    HW2 9447   3.318   0.992   0.393
 2850SOL     OW 9448   2.996   0.193   1.169
 2850SOL    HW1 9449   2.941   0.114   1.197
 2850SOL    HW2 9450   3.093   0.168   1.171
 2851SOL     OW 9451   1.172   4.682   5.360
 2851SOL    HW1 9452   1.116   4.748   5.311
 2851SOL    HW2 9453   1.227   4.729   5.429
 2852SOL     OW 9454   6.122   3.381   6.438
 2852SOL    HW1 9455   6.190   3.436   6.487
 2852SOL    HW2 9456   6.065   3.441   6.382
 2853SOL     OW 9457   3.380   2.564   0.682
 2853SOL    HW1 9458   3.469   2.529   0.654
 2853SOL    HW2 9459   3.354   2.522   0.769
 2854SOL     OW 9460   2.444   0.851   4.552
 2854SOL    HW1 9461   2.396   0.929   4.512
 2854SOL    HW2 9462   2.381   0.799   4.610
 2855SOL     OW 9463   1.937   0.694   5.806
 2855SOL    HW1 9464   1.989   0.691   5.721
 2855SOL    HW2 9465   1.975   0.764   5.866
 2856SOL     OW 9466   2.305   2.402   5.734
 2856SOL    HW1 9467   2.289   2.340   5.810
 2856SOL    HW2 9468   2.401   2.427   5.730
 2857SOL     OW 9469   2.518   1.608   1.411
 2857SOL    HW1 9470   2.587   1.542   1.442
 2857SOL    HW2 9471   2.490   1.665   1.488
 2858SOL     OW 9472   6.540   2.787   2.156
 2858SOL    HW1 9473   6.445   2.760   2.142
 2858SOL    HW2 9474   6.560   2.790   2.254
 2859SOL     OW 9475   4.717   0.738   0.690
 2859SOL    HW1 9476   4.639   0.782   0.732
 2859SOL    HW2 9477   4.800   0.792   0.706
 2860SOL     OW 9478   3.793   2.037   1.700
 2860SOL    HW1 9479   3.780   2.136   1.710
 2860SOL    HW2 9480   3.714   1.989   1.738
 2861SOL     OW 9481   4.569   5.469   5.682
 2861SOL    HW1 9482   4.574   5.398   5.753
 2861SOL    HW2 9483   4.528   5.431   5.599
 2862SOL     OW 9484   5.687   2.000   3.799
 2862SOL    HW1 9485   5.771   2.002   3.853
 2862SOL    HW2 9486   5.665   1.905   3.777
 2863SOL     OW 9487   6.389   2.051   0.213
 2863SOL    HW1 9488   6.391   2.035   0.311
 2863SOL    HW2 9489   6.480   2.077   0.181
 2864SOL     OW 9490   3.871   0.577   1.065
 2864SOL    HW1 9491   3.792   0.632   1.037
 2864SOL    HW2 9492   3.845   0.480   1.066
 2865SOL     OW 9493   4.398   4.318   5.336
 2865SOL    HW1 9494   4.366   4.377   5.262
 2865SOL    HW2 9495   4.469   4.365   5.388
 2866SOL     OW 9496   6.823   6.310   6.778
 2866SOL    HW1 9497   6.815   6.391   6.721
 2866SOL    HW2 9498   6.739   6.299   6.832
 2867SOL     OW 9499   5.821   4.528   2.541
 2867SOL    HW1 9500   5.847   4.484   2.627
 2867SOL    HW2 9501   5.901   4.571   2.500
 2868SOL     OW 9502   0.425   3.759   5.505
 2868SOL    HW1 9503   0.419   3.854   5.537
 2868SOL    HW2 9504   0.376   3.699   5.568
 2869SOL     OW 9505   6.338   0.501   2.415
 2869SOL    HW1 9506   6.300   0.448   2.490
 2869SOL    HW2 9507   6.296   0.473   2.329
 2870SOL     OW 9508   6.583   1.938   3.746
 2870SOL    HW1 9509   6.665   1.919   3.691
 2870SOL    HW2 9510   6.516   1.986   3.689
 2871SOL     OW 9511   1.901   1.857   6.534
 2871SOL    HW1 9512   1.863   1.767   6.509
 2871SOL    HW2 9513   1.830   1.910   6.580
 2872SOL     OW 9514   2.681   1.190   4.005
 2872SOL    HW1 9515   2.766   1.137   4.000
 2872SOL    HW2 9516   2.659   1.209   4.100
 2873SOL     OW 9517   0.432   5.779   2.541
 2873SOL    HW1 9518   0.524   5.752   2.567
 2873SOL    HW2 9519   0.382   5.812   2.622
 2874SOL     OW 9520   5.215   3.884   2.317
 2874SOL    HW1 9521   5.133   3.834   2.288
 2874SOL    HW2 9522   5.211   3.900   2.415
 2875SOL     OW 9523   3.698   6.776   6.036
 2875SOL    HW1 9524   3.621   6.832   6.004
 2875SOL    HW2 9525   3.770   6.835   6.073
 2876SOL     OW 9526   0.648   1.215   1.619
 2876SOL    HW1 9527   0.580   1.142   1.621
 2876SOL    HW2 9528   0.631   1.279   1.694
 2877SOL     OW 9529   3.382   2.879   5.271
 2877SOL    HW1 9530   3.478   2.907   5.260
 2877SOL    HW2 9531   3.372   2.783   5.246
 2878SOL     OW 9532   2.546   4.620   4.736
 2878SOL    HW1 9533   2.609   4.618   4.814
 2878SOL    HW2 9534   2.488   4.538   4.738
 2879SOL     OW 9535   5.156   5.128   6.856
 2879SOL    HW1 9536   5.197   5.218   6.841
 2879SOL    HW2 9537   5.211   5.058   6.812
 2880SOL     OW 9538   0.280   5.808   0.666
 2880SOL    HW1 9539   0.216   5.815   0.743
 2880SOL    HW2 9540   0.260   5.880   0.600
 2881SOL     OW 9541   6.233   6.217   0.726
 2881SOL    HW1 9542   6.201   6.263   0.643
 2881SOL    HW2 9543   6.301   6.148   0.701
 2882SOL     OW 9544   0.140   3.224   2.501
 2882SOL    HW1 9545   0.128   3.185   2.410
 2882SOL    HW2 9546   0.137   3.150   2.569
 2883SOL     OW 9547   3.617   6.860   3.571
 2883SOL    HW1 9548   3.712   6.883   3.590
 2883SOL    HW2 9549   3.557   6.918   3.626
 2884SOL     OW 9550   0.757   6.671   2.920
 2884SOL    HW1 9551   0.759   6.617   2.836
 2884SOL    HW2 9552   0.666   6.664   2.962
 2885SOL     OW 9553   0.308   2.278   2.959
 2885SOL    HW1 9554   0.233   2.215   2.978
 2885SOL    HW2 9555   0.309   2.301   2.861
 2886SOL     OW 9556   1.778   2.554   0.031
 2886SOL    HW1 9557   1.864   2.502   0.032
 2886SOL    HW2 9558   1.799   2.652   0.038
 2887SOL     OW 9559   2.510   0.180   5.331
 2887SOL    HW1 9560   2.542   0.086   5.344
 2887SOL    HW2 9561   2.470   0.214   5.416
 2888SOL     OW 9562   6.799   4.614   6.689
 2888SOL    HW1 9563   6.812   4.711   6.668
 2888SOL    HW2 9564   6.711   4.602   6.734
 2889SOL     OW 9565   1.688   0.829   1.705
 2889SOL    HW1 9566   1.727   0.852   1.616
 2889SOL    HW2 9567   1.668   0.731   1.707
 2890SOL     OW 9568   3.369   0.506   1.504
 2890SOL    HW1 9569   3.349   0.408   1.505
 2890SOL    HW2 9570   3.331   0.547   1.421
 2891SOL     OW 9571   2.197   4.581   3.329
 2891SOL    HW1 9572   2.213   4.646   3.403
 2891SOL    HW2 9573   2.278   4.574   3.271
 2892SOL     OW 9574   3.852   4.199   6.534
 2892SOL    HW1 9575   3.762   4.181   6.495
 2892SOL    HW2 9576   3.889   4.115   6.573
 2893SOL     OW 9577   2.108   6.518   5.748
 2893SOL    HW1 9578   2.168   6.503   5.827
 2893SOL    HW2 9579   2.013   6.512   5.777
 2894SOL     OW 9580   2.875   2.802   6.719
 2894SOL    HW1 9581   2.892   2.858   6.800
 2894SOL    HW2 9582   2.779   2.775   6.718
 2895SOL     OW 9583   3.867   3.014   6.666
 2895SOL    HW1 9584   3.902   2.951   6.735
 2895SOL    HW2 9585   3.773   2.989   6.643
 2896SOL     OW 9586   2.754   5.458   0.287
 2896SOL    HW1 9587   2.805   5.375   0.309
 2896SOL    HW2 9588   2.672   5.463   0.344
 2897SOL     OW 9589   2.360   6.402   3.596
 2897SOL    HW1 9590   2.419   6.332   3.556
 2897SOL    HW2 9591   2.287   6.357   3.648
 2898SOL     OW 9592   4.406   5.205   2.777
 2898SOL    HW1 9593   4.402   5.142   2.855
 2898SOL    HW2 9594   4.348   5.171   2.703
 2899SOL     OW 9595   6.868   0.146   6.454
 2899SOL    HW1 9596   6.800   0.087   6.410
 2899SOL    HW2 9597   6.824   0.231   6.483
 2900SOL     OW 9598   1.227   4.983   5.903
 2900SOL    HW1 9599   1.300   5.051   5.903
 2900SOL    HW2 9600   1.177   4.988   5.990
 2901SOL     OW 9601   2.529   0.923   2.386
 2901SOL    HW1 9602   2.456   0.973   2.339
 2901SOL    HW2 9603   2.490   0.846   2.436
 2902SOL     OW 9604   5.274   6.285   0.658
 2902SOL    HW1 9605   5.302   6.240   0.573
 2902SOL    HW2 9606   5.175   6.281   0.668
 2903SOL     OW 9607   2.989   0.939   1.962
 2903SOL    HW1 9608   3.033   0.940   2.052
 2903SOL    HW2 9609   2.947   0.849   1.947
 2904SOL     OW 9610   2.501   3.317   5.302
 2904SOL    HW1 9611   2.520   3.309   5.399
 2904SOL    HW2 9612   2.520   3.230   5.256
 2905SOL     OW 9613   1.563   0.967   2.513
 2905SOL    HW1 9614   1.543   1.064   2.500
 2905SOL    HW2 9615   1.580   0.949   2.610
 2906SOL     OW 9616   5.116   5.171   2.111
 2906SOL    HW1 9617   5.179   5.169   2.033
 2906SOL    HW2 9618   5.161   5.132   2.191
 2907SOL     OW 9619   0.243   1.800   4.950
 2907SOL    HW1 9620   0.343   1.799   4.955
 2907SOL    HW2 9621   0.212   1.895   4.941
 2908SOL     OW 9622   3.842   6.744   4.581
 2908SOL    HW1 9623   3.814   6.673   4.646
 2908SOL    HW2 9624   3.859   6.829   4.630
 2909SOL     OW 9625   0.569   5.066   4.666
 2909SOL    HW1 9626   0.636   5.026   4.604
 2909SOL    HW2 9627   0.556   5.006   4.745
 2910SOL     OW 9628   3.186   6.468   5.218
 2910SOL    HW1 9629   3.161   6.497   5.126
 2910SOL    HW2 9630   3.115   6.408   5.255
 2911SOL     OW 9631   2.593   5.226   3.473
 2911SOL    HW1 9632   2.652   5.165   3.527
 2911SOL    HW2 9633   2.499   5.219   3.505
 2912SOL     OW 9634   2.848   5.825   0.455
 2912SOL    HW1 9635   2.923   5.837   0.390
 2912SOL    HW2 9636   2.769   5.785   0.407
 2913SOL     OW 9637   1.413   3.402   2.087
 2913SOL    HW1 9638   1.315   3.421   2.080
 2913SOL    HW2 9639   1.463   3.464   2.027
 2914SOL     OW 9640   5.223   4.415   5.880
 2914SOL    HW1 9641   5.245   4.505   5.916
 2914SOL    HW2 9642   5.125   4.396   5.893
 2915SOL     OW 9643   4.344   1.201   3.982
 2915SOL    HW1 9644   4.272   1.164   3.923
 2915SOL    HW2 9645   4.320   1.185   4.078
 2916SOL     OW 9646   6.341   4.415   5.411
 2916SOL    HW1 9647   6.415   4.354   5.443
 2916SOL    HW2 9648   6.259   4.361   5.394
 2917SOL     OW 9649   3.973   0.183   0.671
 2917SOL    HW1 9650   3.926   0.152   0.753
 2917SOL    HW2 9651   3.915   0.247   0.621
 2918SOL     OW 9652   0.451   3.481   3.213
 2918SOL    HW1 9653   0.479   3.403   3.269
 2918SOL    HW2 9654   0.514   3.557   3.227
 2919SOL     OW 9655   6.294   6.677   6.963
 2919SOL    HW1 9656   6.293   6.732   6.879
 2919SOL    HW2 9657   6.311   6.581   6.939
 2920SOL     OW 9658   3.677   2.089   2.557
 2920SOL    HW1 9659   3.673   2.100   2.457
 2920SOL    HW2 9660   3.765   2.123   2.591
 2921SOL     OW 9661   6.957   1.457   2.205
 2921SOL    HW1 9662   7.017   1.519   2.255
 2921SOL    HW2 9663   6.912   1.395   2.269
 2922SOL     OW 9664   5.082   6.773   5.816
 2922SOL    HW1 9665   5.023   6.741   5.890
 2922SOL    HW2 9666   5.055   6.731   5.730
 2923SOL     OW 9667   6.921   4.959   2.354
 2923SOL    HW1 9668   6.922   4.864   2.324
 2923SOL    HW2 9669   6.930   4.962   2.454
 2924SOL     OW 9670   0.885   1.346   6.050
 2924SOL    HW1 9671   0.949   1.327   5.976
 2924SOL    HW2 9672   0.935   1.364   6.135
 2925SOL     OW 9673   5.446   2.651   2.386
 2925SOL    HW1 9674   5.489   2.723   2.332
 2925SOL    HW2 9675   5.507   2.572   2.391
 2926SOL     OW 9676   0.150   2.079   4.934
 2926SOL    HW1 9677   0.140   2.070   5.033
 2926SOL    HW2 9678   0.115   2.167   4.904
 2927SOL     OW 9679   1.130   2.448   2.599
 2927SOL    HW1 9680   1.044   2.402   2.578
 2927SOL    HW2 9681   1.204   2.382   2.604
 2928SOL     OW 9682   6.724   0.258   6.707
 2928SOL    HW1 9683   6.642   0.291   6.755
 2928SOL    HW2 9684   6.735   0.309   6.621
 2929SOL     OW 9685   0.284   0.525   6.065
 2929SOL    HW1 9686   0.307   0.544   5.970
 2929SOL    HW2 9687   0.274   0.426   6.077
 2930SOL     OW 9688   5.088   0.588   4.655
 2930SOL    HW1 9689   5.167   0.528   4.667
 2930SOL    HW2 9690   5.007   0.545   4.694
 2931SOL     OW 9691   4.542   6.201   6.502
 2931SOL    HW1 9692   4.557   6.295   6.533
 2931SOL    HW2 9693   4.627   6.149   6.513
 2932SOL     OW 9694   1.200   4.488   1.964
 2932SOL    HW1 9695   1.252   4.569   1.990
 2932SOL    HW2 9696   1.116   4.516   1.918
 2933SOL     OW 9697   5.409   2.708   3.903
 2933SOL    HW1 9698   5.373   2.765   3.977
 2933SOL    HW2 9699   5.508   2.696   3.916
 2934SOL     OW 9700   3.620   6.998   0.052
 2934SOL    HW1 9701   3.549   0.041   0.079
 2934SOL    HW2 9702   3.586   6.905   0.066
 2935SOL     OW 9703   6.449   3.617   1.110
 2935SOL    HW1 9704   6.505   3.594   1.030
 2935SOL    HW2 9705   6.454   3.542   1.176
 2936SOL     OW 9706   4.736   5.789   0.563
 2936SOL    HW1 9707   4.643   5.778   0.597
 2936SOL    HW2 9708   4.754   5.719   0.493
 2937SOL     OW 9709   3.190   5.487   1.113
 2937SOL    HW1 9710   3.115   5.534   1.066
 2937SOL    HW2 9711   3.181   5.501   1.212
 2938SOL     OW 9712   4.812   5.591   5.675
 2938SOL    HW1 9713   4.719   5.555   5.671
 2938SOL    HW2 9714   4.820   5.671   5.617
 2939SOL     OW 9715   5.869   6.971   5.248
 2939SOL    HW1 9716   5.967   6.957   5.259
 2939SOL    HW2 9717   5.822   6.943   5.332
 2940SOL     OW 9718   5.477   0.006   5.452
 2940SOL    HW1 9719   5.520   0.092   5.426
 2940SOL    HW2 9720   5.473   7.023   5.552
 2941SOL     OW 9721   1.366   1.743   4.884
 2941SOL    HW1 9722   1.310   1.661   4.881
 2941SOL    HW2 9723   1.438   1.732   4.953
 2942SOL     OW 9724   3.051   0.406   2.229
 2942SOL    HW1 9725   3.146   0.409   2.199
 2942SOL    HW2 9726   3.007   0.323   2.193
 2943SOL     OW 9727   5.819   3.066   2.882
 2943SOL    HW1 9728   5.909   3.107   2.869
 2943SOL    HW2 9729   5.762   3.085   2.802
 2944SOL     OW 9730   3.226   4.905   5.387
 2944SOL    HW1 9731   3.159   4.833   5.372
 2944SOL    HW2 9732   3.179   4.992   5.401
 2945SOL     OW 9733   4.133   3.356   3.382
 2945SOL    HW1 9734   4.099   3.438   3.335
 2945SOL    HW2 9735   4.110   3.275   3.327
 2946SOL     OW 9736   6.692   6.112   5.695
 2946SOL    HW1 9737   6.791   6.100   5.696
 2946SOL    HW2 9738   6.665   6.157   5.610
 2947SOL     OW 9739   6.632   3.933   6.316
 2947SOL    HW1 9740   6.538   3.931   6.350
 2947SOL    HW2 9741   6.632   3.948   6.217
 2948SOL     OW 9742   6.542   3.581   5.487
 2948SOL    HW1 9743   6.472   3.620   5.546
 2948SOL    HW2 9744   6.561   3.487   5.516
 2949SOL     OW 9745   1.584   6.708   1.102
 2949SOL    HW1 9746   1.565   6.692   1.005
 2949SOL    HW2 9747   1.647   6.639   1.136
 2950SOL     OW 9748   5.938   3.929   4.126
 2950SOL    HW1 9749   5.857   3.870   4.120
 2950SOL    HW2 9750   6.020   3.872   4.123
 2951SOL     OW 9751   0.102   2.113   0.293
 2951SOL    HW1 9752   0.126   2.206   0.265
 2951SOL    HW2 9753   0.125   2.049   0.219
 2952SOL     OW 9754   1.198   4.429   2.695
 2952SOL    HW1 9755   1.224   4.524   2.710
 2952SOL    HW2 9756   1.280   4.371   2.701
 2953SOL     OW 9757   4.848   2.323   2.450
 2953SOL    HW1 9758   4.824   2.302   2.355
 2953SOL    HW2 9759   4.864   2.421   2.460
 2954SOL     OW 9760   0.479   6.346   1.819
 2954SOL    HW1 9761   0.534   6.428   1.801
 2954SOL    HW2 9762   0.421   6.328   1.740
 2955SOL     OW 9763   0.382   3.382   0.469
 2955SOL    HW1 9764   0.368   3.337   0.557
 2955SOL    HW2 9765   0.420   3.473   0.484
 2956SOL     OW 9766   0.262   5.697   2.988
 2956SOL    HW1 9767   0.257   5.598   3.004
 2956SOL    HW2 9768   0.352   5.731   3.015
 2957SOL     OW 9769   0.383   3.973   1.021
 2957SOL    HW1 9770   0.329   4.049   0.983
 2957SOL    HW2 9771   0.327   3.923   1.087
 2958SOL     OW 9772   1.704   4.632   6.031
 2958SOL    HW1 9773   1.760   4.690   5.972
 2958SOL    HW2 9774   1.608   4.638   6.003
 2959SOL     OW 9775   5.460   4.525   6.204
 2959SOL    HW1 9776   5.424   4.432   6.211
 2959SOL    HW2 9777   5.552   4.527   6.243
 2960SOL     OW 9778   3.035   1.983   0.557
 2960SOL    HW1 9779   3.102   1.934   0.614
 2960SOL    HW2 9780   2.944   1.972   0.597
 2961SOL     OW 9781   5.316   3.587   4.716
 2961SOL    HW1 9782   5.251   3.663   4.720
 2961SOL    HW2 9783   5.348   3.576   4.623
 2962SOL     OW 9784   4.616   1.368   3.563
 2962SOL    HW1 9785   4.520   1.352   3.584
 2962SOL    HW2 9786   4.651   1.443   3.620
 2963SOL     OW 9787   1.781   1.526   6.183
 2963SOL    HW1 9788   1.831   1.612   6.172
 2963SOL    HW2 9789   1.846   1.453   6.204
 2964SOL     OW 9790   1.823   6.708   1.801
 2964SOL    HW1 9791   1.761   6.679   1.729
 2964SOL    HW2 9792   1.877   6.630   1.833
 2965SOL     OW 9793   0.335   0.802   5.087
 2965SOL    HW1 9794   0.335   0.731   5.016
 2965SOL    HW2 9795   0.316   0.891   5.045
 2966SOL     OW 9796   5.283   4.279   3.818
 2966SOL    HW1 9797   5.353   4.230   3.766
 2966SOL    HW2 9798   5.208   4.216   3.839
 2967SOL     OW 9799   5.693   2.477   3.284
 2967SOL    HW1 9800   5.610   2.476   3.229
 2967SOL    HW2 9801   5.716   2.384   3.312
 2968SOL     OW 9802   1.174   4.205   4.937
 2968SOL    HW1 9803   1.199   4.130   4.998
 2968SOL    HW2 9804   1.201   4.183   4.843
 2969SOL     OW 9805   5.705   2.163   4.952
 2969SOL    HW1 9806   5.753   2.210   4.878
 2969SOL    HW2 9807   5.748   2.074   4.969
 2970SOL     OW 9808   1.069   4.266   6.492
 2970SOL    HW1 9809   1.125   4.197   6.537
 2970SOL    HW2 9810   0.976   4.262   6.527
 2971SOL     OW 9811   6.097   3.294   3.791
 2971SOL    HW1 9812   6.088   3.202   3.830
 2971SOL    HW2 9813   6.068   3.293   3.696
 2972SOL     OW 9814   6.286   3.473   6.639
 2972SOL    HW1 9815   6.360   3.432   6.586
 2972SOL    HW2 9816   6.241   3.402   6.694
 2973SOL     OW 9817   5.280   0.894   4.125
 2973SOL    HW1 9818   5.275   0.853   4.215
 2973SOL    HW2 9819   5.336   0.977   4.129
 2974SOL     OW 9820   5.958   4.422   2.744
 2974SOL    HW1 9821   6.045   4.470   2.744
 2974SOL    HW2 9822   5.953   4.360   2.823
 2975SOL     OW 9823   0.830   1.573   5.116
 2975SOL    HW1 9824   0.908   1.516   5.143
 2975SOL    HW2 9825   0.808   1.555   5.020
 2976SOL     OW 9826   4.201   1.420   2.326
 2976SOL    HW1 9827   4.125   1.404   2.389
 2976SOL    HW2 9828   4.242   1.333   2.300
 2977SOL     OW 9829   2.932   0.259   4.204
 2977SOL    HW1 9830   3.014   0.211   4.171
 2977SOL    HW2 9831   2.876   0.197   4.258
 2978SOL     OW 9832   4.608   5.009   6.994
 2978SOL    HW1 9833   4.578   4.949   0.045
 2978SOL    HW2 9834   4.558   4.987   6.910
 2979SOL     OW 9835   3.214   0.409   3.245
 2979SOL    HW1 9836   3.251   0.473   3.177
 2979SOL    HW2 9837   3.232   0.444   3.337
 2980SOL     OW 9838   0.530   6.656   4.254
 2980SOL    HW1 9839   0.531   6.697   4.345
 2980SOL    HW2 9840   0.576   6.567   4.257
 2981SOL     OW 9841   1.428   1.064   5.708
 2981SOL    HW1 9842   1.385   1.142   5.752
 2981SOL    HW2 9843   1.361   1.016   5.651
 2982SOL     OW 9844   4.440   6.299   2.568
 2982SOL    HW1 9845   4.464   6.280   2.664
 2982SOL    HW2 9846   4.467   6.222   2.511
 2983SOL     OW 9847   0.562   0.848   4.121
 2983SOL    HW1 9848   0.634   0.779   4.129
 2983SOL    HW2 9849   0.505   0.847   4.203
 2984SOL     OW 9850   6.467   5.287   1.304
 2984SOL    HW1 9851   6.411   5.356   1.352
 2984SOL    HW2 9852   6.505   5.224   1.371
 2985SOL     OW 9853   0.648   2.253   4.356
 2985SOL    HW1 9854   0.742   2.247   4.322
 2985SOL    HW2 9855   0.645   2.311   4.437
 2986SOL     OW 9856   2.082   3.698   5.467
 2986SOL    HW1 9857   2.134   3.648   5.398
 2986SOL    HW2 9858   2.070   3.793   5.438
 2987SOL     OW 9859   4.269   1.443   4.407
 2987SOL    HW1 9860   4.329   1.382   4.355
 2987SOL    HW2 9861   4.319   1.484   4.483
 2988SOL     OW 9862   1.333   0.281   1.859
 2988SOL    HW1 9863   1.417   0.227   1.867
 2988SOL    HW2 9864   1.321   0.309   1.764
 2989SOL     OW 9865   6.963   4.634   1.212
 2989SOL    HW1 9866   6.951   4.636   1.112
 2989SOL    HW2 9867   6.882   4.593   1.254
 2990SOL     OW 9868   3.013   0.826   2.404
 2990SOL    HW1 9869   3.046   0.900   2.344
 2990SOL    HW2 9870   2.976   0.752   2.349
 2991SOL     OW 9871   0.074   3.874   0.299
 2991SOL    HW1 9872   0.074   3.972   0.319
 2991SOL    HW2 9873   0.032   3.824   0.375
 2992SOL     OW 9874   3.259   5.760   6.356
 2992SOL    HW1 9875   3.261   5.663   6.329
 2992SOL    HW2 9876   3.270   5.817   6.275
 2993SOL     OW 9877   2.264   4.540   1.699
 2993SOL    HW1 9878   2.209   4.564   1.779
 2993SOL    HW2 9879   2.307   4.622   1.661
 2994SOL     OW 9880   4.799   0.798   6.833
 2994SOL    HW1 9881   4.874   0.861   6.812
 2994SOL    HW2 9882   4.819   0.749   6.918
 2995SOL     OW 9883   1.261   2.121   0.400
 2995SOL    HW1 9884   1.207   2.165   0.472
 2995SOL    HW2 9885   1.300   2.191   0.341
 2996SOL     OW 9886   2.721   5.098   5.553
 2996SOL    HW1 9887   2.782   5.019   5.560
 2996SOL    HW2 9888   2.647   5.078   5.489
 2997SOL     OW 9889   5.443   6.065   1.708
 2997SOL    HW1 9890   5.422   6.044   1.804
 2997SOL    HW2 9891   5.388   6.143   1.679
 2998SOL     OW 9892   5.756   6.152   4.045
 2998SOL    HW1 9893   5.672   6.115   4.006
 2998SOL    HW2 9894   5.828   6.150   3.976
 2999SOL     OW 9895   3.651   6.430   3.688
 2999SOL    HW1 9896   3.594   6.478   3.622
 2999SOL    HW2 9897   3.594   6.378   3.751
 3000SOL     OW 9898   1.618   3.381   5.306
 3000SOL    HW1 9899   1.581   3.356   5.396
 3000SOL    HW2 9900   1.706   3.336   5.293
 3001SOL     OW 9901   4.920   0.607   5.741
 3001SOL    HW1 9902   4.856   0.679   5.712
 3001SOL    HW2 9903   4.988   0.647   5.803
 3002SOL     OW 9904   4.219   0.270   5.356
 3002SOL    HW1 9905   4.259   0.277   5.448
 3002SOL    HW2 9906   4.166   0.186   5.350
 3003SOL     OW 9907   2.644   6.245   5.650
 3003SOL    HW1 9908   2.564   6.293   5.686
 3003SOL    HW2 9909   2.665   6.166   5.707
 3004SOL     OW 9910   6.033   3.952   3.633
 3004SOL    HW1 9911   6.110   3.985   3.688
 3004SOL    HW2 9912   6.068   3.890   3.562
 3005SOL     OW 9913   3.375   2.958   1.590
 3005SOL    HW1 9914   3.366   2.859   1.576
 3005SOL    HW2 9915   3.471   2.981   1.605
 3006SOL     OW 9916   5.630   1.166   0.799
 3006SOL    HW1 9917   5.532   1.176   0.779
 3006SOL    HW2 9918   5.653   1.220   0.880
 3007SOL     OW 9919   5.763   5.026   2.542
 3007SOL    HW1 9920   5.715   4.942   2.566
 3007SOL    HW2 9921   5.715   5.071   2.466
 3008SOL     OW 9922   3.435   6.896   5.969
 3008SOL    HW1 9923   3.464   6.988   5.994
 3008SOL    HW2 9924   3.455   6.879   5.873
 3009SOL     OW 9925   1.295   0.606   2.251
 3009SOL    HW1 9926   1.379   0.637   2.295
 3009SOL    HW2 9927   1.304   0.616   2.152
 3010SOL     OW 9928   4.042   5.448   3.047
 3010SOL    HW1 9929   4.117   5.498   3.004
 3010SOL    HW2 9930   4.011   5.375   2.985
 3011SOL     OW 9931   6.186   0.791   6.880
 3011SOL    HW1 9932   6.127   0.804   6.800
 3011SOL    HW2 9933   6.196   0.878   6.928
 3012SOL     OW 9934   6.977   3.811   3.885
 3012SOL    HW1 9935   6.950   3.899   3.846
 3012SOL    HW2 9936   6.937   3.801   3.977
 3013SOL     OW 9937   6.100   5.967   2.092
 3013SOL    HW1 9938   6.167   5.895   2.111
 3013SOL    HW2 9939   6.024   5.960   2.157
 3014SOL     OW 9940   5.230   1.665   4.103
 3014SOL    HW1 9941   5.272   1.747   4.063
 3014SOL    HW2 9942   5.200   1.686   4.196
 3015SOL     OW 9943   2.371   2.205   0.858
 3015SOL    HW1 9944   2.328   2.189   0.947
 3015SOL    HW2 9945   2.459   2.252   0.871
 3016SOL     OW 9946   3.553   6.073   4.075
 3016SOL    HW1 9947   3.490   5.997   4.093
 3016SOL    HW2 9948   3.548   6.139   4.149
 3017SOL     OW 9949   1.277   5.970   1.537
 3017SOL    HW1 9950   1.237   6.046   1.589
 3017SOL    HW2 9951   1.349   5.928   1.591
 3018SOL     OW 9952   4.148   0.577   6.546
 3018SOL    HW1 9953   4.244   0.551   6.549
 3018SOL    HW2 9954   4.092   0.495   6.531
 3019SOL     OW 9955   3.376   6.481   1.217
 3019SOL    HW1 9956   3.451   6.547   1.230
 3019SOL    HW2 9957   3.320   6.510   1.139
 3020SOL     OW 9958   3.467   3.495   1.888
 3020SOL    HW1 9959   3.397   3.494   1.817
 3020SOL    HW2 9960   3.541   3.557   1.861
 3021SOL     OW 9961   1.703   1.966   6.710
 3021SOL    HW1 9962   1.621   1.910   6.697
 3021SOL    HW2 9963   1.703   2.004   6.802
 3022SOL     OW 9964   3.844   6.243   3.203
 3022SOL    HW1 9965   3.882   6.276   3.117
 3022SOL    HW2 9966   3.793   6.317   3.248
 3023SOL     OW 9967   3.705   5.685   3.835
 3023SOL    HW1 9968   3.678   5.589   3.842
 3023SOL    HW2 9969   3.644   5.732   3.772
 3024SOL     OW 9970   3.136   0.740   6.687
 3024SOL    HW1 9971   3.065   0.720   6.619
 3024SOL    HW2 9972   3.114   0.826   6.733
 3025SOL     OW 9973   3.089   2.867   0.682
 3025SOL    HW1 9974   3.171   2.874   0.740
 3025SOL    HW2 9975   3.070   2.771   0.663
 3026SOL     OW 9976   1.375   3.373   1.143
 3026SOL    HW1 9977   1.343   3.295   1.089
 3026SOL    HW2 9978   1.297   3.422   1.181
 3027SOL     OW 9979   3.897   1.168   1.862
 3027SOL    HW1 9980   3.927   1.102   1.794
 3027SOL    HW2 9981   3.836   1.234   1.820
 3028SOL     OW 9982   1.486   5.056   6.872
 3028SOL    HW1 9983   1.525   4.972   6.910
 3028SOL    HW2 9984   1.550   5.096   6.807
 3029SOL     OW 9985   5.983   5.106   4.909
 3029SOL    HW1 9986   6.049   5.040   4.874
 3029SOL    HW2 9987   5.904   5.110   4.848
 3030SOL     OW 9988   0.905   0.820   5.714
 3030SOL    HW1 9989   0.813   0.860   5.720
 3030SOL    HW2 9990   0.968   0.889   5.676
 3031SOL     OW 9991   0.576   3.647   0.041
 3031SOL    HW1 9992   0.580   3.556   0.082
 3031SOL    HW2 9993   0.504   3.649   6.995
 3032SOL     OW 9994   4.994   0.467   6.513
 3032SOL    HW1 9995   4.942   0.539   6.467
 3032SOL    HW2 9996   4.983   0.381   6.463
 3033SOL     OW 9997   0.397   3.826   6.880
 3033SOL    HW1 9998   0.331   3.803   6.808
 3033SOL    HW2 9999   0.485   3.847   6.838
 3034SOL     OW10000   2.626   6.383   3.763
 3034SOL    HW110001   2.601   6.471   3.804
 3034SOL    HW210002   2.711   6.350   3.804
 3035SOL     OW10003   6.606   1.197   0.151
 3035SOL    HW110004   6.671   1.193   0.226
 3035SOL    HW210005   6.619   1.118   0.091
 3036SOL     OW10006   1.381   3.656   0.187
 3036SOL    HW110007   1.448   3.598   0.232
 3036SOL    HW210008   1.418   3.689   0.100
 3037SOL     OW10009   6.582   6.001   4.727
 3037SOL    HW110010   6.501   6.031   4.779
 3037SOL    HW210011   6.614   6.077   4.670
 3038SOL     OW10012   5.418   0.357   6.360
 3038SOL    HW110013   5.349   0.300   6.316
 3038SOL    HW210014   5.389   0.453   6.357
 3039SOL     OW10015   6.948   4.686   2.296
 3039SOL    HW110016   6.938   4.589   2.276
 3039SOL    HW210017   0.008   4.701   2.349
 3040SOL     OW10018   3.422   3.845   6.419
 3040SOL    HW110019   3.475   3.776   6.369
 3040SOL    HW210020   3.382   3.910   6.354
 3041SOL     OW10021   2.050   2.446   5.630
 3041SOL    HW110022   2.040   2.544   5.612
 3041SOL    HW210023   2.146   2.424   5.646
 3042SOL     OW10024   5.216   0.058   1.937
 3042SOL    HW110025   5.149   0.013   1.877
 3042SOL    HW210026   5.199   0.156   1.938
 3043SOL     OW10027   0.795   5.340   0.442
 3043SOL    HW110028   0.858   5.266   0.467
 3043SOL    HW210029   0.790   5.346   0.342
 3044SOL     OW10030   3.292   4.542   5.366
 3044SOL    HW110031   3.248   4.460   5.329
 3044SOL    HW210032   3.390   4.538   5.347
 3045SOL     OW10033   4.745   1.506   2.556
 3045SOL    HW110034   4.727   1.594   2.514
 3045SOL    HW210035   4.708   1.433   2.499
 3046SOL     OW10036   1.571   3.345   5.559
 3046SOL    HW110037   1.627   3.271   5.596
 3046SOL    HW210038   1.537   3.402   5.634
 3047SOL     OW10039   5.845   5.194   1.923
 3047SOL    HW110040   5.853   5.121   1.991
 3047SOL    HW210041   5.932   5.205   1.875
 3048SOL     OW10042   4.134   3.433   1.489
 3048SOL    HW110043   4.223   3.435   1.535
 3048SOL    HW210044   4.134   3.501   1.415
 3049SOL     OW10045   0.936   0.154   1.891
 3049SOL    HW110046   0.845   0.194   1.896
 3049SOL    HW210047   0.994   0.210   1.831
 3050SOL     OW10048   3.171   6.439   3.721
 3050SOL    HW110049   3.195   6.419   3.816
 3050SOL    HW210050   3.085   6.491   3.719
 3051SOL     OW10051   2.644   5.409   6.519
 3051SOL    HW110052   2.708   5.379   6.590
 3051SOL    HW210053   2.564   5.349   6.518
 3052SOL     OW10054   3.694   0.631   2.664
 3052SOL    HW110055   3.737   0.552   2.708
 3052SOL    HW210056   3.757   0.671   2.598
 3053SOL     OW10057   5.924   0.837   0.482
 3053SOL    HW110058   5.835   0.806   0.449
 3053SOL    HW210059   5.976   0.759   0.517
 3054SOL     OW10060   0.042   3.483   0.290
 3054SOL    HW110061   0.105   3.544   0.240
 3054SOL    HW210062   0.079   3.390   0.290
 3055SOL     OW10063   5.689   0.066   3.769
 3055SOL    HW110064   5.698   0.165   3.755
 3055SOL    HW210065   5.593   0.044   3.785
 3056SOL     OW10066   6.893   0.025   0.088
 3056SOL    HW110067   6.971   0.007   0.027
 3056SOL    HW210068   6.926   0.037   0.181
 3057SOL     OW10069   5.397   4.856   2.459
 3057SOL    HW110070   5.365   4.768   2.426
 3057SOL    HW210071   5.477   4.843   2.517
 3058SOL     OW10072   6.349   5.745   1.085
 3058SOL    HW110073   6.434   5.726   1.036
 3058SOL    HW210074   6.330   5.843   1.083
 3059SOL     OW10075   0.862   2.747   4.860
 3059SOL    HW110076   0.788   2.681   4.871
 3059SOL    HW210077   0.846   2.802   4.778
 3060SOL     OW10078   0.370   0.057   0.876
 3060SOL    HW110079   0.439   0.046   0.804
 3060SOL    HW210080   0.395   0.001   0.955
 3061SOL     OW10081   0.076   0.965   4.840
 3061SOL    HW110082   0.140   1.010   4.779
 3061SOL    HW210083   0.121   0.947   4.928
 3062SOL     OW10084   2.932   6.482   1.880
 3062SOL    HW110085   2.976   6.398   1.850
 3062SOL    HW210086   2.969   6.559   1.828
 3063SOL     OW10087   2.171   4.664   2.080
 3063SOL    HW110088   2.162   4.571   2.116
 3063SOL    HW210089   2.106   4.677   2.005
 3064SOL     OW10090   6.183   3.723   3.872
 3064SOL    HW110091   6.170   3.775   3.957
 3064SOL    HW210092   6.250   3.651   3.887
 3065SOL     OW10093   1.885   0.807   6.544
 3065SOL    HW110094   1.823   0.781   6.618
 3065SOL    HW210095   1.836   0.805   6.457
 3066SOL     OW10096   5.806   4.503   0.714
 3066SOL    HW110097   5.713   4.532   0.693
 3066SOL    HW210098   5.843   4.452   0.637
 3067SOL     OW10099   4.224   0.625   4.770
 3067SOL    HW110100   4.181   0.596   4.684
 3067SOL    HW210101   4.316   0.659   4.751
 3068SOL     OW10102   6.008   6.064   0.838
 3068SOL    HW110103   6.092   6.110   0.809
 3068SOL    HW210104   5.983   6.096   0.930
 3069SOL     OW10105   0.482   5.501   1.861
 3069SOL    HW110106   0.545   5.472   1.789
 3069SOL    HW210107   0.463   5.598   1.851
 3070SOL     OW10108   2.214   1.472   2.834
 3070SOL    HW110109   2.232   1.387   2.884
 3070SOL    HW210110   2.219   1.455   2.736
 3071SOL     OW10111   5.893   0.413   4.032
 3071SOL    HW110112   5.929   0.399   3.940
 3071SOL    HW210113   5.900   0.327   4.083
 3072SOL     OW10114   0.645   6.555   1.806
 3072SOL    HW110115   0.564   6.610   1.825
 3072SOL    HW210116   0.668   6.563   1.709
 3073SOL     OW10117   0.846   2.938   5.092
 3073SOL    HW110118   0.926   2.918   5.148
 3073SOL    HW210119   0.846   2.877   5.012
 3074SOL     OW10120   4.719   3.075   0.669
 3074SOL    HW110121   4.756   3.011   0.737
 3074SOL    HW210122   4.656   3.027   0.608
 3075SOL     OW10123   1.875   6.413   1.710
 3075SOL    HW110124   1.901   6.381   1.619
 3075SOL    HW210125   1.801   6.355   1.746
 3076SOL     OW10126   6.527   0.665   4.836
 3076SOL    HW110127   6.606   0.712   4.794
 3076SOL    HW210128   6.516   0.696   4.930
 3077SOL     OW10129   6.042   4.747   4.180
 3077SOL    HW110130   5.996   4.660   4.162
 3077SOL    HW210131   6.006   4.787   4.264
 3078SOL     OW10132   2.134   3.770   2.127
 3078SOL    HW110133   2.039   3.786   2.100
 3078SOL    HW210134   2.164   3.681   2.094
 3079SOL     OW10135   0.827   2.890   4.630
 3079SOL    HW110136   0.876   2.967   4.588
 3079SOL    HW210137   0.747   2.868   4.575
 3080SOL     OW10138   6.189   4.644   1.204
 3080SOL    HW110139   6.205   4.553   1.165
 3080SOL    HW210140   6.148   4.634   1.295
 3081SOL     OW10141   0.610   4.024   6.056
 3081SOL    HW110142   0.533   4.086   6.071
 3081SOL    HW210143   0.657   4.007   6.143
 3082SOL     OW10144   3.696   6.970   3.149
 3082SOL    HW110145   3.759   6.971   3.071
 3082SOL    HW210146   3.739   6.921   3.225
 3083SOL     OW10147   3.293   0.756   2.245
 3083SOL    HW110148   3.386   0.782   2.271
 3083SOL    HW210149   3.242   0.728   2.327
 3084SOL     OW10150   4.547   4.920   3.827
 3084SOL    HW110151   4.483   4.844   3.816
 3084SOL    HW210152   4.528   4.967   3.913
 3085SOL     OW10153   6.753   5.026   2.915
 3085SOL    HW110154   6.823   5.008   2.983
 3085SOL    HW210155   6.677   4.962   2.927
 3086SOL     OW10156   4.425   0.804   2.134
 3086SOL    HW110157   4.423   0.829   2.037
 3086SOL    HW210158   4.429   0.887   2.189
 3087SOL     OW10159   6.295   4.056   3.330
 3087SOL    HW110160   6.234   3.977   3.330
 3087SOL    HW210161   6.280   4.110   3.247
 3088SOL     OW10162   2.394   4.984   5.525
 3088SOL    HW110163   2.410   4.887   5.546
 3088SOL    HW210164   2.397   5.037   5.610
 3089SOL     OW10165   1.195   2.616   7.012
 3089SOL    HW110166   1.237   2.555   0.056
 3089SOL    HW210167   1.218   2.585   6.920
 3090SOL     OW10168   1.665   1.893   1.775
 3090SOL    HW110169   1.705   1.940   1.697
 3090SOL    HW210170   1.583   1.942   1.805
 3091SOL     OW10171   3.257   0.197   0.396
 3091SOL    HW110172   3.158   0.200   0.397
 3091SOL    HW210173   3.292   0.261   0.327
 3092SOL     OW10174   5.563   6.862   0.100
 3092SOL    HW110175   5.640   6.809   0.136
 3092SOL    HW210176   5.551   6.840   0.003
 3093SOL     OW10177   6.085   5.473   5.437
 3093SOL    HW110178   6.034   5.528   5.503
 3093SOL    HW210179   6.027   5.397   5.406
 3094SOL     OW10180   2.867   5.550   5.214
 3094SOL    HW110181   2.930   5.581   5.285
 3094SOL    HW210182   2.891   5.457   5.187
 3095SOL     OW10183   2.293   4.559   4.389
 3095SOL    HW110184   2.268   4.481   4.332
 3095SOL    HW210185   2.211   4.601   4.427
 3096SOL     OW10186   6.087   0.311   4.568
 3096SOL    HW110187   6.009   0.356   4.611
 3096SOL    HW210188   6.151   0.380   4.533
 3097SOL     OW10189   0.708   2.963   1.050
 3097SOL    HW110190   0.765   2.954   1.133
 3097SOL    HW210191   0.616   2.929   1.069
 3098SOL     OW10192   2.381   3.847   0.862
 3098SOL    HW110193   2.457   3.836   0.798
 3098SOL    HW210194   2.415   3.842   0.956
 3099SOL     OW10195   0.216   6.255   4.768
 3099SOL    HW110196   0.187   6.229   4.860
 3099SOL    HW210197   0.270   6.182   4.728
 3100SOL     OW10198   6.858   6.516   5.215
 3100SOL    HW110199   6.866   6.515   5.315
 3100SOL    HW210200   6.949   6.509   5.175
 3101SOL     OW10201   4.644   5.890   5.655
 3101SOL    HW110202   4.609   5.984   5.662
 3101SOL    HW210203   4.569   5.829   5.630
 3102SOL     OW10204   1.482   4.189   1.364
 3102SOL    HW110205   1.411   4.159   1.427
 3102SOL    HW210206   1.442   4.247   1.293
 3103SOL     OW10207   3.748   2.541   1.003
 3103SOL    HW110208   3.779   2.513   1.094
 3103SOL    HW210209   3.709   2.463   0.955
 3104SOL     OW10210   5.304   6.453   3.856
 3104SOL    HW110211   5.238   6.413   3.920
 3104SOL    HW210212   5.255   6.499   3.782
 3105SOL     OW10213   5.835   5.872   3.405
 3105SOL    HW110214   5.757   5.934   3.403
 3105SOL    HW210215   5.835   5.815   3.323
 3106SOL     OW10216   6.328   2.721   2.755
 3106SOL    HW110217   6.285   2.790   2.813
 3106SOL    HW210218   6.258   2.662   2.715
 3107SOL     OW10219   3.192   0.735   3.747
 3107SOL    HW110220   3.153   0.680   3.821
 3107SOL    HW210221   3.135   0.817   3.733
 3108SOL     OW10222   2.399   0.324   4.434
 3108SOL    HW110223   2.352   0.411   4.418
 3108SOL    HW210224   2.392   0.266   4.353
 3109SOL     OW10225   5.221   5.868   2.475
 3109SOL    HW110226   5.226   5.841   2.379
 3109SOL    HW210227   5.311   5.901   2.504
 3110SOL     OW10228   6.975   2.934   3.441
 3110SOL    HW110229   0.004   3.010   3.481
 3110SOL    HW210230   6.895   2.969   3.394
 3111SOL     OW10231   6.164   5.240   4.011
 3111SOL    HW110232   6.262   5.224   4.012
 3111SOL    HW210233   6.131   5.242   3.917
 3112SOL     OW10234   4.575   3.143   6.040
 3112SOL    HW110235   4.567   3.226   6.096
 3112SOL    HW210236   4.626   3.164   5.957
 3113SOL     OW10237   2.382   6.709   3.972
 3113SOL    HW110238   2.396   6.742   4.066
 3113SOL    HW210239   2.320   6.772   3.924
 3114SOL     OW10240   5.284   4.028   6.577
 3114SOL    HW110241   5.327   3.949   6.535
 3114SOL    HW210242   5.210   3.998   6.638
 3115SOL     OW10243   3.323   3.875   0.608
 3115SOL    HW110244   3.335   3.784   0.646
 3115SOL    HW210245   3.251   3.874   0.539
 3116SOL     OW10246   6.532   2.616   6.304
 3116SOL    HW110247   6.559   2.657   6.216
 3116SOL    HW210248   6.611   2.617   6.366
 3117SOL     OW10249   4.366   3.631   5.626
 3117SOL    HW110250   4.440   3.601   5.566
 3117SOL    HW210251   4.371   3.583   5.713
 3118SOL     OW10252   6.249   5.083   0.134
 3118SOL    HW110253   6.314   5.124   0.070
 3118SOL    HW210254   6.157   5.116   0.113
 3119SOL     OW10255   1.968   4.299   5.285
 3119SOL    HW110256   1.977   4.253   5.197
 3119SOL    HW210257   1.942   4.231   5.355
 3120SOL     OW10258   1.889   5.496   4.640
 3120SOL    HW110259   1.895   5.522   4.737
 3120SOL    HW210260   1.905   5.398   4.632
 3121SOL     OW10261   0.062   1.932   2.071
 3121SOL    HW110262   0.111   2.019   2.059
 3121SOL    HW210263   0.089   1.869   1.999
 3122SOL     OW10264   2.752   5.614   6.386
 3122SOL    HW110265   2.706   5.534   6.425
 3122SOL    HW210266   2.703   5.697   6.411
 3123SOL     OW10267   3.450   6.577   3.872
 3123SOL    HW110268   3.454   6.677   3.868
 3123SOL    HW210269   3.434   6.541   3.780
 3124SOL     OW10270   4.879   0.468   5.338
 3124SOL    HW110271   4.933   0.465   5.422
 3124SOL    HW210272   4.813   0.544   5.343
 3125SOL     OW10273   6.527   1.899   5.506
 3125SOL    HW110274   6.522   1.963   5.583
 3125SOL    HW210275   6.598   1.831   5.525
 3126SOL     OW10276   5.039   4.691   6.240
 3126SOL    HW110277   5.097   4.704   6.159
 3126SOL    HW210278   4.961   4.753   6.235
 3127SOL     OW10279   1.495   1.431   3.715
 3127SOL    HW110280   1.522   1.334   3.718
 3127SOL    HW210281   1.555   1.484   3.773
 3128SOL     OW10282   1.897   0.845   0.767
 3128SOL    HW110283   1.918   0.930   0.815
 3128SOL    HW210284   1.974   0.819   0.709
 3129SOL     OW10285   0.037   4.492   5.072
 3129SOL    HW110286   7.000   4.439   5.133
 3129SOL    HW210287   0.022   4.463   4.978
 3130SOL     OW10288   2.471   4.821   2.722
 3130SOL    HW110289   2.550   4.760   2.725
 3130SOL    HW210290   2.387   4.767   2.725
 3131SOL     OW10291   0.463   3.471   2.781
 3131SOL    HW110292   0.412   3.429   2.856
 3131SOL    HW210293   0.480   3.403   2.710
 3132SOL     OW10294   5.292   5.830   5.651
 3132SOL    HW110295   5.240   5.755   5.691
 3132SOL    HW210296   5.251   5.856   5.564
 3133SOL     OW10297   2.353   1.748   3.954
 3133SOL    HW110298   2.392   1.755   4.046
 3133SOL    HW210299   2.271   1.691   3.957
 3134SOL     OW10300   4.931   3.065   1.617
 3134SOL    HW110301   5.022   3.023   1.620
 3134SOL    HW210302   4.878   3.024   1.543
 3135SOL     OW10303   4.030   1.845   3.822
 3135SOL    HW110304   4.109   1.901   3.800
 3135SOL    HW210305   4.046   1.751   3.793
 3136SOL     OW10306   5.827   5.702   5.990
 3136SOL    HW110307   5.891   5.627   5.975
 3136SOL    HW210308   5.829   5.730   6.086
 3137SOL     OW10309   4.973   2.182   3.998
 3137SOL    HW110310   5.045   2.178   3.929
 3137SOL    HW210311   4.904   2.113   3.978
 3138SOL     OW10312   5.934   1.796   4.293
 3138SOL    HW110313   6.002   1.837   4.353
 3138SOL    HW210314   5.875   1.734   4.345
 3139SOL     OW10315   5.104   5.941   5.461
 3139SOL    HW110316   5.035   5.913   5.395
 3139SOL    HW210317   5.062   5.954   5.551
 3140SOL     OW10318   6.783   6.516   6.598
 3140SOL    HW110319   6.865   6.513   6.541
 3140SOL    HW210320   6.713   6.571   6.553
 3141SOL     OW10321   0.770   6.326   0.120
 3141SOL    HW110322   0.770   6.395   0.193
 3141SOL    HW210323   0.860   6.323   0.077
 3142SOL     OW10324   4.867   6.245   6.922
 3142SOL    HW110325   4.858   6.210   7.015
 3142SOL    HW210326   4.903   6.173   6.863
 3143SOL     OW10327   0.144   2.100   6.569
 3143SOL    HW110328   0.190   2.073   6.653
 3143SOL    HW210329   0.212   2.128   6.501
 3144SOL     OW10330   1.999   3.913   0.200
 3144SOL    HW110331   2.060   3.836   0.184
 3144SOL    HW210332   1.906   3.879   0.216
 3145SOL     OW10333   2.682   5.589   2.770
 3145SOL    HW110334   2.740   5.566   2.848
 3145SOL    HW210335   2.624   5.511   2.747
 3146SOL     OW10336   1.440   0.117   3.308
 3146SOL    HW110337   1.413   0.067   3.226
 3146SOL    HW210338   1.374   0.101   3.381
 3147SOL     OW10339   4.513   4.416   0.816
 3147SOL    HW110340   4.543   4.389   0.908
 3147SOL    HW210341   4.578   4.381   0.749
 3148SOL     OW10342   4.021   5.402   3.758
 3148SOL    HW110343   3.982   5.360   3.840
 3148SOL    HW210344   3.991   5.350   3.677
 3149SOL     OW10345   3.046   0.413   5.768
 3149SOL    HW110346   3.044   0.384   5.673
 3149SOL    HW210347   3.099   0.498   5.777
 3150SOL     OW10348   5.379   0.184   5.199
 3150SOL    HW110349   5.401   0.244   5.276
 3150SOL    HW210350   5.464   0.151   5.157
 3151SOL     OW10351   4.966   1.571   6.346
 3151SOL    HW110352   4.968   1.565   6.246
 3151SOL    HW210353   5.052   1.535   6.383
 3152SOL     OW10354   0.548   5.526   1.297
 3152SOL    HW110355   0.579   5.435   1.322
 3152SOL    HW210356   0.621   5.593   1.314
 3153SOL     OW10357   6.294   3.972   1.947
 3153SOL    HW110358   6.201   3.939   1.929
 3153SOL    HW210359   6.314   3.963   2.045
 3154SOL     OW10360   6.197   2.479   6.023
 3154SOL    HW110361   6.283   2.508   5.983
 3154SOL    HW210362   6.170   2.391   5.984
 3155SOL     OW10363   6.159   5.144   0.826
 3155SOL    HW110364   6.252   5.117   0.802
 3155SOL    HW210365   6.096   5.070   0.802
 3156SOL     OW10366   3.862   3.846   3.435
 3156SOL    HW110367   3.766   3.823   3.450
 3156SOL    HW210368   3.915   3.828   3.519
 3157SOL     OW10369   2.097   3.659   4.808
 3157SOL    HW110370   2.170   3.593   4.789
 3157SOL    HW210371   2.029   3.656   4.734
 3158SOL     OW10372   5.059   6.396   1.719
 3158SOL    HW110373   4.969   6.374   1.681
 3158SOL    HW210374   5.057   6.489   1.756
 3159SOL     OW10375   4.799   5.824   6.789
 3159SOL    HW110376   4.726   5.891   6.798
 3159SOL    HW210377   4.781   5.746   6.849
 3160SOL     OW10378   4.964   3.936   6.000
 3160SOL    HW110379   5.001   3.901   6.086
 3160SOL    HW210380   4.866   3.952   6.010
 3161SOL     OW10381   1.774   0.544   2.470
 3161SOL    HW110382   1.812   0.617   2.526
 3161SOL    HW210383   1.700   0.581   2.413
 3162SOL     OW10384   0.375   5.282   6.510
 3162SOL    HW110385   0.319   5.358   6.476
 3162SOL    HW210386   0.327   5.196   6.496
 3163SOL     OW10387   3.603   2.965   6.604
 3163SOL    HW110388   3.570   2.973   6.698
 3163SOL    HW210389   3.574   2.876   6.566
 3164SOL     OW10390   5.171   4.180   0.526
 3164SOL    HW110391   5.108   4.253   0.502
 3164SOL    HW210392   5.198   4.131   0.443
 3165SOL     OW10393   0.781   0.449   2.029
 3165SOL    HW110394   0.699   0.418   1.981
 3165SOL    HW210395   0.769   0.435   2.127
 3166SOL     OW10396   4.593   3.375   6.183
 3166SOL    HW110397   4.653   3.446   6.147
 3166SOL    HW210398   4.580   3.389   6.281
 3167SOL     OW10399   0.201   4.211   1.367
 3167SOL    HW110400   0.298   4.197   1.344
 3167SOL    HW210401   0.189   4.203   1.466
 3168SOL     OW10402   5.486   2.726   0.606
 3168SOL    HW110403   5.453   2.722   0.512
 3168SOL    HW210404   5.580   2.760   0.607
 3169SOL     OW10405   1.135   2.283   5.407
 3169SOL    HW110406   1.215   2.307   5.352
 3169SOL    HW210407   1.164   2.234   5.489
 3170SOL     OW10408   4.362   1.033   6.394
 3170SOL    HW110409   4.312   1.013   6.478
 3170SOL    HW210410   4.297   1.041   6.318
 3171SOL     OW10411   6.383   6.771   2.215
 3171SOL    HW110412   6.419   6.721   2.136
 3171SOL    HW210413   6.308   6.719   2.257
 3172SOL     OW10414   6.150   6.971   5.274
 3172SOL    HW110415   6.215   6.941   5.344
 3172SOL    HW210416   6.191   6.958   5.183
 3173SOL     OW10417   2.572   0.254   1.964
 3173SOL    HW110418   2.475   0.241   1.946
 3173SOL    HW210419   2.612   0.168   1.996
 3174SOL     OW10420   3.110   2.844   6.026
 3174SOL    HW110421   3.110   2.944   6.035
 3174SOL    HW210422   3.204   2.812   6.012
 3175SOL     OW10423   1.123   6.561   0.462
 3175SOL    HW110424   1.215   6.534   0.488
 3175SOL    HW210425   1.075   6.483   0.421
 3176SOL     OW10426   1.446   3.781   6.973
 3176SOL    HW110427   1.529   3.837   6.979
 3176SOL    HW210428   1.366   3.840   6.973
 3177SOL     OW10429   5.481   5.508   5.701
 3177SOL    HW110430   5.502   5.604   5.716
 3177SOL    HW210431   5.566   5.454   5.702
 3178SOL     OW10432   0.264   4.493   1.942
 3178SOL    HW110433   0.304   4.447   1.863
 3178SOL    HW210434   0.308   4.582   1.954
 3179SOL     OW10435   1.483   1.761   2.367
 3179SOL    HW110436   1.522   1.852   2.353
 3179SOL    HW210437   1.523   1.697   2.302
 3180SOL     OW10438   5.813   0.200   6.053
 3180SOL    HW110439   5.850   0.109   6.036
 3180SOL    HW210440   5.717   0.193   6.080
 3181SOL     OW10441   1.002   0.777   3.724
 3181SOL    HW110442   1.012   0.871   3.691
 3181SOL    HW210443   1.064   0.717   3.673
 3182SOL     OW10444   0.682   5.756   5.826
 3182SOL    HW110445   0.682   5.730   5.729
 3182SOL    HW210446   0.706   5.853   5.834
 3183SOL     OW10447   4.817   4.713   1.583
 3183SOL    HW110448   4.818   4.704   1.683
 3183SOL    HW210449   4.723   4.723   1.552
 3184SOL     OW10450   2.751   1.897   2.481
 3184SOL    HW110451   2.806   1.814   2.475
 3184SOL    HW210452   2.704   1.911   2.394
 3185SOL     OW10453   6.883   0.052   5.338
 3185SOL    HW110454   6.913   0.056   5.433
 3185SOL    HW210455   6.808   7.009   5.329
 3186SOL     OW10456   3.388   1.108   2.685
 3186SOL    HW110457   3.430   1.107   2.594
 3186SOL    HW210458   3.456   1.133   2.753
 3187SOL     OW10459   3.455   4.903   0.165
 3187SOL    HW110460   3.366   4.938   0.194
 3187SOL    HW210461   3.499   4.856   0.241
 3188SOL     OW10462   3.963   5.838   3.801
 3188SOL    HW110463   3.888   5.773   3.809
 3188SOL    HW210464   4.041   5.795   3.757
 3189SOL     OW10465   1.614   0.021   3.503
 3189SOL    HW110466   1.701   0.062   3.475
 3189SOL    HW210467   1.541   0.052   3.443
 3190SOL     OW10468   1.758   6.064   2.234
 3190SOL    HW110469   1.799   6.119   2.161
 3190SOL    HW210470   1.760   6.116   2.320
 3191SOL     OW10471   3.863   0.347   0.482
 3191SOL    HW110472   3.831   0.430   0.527
 3191SOL    HW210473   3.956   0.361   0.447
 3192SOL     OW10474   0.211   2.632   2.033
 3192SOL    HW110475   0.295   2.607   1.983
 3192SOL    HW210476   0.232   2.703   2.101
 3193SOL     OW10477   4.348   2.356   5.733
 3193SOL    HW110478   4.398   2.404   5.806
 3193SOL    HW210479   4.288   2.421   5.686
 3194SOL     OW10480   1.395   3.329   5.981
 3194SOL    HW110481   1.342   3.394   6.036
 3194SOL    HW210482   1.366   3.236   6.004
 3195SOL     OW10483   0.792   2.829   3.665
 3195SOL    HW110484   0.877   2.777   3.678
 3195SOL    HW210485   0.739   2.828   3.750
 3196SOL     OW10486   0.143   0.046   4.879
 3196SOL    HW110487   0.215   6.999   4.881
 3196SOL    HW210488   0.116   0.069   4.973
 3197SOL     OW10489   1.167   4.471   3.966
 3197SOL    HW110490   1.071   4.486   3.942
 3197SOL    HW210491   1.183   4.373   3.976
 3198SOL     OW10492   0.790   2.324   6.098
 3198SOL    HW110493   0.738   2.261   6.041
 3198SOL    HW210494   0.888   2.314   6.079
 3199SOL     OW10495   4.602   2.136   2.272
 3199SOL    HW110496   4.587   2.235   2.275
 3199SOL    HW210497   4.545   2.096   2.200
 3200SOL     OW10498   6.381   2.326   0.207
 3200SOL    HW110499   6.393   2.228   0.223
 3200SOL    HW210500   6.405   2.348   0.113
 3201SOL     OW10501   5.109   4.094   3.858
 3201SOL    HW110502   5.076   4.064   3.768
 3201SOL    HW210503   5.040   4.073   3.928
 3202SOL     OW10504   1.732   4.554   2.134
 3202SOL    HW110505   1.675   4.626   2.174
 3202SOL    HW210506   1.818   4.548   2.184
 3203SOL     OW10507   6.448   0.785   0.944
 3203SOL    HW110508   6.392   0.853   0.992
 3203SOL    HW210509   6.453   0.809   0.847
 3204SOL     OW10510   6.761   5.667   1.858
 3204SOL    HW110511   6.841   5.719   1.886
 3204SOL    HW210512   6.760   5.659   1.758
 3205SOL     OW10513   0.749   4.018   4.665
 3205SOL    HW110514   0.741   3.919   4.654
 3205SOL    HW210515   0.846   4.044   4.658
 3206SOL     OW10516   1.002   6.671   6.170
 3206SOL    HW110517   0.915   6.716   6.193
 3206SOL    HW210518   1.022   6.600   6.237
 3207SOL     OW10519   0.630   0.714   4.953
 3207SOL    HW110520   0.626   0.730   5.051
 3207SOL    HW210521   0.549   0.662   4.924
 3208SOL     OW10522   4.946   5.878   5.208
 3208SOL    HW110523   5.003   5.925   5.140
 3208SOL    HW210524   4.850   5.890   5.184
 3209SOL     OW10525   2.495   0.721   4.172
 3209SOL    HW110526   2.532   0.628   4.168
 3209SOL    HW210527   2.493   0.753   4.267
 3210SOL     OW10528   6.431   4.473   2.624
 3210SOL    HW110529   6.472   4.386   2.595
 3210SOL    HW210530   6.504   4.538   2.644
 3211SOL     OW10531   2.025   4.587   1.879
 3211SOL    HW110532   2.002   4.651   1.806
 3211SOL    HW210533   1.987   4.497   1.858
 3212SOL     OW10534   5.635   2.128   6.858
 3212SOL    HW110535   5.550   2.081   6.881
 3212SOL    HW210536   5.713   2.073   6.889
 3213SOL     OW10537   5.887   5.921   2.260
 3213SOL    HW110538   5.862   5.825   2.243
 3213SOL    HW210539   5.934   5.928   2.347
 3214SOL     OW10540   3.780   5.598   6.508
 3214SOL    HW110541   3.757   5.513   6.460
 3214SOL    HW210542   3.868   5.586   6.555
 3215SOL     OW10543   6.051   2.262   6.704
 3215SOL    HW110544   6.022   2.167   6.712
 3215SOL    HW210545   6.091   2.277   6.613
 3216SOL     OW10546   5.818   6.921   3.061
 3216SOL    HW110547   5.823   6.828   3.097
 3216SOL    HW210548   5.826   6.987   3.136
 3217SOL     OW10549   6.771   4.298   2.421
 3217SOL    HW110550   6.809   4.206   2.426
 3217SOL    HW210551   6.797   4.340   2.334
 3218SOL     OW10552   3.829   0.837   3.781
 3218SOL    HW110553   3.772   0.879   3.853
 3218SOL    HW210554   3.913   0.890   3.770
 3219SOL     OW10555   0.133   0.948   3.339
 3219SOL    HW110556   0.075   0.952   3.258
 3219SOL    HW210557   0.106   0.871   3.396
 3220SOL     OW10558   6.955   4.592   5.391
 3220SOL    HW110559   6.999   4.665   5.339
 3220SOL    HW210560   6.945   4.511   5.333
 3221SOL     OW10561   2.996   6.954   3.402
 3221SOL    HW110562   3.069   6.940   3.335
 3221SOL    HW210563   2.951   6.867   3.421
 3222SOL     OW10564   5.862   2.627   3.109
 3222SOL    HW110565   5.818   2.671   3.031
 3222SOL    HW210566   5.794   2.575   3.161
 3223SOL     OW10567   1.987   4.740   6.258
 3223SOL    HW110568   1.950   4.650   6.280
 3223SOL    HW210569   2.051   4.732   6.181
 3224SOL     OW10570   4.219   4.638   0.607
 3224SOL    HW110571   4.168   4.594   0.680
 3224SOL    HW210572   4.215   4.738   0.618
 3225SOL     OW10573   2.321   3.648   0.406
 3225SOL    HW110574   2.342   3.742   0.430
 3225SOL    HW210575   2.315   3.592   0.489
 3226SOL     OW10576   1.490   0.617   3.612
 3226SOL    HW110577   1.555   0.554   3.655
 3226SOL    HW210578   1.494   0.606   3.513
 3227SOL     OW10579   3.643   1.214   5.541
 3227SOL    HW110580   3.610   1.123   5.516
 3227SOL    HW210581   3.662   1.267   5.459
 3228SOL     OW10582   6.027   4.043   4.410
 3228SOL    HW110583   6.019   4.076   4.316
 3228SOL    HW210584   5.999   3.947   4.414
 3229SOL     OW10585   4.185   1.555   5.191
 3229SOL    HW110586   4.279   1.590   5.194
 3229SOL    HW210587   4.137   1.580   5.275
 3230SOL     OW10588   0.963   0.310   3.976
 3230SOL    HW110589   0.980   0.358   3.890
 3230SOL    HW210590   0.864   0.295   3.987
 3231SOL     OW10591   5.820   6.260   0.753
 3231SOL    HW110592   5.851   6.166   0.762
 3231SOL    HW210593   5.816   6.285   0.657
 3232SOL     OW10594   2.854   4.786   4.197
 3232SOL    HW110595   2.827   4.761   4.103
 3232SOL    HW210596   2.804   4.728   4.262
 3233SOL     OW10597   0.483   3.964   1.546
 3233SOL    HW110598   0.567   3.946   1.494
 3233SOL    HW210599   0.499   3.942   1.642
 3234SOL     OW10600   0.422   1.933   6.144
 3234SOL    HW110601   0.366   1.924   6.062
 3234SOL    HW210602   0.392   1.866   6.212
 3235SOL     OW10603   5.387   6.739   2.935
 3235SOL    HW110604   5.410   6.836   2.923
 3235SOL    HW210605   5.437   6.685   2.868
 3236SOL     OW10606   0.421   3.031   2.065
 3236SOL    HW110607   0.370   2.953   2.102
 3236SOL    HW210608   0.393   3.114   2.112
 3237SOL     OW10609   3.048   0.032   4.697
 3237SOL    HW110610   3.076   0.128   4.704
 3237SOL    HW210611   2.973   0.023   4.631
 3238SOL     OW10612   0.107   6.227   6.064
 3238SOL    HW110613   0.205   6.212   6.062
 3238SOL    HW210614   0.074   6.251   5.973
 3239SOL     OW10615   6.356   0.213   5.225
 3239SOL    HW110616   6.434   0.166   5.182
 3239SOL    HW210617   6.271   0.172   5.191
 3240SOL     OW10618   1.642   0.343   4.613
 3240SOL    HW110619   1.593   0.393   4.541
 3240SOL    HW210620   1.623   0.385   4.701
 3241SOL     OW10621   5.026   0.801   3.607
 3241SOL    HW110622   5.093   0.729   3.623
 3241SOL    HW210623   5.058   0.886   3.647
 3242SOL     OW10624   3.803   6.564   0.052
 3242SOL    HW110625   3.823   6.635   0.120
 3242SOL    HW210626   3.775   6.481   0.100
 3243SOL     OW10627   3.875   4.915   0.672
 3243SOL    HW110628   3.839   4.856   0.598
 3243SOL    HW210629   3.933   4.986   0.632
 3244SOL     OW10630   3.163   6.191   6.678
 3244SOL    HW110631   3.122   6.169   6.589
 3244SOL    HW210632   3.190   6.107   6.724
 3245SOL     OW10633   3.486   2.285   6.669
 3245SOL    HW110634   3.432   2.204   6.690
 3245SOL    HW210635   3.567   2.257   6.616
 3246SOL     OW10636   5.619   6.037   3.081
 3246SOL    HW110637   5.665   5.972   3.020
 3246SOL    HW210638   5.546   6.084   3.030
 3247SOL     OW10639   0.893   2.726   3.918
 3247SOL    HW110640   0.801   2.692   3.933
 3247SOL    HW210641   0.897   2.824   3.940
 3248SOL     OW10642   6.428   3.399   1.838
 3248SOL    HW110643   6.350   3.446   1.797
 3248SOL    HW210644   6.495   3.467   1.869
 3249SOL     OW10645   2.473   4.649   5.284
 3249SOL    HW110646   2.560   4.604   5.304
 3249SOL    HW210647   2.398   4.587   5.304
 3250SOL     OW10648   4.932   6.662   2.130
 3250SOL    HW110649   4.855   6.726   2.135
 3250SOL    HW210650   4.913   6.582   2.187
 3251SOL     OW10651   3.641   1.316   3.049
 3251SOL    HW110652   3.700   1.298   3.128
 3251SOL    HW210653   3.619   1.229   3.005
 3252SOL     OW10654   2.649   1.502   2.150
 3252SOL    HW110655   2.632   1.421   2.205
 3252SOL    HW210656   2.745   1.503   2.120
 3253SOL     OW10657   5.203   3.003   0.903
 3253SOL    HW110658   5.294   3.017   0.941
 3253SOL    HW210659   5.138   2.987   0.977
 3254SOL     OW10660   5.092   4.272   2.836
 3254SOL    HW110661   5.038   4.332   2.895
 3254SOL    HW210662   5.134   4.200   2.890
 3255SOL     OW10663   4.525   5.388   0.328
 3255SOL    HW110664   4.427   5.399   0.307
 3255SOL    HW210665   4.539   5.402   0.426
 3256SOL     OW10666   5.569   6.659   5.305
 3256SOL    HW110667   5.615   6.611   5.230
 3256SOL    HW210668   5.627   6.734   5.337
 3257SOL     OW10669   1.720   2.654   0.977
 3257SOL    HW110670   1.728   2.602   0.891
 3257SOL    HW210671   1.742   2.594   1.054
 3258SOL     OW10672   5.510   6.482   2.142
 3258SOL    HW110673   5.500   6.562   2.083
 3258SOL    HW210674   5.423   6.466   2.189
 3259SOL     OW10675   4.680   6.888   4.011
 3259SOL    HW110676   4.582   6.880   3.997
 3259SOL    HW210677   4.701   6.883   4.109
 3260SOL     OW10678   1.740   2.183   0.072
 3260SOL    HW110679   1.771   2.092   0.043
 3260SOL    HW210680   1.727   2.182   0.171
 3261SOL     OW10681   4.421   6.804   1.379
 3261SOL    HW110682   4.336   6.752   1.381
 3261SOL    HW210683   4.473   6.779   1.296
 3262SOL     OW10684   3.833   1.626   3.408
 3262SOL    HW110685   3.772   1.631   3.488
 3262SOL    HW210686   3.914   1.682   3.425
 3263SOL     OW10687   3.951   6.647   1.278
 3263SOL    HW110688   4.044   6.636   1.313
 3263SOL    HW210689   3.896   6.698   1.343
 3264SOL     OW10690   5.378   4.933   6.786
 3264SOL    HW110691   5.373   4.979   6.698
 3264SOL    HW210692   5.454   4.970   6.840
 3265SOL     OW10693   4.786   0.986   6.298
 3265SOL    HW110694   4.728   0.919   6.252
 3265SOL    HW210695   4.732   1.068   6.318
 3266SOL     OW10696   1.244   1.266   6.161
 3266SOL    HW110697   1.214   1.358   6.189
 3266SOL    HW210698   1.334   1.247   6.201
 3267SOL     OW10699   3.321   2.395   0.899
 3267SOL    HW110700   3.273   2.314   0.865
 3267SOL    HW210701   3.291   2.415   0.993
 3268SOL     OW10702   1.114   4.180   6.206
 3268SOL    HW110703   1.152   4.193   6.115
 3268SOL    HW210704   1.019   4.213   6.208
 3269SOL     OW10705   4.185   3.922   1.485
 3269SOL    HW110706   4.253   3.897   1.415
 3269SOL    HW210707   4.135   4.003   1.455
 3270SOL     OW10708   0.731   6.225   4.556
 3270SOL    HW110709   0.811   6.238   4.497
 3270SOL    HW210710   0.664   6.297   4.539
 3271SOL     OW10711   6.104   1.833   1.145
 3271SOL    HW110712   6.165   1.912   1.139
 3271SOL    HW210713   6.036   1.837   1.071
 3272SOL     OW10714   4.622   0.026   0.282
 3272SOL    HW110715   4.704   6.992   0.274
 3272SOL    HW210716   4.628   0.081   0.365
 3273SOL     OW10717   0.142   6.645   2.338
 3273SOL    HW110718   0.125   6.737   2.375
 3273SOL    HW210719   0.198   6.594   2.403
 3274SOL     OW10720   3.004   2.112   5.760
 3274SOL    HW110721   3.019   2.144   5.666
 3274SOL    HW210722   2.910   2.129   5.787
 3275SOL     OW10723   2.539   1.002   6.384
 3275SOL    HW110724   2.499   1.087   6.350
 3275SOL    HW210725   2.468   0.944   6.424
 3276SOL     OW10726   3.292   6.713   6.989
 3276SOL    HW110727   3.381   6.722   0.011
 3276SOL    HW210728   3.275   6.617   6.968
 3277SOL     OW10729   0.527   6.355   4.815
 3277SOL    HW110730   0.521   6.256   4.809
 3277SOL    HW210731   0.615   6.381   4.854
 3278SOL     OW10732   1.175   0.612   6.228
 3278SOL    HW110733   1.112   0.536   6.212
 3278SOL    HW210734   1.254   0.579   6.280
 3279SOL     OW10735   1.146   6.655   1.053
 3279SOL    HW110736   1.101   6.609   0.976
 3279SOL    HW210737   1.093   6.640   1.136
 3280SOL     OW10738   2.114   4.456   6.259
 3280SOL    HW110739   2.082   4.428   6.168
 3280SOL    HW210740   2.162   4.380   6.303
 3281SOL     OW10741   2.118   5.691   1.011
 3281SOL    HW110742   2.162   5.674   0.923
 3281SOL    HW210743   2.040   5.630   1.022
 3282SOL     OW10744   2.248   5.330   3.172
 3282SOL    HW110745   2.316   5.404   3.172
 3282SOL    HW210746   2.248   5.284   3.261
 3283SOL     OW10747   2.221   0.926   3.533
 3283SOL    HW110748   2.164   0.949   3.611
 3283SOL    HW210749   2.294   0.863   3.562
 3284SOL     OW10750   0.031   4.435   0.071
 3284SOL    HW110751   0.049   4.342   0.104
 3284SOL    HW210752   6.994   4.483   0.135
 3285SOL     OW10753   0.851   1.440   3.804
 3285SOL    HW110754   0.837   1.348   3.841
 3285SOL    HW210755   0.949   1.459   3.796
 3286SOL     OW10756   3.526   3.522   4.823
 3286SOL    HW110757   3.596   3.558   4.884
 3286SOL    HW210758   3.435   3.539   4.862
 3287SOL     OW10759   1.359   5.546   1.156
 3287SOL    HW110760   1.324   5.459   1.121
 3287SOL    HW210761   1.283   5.604   1.183
 3288SOL     OW10762   7.021   6.070   6.374
 3288SOL    HW110763   0.054   6.146   6.407
 3288SOL    HW210764   6.945   6.105   6.320
 3289SOL     OW10765   1.627   6.285   4.508
 3289SOL    HW110766   1.578   6.372   4.505
 3289SOL    HW210767   1.708   6.294   4.565
 3290SOL     OW10768   6.635   4.903   1.563
 3290SOL    HW110769   6.647   4.863   1.472
 3290SOL    HW210770   6.702   4.864   1.626
 3291SOL     OW10771   1.840   6.493   0.836
 3291SOL    HW110772   1.849   6.581   0.881
 3291SOL    HW210773   1.892   6.494   0.750
 3292SOL     OW10774   0.431   6.181   6.055
 3292SOL    HW110775   0.411   6.249   5.984
 3292SOL    HW210776   0.493   6.221   6.123
 3293SOL     OW10777   0.204   1.133   2.408
 3293SOL    HW110778   0.281   1.069   2.419
 3293SOL    HW210779   0.204   1.199   2.483
 3294SOL     OW10780   0.350   0.692   0.170
 3294SOL    HW110781   0.387   0.602   0.192
 3294SOL    HW210782   0.250   0.687   0.164
 3295SOL     OW10783   1.521   2.754   0.052
 3295SOL    HW110784   1.618   2.770   0.037
 3295SOL    HW210785   1.472   2.841   0.048
 3296SOL     OW10786   1.327   6.622   2.752
 3296SOL    HW110787   1.272   6.703   2.771
 3296SOL    HW210788   1.271   6.540   2.763
 3297SOL     OW10789   3.039   2.625   6.365
 3297SOL    HW110790   3.096   2.547   6.337
 3297SOL    HW210791   2.952   2.621   6.316
 3298SOL     OW10792   6.244   3.197   3.083
 3298SOL    HW110793   6.276   3.188   3.177
 3298SOL    HW210794   6.247   3.293   3.056
 3299SOL     OW10795   1.984   6.807   5.365
 3299SOL    HW110796   1.898   6.760   5.346
 3299SOL    HW210797   2.043   6.802   5.283
 3300SOL     OW10798   6.660   6.912   4.925
 3300SOL    HW110799   6.699   6.821   4.945
 3300SOL    HW210800   6.656   6.926   4.827
 3301SOL     OW10801   0.672   3.658   3.249
 3301SOL    HW110802   0.716   3.746   3.230
 3301SOL    HW210803   0.729   3.606   3.312
 3302SOL     OW10804   1.079   4.193   3.667
 3302SOL    HW110805   1.094   4.107   3.715
 3302SOL    HW210806   0.988   4.191   3.623
 3303SOL     OW10807   3.957   3.852   2.962
 3303SOL    HW110808   4.000   3.792   3.030
 3303SOL    HW210809   3.888   3.909   3.007
 3304SOL     OW10810   0.148   6.560   4.391
 3304SOL    HW110811   0.122   6.537   4.484
 3304SOL    HW210812   0.135   6.658   4.376
 3305SOL     OW10813   1.922   0.911   2.313
 3305SOL    HW110814   1.823   0.918   2.329
 3305SOL    HW210815   1.960   1.003   2.303
 3306SOL     OW10816   1.330   4.388   3.349
 3306SOL    HW110817   1.424   4.419   3.362
 3306SOL    HW210818   1.283   4.449   3.285
 3307SOL     OW10819   0.050   5.701   6.515
 3307SOL    HW110820   0.109   5.773   6.478
 3307SOL    HW210821   7.013   5.740   6.584
 3308SOL     OW10822   4.706   6.290   0.474
 3308SOL    HW110823   4.635   6.228   0.440
 3308SOL    HW210824   4.680   6.384   0.454
 3309SOL     OW10825   6.910   4.943   3.135
 3309SOL    HW110826   6.832   4.902   3.182
 3309SOL    HW210827   6.943   5.021   3.188
 3310SOL     OW10828   1.039   5.571   1.812
 3310SOL    HW110829   1.022   5.566   1.910
 3310SOL    HW210830   1.073   5.661   1.788
 3311SOL     OW10831   4.605   6.534   0.732
 3311SOL    HW110832   4.638   6.440   0.743
 3311SOL    HW210833   4.677   6.590   0.692
 3312SOL     OW10834   3.445   3.740   6.870
 3312SOL    HW110835   3.369   3.793   6.909
 3312SOL    HW210836   3.517   3.730   6.939
 3313SOL     OW10837   6.469   5.824   3.552
 3313SOL    HW110838   6.461   5.761   3.475
 3313SOL    HW210839   6.450   5.774   3.637
 3314SOL     OW10840   1.143   3.432   5.112
 3314SOL    HW110841   1.109   3.481   5.031
 3314SOL    HW210842   1.164   3.498   5.184
 3315SOL     OW10843   0.246   1.736   3.575
 3315SOL    HW110844   0.331   1.691   3.600
 3315SOL    HW210845   0.181   1.731   3.652
 3316SOL     OW10846   4.822   1.656   7.008
 3316SOL    HW110847   4.829   1.682   6.912
 3316SOL    HW210848   4.728   1.670   0.017
 3317SOL     OW10849   4.107   2.596   1.200
 3317SOL    HW110850   4.079   2.611   1.295
 3317SOL    HW210851   4.067   2.665   1.141
 3318SOL     OW10852   2.003   5.511   5.615
 3318SOL    HW110853   2.007   5.538   5.519
 3318SOL    HW210854   2.096   5.498   5.649
 3319SOL     OW10855   0.749   5.501   5.287
 3319SOL    HW110856   0.796   5.440   5.223
 3319SOL    HW210857   0.802   5.586   5.297
 3320SOL     OW10858   0.240   0.749   6.231
 3320SOL    HW110859   0.277   0.667   6.187
 3320SOL    HW210860   0.164   0.784   6.177
 3321SOL     OW10861   3.309   3.868   3.203
 3321SOL    HW110862   3.372   3.925   3.151
 3321SOL    HW210863   3.217   3.906   3.197
 3322SOL     OW10864   4.224   1.687   0.604
 3322SOL    HW110865   4.317   1.688   0.569
 3322SOL    HW210866   4.161   1.721   0.534
 3323SOL     OW10867   2.215   5.117   0.266
 3323SOL    HW110868   2.234   5.045   0.200
 3323SOL    HW210869   2.235   5.206   0.224
 3324SOL     OW10870   0.418   2.371   0.801
 3324SOL    HW110871   0.401   2.279   0.765
 3324SOL    HW210872   0.505   2.405   0.766
 3325SOL     OW10873   1.622   3.066   0.734
 3325SOL    HW110874   1.579   3.155   0.744
 3325SOL    HW210875   1.558   2.995   0.763
 3326SOL     OW10876   5.999   1.593   1.252
 3326SOL    HW110877   6.049   1.673   1.218
 3326SOL    HW210878   6.037   1.564   1.340
 3327SOL     OW10879   3.213   6.765   2.384
 3327SOL    HW110880   3.224   6.670   2.413
 3327SOL    HW210881   3.293   6.818   2.411
 3328SOL     OW10882   4.720   1.042   2.477
 3328SOL    HW110883   4.681   1.133   2.492
 3328SOL    HW210884   4.722   1.022   2.379
 3329SOL     OW10885   4.719   0.360   5.558
 3329SOL    HW110886   4.747   0.405   5.473
 3329SOL    HW210887   4.799   0.346   5.616
 3330SOL     OW10888   6.683   5.306   2.875
 3330SOL    HW110889   6.689   5.206   2.877
 3330SOL    HW210890   6.754   5.344   2.935
 3331SOL     OW10891   2.081   3.595   2.749
 3331SOL    HW110892   2.106   3.574   2.844
 3331SOL    HW210893   2.158   3.571   2.689
 3332SOL     OW10894   3.899   5.463   1.118
 3332SOL    HW110895   3.840   5.543   1.115
 3332SOL    HW210896   3.971   5.471   1.049
 3333SOL     OW10897   3.032   3.347   1.739
 3333SOL    HW110898   3.115   3.399   1.717
 3333SOL    HW210899   2.953   3.407   1.736
 3334SOL     OW10900   1.894   2.805   2.592
 3334SOL    HW110901   1.895   2.904   2.587
 3334SOL    HW210902   1.911   2.776   2.686
 3335SOL     OW10903   3.841   4.569   5.330
 3335SOL    HW110904   3.859   4.575   5.428
 3335SOL    HW210905   3.822   4.660   5.293
 3336SOL     OW10906   4.991   6.177   3.698
 3336SOL    HW110907   4.917   6.120   3.734
 3336SOL    HW210908   4.977   6.272   3.726
 3337SOL     OW10909   3.626   3.593   3.336
 3337SOL    HW110910   3.669   3.641   3.259
 3337SOL    HW210911   3.694   3.534   3.380
 3338SOL     OW10912   2.831   2.174   1.237
 3338SOL    HW110913   2.737   2.197   1.263
 3338SOL    HW210914   2.875   2.254   1.196
 3339SOL     OW10915   2.003   0.030   5.937
 3339SOL    HW110916   2.084   7.010   5.976
 3339SOL    HW210917   1.943   6.983   5.898
 3340SOL     OW10918   4.274   0.745   4.120
 3340SOL    HW110919   4.200   0.779   4.062
 3340SOL    HW210920   4.358   0.739   4.067
 3341SOL     OW10921   1.676   4.099   2.727
 3341SOL    HW110922   1.738   4.108   2.805
 3341SOL    HW210923   1.675   4.185   2.675
 3342SOL     OW10924   0.130   0.455   2.330
 3342SOL    HW110925   0.088   0.383   2.386
 3342SOL    HW210926   0.225   0.469   2.358
 3343SOL     OW10927   5.085   5.185   5.987
 3343SOL    HW110928   5.032   5.266   5.962
 3343SOL    HW210929   5.063   5.159   6.082
 3344SOL     OW10930   0.514   3.160   2.919
 3344SOL    HW110931   0.464   3.234   2.964
 3344SOL    HW210932   0.595   3.137   2.974
 3345SOL     OW10933   6.503   4.499   0.349
 3345SOL    HW110934   6.582   4.557   0.366
 3345SOL    HW210935   6.474   4.456   0.435
 3346SOL     OW10936   1.931   1.081   0.178
 3346SOL    HW110937   1.857   1.147   0.173
 3346SOL    HW210938   1.893   0.989   0.188
 3347SOL     OW10939   6.909   3.549   6.526
 3347SOL    HW110940   6.985   3.566   6.588
 3347SOL    HW210941   6.900   3.450   6.511
 3348SOL     OW10942   3.881   3.779   6.393
 3348SOL    HW110943   3.874   3.700   6.454
 3348SOL    HW210944   3.841   3.859   6.437
 3349SOL     OW10945   2.022   4.706   3.788
 3349SOL    HW110946   2.021   4.760   3.704
 3349SOL    HW210947   2.109   4.659   3.796
 3350SOL     OW10948   0.634   4.241   5.162
 3350SOL    HW110949   0.693   4.314   5.198
 3350SOL    HW210950   0.593   4.191   5.238
 3351SOL     OW10951   5.015   0.690   1.040
 3351SOL    HW110952   5.047   0.667   0.948
 3351SOL    HW210953   5.092   0.721   1.095
 3352SOL     OW10954   5.854   1.990   6.663
 3352SOL    HW110955   5.898   1.985   6.573
 3352SOL    HW210956   5.774   1.930   6.665
 3353SOL     OW10957   2.650   0.478   1.354
 3353SOL    HW110958   2.686   0.535   1.280
 3353SOL    HW210959   2.584   0.412   1.318
 3354SOL     OW10960   3.311   4.022   6.193
 3354SOL    HW110961   3.245   4.037   6.266
 3354SOL    HW210962   3.273   3.956   6.127
 3355SOL     OW10963   2.033   0.831   4.740
 3355SOL    HW110964   2.011   0.886   4.821
 3355SOL    HW210965   1.948   0.807   4.692
 3356SOL     OW10966   1.615   6.896   5.820
 3356SOL    HW110967   1.548   6.916   5.891
 3356SOL    HW210968   1.696   6.855   5.861
 3357SOL     OW10969   2.686   3.043   1.758
 3357SOL    HW110970   2.749   3.113   1.790
 3357SOL    HW210971   2.738   2.962   1.730
 3358SOL     OW10972   7.014   0.881   1.534
 3358SOL    HW110973   6.980   0.799   1.581
 3358SOL    HW210974   6.960   0.897   1.452
 3359SOL     OW10975   6.533   6.262   3.904
 3359SOL    HW110976   6.505   6.303   3.991
 3359SOL    HW210977   6.516   6.328   3.830
 3360SOL     OW10978   0.682   3.547   5.033
 3360SOL    HW110979   0.641   3.577   5.119
 3360SOL    HW210980   0.740   3.468   5.050
 3361SOL     OW10981   6.829   0.628   4.461
 3361SOL    HW110982   6.775   0.680   4.527
 3361SOL    HW210983   6.896   0.572   4.510
 3362SOL     OW10984   3.544   1.167   4.320
 3362SOL    HW110985   3.482   1.244   4.302
 3362SOL    HW210986   3.497   1.099   4.376
 3363SOL     OW10987   5.813   3.203   0.247
 3363SOL    HW110988   5.828   3.301   0.259
 3363SOL    HW210989   5.769   3.186   0.159
 3364SOL     OW10990   1.692   3.593   3.871
 3364SOL    HW110991   1.637   3.671   3.901
 3364SOL    HW210992   1.746   3.559   3.948
 3365SOL     OW10993   2.182   3.813   3.903
 3365SOL    HW110994   2.229   3.898   3.928
 3365SOL    HW210995   2.137   3.824   3.815
 3366SOL     OW10996   5.857   4.174   4.049
 3366SOL    HW110997   5.933   4.237   4.031
 3366SOL    HW210998   5.893   4.090   4.090
 3367SOL     OW10999   3.712   3.351   4.063
 3367SOL    HW111000   3.623   3.307   4.048
 3367SOL    HW211001   3.710   3.398   4.151
 3368SOL     OW11002   1.496   6.147   1.366
 3368SOL    HW111003   1.544   6.088   1.432
 3368SOL    HW211004   1.415   6.100   1.332
 3369SOL     OW11005   4.731   2.889   1.101
 3369SOL    HW111006   4.700   2.811   1.154
 3369SOL    HW211007   4.652   2.947   1.077
 3370SOL     OW11008   0.595   6.050   2.685
 3370SOL    HW111009   0.504   6.010   2.669
 3370SOL    HW211010   0.598   6.090   2.776
 3371SOL     OW11011   1.663   2.790   3.434
 3371SOL    HW111012   1.761   2.772   3.427
 3371SOL    HW211013   1.627   2.814   3.343
 3372SOL     OW11014   6.014   4.181   2.004
 3372SOL    HW111015   6.039   4.213   2.096
 3372SOL    HW211016   5.997   4.083   2.006
 3373SOL     OW11017   6.405   2.880   1.187
 3373SOL    HW111018   6.345   2.952   1.224
 3373SOL    HW211019   6.481   2.865   1.249
 3374SOL     OW11020   0.313   0.394   3.982
 3374SOL    HW111021   0.219   0.424   3.967
 3374SOL    HW211022   0.362   0.395   3.895
 3375SOL     OW11023   6.290   5.258   5.858
 3375SOL    HW111024   6.348   5.177   5.844
 3375SOL    HW211025   6.196   5.236   5.831
 3376SOL     OW11026   2.837   3.799   5.215
 3376SOL    HW111027   2.818   3.830   5.122
 3376SOL    HW211028   2.753   3.802   5.269
 3377SOL     OW11029   6.411   4.742   3.284
 3377SOL    HW111030   6.477   4.674   3.255
 3377SOL    HW211031   6.370   4.786   3.203
 3378SOL     OW11032   1.325   6.086   1.119
 3378SOL    HW111033   1.360   5.992   1.119
 3378SOL    HW211034   1.326   6.121   1.025
 3379SOL     OW11035   6.686   4.314   3.678
 3379SOL    HW111036   6.768   4.366   3.652
 3379SOL    HW211037   6.690   4.222   3.638
 3380SOL     OW11038   3.516   4.710   6.495
 3380SOL    HW111039   3.440   4.699   6.559
 3380SOL    HW211040   3.565   4.795   6.516
 3381SOL     OW11041   1.601   3.478   0.307
 3381SOL    HW111042   1.678   3.537   0.329
 3381SOL    HW211043   1.616   3.434   0.218
 3382SOL     OW11044   6.920   2.747   1.301
 3382SOL    HW111045   6.849   2.729   1.233
 3382SOL    HW211046   6.882   2.801   1.376
 3383SOL     OW11047   5.000   5.280   0.088
 3383SOL    HW111048   4.952   5.221   0.023
 3383SOL    HW211049   4.964   5.374   0.080
 3384SOL     OW11050   2.587   4.275   6.943
 3384SOL    HW111051   2.524   4.262   7.019
 3384SOL    HW211052   2.594   4.373   6.922
 3385SOL     OW11053   0.466   2.369   4.168
 3385SOL    HW111054   0.554   2.336   4.203
 3385SOL    HW211055   0.392   2.339   4.229
 3386SOL     OW11056   0.320   4.279   5.908
 3386SOL    HW111057   0.407   4.320   5.880
 3386SOL    HW211058   0.244   4.335   5.876
 3387SOL     OW11059   6.391   0.546   3.055
 3387SOL    HW111060   6.366   0.632   3.010
 3387SOL    HW211061   6.418   0.564   3.149
 3388SOL     OW11062   6.789   3.413   1.013
 3388SOL    HW111063   6.869   3.354   1.025
 3388SOL    HW211064   6.752   3.437   1.103
 3389SOL     OW11065   5.791   6.229   0.421
 3389SOL    HW111066   5.786   6.153   0.486
 3389SOL    HW211067   5.862   6.210   0.353
 3390SOL     OW11068   3.850   6.830   5.668
 3390SOL    HW111069   3.831   6.915   5.717
 3390SOL    HW211070   3.894   6.765   5.730
 3391SOL     OW11071   5.766   3.157   4.323
 3391SOL    HW111072   5.721   3.203   4.400
 3391SOL    HW211073   5.781   3.061   4.347
 3392SOL     OW11074   4.491   6.283   5.473
 3392SOL    HW111075   4.519   6.228   5.551
 3392SOL    HW211076   4.471   6.376   5.504
 3393SOL     OW11077   4.929   5.322   1.062
 3393SOL    HW111078   4.941   5.378   1.143
 3393SOL    HW211079   4.836   5.284   1.060
 3394SOL     OW11080   2.876   5.513   1.417
 3394SOL    HW111081   2.915   5.543   1.330
 3394SOL    HW211082   2.813   5.583   1.452
 3395SOL     OW11083   2.599   0.003   3.631
 3395SOL    HW111084   2.518   0.005   3.573
 3395SOL    HW211085   2.636   6.933   3.634
 3396SOL     OW11086   5.067   1.930   4.512
 3396SOL    HW111087   5.164   1.952   4.505
 3396SOL    HW211088   5.030   1.966   4.597
 3397SOL     OW11089   2.068   6.286   0.238
 3397SOL    HW111090   2.080   6.367   0.295
 3397SOL    HW211091   2.024   6.213   0.292
 3398SOL     OW11092   0.103   2.134   4.080
 3398SOL    HW111093   0.091   2.228   4.048
 3398SOL    HW211094   0.119   2.074   4.001
 3399SOL     OW11095   6.466   5.754   1.767
 3399SOL    HW111096   6.537   5.777   1.835
 3399SOL    HW211097   6.420   5.670   1.795
 3400SOL     OW11098   5.295   1.785   6.320
 3400SOL    HW111099   5.291   1.775   6.221
 3400SOL    HW211100   5.221   1.733   6.363
 3401SOL     OW11101   6.489   3.366   5.841
 3401SOL    HW111102   6.441   3.365   5.753
 3401SOL    HW211103   6.424   3.343   5.914
 3402SOL     OW11104   6.092   3.177   1.520
 3402SOL    HW111105   6.112   3.256   1.464
 3402SOL    HW211106   6.000   3.187   1.560
 3403SOL     OW11107   4.915   6.691   6.748
 3403SOL    HW111108   4.856   6.735   6.680
 3403SOL    HW211109   5.005   6.735   6.748
 3404SOL     OW11110   5.182   4.091   5.243
 3404SOL    HW111111   5.273   4.124   5.269
 3404SOL    HW211112   5.113   4.152   5.281
 3405SOL     OW11113   5.120   5.502   6.239
 3405SOL    HW111114   5.210   5.545   6.240
 3405SOL    HW211115   5.094   5.477   6.332
 3406SOL     OW11116   2.342   4.873   1.823
 3406SOL    HW111117   2.397   4.920   1.892
 3406SOL    HW211118   2.401   4.819   1.764
 3407SOL     OW11119   1.024   3.418   0.247
 3407SOL    HW111120   1.080   3.439   0.167
 3407SOL    HW211121   0.998   3.502   0.293
 3408SOL     OW11122   4.968   2.008   3.601
 3408SOL    HW111123   4.916   2.070   3.543
 3408SOL    HW211124   4.954   1.914   3.571
 3409SOL     OW11125   4.214   0.231   0.719
 3409SOL    HW111126   4.225   0.328   0.741
 3409SOL    HW211127   4.122   0.216   0.682
 3410SOL     OW11128   5.459   0.517   2.760
 3410SOL    HW111129   5.390   0.488   2.826
 3410SOL    HW211130   5.522   0.441   2.742
 3411SOL     OW11131   6.120   2.238   0.380
 3411SOL    HW111132   6.141   2.199   0.291
 3411SOL    HW211133   6.133   2.337   0.378
 3412SOL     OW11134   5.992   2.971   1.756
 3412SOL    HW111135   6.073   2.914   1.773
 3412SOL    HW211136   6.002   3.017   1.668
 3413SOL     OW11137   0.214   3.151   6.123
 3413SOL    HW111138   0.192   3.152   6.026
 3413SOL    HW211139   0.224   3.057   6.155
 3414SOL     OW11140   3.204   4.538   0.890
 3414SOL    HW111141   3.283   4.509   0.836
 3414SOL    HW211142   3.193   4.478   0.969
 3415SOL     OW11143   1.740   1.988   5.972
 3415SOL    HW111144   1.824   2.008   6.023
 3415SOL    HW211145   1.686   2.071   5.965
 3416SOL     OW11146   6.266   6.989   6.808
 3416SOL    HW111147   6.363   6.979   6.832
 3416SOL    HW211148   6.259   0.011   6.719
 3417SOL     OW11149   5.752   6.743   3.385
 3417SOL    HW111150   5.694   6.822   3.407
 3417SOL    HW211151   5.834   6.745   3.443
 3418SOL     OW11152   4.901   4.782   0.785
 3418SOL    HW111153   4.997   4.756   0.774
 3418SOL    HW211154   4.869   4.827   0.702
 3419SOL     OW11155   2.565   6.001   5.845
 3419SOL    HW111156   2.561   6.003   5.945
 3419SOL    HW211157   2.474   6.020   5.808
 3420SOL     OW11158   4.167   2.275   2.794
 3420SOL    HW111159   4.195   2.231   2.709
 3420SOL    HW211160   4.204   2.368   2.798
 3421SOL     OW11161   6.541   2.381   3.271
 3421SOL    HW111162   6.443   2.386   3.249
 3421SOL    HW211163   6.594   2.383   3.187
 3422SOL     OW11164   2.495   6.683   0.864
 3422SOL    HW111165   2.593   6.700   0.874
 3422SOL    HW211166   2.464   6.621   0.936
 3423SOL     OW11167   1.592   4.129   6.122
 3423SOL    HW111168   1.527   4.196   6.086
 3423SOL    HW211169   1.633   4.165   6.206
 3424SOL     OW11170   4.564   0.375   1.595
 3424SOL    HW111171   4.512   0.290   1.596
 3424SOL    HW211172   4.532   0.435   1.669
 3425SOL     OW11173   5.510   3.700   0.442
 3425SOL    HW111174   5.414   3.703   0.412
 3425SOL    HW211175   5.546   3.608   0.429
 3426SOL     OW11176   5.658   2.720   6.844
 3426SOL    HW111177   5.715   2.652   6.798
 3426SOL    HW211178   5.669   2.808   6.798
 3427SOL     OW11179   1.395   2.425   0.675
 3427SOL    HW111180   1.484   2.443   0.633
 3427SOL    HW211181   1.382   2.326   0.683
 3428SOL     OW11182   5.010   6.101   5.665
 3428SOL    HW111183   5.051   6.188   5.638
 3428SOL    HW211184   4.912   6.113   5.680
 3429SOL     OW11185   5.843   0.395   0.703
 3429SOL    HW111186   5.749   0.381   0.733
 3429SOL    HW211187   5.902   0.409   0.782
 3430SOL     OW11188   2.046   4.521   5.456
 3430SOL    HW111189   2.025   4.448   5.392
 3430SOL    HW211190   2.014   4.608   5.419
 3431SOL     OW11191   1.391   5.210   3.195
 3431SOL    HW111192   1.431   5.134   3.247
 3431SOL    HW211193   1.463   5.269   3.161
 3432SOL     OW11194   1.447   3.764   0.610
 3432SOL    HW111195   1.542   3.734   0.600
 3432SOL    HW211196   1.395   3.692   0.657
 3433SOL     OW11197   2.185   2.007   6.984
 3433SOL    HW111198   2.277   2.014   7.022
 3433SOL    HW211199   2.162   1.911   6.969
 3434SOL     OW11200   3.328   2.459   1.183
 3434SOL    HW111201   3.267   2.413   1.248
 3434SOL    HW211202   3.423   2.448   1.212
 3435SOL     OW11203   2.108   1.042   1.386
 3435SOL    HW111204   2.180   0.990   1.430
 3435SOL    HW211205   2.145   1.127   1.350
 3436SOL     OW11206   3.172   6.693   6.425
 3436SOL    HW111207   3.140   6.628   6.493
 3436SOL    HW211208   3.209   6.643   6.346
 3437SOL     OW11209   1.110   0.386   6.423
 3437SOL    HW111210   1.126   0.471   6.473
 3437SOL    HW211211   1.033   0.399   6.360
 3438SOL     OW11212   1.315   4.097   1.539
 3438SOL    HW111213   1.301   4.003   1.506
 3438SOL    HW211214   1.226   4.137   1.563
 3439SOL     OW11215   2.555   5.064   1.900
 3439SOL    HW111216   2.607   5.149   1.901
 3439SOL    HW211217   2.617   4.986   1.900
 3440SOL     OW11218   4.072   3.692   4.849
 3440SOL    HW111219   4.111   3.601   4.860
 3440SOL    HW211220   4.099   3.729   4.759
 3441SOL     OW11221   5.560   4.728   5.918
 3441SOL    HW111222   5.644   4.752   5.868
 3441SOL    HW211223   5.581   4.655   5.984
 3442SOL     OW11224   3.336   3.287   1.298
 3442SOL    HW111225   3.397   3.301   1.220
 3442SOL    HW211226   3.256   3.235   1.268
 3443SOL     OW11227   0.935   6.162   1.987
 3443SOL    HW111228   0.924   6.256   1.956
 3443SOL    HW211229   0.991   6.160   2.070
 3444SOL     OW11230   6.194   3.736   6.949
 3444SOL    HW111231   6.126   3.806   6.925
 3444SOL    HW211232   6.267   3.736   6.880
 3445SOL     OW11233   6.207   4.620   3.442
 3445SOL    HW111234   6.115   4.656   3.426
 3445SOL    HW211235   6.273   4.694   3.434
 3446SOL     OW11236   4.836   0.945   1.094
 3446SOL    HW111237   4.851   0.859   1.046
 3446SOL    HW211238   4.740   0.950   1.124
 3447SOL     OW11239   5.749   1.115   6.879
 3447SOL    HW111240   5.807   1.033   6.883
 3447SOL    HW211241   5.678   1.102   6.810
 3448SOL     OW11242   1.766   6.101   5.008
 3448SOL    HW111243   1.753   6.182   5.065
 3448SOL    HW211244   1.699   6.102   4.933
 3449SOL     OW11245   6.701   4.442   5.603
 3449SOL    HW111246   6.764   4.370   5.574
 3449SOL    HW211247   6.701   4.515   5.535
 3450SOL     OW11248   2.440   6.480   1.740
 3450SOL    HW111249   2.453   6.387   1.775
 3450SOL    HW211250   2.382   6.531   1.803
 3451SOL     OW11251   2.059   1.223   1.762
 3451SOL    HW111252   2.011   1.138   1.782
 3451SOL    HW211253   1.999   1.283   1.709
 3452SOL     OW11254   4.615   0.734   5.053
 3452SOL    HW111255   4.649   0.722   5.146
 3452SOL    HW211256   4.671   0.802   5.006
 3453SOL     OW11257   4.488   6.082   5.950
 3453SOL    HW111258   4.464   5.985   5.948
 3453SOL    HW211259   4.549   6.100   6.028
 3454SOL     OW11260   0.502   2.865   1.508
 3454SOL    HW111261   0.550   2.952   1.515
 3454SOL    HW211262   0.476   2.832   1.599
 3455SOL     OW11263   0.850   3.308   5.028
 3455SOL    HW111264   0.828   3.305   5.125
 3455SOL    HW211265   0.941   3.271   5.013
 3456SOL     OW11266   5.349   4.933   3.131
 3456SOL    HW111267   5.319   4.873   3.206
 3456SOL    HW211268   5.272   4.948   3.069
 3457SOL     OW11269   3.670   4.714   5.757
 3457SOL    HW111270   3.637   4.631   5.712
 3457SOL    HW211271   3.762   4.735   5.725
 3458SOL     OW11272   4.156   1.044   2.267
 3458SOL    HW111273   4.117   1.069   2.355
 3458SOL    HW211274   4.255   1.046   2.271
 3459SOL     OW11275   4.374   6.521   3.095
 3459SOL    HW111276   4.463   6.524   3.051
 3459SOL    HW211277   4.343   6.614   3.116
 3460SOL     OW11278   4.334   1.649   4.834
 3460SOL    HW111279   4.384   1.690   4.911
 3460SOL    HW211280   4.273   1.578   4.869
 3461SOL     OW11281   5.886   5.795   5.104
 3461SOL    HW111282   5.932   5.707   5.100
 3461SOL    HW211283   5.858   5.822   5.012
 3462SOL     OW11284   1.836   3.350   6.498
 3462SOL    HW111285   1.862   3.358   6.595
 3462SOL    HW211286   1.736   3.342   6.492
 3463SOL     OW11287   5.746   3.596   1.061
 3463SOL    HW111288   5.804   3.551   1.129
 3463SOL    HW211289   5.794   3.598   0.973
 3464SOL     OW11290   0.332   4.538   6.044
 3464SOL    HW111291   0.407   4.512   5.984
 3464SOL    HW211292   0.246   4.536   5.993
 3465SOL     OW11293   1.513   1.024   0.743
 3465SOL    HW111294   1.576   0.947   0.738
 3465SOL    HW211295   1.445   1.007   0.814
 3466SOL     OW11296   6.600   3.952   5.895
 3466SOL    HW111297   6.522   3.975   5.953
 3466SOL    HW211298   6.670   3.906   5.950
 3467SOL     OW11299   1.800   1.938   7.009
 3467SOL    HW111300   1.795   1.877   0.064
 3467SOL    HW211301   1.861   1.900   6.940
 3468SOL     OW11302   3.597   6.980   3.937
 3468SOL    HW111303   3.526   6.970   4.007
 3468SOL    HW211304   3.630   0.051   3.936
 3469SOL     OW11305   4.920   2.725   3.218
 3469SOL    HW111306   4.917   2.651   3.285
 3469SOL    HW211307   4.898   2.689   3.127
 3470SOL     OW11308   0.040   5.121   1.153
 3470SOL    HW111309   7.008   5.197   1.188
 3470SOL    HW211310   0.022   5.109   1.055
 3471SOL     OW11311   4.009   6.471   5.019
 3471SOL    HW111312   3.999   6.406   5.095
 3471SOL    HW211313   3.919   6.505   4.993
 3472SOL     OW11314   3.477   1.250   5.099
 3472SOL    HW111315   3.424   1.316   5.046
 3472SOL    HW211316   3.415   1.194   5.155
 3473SOL     OW11317   5.177   1.014   5.536
 3473SOL    HW111318   5.124   1.056   5.609
 3473SOL    HW211319   5.118   0.953   5.483
 3474SOL     OW11320   4.576   5.039   0.824
 3474SOL    HW111321   4.568   4.952   0.874
 3474SOL    HW211322   4.672   5.055   0.801
 3475SOL     OW11323   1.543   5.873   4.766
 3475SOL    HW111324   1.591   5.960   4.773
 3475SOL    HW211325   1.609   5.800   4.747
 3476SOL     OW11326   5.055   1.147   4.273
 3476SOL    HW111327   5.086   1.082   4.342
 3476SOL    HW211328   5.133   1.200   4.239
 3477SOL     OW11329   4.438   6.097   1.627
 3477SOL    HW111330   4.462   6.123   1.534
 3477SOL    HW211331   4.444   6.178   1.686
 3478SOL     OW11332   4.087   4.377   0.214
 3478SOL    HW111333   4.115   4.465   0.252
 3478SOL    HW211334   4.147   4.305   0.249
 3479SOL     OW11335   1.007   0.454   1.907
 3479SOL    HW111336   1.058   0.540   1.906
 3479SOL    HW211337   0.933   0.460   1.974
 3480SOL     OW11338   1.191   1.096   3.070
 3480SOL    HW111339   1.224   1.047   3.150
 3480SOL    HW211340   1.194   1.195   3.087
 3481SOL     OW11341   1.965   6.565   6.828
 3481SOL    HW111342   2.023   6.646   6.832
 3481SOL    HW211343   1.940   6.545   6.734
 3482SOL     OW11344   0.280   2.012   0.459
 3482SOL    HW111345   0.282   1.913   0.446
 3482SOL    HW211346   0.217   2.053   0.393
 3483SOL     OW11347   3.205   6.833   1.055
 3483SOL    HW111348   3.216   6.812   1.152
 3483SOL    HW211349   3.263   6.911   1.031
 3484SOL     OW11350   3.436   3.888   3.775
 3484SOL    HW111351   3.522   3.838   3.782
 3484SOL    HW211352   3.370   3.834   3.721
 3485SOL     OW11353   1.018   2.308   4.765
 3485SOL    HW111354   1.024   2.378   4.837
 3485SOL    HW211355   0.952   2.238   4.793
 3486SOL     OW11356   4.494   1.850   2.310
 3486SOL    HW111357   4.421   1.901   2.356
 3486SOL    HW211358   4.521   1.900   2.227
 3487SOL     OW11359   7.022   0.417   6.962
 3487SOL    HW111360   6.953   0.353   6.996
 3487SOL    HW211361   6.978   0.504   6.940
 3488SOL     OW11362   5.909   3.642   4.031
 3488SOL    HW111363   5.923   3.701   3.952
 3488SOL    HW211364   5.995   3.598   4.056
 3489SOL     OW11365   2.825   0.085   0.823
 3489SOL    HW111366   2.880   0.078   0.740
 3489SOL    HW211367   2.862   0.024   0.893
 3490SOL     OW11368   3.951   3.755   0.184
 3490SOL    HW111369   3.899   3.725   0.104
 3490SOL    HW211370   4.000   3.676   0.222
 3491SOL     OW11371   0.560   3.087   4.712
 3491SOL    HW111372   0.649   3.132   4.706
 3491SOL    HW211373   0.542   3.036   4.628
 3492SOL     OW11374   6.141   4.868   6.884
 3492SOL    HW111375   6.229   4.860   6.838
 3492SOL    HW211376   6.149   4.931   6.961
 3493SOL     OW11377   6.365   5.134   0.395
 3493SOL    HW111378   6.286   5.106   0.450
 3493SOL    HW211379   6.336   5.146   0.300
 3494SOL     OW11380   3.372   0.240   0.686
 3494SOL    HW111381   3.417   0.325   0.713
 3494SOL    HW211382   3.371   0.233   0.586
 3495SOL     OW11383   5.038   4.730   0.289
 3495SOL    HW111384   5.126   4.775   0.275
 3495SOL    HW211385   5.053   4.632   0.303
 3496SOL     OW11386   1.975   3.826   0.951
 3496SOL    HW111387   1.944   3.919   0.933
 3496SOL    HW211388   2.014   3.821   1.043
 3497SOL     OW11389   4.628   0.211   3.409
 3497SOL    HW111390   4.602   0.168   3.322
 3497SOL    HW211391   4.713   0.170   3.443
 3498SOL     OW11392   2.217   1.461   2.074
 3498SOL    HW111393   2.225   1.471   2.173
 3498SOL    HW211394   2.234   1.550   2.031
 3499SOL     OW11395   6.937   3.100   3.883
 3499SOL    HW111396   6.970   3.194   3.880
 3499SOL    HW211397   6.837   3.100   3.878
 3500SOL     OW11398   6.481   3.448   0.648
 3500SOL    HW111399   6.538   3.492   0.718
 3500SOL    HW211400   6.537   3.385   0.595
 3501SOL     OW11401   1.122   4.565   4.258
 3501SOL    HW111402   1.125   4.520   4.169
 3501SOL    HW211403   1.210   4.554   4.304
 3502SOL     OW11404   0.843   3.392   1.627
 3502SOL    HW111405   0.886   3.431   1.709
 3502SOL    HW211406   0.777   3.457   1.591
 3503SOL     OW11407   4.822   6.350   4.256
 3503SOL    HW111408   4.814   6.251   4.248
 3503SOL    HW211409   4.735   6.393   4.232
 3504SOL     OW11410   1.964   3.387   2.138
 3504SOL    HW111411   2.029   3.443   2.086
 3504SOL    HW211412   1.874   3.393   2.097
 3505SOL     OW11413   5.317   5.415   4.802
 3505SOL    HW111414   5.327   5.474   4.881
 3505SOL    HW211415   5.249   5.344   4.822
 3506SOL     OW11416   5.067   5.495   2.737
 3506SOL    HW111417   5.016   5.551   2.671
 3506SOL    HW211418   5.020   5.408   2.751
 3507SOL     OW11419   0.982   0.408   6.174
 3507SOL    HW111420   0.887   0.431   6.151
 3507SOL    HW211421   1.015   0.337   6.112
 3508SOL     OW11422   5.822   2.981   6.778
 3508SOL    HW111423   5.881   2.979   6.696
 3508SOL    HW211424   5.866   2.929   6.851
 3509SOL     OW11425   6.578   6.317   0.823
 3509SOL    HW111426   6.640   6.246   0.790
 3509SOL    HW211427   6.531   6.360   0.746
 3510SOL     OW11428   1.719   3.285   2.745
 3510SOL    HW111429   1.716   3.297   2.646
 3510SOL    HW211430   1.731   3.374   2.790
 3511SOL     OW11431   0.803   1.391   5.730
 3511SOL    HW111432   0.854   1.313   5.767
 3511SOL    HW211433   0.847   1.422   5.646
 3512SOL     OW11434   3.075   3.664   1.069
 3512SOL    HW111435   3.005   3.593   1.070
 3512SOL    HW211436   3.162   3.625   1.097
 3513SOL     OW11437   5.834   4.673   1.190
 3513SOL    HW111438   5.791   4.691   1.279
 3513SOL    HW211439   5.873   4.757   1.155
 3514SOL     OW11440   0.806   6.282   1.648
 3514SOL    HW111441   0.812   6.355   1.716
 3514SOL    HW211442   0.770   6.199   1.690
 3515SOL     OW11443   2.787   6.070   3.588
 3515SOL    HW111444   2.800   6.034   3.496
 3515SOL    HW211445   2.788   6.170   3.585
 3516SOL     OW11446   2.782   1.202   0.626
 3516SOL    HW111447   2.741   1.176   0.713
 3516SOL    HW211448   2.792   1.302   0.623
 3517SOL     OW11449   1.417   0.980   6.429
 3517SOL    HW111450   1.322   0.970   6.458
 3517SOL    HW211451   1.427   1.064   6.377
 3518SOL     OW11452   4.274   3.084   5.768
 3518SOL    HW111453   4.310   3.053   5.856
 3518SOL    HW211454   4.185   3.041   5.751
 3519SOL     OW11455   1.981   6.421   0.606
 3519SOL    HW111456   1.970   6.486   0.531
 3519SOL    HW211457   2.070   6.376   0.598
 3520SOL     OW11458   4.341   5.775   0.639
 3520SOL    HW111459   4.357   5.720   0.721
 3520SOL    HW211460   4.366   5.870   0.657
 3521SOL     OW11461   5.925   2.533   0.489
 3521SOL    HW111462   5.973   2.553   0.404
 3521SOL    HW211463   5.904   2.435   0.493
 3522SOL     OW11464   3.161   4.953   2.495
 3522SOL    HW111465   3.238   4.934   2.434
 3522SOL    HW211466   3.184   4.925   2.588
 3523SOL     OW11467   2.169   4.690   6.056
 3523SOL    HW111468   2.224   4.634   6.118
 3523SOL    HW211469   2.226   4.763   6.018
 3524SOL     OW11470   2.422   0.340   1.258
 3524SOL    HW111471   2.465   0.250   1.258
 3524SOL    HW211472   2.330   0.334   1.220
 3525SOL     OW11473   1.107   2.948   2.899
 3525SOL    HW111474   1.094   2.852   2.875
 3525SOL    HW211475   1.034   3.003   2.858
 3526SOL     OW11476   2.387   0.815   2.607
 3526SOL    HW111477   2.387   0.716   2.623
 3526SOL    HW211478   2.299   0.842   2.567
 3527SOL     OW11479   5.031   3.166   5.920
 3527SOL    HW111480   5.035   3.173   6.019
 3527SOL    HW211481   5.029   3.069   5.894
 3528SOL     OW11482   6.851   0.183   4.350
 3528SOL    HW111483   6.869   0.156   4.255
 3528SOL    HW211484   6.919   0.141   4.410
 3529SOL     OW11485   3.703   6.594   6.511
 3529SOL    HW111486   3.718   6.495   6.516
 3529SOL    HW211487   3.606   6.613   6.528
 3530SOL     OW11488   1.837   5.833   2.991
 3530SOL    HW111489   1.932   5.843   2.963
 3530SOL    HW211490   1.826   5.865   3.085
 3531SOL     OW11491   4.470   3.843   6.925
 3531SOL    HW111492   4.466   3.752   6.967
 3531SOL    HW211493   4.565   3.874   6.922
 3532SOL     OW11494   1.868   0.031   0.370
 3532SOL    HW111495   1.794   0.034   0.438
 3532SOL    HW211496   1.848   6.983   0.303
 3533SOL     OW11497   1.671   1.327   3.247
 3533SOL    HW111498   1.613   1.343   3.167
 3533SOL    HW211499   1.761   1.369   3.232
 3534SOL     OW11500   5.306   1.199   4.564
 3534SOL    HW111501   5.238   1.271   4.581
 3534SOL    HW211502   5.322   1.192   4.465
 3535SOL     OW11503   4.670   5.867   6.446
 3535SOL    HW111504   4.749   5.812   6.420
 3535SOL    HW211505   4.697   5.964   6.450
 3536SOL     OW11506   1.007   4.520   3.369
 3536SOL    HW111507   0.970   4.445   3.424
 3536SOL    HW211508   1.011   4.491   3.273
 3537SOL     OW11509   2.364   4.975   0.666
 3537SOL    HW111510   2.449   4.997   0.715
 3537SOL    HW211511   2.342   4.878   0.678
 3538SOL     OW11512   2.659   0.692   4.930
 3538SOL    HW111513   2.754   0.665   4.914
 3538SOL    HW211514   2.654   0.752   5.010
 3539SOL     OW11515   5.368   5.640   6.234
 3539SOL    HW111516   5.355   5.703   6.310
 3539SOL    HW211517   5.360   5.690   6.148
 3540SOL     OW11518   3.104   3.758   6.318
 3540SOL    HW111519   3.100   3.834   6.252
 3540SOL    HW211520   3.011   3.728   6.340
 3541SOL     OW11521   2.239   2.922   1.484
 3541SOL    HW111522   2.322   2.957   1.527
 3541SOL    HW211523   2.222   2.971   1.398
 3542SOL     OW11524   5.591   2.161   6.205
 3542SOL    HW111525   5.603   2.254   6.240
 3542SOL    HW211526   5.501   2.127   6.229
 3543SOL     OW11527   0.425   2.379   3.216
 3543SOL    HW111528   0.399   2.327   3.298
 3543SOL    HW211529   0.387   2.335   3.135
 3544SOL     OW11530   2.605   4.126   6.482
 3544SOL    HW111531   2.558   4.206   6.445
 3544SOL    HW211532   2.671   4.155   6.552
 3545SOL     OW11533   3.531   6.326   1.387
 3545SOL    HW111534   3.605   6.383   1.422
 3545SOL    HW211535   3.470   6.380   1.329
 3546SOL     OW11536   0.383   4.420   3.327
 3546SOL    HW111537   0.445   4.496   3.343
 3546SOL    HW211538   0.375   4.403   3.229
 3547SOL     OW11539   1.173   4.234   5.304
 3547SOL    HW111540   1.248   4.238   5.238
 3547SOL    HW211541   1.206   4.192   5.389
 3548SOL     OW11542   5.438   0.772   5.269
 3548SOL    HW111543   5.350   0.724   5.277
 3548SOL    HW211544   5.502   0.733   5.335
 3549SOL     OW11545   2.610   6.694   0.037
 3549SOL    HW111546   2.623   6.691   6.961
 3549SOL    HW211547   2.531   6.637   0.061
 3550SOL     OW11548   5.485   1.030   5.251
 3550SOL    HW111549   5.469   0.932   5.251
 3550SOL    HW211550   5.506   1.061   5.343
 3551SOL     OW11551   4.541   2.093   4.128
 3551SOL    HW111552   4.584   2.169   4.176
 3551SOL    HW211553   4.465   2.058   4.182
 3552SOL     OW11554   0.597   6.947   2.971
 3552SOL    HW111555   0.519   6.886   2.988
 3552SOL    HW211556   0.617   6.948   2.874
 3553SOL     OW11557   5.371   5.610   6.933
 3553SOL    HW111558   5.295   5.650   6.882
 3553SOL    HW211559   5.375   5.651   0.002
 3554SOL     OW11560   5.474   3.057   1.092
 3554SOL    HW111561   5.477   2.957   1.085
 3554SOL    HW211562   5.530   3.097   1.019
 3555SOL     OW11563   2.988   2.138   4.938
 3555SOL    HW111564   2.904   2.134   4.992
 3555SOL    HW211565   3.063   2.172   4.995
 3556SOL     OW11566   5.493   1.133   5.539
 3556SOL    HW111567   5.395   1.115   5.527
 3556SOL    HW211568   5.507   1.229   5.563
 3557SOL     OW11569   6.213   1.001   0.834
 3557SOL    HW111570   6.173   0.914   0.862
 3557SOL    HW211571   6.307   1.007   0.869
 3558SOL     OW11572   3.759   6.372   1.973
 3558SOL    HW111573   3.704   6.362   2.055
 3558SOL    HW211574   3.734   6.301   1.906
 3559SOL     OW11575   4.780   6.382   5.665
 3559SOL    HW111576   4.816   6.358   5.575
 3559SOL    HW211577   4.856   6.401   5.727
 3560SOL     OW11578   2.241   5.242   4.410
 3560SOL    HW111579   2.155   5.292   4.405
 3560SOL    HW211580   2.287   5.244   4.321
 3561SOL     OW11581   4.770   3.739   5.346
 3561SOL    HW111582   4.727   3.679   5.277
 3561SOL    HW211583   4.745   3.834   5.328
 3562SOL     OW11584   1.738   1.511   5.780
 3562SOL    HW111585   1.674   1.587   5.767
 3562SOL    HW211586   1.822   1.529   5.728
 3563SOL     OW11587   6.196   2.912   5.188
 3563SOL    HW111588   6.258   2.833   5.185
 3563SOL    HW211589   6.199   2.959   5.100
 3564SOL     OW11590   5.978   3.909   1.999
 3564SOL    HW111591   5.928   3.850   2.063
 3564SOL    HW211592   5.975   3.868   1.907
 3565SOL     OW11593   3.789   5.972   3.189
 3565SOL    HW111594   3.881   5.993   3.156
 3565SOL    HW211595   3.738   6.057   3.203
 3566SOL     OW11596   0.895   0.368   5.463
 3566SOL    HW111597   0.831   0.306   5.508
 3566SOL    HW211598   0.985   0.359   5.504
 3567SOL     OW11599   6.899   3.664   6.281
 3567SOL    HW111600   6.903   3.595   6.354
 3567SOL    HW211601   6.905   3.755   6.322
 3568SOL     OW11602   6.270   3.720   6.035
 3568SOL    HW111603   6.368   3.737   6.029
 3568SOL    HW211604   6.250   3.628   6.002
 3569SOL     OW11605   1.886   0.960   4.957
 3569SOL    HW111606   1.916   1.018   5.033
 3569SOL    HW211607   1.810   0.902   4.987
 3570SOL     OW11608   6.594   1.676   3.439
 3570SOL    HW111609   6.664   1.627   3.492
 3570SOL    HW211610   6.614   1.774   3.440
 3571SOL     OW11611   6.562   6.426   6.027
 3571SOL    HW111612   6.634   6.475   5.977
 3571SOL    HW211613   6.593   6.332   6.045
 3572SOL     OW11614   6.175   5.497   4.429
 3572SOL    HW111615   6.191   5.560   4.506
 3572SOL    HW211616   6.080   5.467   4.430
 3573SOL     OW11617   1.166   2.872   3.154
 3573SOL    HW111618   1.150   2.920   3.068
 3573SOL    HW211619   1.152   2.774   3.141
 3574SOL     OW11620   6.744   3.821   0.880
 3574SOL    HW111621   6.799   3.801   0.962
 3574SOL    HW211622   6.803   3.859   0.809
 3575SOL     OW11623   6.228   4.983   2.159
 3575SOL    HW111624   6.232   4.889   2.127
 3575SOL    HW211625   6.321   5.020   2.167
 3576SOL     OW11626   0.882   1.663   5.844
 3576SOL    HW111627   0.873   1.698   5.937
 3576SOL    HW211628   0.839   1.573   5.837
 3577SOL     OW11629   1.532   3.109   0.066
 3577SOL    HW111630   1.553   3.206   0.058
 3577SOL    HW211631   1.470   3.082   7.016
 3578SOL     OW11632   3.493   5.399   0.784
 3578SOL    HW111633   3.551   5.413   0.703
 3578SOL    HW211634   3.399   5.381   0.755
 3579SOL     OW11635   0.247   4.622   4.812
 3579SOL    HW111636   0.209   4.629   4.720
 3579SOL    HW211637   0.266   4.714   4.847
 3580SOL     OW11638   6.283   2.146   2.565
 3580SOL    HW111639   6.370   2.106   2.534
 3580SOL    HW211640   6.298   2.243   2.589
 3581SOL     OW11641   0.040   0.397   2.706
 3581SOL    HW111642   7.006   0.329   2.752
 3581SOL    HW211643   7.007   0.474   2.677
 3582SOL     OW11644   1.297   0.170   6.323
 3582SOL    HW111645   1.343   0.202   6.406
 3582SOL    HW211646   1.223   0.233   6.299
 3583SOL     OW11647   1.272   5.381   0.443
 3583SOL    HW111648   1.228   5.372   0.354
 3583SOL    HW211649   1.370   5.397   0.430
 3584SOL     OW11650   4.888   5.685   6.365
 3584SOL    HW111651   4.857   5.603   6.414
 3584SOL    HW211652   4.905   5.663   6.269
 3585SOL     OW11653   3.103   5.064   4.098
 3585SOL    HW111654   3.073   5.057   4.193
 3585SOL    HW211655   3.076   5.153   4.062
 3586SOL     OW11656   6.784   3.008   6.058
 3586SOL    HW111657   6.704   3.061   6.086
 3586SOL    HW211658   6.864   3.067   6.056
 3587SOL     OW11659   4.370   0.085   6.586
 3587SOL    HW111660   4.270   0.088   6.591
 3587SOL    HW211661   4.400   0.116   6.496
 3588SOL     OW11662   1.623   1.941   5.535
 3588SOL    HW111663   1.614   1.956   5.437
 3588SOL    HW211664   1.602   2.025   5.584
 3589SOL     OW11665   3.162   0.778   5.381
 3589SOL    HW111666   3.207   0.783   5.292
 3589SOL    HW211667   3.093   0.850   5.388
 3590SOL     OW11668   1.940   5.468   6.588
 3590SOL    HW111669   1.863   5.454   6.651
 3590SOL    HW211670   1.958   5.566   6.578
 3591SOL     OW11671   5.132   2.526   5.875
 3591SOL    HW111672   5.229   2.543   5.893
 3591SOL    HW211673   5.120   2.492   5.782
 3592SOL     OW11674   4.781   2.931   2.333
 3592SOL    HW111675   4.772   2.858   2.265
 3592SOL    HW211676   4.797   3.018   2.286
 3593SOL     OW11677   1.602   5.898   3.879
 3593SOL    HW111678   1.510   5.870   3.852
 3593SOL    HW211679   1.632   5.975   3.823
 3594SOL     OW11680   3.106   1.445   4.116
 3594SOL    HW111681   3.024   1.487   4.156
 3594SOL    HW211682   3.097   1.443   4.016
 3595SOL     OW11683   2.790   6.172   6.082
 3595SOL    HW111684   2.873   6.199   6.132
 3595SOL    HW211685   2.796   6.075   6.058
 3596SOL     OW11686   6.430   2.129   2.863
 3596SOL    HW111687   6.447   2.042   2.817
 3596SOL    HW211688   6.517   2.169   2.891
 3597SOL     OW11689   3.686   5.670   4.099
 3597SOL    HW111690   3.777   5.708   4.118
 3597SOL    HW211691   3.664   5.685   4.002
 3598SOL     OW11692   1.317   0.014   6.628
 3598SOL    HW111693   1.285   0.002   6.722
 3598SOL    HW211694   1.376   0.094   6.623
 3599SOL     OW11695   0.450   1.473   4.823
 3599SOL    HW111696   0.465   1.477   4.724
 3599SOL    HW211697   0.416   1.382   4.849
 3600SOL     OW11698   6.121   1.996   0.764
 3600SOL    HW111699   6.034   2.012   0.811
 3600SOL    HW211700   6.108   1.925   0.694
 3601SOL     OW11701   0.119   3.768   6.058
 3601SOL    HW111702   0.171   3.853   6.046
 3601SOL    HW211703   0.153   3.719   6.138
 3602SOL     OW11704   1.745   0.849   0.209
 3602SOL    HW111705   1.727   0.879   0.115
 3602SOL    HW211706   1.671   0.789   0.239
 3603SOL     OW11707   4.031   4.840   3.822
 3603SOL    HW111708   4.048   4.917   3.760
 3603SOL    HW211709   3.932   4.827   3.830
 3604SOL     OW11710   0.313   2.773   2.854
 3604SOL    HW111711   0.271   2.706   2.916
 3604SOL    HW211712   0.289   2.865   2.884
 3605SOL     OW11713   5.452   3.528   6.658
 3605SOL    HW111714   5.443   3.437   6.698
 3605SOL    HW211715   5.502   3.521   6.571
 3606SOL     OW11716   0.939   4.404   5.240
 3606SOL    HW111717   1.024   4.354   5.255
 3606SOL    HW211718   0.901   4.379   5.151
 3607SOL     OW11719   5.306   6.813   0.128
 3607SOL    HW111720   5.402   6.841   0.124
 3607SOL    HW211721   5.289   6.763   0.213
 3608SOL     OW11722   0.559   2.242   2.455
 3608SOL    HW111723   0.471   2.288   2.440
 3608SOL    HW211724   0.581   2.246   2.553
 3609SOL     OW11725   6.388   0.607   4.283
 3609SOL    HW111726   6.364   0.696   4.245
 3609SOL    HW211727   6.478   0.579   4.249
 3610SOL     OW11728   1.352   6.466   5.870
 3610SOL    HW111729   1.309   6.545   5.914
 3610SOL    HW211730   1.298   6.384   5.889
 3611SOL     OW11731   3.579   5.091   5.480
 3611SOL    HW111732   3.657   5.034   5.507
 3611SOL    HW211733   3.613   5.177   5.442
 3612SOL     OW11734   1.263   6.898   0.988
 3612SOL    HW111735   1.273   6.966   1.060
 3612SOL    HW211736   1.211   6.820   1.023
 3613SOL     OW11737   5.976   5.069   6.742
 3613SOL    HW111738   5.931   5.063   6.653
 3613SOL    HW211739   6.023   4.983   6.761
 3614SOL     OW11740   3.705   2.926   3.470
 3614SOL    HW111741   3.612   2.888   3.465
 3614SOL    HW211742   3.728   2.968   3.382
 3615SOL     OW11743   6.071   6.026   6.151
 3615SOL    HW111744   5.998   6.054   6.213
 3615SOL    HW211745   6.127   5.956   6.195
 3616SOL     OW11746   0.115   2.042   5.200
 3616SOL    HW111747   0.075   2.128   5.230
 3616SOL    HW211748   0.191   2.017   5.261
 3617SOL     OW11749   6.954   1.661   6.170
 3617SOL    HW111750   7.019   1.589   6.146
 3617SOL    HW211751   6.862   1.635   6.144
 3618SOL     OW11752   1.996   1.796   6.840
 3618SOL    HW111753   1.951   1.819   6.754
 3618SOL    HW211754   2.020   1.699   6.840
 3619SOL     OW11755   5.691   2.277   4.139
 3619SOL    HW111756   5.602   2.311   4.108
 3619SOL    HW211757   5.693   2.177   4.130
 3620SOL     OW11758   5.876   7.003   4.984
 3620SOL    HW111759   5.870   6.926   4.920
 3620SOL    HW211760   5.860   6.969   5.077
 3621SOL     OW11761   2.476   3.511   5.633
 3621SOL    HW111762   2.531   3.480   5.711
 3621SOL    HW211763   2.400   3.566   5.665
 3622SOL     OW11764   1.111   2.249   1.771
 3622SOL    HW111765   1.022   2.292   1.784
 3622SOL    HW211766   1.181   2.301   1.820
 3623SOL     OW11767   5.414   5.098   3.424
 3623SOL    HW111768   5.340   5.060   3.368
 3623SOL    HW211769   5.413   5.198   3.418
 3624SOL     OW11770   2.320   6.723   3.060
 3624SOL    HW111771   2.304   6.697   2.965
 3624SOL    HW211772   2.411   6.692   3.088
 3625SOL     OW11773   6.343   3.234   5.070
 3625SOL    HW111774   6.434   3.212   5.105
 3625SOL    HW211775   6.322   3.329   5.093
 3626SOL     OW11776   2.042   3.943   5.091
 3626SOL    HW111777   2.142   3.933   5.094
 3626SOL    HW211778   2.000   3.885   5.161
 3627SOL     OW11779   3.036   3.553   3.575
 3627SOL    HW111780   2.987   3.639   3.586
 3627SOL    HW211781   3.114   3.550   3.638
 3628SOL     OW11782   2.559   5.414   2.188
 3628SOL    HW111783   2.534   5.326   2.148
 3628SOL    HW211784   2.598   5.400   2.279
 3629SOL     OW11785   6.113   1.539   5.166
 3629SOL    HW111786   6.170   1.457   5.165
 3629SOL    HW211787   6.028   1.521   5.117
 3630SOL     OW11788   6.596   1.883   4.488
 3630SOL    HW111789   6.517   1.944   4.477
 3630SOL    HW211790   6.680   1.938   4.489
 3631SOL     OW11791   2.396   0.619   4.914
 3631SOL    HW111792   2.364   0.602   5.007
 3631SOL    HW211793   2.487   0.659   4.916
 3632SOL     OW11794   5.076   0.686   0.535
 3632SOL    HW111795   5.085   0.779   0.569
 3632SOL    HW211796   5.087   0.686   0.435
 3633SOL     OW11797   2.632   2.731   5.844
 3633SOL    HW111798   2.725   2.746   5.878
 3633SOL    HW211799   2.567   2.746   5.919
 3634SOL     OW11800   2.104   5.956   5.021
 3634SOL    HW111801   2.087   6.028   5.088
 3634SOL    HW211802   2.023   5.897   5.015
 3635SOL     OW11803   2.723   1.706   5.726
 3635SOL    HW111804   2.702   1.745   5.636
 3635SOL    HW211805   2.709   1.607   5.723
 3636SOL     OW11806   0.491   5.299   5.847
 3636SOL    HW111807   0.497   5.238   5.769
 3636SOL    HW211808   0.435   5.257   5.919
 3637SOL     OW11809   5.367   1.067   1.473
 3637SOL    HW111810   5.295   1.023   1.419
 3637SOL    HW211811   5.449   1.009   1.472
 3638SOL     OW11812   0.164   4.625   3.794
 3638SOL    HW111813   0.230   4.614   3.868
 3638SOL    HW211814   0.199   4.580   3.711
 3639SOL     OW11815   2.137   4.723   1.035
 3639SOL    HW111816   2.152   4.649   1.102
 3639SOL    HW211817   2.111   4.806   1.083
 3640SOL     OW11818   3.581   5.586   1.429
 3640SOL    HW111819   3.612   5.670   1.473
 3640SOL    HW211820   3.571   5.514   1.498
 3641SOL     OW11821   3.102   0.939   5.160
 3641SOL    HW111822   3.019   0.972   5.204
 3641SOL    HW211823   3.081   0.905   5.069
 3642SOL     OW11824   5.155   0.943   4.416
 3642SOL    HW111825   5.155   0.962   4.514
 3642SOL    HW211826   5.122   0.849   4.401
 3643SOL     OW11827   2.167   5.131   5.075
 3643SOL    HW111828   2.145   5.224   5.106
 3643SOL    HW211829   2.209   5.135   4.985
 3644SOL     OW11830   6.898   1.698   0.813
 3644SOL    HW111831   6.871   1.728   0.904
 3644SOL    HW211832   6.817   1.677   0.759
 3645SOL     OW11833   4.511   1.677   3.554
 3645SOL    HW111834   4.567   1.666   3.636
 3645SOL    HW211835   4.423   1.716   3.579
 3646SOL     OW11836   0.326   4.910   5.629
 3646SOL    HW111837   0.257   4.946   5.692
 3646SOL    HW211838   0.387   4.848   5.678
 3647SOL     OW11839   1.520   2.861   0.904
 3647SOL    HW111840   1.465   2.798   0.850
 3647SOL    HW211841   1.605   2.816   0.931
 3648SOL     OW11842   3.623   5.470   2.169
 3648SOL    HW111843   3.586   5.481   2.261
 3648SOL    HW211844   3.717   5.438   2.174
 3649SOL     OW11845   4.359   3.293   1.066
 3649SOL    HW111846   4.335   3.244   1.150
 3649SOL    HW211847   4.297   3.265   0.993
 3650SOL     OW11848   0.422   6.075   1.193
 3650SOL    HW111849   0.417   5.977   1.176
 3650SOL    HW211850   0.490   6.116   1.133
 3651SOL     OW11851   0.366   5.781   2.273
 3651SOL    HW111852   0.387   5.768   2.369
 3651SOL    HW211853   0.273   5.817   2.263
 3652SOL     OW11854   4.762   6.223   3.334
 3652SOL    HW111855   4.742   6.167   3.253
 3652SOL    HW211856   4.859   6.214   3.357
 3653SOL     OW11857   6.528   1.822   2.998
 3653SOL    HW111858   6.464   1.766   2.946
 3653SOL    HW211859   6.589   1.762   3.050
 3654SOL     OW11860   1.749   6.464   1.098
 3654SOL    HW111861   1.798   6.440   1.015
 3654SOL    HW211862   1.730   6.381   1.151
 3655SOL     OW11863   1.806   0.188   4.454
 3655SOL    HW111864   1.745   0.226   4.524
 3655SOL    HW211865   1.864   0.261   4.418
 3656SOL     OW11866   1.789   2.607   2.079
 3656SOL    HW111867   1.699   2.607   2.122
 3656SOL    HW211868   1.779   2.586   1.981
 3657SOL     OW11869   3.647   5.628   1.176
 3657SOL    HW111870   3.575   5.587   1.120
 3657SOL    HW211871   3.637   5.598   1.271
 3658SOL     OW11872   1.221   5.732   5.545
 3658SOL    HW111873   1.145   5.794   5.565
 3658SOL    HW211874   1.228   5.719   5.446
 3659SOL     OW11875   2.747   4.801   0.258
 3659SOL    HW111876   2.766   4.847   0.344
 3659SOL    HW211877   2.648   4.783   0.251
 3660SOL     OW11878   4.777   5.711   1.976
 3660SOL    HW111879   4.776   5.806   2.007
 3660SOL    HW211880   4.831   5.704   1.892
 3661SOL     OW11881   4.871   1.195   0.706
 3661SOL    HW111882   4.809   1.273   0.703
 3661SOL    HW211883   4.946   1.208   0.641
 3662SOL     OW11884   3.407   0.137   5.376
 3662SOL    HW111885   3.488   0.181   5.415
 3662SOL    HW211886   3.433   0.086   5.295
 3663SOL     OW11887   1.465   2.010   0.242
 3663SOL    HW111888   1.388   2.032   0.301
 3663SOL    HW211889   1.433   1.992   0.150
 3664SOL     OW11890   5.273   1.684   0.676
 3664SOL    HW111891   5.319   1.597   0.691
 3664SOL    HW211892   5.206   1.699   0.749
 3665SOL     OW11893   0.382   0.066   5.456
 3665SOL    HW111894   0.400   0.154   5.414
 3665SOL    HW211895   0.443   0.053   5.535
 3666SOL     OW11896   1.546   4.035   4.116
 3666SOL    HW111897   1.645   4.045   4.099
 3666SOL    HW211898   1.495   4.081   4.043
 3667SOL     OW11899   6.689   0.824   6.423
 3667SOL    HW111900   6.616   0.892   6.434
 3667SOL    HW211901   6.766   0.849   6.481
 3668SOL     OW11902   1.417   6.977   2.689
 3668SOL    HW111903   1.407   0.053   2.697
 3668SOL    HW211904   1.366   6.932   2.762
 3669SOL     OW11905   6.307   1.897   4.076
 3669SOL    HW111906   6.285   1.987   4.113
 3669SOL    HW211907   6.400   1.871   4.103
 3670SOL     OW11908   2.428   5.663   6.246
 3670SOL    HW111909   2.344   5.663   6.301
 3670SOL    HW211910   2.501   5.710   6.296
 3671SOL     OW11911   0.656   0.353   3.189
 3671SOL    HW111912   0.598   0.275   3.165
 3671SOL    HW211913   0.628   0.433   3.137
 3672SOL     OW11914   6.159   1.712   0.189
 3672SOL    HW111915   6.198   1.665   0.268
 3672SOL    HW211916   6.063   1.734   0.206
 3673SOL     OW11917   4.766   1.221   6.921
 3673SOL    HW111918   4.675   1.255   6.943
 3673SOL    HW211919   4.768   1.191   6.825
 3674SOL     OW11920   0.349   6.734   6.937
 3674SOL    HW111921   0.374   6.778   7.023
 3674SOL    HW211922   0.419   6.666   6.913
 3675SOL     OW11923   1.896   2.492   5.341
 3675SOL    HW111924   1.984   2.447   5.328
 3675SOL    HW211925   1.840   2.481   5.259
 3676SOL     OW11926   3.647   4.881   4.218
 3676SOL    HW111927   3.608   4.888   4.310
 3676SOL    HW211928   3.577   4.904   4.151
 3677SOL     OW11929   6.799   6.223   3.077
 3677SOL    HW111930   6.701   6.218   3.095
 3677SOL    HW211931   6.826   6.318   3.060
 3678SOL     OW11932   1.224   2.200   4.076
 3678SOL    HW111933   1.201   2.248   3.991
 3678SOL    HW211934   1.223   2.264   4.152
 3679SOL     OW11935   0.560   1.143   1.899
 3679SOL    HW111936   0.613   1.210   1.950
 3679SOL    HW211937   0.476   1.121   1.947
 3680SOL     OW11938   6.585   3.098   3.603
 3680SOL    HW111939   6.528   3.180   3.599
 3680SOL    HW211940   6.537   3.022   3.559
 3681SOL     OW11941   0.690   6.735   5.723
 3681SOL    HW111942   0.596   6.749   5.753
 3681SOL    HW211943   0.690   6.702   5.628
 3682SOL     OW11944   6.913   2.173   5.726
 3682SOL    HW111945   6.924   2.075   5.711
 3682SOL    HW211946   6.820   2.200   5.702
 3683SOL     OW11947   6.366   6.425   4.604
 3683SOL    HW111948   6.303   6.394   4.675
 3683SOL    HW211949   6.366   6.525   4.599
 3684SOL     OW11950   1.830   3.233   2.336
 3684SOL    HW111951   1.753   3.195   2.284
 3684SOL    HW211952   1.890   3.283   2.275
 3685SOL     OW11953   6.328   6.232   6.197
 3685SOL    HW111954   6.341   6.140   6.235
 3685SOL    HW211955   6.412   6.262   6.152
 3686SOL     OW11956   6.549   4.893   1.842
 3686SOL    HW111957   6.601   4.969   1.803
 3686SOL    HW211958   6.612   4.829   1.886
 3687SOL     OW11959   2.634   6.864   6.559
 3687SOL    HW111960   2.627   6.931   6.485
 3687SOL    HW211961   2.730   6.840   6.573
 3688SOL     OW11962   1.102   3.603   6.789
 3688SOL    HW111963   1.200   3.595   6.774
 3688SOL    HW211964   1.054   3.531   6.739
 3689SOL     OW11965   2.014   1.163   5.155
 3689SOL    HW111966   1.998   1.222   5.233
 3689SOL    HW211967   2.096   1.108   5.170
 3690SOL     OW11968   5.787   0.499   5.960
 3690SOL    HW111969   5.831   0.409   5.962
 3690SOL    HW211970   5.691   0.489   5.986
 3691SOL     OW11971   2.774   3.969   6.913
 3691SOL    HW111972   2.728   4.007   6.993
 3691SOL    HW211973   2.831   3.892   6.940
 3692SOL     OW11974   1.112   6.315   5.001
 3692SOL    HW111975   1.067   6.384   4.945
 3692SOL    HW211976   1.078   6.320   5.095
 3693SOL     OW11977   3.078   2.132   3.437
 3693SOL    HW111978   3.145   2.133   3.512
 3693SOL    HW211979   3.106   2.198   3.367
 3694SOL     OW11980   1.386   6.481   3.694
 3694SOL    HW111981   1.331   6.411   3.739
 3694SOL    HW211982   1.483   6.461   3.708
 3695SOL     OW11983   1.810   1.643   2.467
 3695SOL    HW111984   1.789   1.726   2.414
 3695SOL    HW211985   1.908   1.640   2.485
 3696SOL     OW11986   4.549   6.774   5.762
 3696SOL    HW111987   4.622   6.754   5.696
 3696SOL    HW211988   4.553   6.871   5.786
 3697SOL     OW11989   0.134   6.787   3.080
 3697SOL    HW111990   0.155   6.793   3.178
 3697SOL    HW211991   0.103   6.695   3.059
 3698SOL     OW11992   3.088   0.203   5.949
 3698SOL    HW111993   3.141   0.130   5.906
 3698SOL    HW211994   3.074   0.277   5.883
 3699SOL     OW11995   6.435   3.898   2.872
 3699SOL    HW111996   6.347   3.911   2.917
 3699SOL    HW211997   6.508   3.939   2.927
 3700SOL     OW11998   6.066   0.822   4.133
 3700SOL    HW111999   6.017   0.788   4.053
 3700SOL    HW212000   6.071   0.750   4.202
 3701SOL     OW12001   7.014   1.049   4.421
 3701SOL    HW112002   6.918   1.063   4.397
 3701SOL    HW212003   0.039   1.137   4.417
 3702SOL     OW12004   3.535   0.358   1.278
 3702SOL    HW112005   3.566   0.294   1.349
 3702SOL    HW212006   3.471   0.311   1.217
 3703SOL     OW12007   3.917   4.728   6.099
 3703SOL    HW112008   3.848   4.747   6.029
 3703SOL    HW212009   3.871   4.694   6.182
 3704SOL     OW12010   2.661   1.255   2.593
 3704SOL    HW112011   2.691   1.261   2.688
 3704SOL    HW212012   2.726   1.199   2.541
 3705SOL     OW12013   4.893   0.424   3.686
 3705SOL    HW112014   4.950   0.428   3.604
 3705SOL    HW212015   4.944   0.461   3.764
 3706SOL     OW12016   1.879   3.103   4.349
 3706SOL    HW112017   1.920   3.054   4.272
 3706SOL    HW212018   1.937   3.180   4.375
 3707SOL     OW12019   4.788   2.180   6.085
 3707SOL    HW112020   4.880   2.186   6.045
 3707SOL    HW212021   4.733   2.116   6.032
 3708SOL     OW12022   6.320   0.707   6.475
 3708SOL    HW112023   6.313   0.802   6.444
 3708SOL    HW212024   6.228   0.672   6.493
 3709SOL     OW12025   4.085   1.049   5.811
 3709SOL    HW112026   4.035   0.992   5.876
 3709SOL    HW212027   4.158   0.995   5.769
 3710SOL     OW12028   6.615   5.204   0.292
 3710SOL    HW112029   6.582   5.278   0.235
 3710SOL    HW212030   6.541   5.169   0.349
 3711SOL     OW12031   0.196   6.142   2.250
 3711SOL    HW112032   0.290   6.155   2.219
 3711SOL    HW212033   0.133   6.194   2.191
 3712SOL     OW12034   0.643   6.570   6.579
 3712SOL    HW112035   0.729   6.619   6.594
 3712SOL    HW212036   0.659   6.491   6.520
 3713SOL     OW12037   3.196   5.915   5.101
 3713SOL    HW112038   3.287   5.954   5.090
 3713SOL    HW212039   3.127   5.983   5.076
 3714SOL     OW12040   4.424   0.029   4.710
 3714SOL    HW112041   4.437   0.018   4.809
 3714SOL    HW212042   4.512   0.021   4.664
 3715SOL     OW12043   4.990   5.074   3.973
 3715SOL    HW112044   5.071   5.129   3.994
 3715SOL    HW212045   4.958   5.028   4.056
 3716SOL     OW12046   6.608   0.316   4.394
 3716SOL    HW112047   6.685   0.255   4.377
 3716SOL    HW212048   6.625   0.405   4.352
 3717SOL     OW12049   6.197   5.576   0.748
 3717SOL    HW112050   6.101   5.571   0.723
 3717SOL    HW212051   6.249   5.506   0.697
 3718SOL     OW12052   1.011   6.336   0.031
 3718SOL    HW112053   1.111   6.328   0.036
 3718SOL    HW212054   0.985   6.384   6.971
 3719SOL     OW12055   4.525   4.916   0.398
 3719SOL    HW112056   4.523   4.936   0.300
 3719SOL    HW212057   4.569   4.827   0.413
 3720SOL     OW12058   6.680   1.949   6.315
 3720SOL    HW112059   6.759   1.969   6.374
 3720SOL    HW212060   6.646   2.034   6.275
 3721SOL     OW12061   5.494   5.109   0.476
 3721SOL    HW112062   5.569   5.173   0.461
 3721SOL    HW212063   5.521   5.017   0.446
 3722SOL     OW12064   0.055   5.710   2.529
 3722SOL    HW112065   0.087   5.767   2.453
 3722SOL    HW212066   7.019   5.638   2.493
 3723SOL     OW12067   5.264   6.831   1.743
 3723SOL    HW112068   5.354   6.874   1.743
 3723SOL    HW212069   5.259   6.763   1.670
 3724SOL     OW12070   0.925   5.576   0.456
 3724SOL    HW112071   0.922   5.602   0.553
 3724SOL    HW212072   0.887   5.484   0.445
 3725SOL     OW12073   6.933   5.952   6.621
 3725SOL    HW112074   6.974   6.011   6.690
 3725SOL    HW212075   6.963   5.980   6.530
 3726SOL     OW12076   5.584   3.873   2.045
 3726SOL    HW112077   5.548   3.822   2.123
 3726SOL    HW212078   5.600   3.968   2.072
 3727SOL     OW12079   1.549   2.908   5.217
 3727SOL    HW112080   1.586   2.961   5.292
 3727SOL    HW212081   1.624   2.863   5.168
 3728SOL     OW12082   2.495   3.257   0.154
 3728SOL    HW112083   2.577   3.269   0.099
 3728SOL    HW212084   2.477   3.340   0.207
 3729SOL     OW12085   0.752   1.788   3.388
 3729SOL    HW112086   0.656   1.761   3.379
 3729SOL    HW212087   0.757   1.886   3.411
 3730SOL     OW12088   2.657   0.904   7.005
 3730SOL    HW112089   2.730   0.970   6.986
 3730SOL    HW212090   2.696   0.823   0.027
 3731SOL     OW12091   4.305   0.495   0.776
 3731SOL    HW112092   4.354   0.524   0.693
 3731SOL    HW212093   4.226   0.555   0.791
 3732SOL     OW12094   2.054   3.351   5.707
 3732SOL    HW112095   2.001   3.406   5.642
 3732SOL    HW212096   2.146   3.337   5.671
 3733SOL     OW12097   2.442   3.731   1.603
 3733SOL    HW112098   2.367   3.723   1.670
 3733SOL    HW212099   2.430   3.815   1.550
 3734SOL     OW12100   4.440   1.419   2.648
 3734SOL    HW112101   4.529   1.439   2.690
 3734SOL    HW212102   4.423   1.485   2.574
 3735SOL     OW12103   2.388   2.533   2.706
 3735SOL    HW112104   2.372   2.617   2.655
 3735SOL    HW212105   2.451   2.551   2.781
 3736SOL     OW12106   6.342   2.482   0.829
 3736SOL    HW112107   6.276   2.518   0.895
 3736SOL    HW212108   6.310   2.395   0.793
 3737SOL     OW12109   5.085   0.275   3.341
 3737SOL    HW112110   5.094   0.353   3.279
 3737SOL    HW212111   5.154   0.281   3.412
 3738SOL     OW12112   6.111   6.446   3.778
 3738SOL    HW112113   6.042   6.496   3.830
 3738SOL    HW212114   6.070   6.412   3.693
 3739SOL     OW12115   0.951   3.983   2.565
 3739SOL    HW112116   0.879   3.924   2.602
 3739SOL    HW212117   0.999   3.935   2.491
 3740SOL     OW12118   5.383   1.382   6.769
 3740SOL    HW112119   5.365   1.429   6.856
 3740SOL    HW212120   5.330   1.297   6.765
 3741SOL     OW12121   4.802   3.148   1.284
 3741SOL    HW112122   4.784   3.220   1.350
 3741SOL    HW212123   4.723   3.135   1.225
 3742SOL     OW12124   3.714   2.133   5.807
 3742SOL    HW112125   3.651   2.105   5.735
 3742SOL    HW212126   3.808   2.113   5.781
 3743SOL     OW12127   6.696   5.034   0.011
 3743SOL    HW112128   6.749   5.004   0.090
 3743SOL    HW212129   6.752   5.023   6.951
 3744SOL     OW12130   6.986   5.142   3.956
 3744SOL    HW112131   7.011   5.170   3.863
 3744SOL    HW212132   0.040   5.094   3.997
 3745SOL     OW12133   3.829   5.637   2.463
 3745SOL    HW112134   3.793   5.727   2.490
 3745SOL    HW212135   3.924   5.629   2.494
 3746SOL     OW12136   4.636   2.067   1.570
 3746SOL    HW112137   4.650   1.968   1.578
 3746SOL    HW212138   4.673   2.113   1.650
 3747SOL     OW12139   3.243   0.140   6.934
 3747SOL    HW112140   3.280   0.233   6.930
 3747SOL    HW212141   3.272   0.089   6.853
 3748SOL     OW12142   5.976   0.710   1.465
 3748SOL    HW112143   6.039   0.728   1.389
 3748SOL    HW212144   6.001   0.624   1.509
 3749SOL     OW12145   1.481   6.768   4.410
 3749SOL    HW112146   1.558   6.823   4.443
 3749SOL    HW212147   1.402   6.827   4.393
 3750SOL     OW12148   0.233   3.719   0.569
 3750SOL    HW112149   0.145   3.688   0.533
 3750SOL    HW212150   0.220   3.796   0.631
 3751SOL     OW12151   0.466   4.654   3.029
 3751SOL    HW112152   0.394   4.639   2.961
 3751SOL    HW212153   0.532   4.721   2.994
 3752SOL     OW12154   6.442   1.155   5.728
 3752SOL    HW112155   6.454   1.167   5.629
 3752SOL    HW212156   6.452   1.243   5.774
 3753SOL     OW12157   6.442   1.072   3.555
 3753SOL    HW112158   6.479   1.152   3.602
 3753SOL    HW212159   6.510   0.998   3.558
 3754SOL     OW12160   1.482   1.685   1.539
 3754SOL    HW112161   1.580   1.696   1.524
 3754SOL    HW212162   1.436   1.772   1.522
 3755SOL     OW12163   2.688   5.098   4.358
 3755SOL    HW112164   2.622   5.147   4.415
 3755SOL    HW212165   2.748   5.043   4.415
 3756SOL     OW12166   2.717   6.383   6.748
 3756SOL    HW112167   2.633   6.386   6.802
 3756SOL    HW212168   2.706   6.441   6.667
 3757SOL     OW12169   6.234   4.392   1.486
 3757SOL    HW112170   6.159   4.386   1.420
 3757SOL    HW212171   6.223   4.474   1.542
 3758SOL     OW12172   2.134   0.077   3.066
 3758SOL    HW112173   2.109   7.007   3.094
 3758SOL    HW212174   2.053   0.135   3.067
 3759SOL     OW12175   5.116   0.673   4.395
 3759SOL    HW112176   5.091   0.637   4.485
 3759SOL    HW212177   5.215   0.686   4.390
 3760SOL     OW12178   0.080   0.674   3.380
 3760SOL    HW112179   0.134   0.644   3.301
 3760SOL    HW212180   0.061   0.595   3.439
 3761SOL     OW12181   5.643   1.410   4.092
 3761SOL    HW112182   5.624   1.498   4.136
 3761SOL    HW212183   5.615   1.335   4.152
 3762SOL     OW12184   0.692   4.052   2.962
 3762SOL    HW112185   0.789   4.037   2.980
 3762SOL    HW212186   0.639   3.974   2.997
 3763SOL     OW12187   6.915   4.606   0.235
 3763SOL    HW112188   6.821   4.599   0.200
 3763SOL    HW212189   6.928   4.695   0.278
 3764SOL     OW12190   1.687   6.828   2.801
 3764SOL    HW112191   1.617   6.889   2.765
 3764SOL    HW212192   1.758   6.881   2.847
 3765SOL     OW12193   6.134   2.055   1.996
 3765SOL    HW112194   6.146   2.007   1.909
 3765SOL    HW212195   6.076   2.135   1.982
 3766SOL     OW12196   1.357   4.100   3.339
 3766SOL    HW112197   1.330   4.055   3.424
 3766SOL    HW212198   1.326   4.195   3.341
 3767SOL     OW12199   2.761   5.235   6.337
 3767SOL    HW112200   2.737   5.284   6.422
 3767SOL    HW212201   2.695   5.259   6.266
 3768SOL     OW12202   1.570   0.447   4.873
 3768SOL    HW112203   1.635   0.521   4.857
 3768SOL    HW212204   1.524   0.462   4.961
 3769SOL     OW12205   5.170   6.147   4.557
 3769SOL    HW112206   5.160   6.049   4.539
 3769SOL    HW212207   5.119   6.199   4.489
 3770SOL     OW12208   0.747   0.897   0.503
 3770SOL    HW112209   0.792   0.985   0.519
 3770SOL    HW212210   0.684   0.906   0.425
 3771SOL     OW12211   0.796   4.834   0.286
 3771SOL    HW112212   0.779   4.773   0.364
 3771SOL    HW212213   0.719   4.897   0.276
 3772SOL     OW12214   1.520   5.617   0.661
 3772SOL    HW112215   1.582   5.590   0.734
 3772SOL    HW212216   1.558   5.697   0.613
 3773SOL     OW12217   5.775   3.120   5.739
 3773SOL    HW112218   5.786   3.126   5.838
 3773SOL    HW212219   5.678   3.132   5.716
 3774SOL     OW12220   5.535   5.947   1.463
 3774SOL    HW112221   5.536   5.983   1.557
 3774SOL    HW212222   5.537   5.847   1.466
 3775SOL     OW12223   4.572   4.966   3.507
 3775SOL    HW112224   4.593   5.053   3.550
 3775SOL    HW212225   4.566   4.894   3.577
 3776SOL     OW12226   3.426   2.525   6.550
 3776SOL    HW112227   3.464   2.437   6.579
 3776SOL    HW212228   3.407   2.523   6.452
 3777SOL     OW12229   2.731   6.158   4.347
 3777SOL    HW112230   2.729   6.113   4.258
 3777SOL    HW212231   2.706   6.254   4.337
 3778SOL     OW12232   2.911   5.665   4.966
 3778SOL    HW112233   2.827   5.719   4.979
 3778SOL    HW212234   2.926   5.609   5.047
 3779SOL     OW12235   0.190   4.943   6.895
 3779SOL    HW112236   0.211   5.034   6.861
 3779SOL    HW212237   0.118   4.949   6.964
 3780SOL     OW12238   6.479   3.862   1.275
 3780SOL    HW112239   6.466   3.823   1.366
 3780SOL    HW212240   6.472   3.790   1.206
 3781SOL     OW12241   2.476   6.097   5.225
 3781SOL    HW112242   2.458   6.000   5.207
 3781SOL    HW212243   2.456   6.150   5.142
 3782SOL     OW12244   5.285   5.857   1.603
 3782SOL    HW112245   5.336   5.935   1.639
 3782SOL    HW212246   5.292   5.857   1.503
 3783SOL     OW12247   5.559   5.110   5.210
 3783SOL    HW112248   5.466   5.093   5.240
 3783SOL    HW212249   5.572   5.208   5.194
 3784SOL     OW12250   5.708   2.682   3.916
 3784SOL    HW112251   5.712   2.741   3.836
 3784SOL    HW212252   5.728   2.588   3.889
 3785SOL     OW12253   1.301   4.053   4.482
 3785SOL    HW112254   1.382   4.099   4.444
 3785SOL    HW212255   1.292   3.962   4.441
 3786SOL     OW12256   2.524   2.548   4.685
 3786SOL    HW112257   2.508   2.641   4.718
 3786SOL    HW212258   2.437   2.503   4.667
 3787SOL     OW12259   4.501   0.055   3.194
 3787SOL    HW112260   4.460   0.065   3.104
 3787SOL    HW212261   4.434   0.082   3.264
 3788SOL     OW12262   0.083   2.902   5.593
 3788SOL    HW112263   0.060   2.992   5.631
 3788SOL    HW212264   0.086   2.835   5.667
 3789SOL     OW12265   1.836   3.087   2.892
 3789SOL    HW112266   1.788   3.157   2.840
 3789SOL    HW212267   1.934   3.091   2.871
 3790SOL     OW12268   0.354   6.677   0.799
 3790SOL    HW112269   0.343   6.774   0.776
 3790SOL    HW212270   0.266   6.631   0.790
 3791SOL     OW12271   5.876   1.429   6.124
 3791SOL    HW112272   5.892   1.502   6.190
 3791SOL    HW212273   5.797   1.375   6.152
 3792SOL     OW12274   0.716   0.731   3.802
 3792SOL    HW112275   0.811   0.736   3.772
 3792SOL    HW212276   0.708   0.666   3.877
 3793SOL     OW12277   5.975   5.857   0.474
 3793SOL    HW112278   6.054   5.917   0.466
 3793SOL    HW212279   5.964   5.805   0.390
 3794SOL     OW12280   1.900   3.866   6.921
 3794SOL    HW112281   1.926   3.949   6.871
 3794SOL    HW212282   1.976   3.802   6.922
 3795SOL     OW12283   2.888   5.852   1.128
 3795SOL    HW112284   2.975   5.874   1.172
 3795SOL    HW212285   2.819   5.917   1.159
 3796SOL     OW12286   3.943   2.354   6.583
 3796SOL    HW112287   3.943   2.429   6.517
 3796SOL    HW212288   4.038   2.327   6.603
 3797SOL     OW12289   0.998   4.768   3.089
 3797SOL    HW112290   0.960   4.769   2.996
 3797SOL    HW212291   1.079   4.827   3.092
 3798SOL     OW12292   1.743   6.437   2.949
 3798SOL    HW112293   1.666   6.502   2.946
 3798SOL    HW212294   1.827   6.486   2.972
 3799SOL     OW12295   0.080   2.115   2.986
 3799SOL    HW112296   0.004   2.176   3.008
 3799SOL    HW212297   0.045   2.034   2.940
 3800SOL     OW12298   6.119   2.032   2.768
 3800SOL    HW112299   6.205   2.069   2.732
 3800SOL    HW212300   6.126   2.020   2.867
 3801SOL     OW12301   5.469   7.007   1.783
 3801SOL    HW112302   5.400   7.022   1.853
 3801SOL    HW212303   5.504   0.073   1.752
 3802SOL     OW12304   6.050   1.912   2.216
 3802SOL    HW112305   6.116   1.839   2.236
 3802SOL    HW212306   6.084   1.968   2.141
 3803SOL     OW12307   2.955   3.707   4.513
 3803SOL    HW112308   2.927   3.694   4.418
 3803SOL    HW212309   2.964   3.618   4.557
 3804SOL     OW12310   3.439   6.755   4.449
 3804SOL    HW112311   3.440   6.758   4.349
 3804SOL    HW212312   3.472   6.842   4.485
 3805SOL     OW12313   2.230   2.631   0.163
 3805SOL    HW112314   2.226   2.728   0.187
 3805SOL    HW212315   2.148   2.585   0.197
 3806SOL     OW12316   3.789   4.092   0.124
 3806SOL    HW112317   3.712   4.049   0.171
 3806SOL    HW212318   3.864   4.105   0.189
 3807SOL     OW12319   1.749   4.518   4.369
 3807SOL    HW112320   1.689   4.516   4.288
 3807SOL    HW212321   1.835   4.563   4.345
 3808SOL     OW12322   4.263   0.100   6.240
 3808SOL    HW112323   4.218   0.042   6.308
 3808SOL    HW212324   4.358   0.115   6.265
 3809SOL     OW12325   5.181   2.177   1.540
 3809SOL    HW112326   5.159   2.231   1.621
 3809SOL    HW212327   5.118   2.100   1.533
 3810SOL     OW12328   6.625   2.337   2.346
 3810SOL    HW112329   6.618   2.261   2.280
 3810SOL    HW212330   6.658   2.419   2.299
 3811SOL     OW12331   6.728   5.668   4.906
 3811SOL    HW112332   6.816   5.683   4.863
 3811SOL    HW212333   6.655   5.685   4.840
 3812SOL     OW12334   3.838   6.454   6.812
 3812SOL    HW112335   3.848   6.526   6.743
 3812SOL    HW212336   3.815   6.495   6.900
 3813SOL     OW12337   6.460   4.083   0.255
 3813SOL    HW112338   6.542   4.075   0.312
 3813SOL    HW212339   6.436   3.993   0.218
 3814SOL     OW12340   6.336   6.996   4.551
 3814SOL    HW112341   6.410   0.030   4.587
 3814SOL    HW212342   6.355   6.972   4.456
 3815SOL     OW12343   4.900   3.501   0.439
 3815SOL    HW112344   4.940   3.476   0.528
 3815SOL    HW212345   4.856   3.591   0.447
 3816SOL     OW12346   1.194   5.806   6.151
 3816SOL    HW112347   1.115   5.819   6.210
 3816SOL    HW212348   1.268   5.867   6.181
 3817SOL     OW12349   4.876   3.230   2.240
 3817SOL    HW112350   4.883   3.311   2.297
 3817SOL    HW212351   4.786   3.228   2.196
 3818SOL     OW12352   0.228   0.791   1.923
 3818SOL    HW112353   0.188   0.728   1.988
 3818SOL    HW212354   0.309   0.835   1.964
 3819SOL     OW12355   6.437   4.854   3.960
 3819SOL    HW112356   6.350   4.902   3.966
 3819SOL    HW212357   6.422   4.756   3.974
 3820SOL     OW12358   5.186   0.245   4.438
 3820SOL    HW112359   5.253   0.280   4.372
 3820SOL    HW212360   5.101   0.297   4.429
 3821SOL     OW12361   1.065   0.122   6.838
 3821SOL    HW112362   1.068   0.173   6.752
 3821SOL    HW212363   0.970   0.114   6.869
 3822SOL     OW12364   3.915   1.375   0.067
 3822SOL    HW112365   3.886   1.468   0.048
 3822SOL    HW212366   3.941   1.330   7.004
 3823SOL     OW12367   5.144   4.724   5.990
 3823SOL    HW112368   5.050   4.746   5.963
 3823SOL    HW212369   5.207   4.748   5.916
 3824SOL     OW12370   2.118   3.255   0.228
 3824SOL    HW112371   2.062   3.335   0.254
 3824SOL    HW212372   2.202   3.255   0.281
 3825SOL     OW12373   1.688   3.648   6.319
 3825SOL    HW112374   1.745   3.594   6.256
 3825SOL    HW212375   1.627   3.588   6.369
 3826SOL     OW12376   5.400   4.251   2.524
 3826SOL    HW112377   5.477   4.187   2.531
 3826SOL    HW212378   5.331   4.214   2.462
 3827SOL     OW12379   1.323   1.211   1.501
 3827SOL    HW112380   1.224   1.229   1.499
 3827SOL    HW212381   1.343   1.129   1.448
 3828SOL     OW12382   3.829   4.000   4.572
 3828SOL    HW112383   3.808   4.084   4.622
 3828SOL    HW212384   3.793   3.921   4.621
 3829SOL     OW12385   0.502   3.976   2.678
 3829SOL    HW112386   0.578   3.950   2.737
 3829SOL    HW212387   0.495   4.076   2.674
 3830SOL     OW12388   0.430   0.773   4.652
 3830SOL    HW112389   0.505   0.822   4.695
 3830SOL    HW212390   0.346   0.828   4.658
 3831SOL     OW12391   4.385   1.637   3.303
 3831SOL    HW112392   4.360   1.626   3.399
 3831SOL    HW212393   4.414   1.731   3.286
 3832SOL     OW12394   0.728   0.390   2.293
 3832SOL    HW112395   0.699   0.423   2.383
 3832SOL    HW212396   0.760   0.296   2.300
 3833SOL     OW12397   1.080   0.159   6.546
 3833SOL    HW112398   1.105   0.242   6.495
 3833SOL    HW212399   1.162   0.112   6.576
 3834SOL     OW12400   4.643   4.112   1.327
 3834SOL    HW112401   4.597   4.149   1.408
 3834SOL    HW212402   4.741   4.127   1.336
 3835SOL     OW12403   3.996   6.136   5.460
 3835SOL    HW112404   4.090   6.165   5.475
 3835SOL    HW212405   3.995   6.047   5.416
 3836SOL     OW12406   0.231   5.099   6.317
 3836SOL    HW112407   0.147   5.104   6.370
 3836SOL    HW212408   0.299   5.044   6.365
 3837SOL     OW12409   4.106   4.903   4.840
 3837SOL    HW112410   4.089   4.997   4.811
 3837SOL    HW212411   4.152   4.853   4.766
 3838SOL     OW12412   2.113   1.263   3.299
 3838SOL    HW112413   2.177   1.294   3.228
 3838SOL    HW212414   2.028   1.315   3.291
 3839SOL     OW12415   4.308   0.373   3.041
 3839SOL    HW112416   4.353   0.459   3.065
 3839SOL    HW212417   4.232   0.356   3.104
 3840SOL     OW12418   2.209   0.603   0.317
 3840SOL    HW112419   2.117   0.640   0.327
 3840SOL    HW212420   2.204   0.512   0.275
 3841SOL     OW12421   6.202   4.945   3.975
 3841SOL    HW112422   6.122   4.977   3.924
 3841SOL    HW212423   6.174   4.873   4.039
 3842SOL     OW12424   2.345   2.859   5.322
 3842SOL    HW112425   2.396   2.777   5.349
 3842SOL    HW212426   2.399   2.913   5.258
 3843SOL     OW12427   4.898   2.800   0.418
 3843SOL    HW112428   4.908   2.765   0.511
 3843SOL    HW212429   4.809   2.772   0.381
 3844SOL     OW12430   1.389   5.104   0.092
 3844SOL    HW112431   1.302   5.087   0.138
 3844SOL    HW212432   1.403   5.037   0.020
 3845SOL     OW12433   2.284   6.542   0.419
 3845SOL    HW112434   2.258   6.535   0.515
 3845SOL    HW212435   2.383   6.536   0.411
 3846SOL     OW12436   1.179   3.258   4.070
 3846SOL    HW112437   1.246   3.290   4.003
 3846SOL    HW212438   1.186   3.159   4.080
 3847SOL     OW12439   6.319   1.432   5.371
 3847SOL    HW112440   6.271   1.357   5.325
 3847SOL    HW212441   6.404   1.452   5.323
 3848SOL     OW12442   5.095   3.290   2.458
 3848SOL    HW112443   5.105   3.196   2.427
 3848SOL    HW212444   5.037   3.292   2.540
 3849SOL     OW12445   0.328   5.955   6.110
 3849SOL    HW112446   0.366   6.034   6.062
 3849SOL    HW212447   0.301   5.886   6.044
 3850SOL     OW12448   3.051   1.993   1.346
 3850SOL    HW112449   2.958   2.028   1.347
 3850SOL    HW212450   3.115   2.070   1.341
 3851SOL     OW12451   6.918   5.472   3.543
 3851SOL    HW112452   6.900   5.494   3.639
 3851SOL    HW212453   7.013   5.442   3.532
 3852SOL     OW12454   2.963   6.852   4.280
 3852SOL    HW112455   3.037   6.831   4.344
 3852SOL    HW212456   2.997   6.845   4.186
 3853SOL     OW12457   2.134   1.386   3.770
 3853SOL    HW112458   2.094   1.347   3.853
 3853SOL    HW212459   2.180   1.313   3.719
 3854SOL     OW12460   1.621   2.332   2.736
 3854SOL    HW112461   1.673   2.281   2.805
 3854SOL    HW212462   1.684   2.380   2.675
 3855SOL     OW12463   4.237   6.568   0.235
 3855SOL    HW112464   4.185   6.587   0.151
 3855SOL    HW212465   4.317   6.628   0.239
 3856SOL     OW12466   6.869   2.168   6.005
 3856SOL    HW112467   6.782   2.121   6.010
 3856SOL    HW212468   6.881   2.207   5.914
 3857SOL     OW12469   2.113   0.360   5.879
 3857SOL    HW112470   2.035   0.363   5.941
 3857SOL    HW212471   2.081   0.371   5.785
 3858SOL     OW12472   3.448   1.694   5.276
 3858SOL    HW112473   3.509   1.762   5.234
 3858SOL    HW212474   3.358   1.698   5.232
 3859SOL     OW12475   5.431   0.222   1.090
 3859SOL    HW112476   5.466   0.240   1.182
 3859SOL    HW212477   5.385   0.303   1.056
 3860SOL     OW12478   1.973   0.420   4.410
 3860SOL    HW112479   1.948   0.505   4.364
 3860SOL    HW212480   2.022   0.361   4.346
 3861SOL     OW12481   4.287   5.378   2.384
 3861SOL    HW112482   4.325   5.398   2.475
 3861SOL    HW212483   4.347   5.312   2.337
 3862SOL     OW12484   0.330   6.830   4.204
 3862SOL    HW112485   0.360   6.883   4.125
 3862SOL    HW212486   0.398   6.759   4.224
 3863SOL     OW12487   4.256   0.819   0.231
 3863SOL    HW112488   4.267   0.873   0.148
 3863SOL    HW212489   4.345   0.787   0.263
 3864SOL     OW12490   2.283   0.327   4.911
 3864SOL    HW112491   2.296   0.424   4.929
 3864SOL    HW212492   2.250   0.314   4.817
 3865SOL     OW12493   4.422   0.750   6.865
 3865SOL    HW112494   4.471   0.806   6.799
 3865SOL    HW212495   4.413   0.657   6.830
 3866SOL     OW12496   3.170   2.374   6.973
 3866SOL    HW112497   3.159   2.469   6.943
 3866SOL    HW212498   3.119   2.314   6.911
 3867SOL     OW12499   1.512   4.274   2.932
 3867SOL    HW112500   1.536   4.230   2.845
 3867SOL    HW212501   1.466   4.207   2.991
 3868SOL     OW12502   3.535   0.313   6.213
 3868SOL    HW112503   3.608   0.291   6.278
 3868SOL    HW212504   3.446   0.298   6.256
 3869SOL     OW12505   6.959   3.632   3.639
 3869SOL    HW112506   6.950   3.673   3.730
 3869SOL    HW212507   0.012   3.567   3.640
 3870SOL     OW12508   6.646   6.890   2.790
 3870SOL    HW112509   6.687   6.890   2.881
 3870SOL    HW212510   6.649   6.798   2.752
 3871SOL     OW12511   3.326   6.245   3.619
 3871SOL    HW112512   3.250   6.308   3.633
 3871SOL    HW212513   3.369   6.264   3.530
 3872SOL     OW12514   3.339   3.434   4.286
 3872SOL    HW112515   3.240   3.418   4.281
 3872SOL    HW212516   3.380   3.418   4.197
 3873SOL     OW12517   5.233   3.651   0.375
 3873SOL    HW112518   5.173   3.704   0.434
 3873SOL    HW212519   5.221   3.680   0.280
 3874SOL     OW12520   4.325   0.076   0.281
 3874SOL    HW112521   4.400   0.090   0.346
 3874SOL    HW212522   4.240   0.060   0.330
 3875SOL     OW12523   2.085   2.794   4.457
 3875SOL    HW112524   2.110   2.698   4.443
 3875SOL    HW212525   2.043   2.805   4.547
 3876SOL     OW12526   3.989   6.418   0.248
 3876SOL    HW112527   4.078   6.457   0.225
 3876SOL    HW212528   3.996   6.319   0.252
 3877SOL     OW12529   6.729   2.224   0.576
 3877SOL    HW112530   6.653   2.279   0.542
 3877SOL    HW212531   6.703   2.179   0.661
 3878SOL     OW12532   4.988   0.075   4.635
 3878SOL    HW112533   4.976   0.170   4.607
 3878SOL    HW212534   5.072   0.067   4.689
 3879SOL     OW12535   5.593   5.296   0.002
 3879SOL    HW112536   5.500   5.307   0.035
 3879SOL    HW212537   5.595   5.226   6.953
 3880SOL     OW12538   5.432   4.199   5.266
 3880SOL    HW112539   5.478   4.146   5.337
 3880SOL    HW212540   5.420   4.293   5.297
 3881SOL     OW12541   1.082   3.367   0.929
 3881SOL    HW112542   1.141   3.367   0.848
 3881SOL    HW212543   1.061   3.462   0.954
 3882SOL     OW12544   1.212   1.108   0.164
 3882SOL    HW112545   1.161   1.092   0.080
 3882SOL    HW212546   1.170   1.183   0.215
 3883SOL     OW12547   4.843   0.211   2.743
 3883SOL    HW112548   4.869   0.305   2.718
 3883SOL    HW212549   4.760   0.214   2.799
 3884SOL     OW12550   0.773   6.070   3.117
 3884SOL    HW112551   0.863   6.061   3.074
 3884SOL    HW212552   0.785   6.089   3.214
 3885SOL     OW12553   5.792   6.659   3.106
 3885SOL    HW112554   5.789   6.654   3.206
 3885SOL    HW212555   5.826   6.572   3.069
 3886SOL     OW12556   4.490   5.613   5.925
 3886SOL    HW112557   4.441   5.700   5.923
 3886SOL    HW212558   4.522   5.590   5.833
 3887SOL     OW12559   0.716   6.594   0.420
 3887SOL    HW112560   0.724   6.692   0.439
 3887SOL    HW212561   0.806   6.557   0.400
 3888SOL     OW12562   5.535   6.641   4.601
 3888SOL    HW112563   5.459   6.576   4.596
 3888SOL    HW212564   5.520   6.714   4.535
 3889SOL     OW12565   6.314   2.429   6.763
 3889SOL    HW112566   6.281   2.504   6.705
 3889SOL    HW212567   6.250   2.353   6.760
 3890SOL     OW12568   5.773   4.534   4.394
 3890SOL    HW112569   5.865   4.533   4.434
 3890SOL    HW212570   5.705   4.532   4.467
 3891SOL     OW12571   4.671   4.165   3.370
 3891SOL    HW112572   4.641   4.250   3.328
 3891SOL    HW212573   4.691   4.181   3.467
 3892SOL     OW12574   0.458   3.088   1.261
 3892SOL    HW112575   0.426   3.135   1.179
 3892SOL    HW212576   0.513   3.151   1.316
 3893SOL     OW12577   4.343   3.222   1.449
 3893SOL    HW112578   4.387   3.177   1.527
 3893SOL    HW212579   4.380   3.314   1.439
 3894SOL     OW12580   5.235   0.783   6.653
 3894SOL    HW112581   5.332   0.801   6.667
 3894SOL    HW212582   5.222   0.687   6.627
 3895SOL     OW12583   1.795   0.312   5.125
 3895SOL    HW112584   1.844   0.384   5.077
 3895SOL    HW212585   1.700   0.339   5.139
 3896SOL     OW12586   0.481   1.040   6.498
 3896SOL    HW112587   0.517   0.951   6.470
 3896SOL    HW212588   0.513   1.062   6.590
 3897SOL     OW12589   4.431   5.673   2.419
 3897SOL    HW112590   4.401   5.644   2.328
 3897SOL    HW212591   4.463   5.593   2.470
 3898SOL     OW12592   3.770   2.580   0.182
 3898SOL    HW112593   3.687   2.584   0.238
 3898SOL    HW212594   3.809   2.488   0.186
 3899SOL     OW12595   4.642   0.010   6.108
 3899SOL    HW112596   4.602   6.943   6.094
 3899SOL    HW212597   4.703   0.033   6.031
 3900SOL     OW12598   5.448   3.378   3.900
 3900SOL    HW112599   5.532   3.332   3.931
 3900SOL    HW212600   5.412   3.331   3.820
 3901SOL     OW12601   3.424   0.947   6.346
 3901SOL    HW112602   3.324   0.950   6.341
 3901SOL    HW212603   3.460   0.906   6.262
 3902SOL     OW12604   6.023   3.166   2.137
 3902SOL    HW112605   5.982   3.143   2.225
 3902SOL    HW212606   6.112   3.120   2.129
 3903SOL     OW12607   3.627   6.461   0.263
 3903SOL    HW112608   3.557   6.446   0.192
 3903SOL    HW212609   3.673   6.375   0.282
 3904SOL     OW12610   1.834   0.092   6.777
 3904SOL    HW112611   1.863   0.187   6.762
 3904SOL    HW212612   1.893   0.051   6.847
 3905SOL     OW12613   6.740   6.755   6.118
 3905SOL    HW112614   6.754   6.758   6.019
 3905SOL    HW212615   6.829   6.747   6.163
 3906SOL     OW12616   5.750   6.933   5.698
 3906SOL    HW112617   5.841   6.966   5.725
 3906SOL    HW212618   5.720   6.864   5.764
 3907SOL     OW12619   6.059   1.045   3.739
 3907SOL    HW112620   6.095   0.963   3.694
 3907SOL    HW212621   5.998   1.018   3.814
 3908SOL     OW12622   0.727   2.571   6.833
 3908SOL    HW112623   0.730   2.502   6.905
 3908SOL    HW212624   0.791   2.645   6.854
 3909SOL     OW12625   5.430   6.248   4.595
 3909SOL    HW112626   5.348   6.195   4.572
 3909SOL    HW212627   5.457   6.228   4.689
 3910SOL     OW12628   3.452   4.128   2.326
 3910SOL    HW112629   3.411   4.219   2.318
 3910SOL    HW212630   3.540   4.127   2.279
 3911SOL     OW12631   6.106   1.711   5.378
 3911SOL    HW112632   6.129   1.652   5.301
 3911SOL    HW212633   6.007   1.708   5.393
 3912SOL     OW12634   5.699   0.942   4.768
 3912SOL    HW112635   5.688   0.848   4.737
 3912SOL    HW212636   5.629   1.000   4.726
 3913SOL     OW12637   2.133   6.942   6.324
 3913SOL    HW112638   2.206   7.010   6.309
 3913SOL    HW212639   2.095   6.954   6.415
 3914SOL     OW12640   2.695   0.939   1.331
 3914SOL    HW112641   2.701   0.942   1.430
 3914SOL    HW212642   2.612   0.986   1.300
 3915SOL     OW12643   5.442   6.254   1.013
 3915SOL    HW112644   5.356   6.299   1.033
 3915SOL    HW212645   5.426   6.157   0.992
 3916SOL     OW12646   1.119   6.845   3.876
 3916SOL    HW112647   1.080   6.932   3.844
 3916SOL    HW212648   1.159   6.797   3.798
 3917SOL     OW12649   0.188   6.563   6.681
 3917SOL    HW112650   0.212   6.485   6.739
 3917SOL    HW212651   0.156   6.639   6.739
 3918SOL     OW12652   5.737   5.509   1.851
 3918SOL    HW112653   5.745   5.447   1.773
 3918SOL    HW212654   5.696   5.595   1.821
 3919SOL     OW12655   4.458   6.770   0.232
 3919SOL    HW112656   4.392   6.832   0.273
 3919SOL    HW212657   4.459   6.783   0.133
 3920SOL     OW12658   2.540   3.853   0.611
 3920SOL    HW112659   2.518   3.932   0.553
 3920SOL    HW212660   2.639   3.846   0.622
 3921SOL     OW12661   0.067   3.572   1.133
 3921SOL    HW112662   0.111   3.599   1.047
 3921SOL    HW212663   0.007   3.646   1.164
 3922SOL     OW12664   6.929   4.105   1.855
 3922SOL    HW112665   6.878   4.023   1.828
 3922SOL    HW212666   0.004   4.085   1.855
 3923SOL     OW12667   6.619   0.832   0.420
 3923SOL    HW112668   6.627   0.753   0.360
 3923SOL    HW212669   6.680   0.905   0.387
 3924SOL     OW12670   5.547   5.335   4.072
 3924SOL    HW112671   5.467   5.281   4.046
 3924SOL    HW212672   5.555   5.414   4.011
 3925SOL     OW12673   1.801   4.915   1.352
 3925SOL    HW112674   1.723   4.949   1.300
 3925SOL    HW212675   1.779   4.827   1.394
 3926SOL     OW12676   5.071   4.634   2.701
 3926SOL    HW112677   5.130   4.554   2.689
 3926SOL    HW212678   5.052   4.675   2.612
 3927SOL     OW12679   6.415   2.645   5.343
 3927SOL    HW112680   6.452   2.568   5.291
 3927SOL    HW212681   6.461   2.729   5.315
 3928SOL     OW12682   3.767   5.981   6.886
 3928SOL    HW112683   3.795   6.074   6.863
 3928SOL    HW212684   3.763   5.970   6.985
 3929SOL     OW12685   0.369   0.422   4.439
 3929SOL    HW112686   0.289   0.362   4.436
 3929SOL    HW212687   0.340   0.514   4.467
 3930SOL     OW12688   2.595   2.137   4.829
 3930SOL    HW112689   2.596   2.086   4.915
 3930SOL    HW212690   2.641   2.225   4.843
 3931SOL     OW12691   1.469   1.929   1.381
 3931SOL    HW112692   1.458   2.010   1.438
 3931SOL    HW212693   1.383   1.910   1.333
 3932SOL     OW12694   1.329   4.394   3.671
 3932SOL    HW112695   1.398   4.323   3.659
 3932SOL    HW212696   1.244   4.366   3.626
 3933SOL     OW12697   1.773   6.793   6.485
 3933SOL    HW112698   1.768   6.847   6.402
 3933SOL    HW212699   1.683   6.791   6.529
 3934SOL     OW12700   6.660   0.688   6.834
 3934SOL    HW112701   6.708   0.689   6.746
 3934SOL    HW212702   6.576   0.635   6.826
 3935SOL     OW12703   3.043   6.971   6.670
 3935SOL    HW112704   3.039   0.036   6.718
 3935SOL    HW212705   3.139   6.943   6.661
 3936SOL     OW12706   6.535   5.200   5.404
 3936SOL    HW112707   6.542   5.133   5.478
 3936SOL    HW212708   6.615   5.261   5.406
 3937SOL     OW12709   0.416   1.320   2.689
 3937SOL    HW112710   0.471   1.339   2.607
 3937SOL    HW212711   0.322   1.301   2.662
 3938SOL     OW12712   0.739   2.168   3.112
 3938SOL    HW112713   0.671   2.098   3.096
 3938SOL    HW212714   0.806   2.135   3.178
 3939SOL     OW12715   2.041   2.542   3.067
 3939SOL    HW112716   2.117   2.567   3.128
 3939SOL    HW212717   2.004   2.624   3.025
 3940SOL     OW12718   4.556   4.341   1.073
 3940SOL    HW112719   4.640   4.334   1.127
 3940SOL    HW212720   4.483   4.288   1.116
 3941SOL     OW12721   5.626   3.258   5.251
 3941SOL    HW112722   5.597   3.165   5.228
 3941SOL    HW212723   5.626   3.269   5.350
 3942SOL     OW12724   0.548   6.539   6.845
 3942SOL    HW112725   0.589   6.536   6.754
 3942SOL    HW212726   0.573   6.457   6.896
 3943SOL     OW12727   6.817   2.749   3.693
 3943SOL    HW112728   6.869   2.812   3.750
 3943SOL    HW212729   6.879   2.696   3.636
 3944SOL     OW12730   4.705   2.881   4.690
 3944SOL    HW112731   4.673   2.796   4.730
 3944SOL    HW212732   4.722   2.868   4.592
 3945SOL     OW12733   6.943   2.047   6.906
 3945SOL    HW112734   6.863   2.066   6.849
 3945SOL    HW212735   6.986   2.134   6.932
 3946SOL     OW12736   5.458   4.266   4.738
 3946SOL    HW112737   5.474   4.315   4.652
 3946SOL    HW212738   5.459   4.331   4.813
 3947SOL     OW12739   5.197   6.003   6.950
 3947SOL    HW112740   5.266   5.948   6.996
 3947SOL    HW212741   5.232   6.095   6.934
 3948SOL     OW12742   0.203   4.807   2.390
 3948SOL    HW112743   0.201   4.895   2.437
 3948SOL    HW212744   0.289   4.798   2.340
 3949SOL     OW12745   5.646   6.387   3.343
 3949SOL    HW112746   5.576   6.458   3.353
 3949SOL    HW212747   5.609   6.299   3.370
 3950SOL     OW12748   1.613   4.415   0.761
 3950SOL    HW112749   1.704   4.453   0.773
 3950SOL    HW212750   1.566   4.462   0.686
 3951SOL     OW12751   4.774   0.210   1.226
 3951SOL    HW112752   4.713   0.181   1.152
 3951SOL    HW212753   4.787   0.309   1.220
 3952SOL     OW12754   0.018   2.319   1.858
 3952SOL    HW112755   6.946   2.343   1.843
 3952SOL    HW212756   0.076   2.399   1.842
 3953SOL     OW12757   3.960   4.717   1.211
 3953SOL    HW112758   4.060   4.721   1.213
 3953SOL    HW212759   3.927   4.773   1.135
 3954SOL     OW12760   4.066   5.137   5.784
 3954SOL    HW112761   3.969   5.141   5.807
 3954SOL    HW212762   4.105   5.229   5.783
 3955SOL     OW12763   2.864   0.682   6.169
 3955SOL    HW112764   2.849   0.737   6.251
 3955SOL    HW212765   2.833   0.588   6.186
 3956SOL     OW12766   1.527   0.725   2.355
 3956SOL    HW112767   1.544   0.804   2.413
 3956SOL    HW212768   1.577   0.736   2.269
 3957SOL     OW12769   4.304   0.123   4.296
 3957SOL    HW112770   4.285   0.091   4.389
 3957SOL    HW212771   4.365   0.202   4.300
 3958SOL     OW12772   5.525   1.508   4.462
 3958SOL    HW112773   5.559   1.549   4.378
 3958SOL    HW212774   5.532   1.408   4.456
 3959SOL     OW12775   5.371   6.182   0.448
 3959SOL    HW112776   5.405   6.231   0.367
 3959SOL    HW212777   5.287   6.134   0.425
 3960SOL     OW12778   5.217   1.086   6.441
 3960SOL    HW112779   5.139   1.026   6.424
 3960SOL    HW212780   5.285   1.038   6.497
 3961SOL     OW12781   4.663   1.037   2.774
 3961SOL    HW112782   4.645   1.053   2.677
 3961SOL    HW212783   4.585   0.990   2.815
 3962SOL     OW12784   2.280   5.112   6.424
 3962SOL    HW112785   2.240   5.042   6.482
 3962SOL    HW212786   2.251   5.202   6.455
 3963SOL     OW12787   4.471   5.242   2.238
 3963SOL    HW112788   4.488   5.212   2.144
 3963SOL    HW212789   4.522   5.183   2.301
 3964SOL     OW12790   4.872   4.570   3.721
 3964SOL    HW112791   4.839   4.649   3.773
 3964SOL    HW212792   4.797   4.504   3.712
 3965SOL     OW12793   4.912   3.324   4.507
 3965SOL    HW112794   4.855   3.265   4.564
 3965SOL    HW212795   4.913   3.289   4.413
 3966SOL     OW12796   4.089   6.104   6.607
 3966SOL    HW112797   4.056   6.011   6.592
 3966SOL    HW212798   4.165   6.123   6.545
 3967SOL     OW12799   2.235   3.972   1.971
 3967SOL    HW112800   2.178   3.914   1.913
 3967SOL    HW212801   2.272   3.919   2.047
 3968SOL     OW12802   4.092   0.676   0.881
 3968SOL    HW112803   4.050   0.708   0.797
 3968SOL    HW212804   4.021   0.647   0.945
 3969SOL     OW12805   1.483   5.098   2.484
 3969SOL    HW112806   1.397   5.116   2.533
 3969SOL    HW212807   1.547   5.173   2.502
 3970SOL     OW12808   4.721   6.117   3.054
 3970SOL    HW112809   4.779   6.036   3.055
 3970SOL    HW212810   4.653   6.109   2.981
 3971SOL     OW12811   3.318   5.314   4.065
 3971SOL    HW112812   3.394   5.374   4.090
 3971SOL    HW212813   3.338   5.271   3.977
 3972SOL     OW12814   1.662   3.851   0.211
 3972SOL    HW112815   1.565   3.846   0.235
 3972SOL    HW212816   1.674   3.912   0.133
 3973SOL     OW12817   1.180   5.604   0.094
 3973SOL    HW112818   1.108   5.673   0.084
 3973SOL    HW212819   1.269   5.650   0.095
 3974SOL     OW12820   1.848   6.775   5.912
 3974SOL    HW112821   1.878   6.705   5.847
 3974SOL    HW212822   1.895   6.762   5.999
 3975SOL     OW12823   5.480   1.511   6.337
 3975SOL    HW112824   5.465   1.413   6.350
 3975SOL    HW212825   5.508   1.528   6.242
 3976SOL     OW12826   2.088   5.902   2.918
 3976SOL    HW112827   2.103   5.975   2.985
 3976SOL    HW212828   2.175   5.858   2.897
 3977SOL     OW12829   1.923   2.621   6.537
 3977SOL    HW112830   2.003   2.635   6.595
 3977SOL    HW212831   1.844   2.668   6.577
 3978SOL     OW12832   5.672   5.408   3.448
 3978SOL    HW112833   5.713   5.327   3.491
 3978SOL    HW212834   5.675   5.485   3.511
 3979SOL     OW12835   3.649   0.978   6.500
 3979SOL    HW112836   3.570   0.979   6.438
 3979SOL    HW212837   3.646   0.894   6.555
 3980SOL     OW12838   5.551   6.990   6.589
 3980SOL    HW112839   5.575   0.064   6.596
 3980SOL    HW212840   5.484   6.978   6.516
 3981SOL     OW12841   4.043   6.166   0.358
 3981SOL    HW112842   4.132   6.207   0.337
 3981SOL    HW212843   4.047   6.068   0.340
 3982SOL     OW12844   2.218   6.503   3.197
 3982SOL    HW112845   2.268   6.433   3.146
 3982SOL    HW212846   2.253   6.594   3.173
 3983SOL     OW12847   4.824   5.042   3.737
 3983SOL    HW112848   4.899   4.977   3.737
 3983SOL    HW212849   4.802   5.067   3.832
 3984SOL     OW12850   6.573   1.091   1.673
 3984SOL    HW112851   6.563   1.011   1.732
 3984SOL    HW212852   6.631   1.067   1.595
 3985SOL     OW12853   2.753   5.627   6.895
 3985SOL    HW112854   2.673   5.668   6.939
 3985SOL    HW212855   2.730   5.535   6.863
 3986SOL     OW12856   5.132   1.715   2.541
 3986SOL    HW112857   5.216   1.769   2.537
 3986SOL    HW212858   5.155   1.619   2.556
 3987SOL     OW12859   3.348   4.931   4.147
 3987SOL    HW112860   3.314   4.837   4.155
 3987SOL    HW212861   3.278   4.989   4.105
 3988SOL     OW12862   3.395   5.252   0.132
 3988SOL    HW112863   3.480   5.237   0.082
 3988SOL    HW212864   3.372   5.349   0.132
 3989SOL     OW12865   0.050   2.272   6.962
 3989SOL    HW112866   0.073   2.280   0.036
 3989SOL    HW212867   0.134   2.259   6.909
 3990SOL     OW12868   4.866   2.599   2.451
 3990SOL    HW112869   4.893   2.637   2.362
 3990SOL    HW212870   4.935   2.622   2.519
 3991SOL     OW12871   7.014   1.280   1.474
 3991SOL    HW112872   0.072   1.225   1.452
 3991SOL    HW212873   6.953   1.283   1.395
 3992SOL     OW12874   2.970   2.383   0.655
 3992SOL    HW112875   3.058   2.360   0.613
 3992SOL    HW212876   2.896   2.357   0.593
 3993SOL     OW12877   1.491   2.740   2.738
 3993SOL    HW112878   1.425   2.666   2.749
 3993SOL    HW212879   1.444   2.828   2.742
 3994SOL     OW12880   2.780   0.425   6.163
 3994SOL    HW112881   2.800   0.365   6.240
 3994SOL    HW212882   2.790   0.374   6.077
 3995SOL     OW12883   2.265   3.716   6.025
 3995SOL    HW112884   2.304   3.778   5.957
 3995SOL    HW212885   2.231   3.768   6.104
 3996SOL     OW12886   0.087   6.501   5.094
 3996SOL    HW112887   0.082   6.583   5.036
 3996SOL    HW212888   0.175   6.457   5.082
 3997SOL     OW12889   5.661   2.023   3.227
 3997SOL    HW112890   5.709   1.979   3.302
 3997SOL    HW212891   5.603   2.096   3.263
 3998SOL     OW12892   3.450   0.930   4.466
 3998SOL    HW112893   3.541   0.889   4.469
 3998SOL    HW212894   3.435   0.985   4.548
 3999SOL     OW12895   5.804   1.721   4.004
 3999SOL    HW112896   5.867   1.790   4.041
 3999SOL    HW212897   5.838   1.690   3.915
 4000SOL     OW12898   2.839   6.589   4.162
 4000SOL    HW112899   2.888   6.659   4.109
 4000SOL    HW212900   2.792   6.632   4.239
 4001SOL     OW12901   2.858   1.952   4.742
 4001SOL    HW112902   2.931   1.927   4.679
 4001SOL    HW212903   2.858   2.052   4.755
 4002SOL     OW12904   3.083   3.595   1.527
 4002SOL    HW112905   3.085   3.627   1.621
 4002SOL    HW212906   3.101   3.671   1.464
 4003SOL     OW12907   3.367   0.350   4.081
 4003SOL    HW112908   3.448   0.302   4.049
 4003SOL    HW212909   3.305   0.285   4.124
 4004SOL     OW12910   6.387   2.065   4.451
 4004SOL    HW112911   6.355   2.090   4.542
 4004SOL    HW212912   6.351   2.130   4.384
 4005SOL     OW12913   4.575   5.269   5.870
 4005SOL    HW112914   4.625   5.313   5.944
 4005SOL    HW212915   4.480   5.256   5.897
 4006SOL     OW12916   3.837   4.942   1.812
 4006SOL    HW112917   3.743   4.951   1.778
 4006SOL    HW212918   3.901   4.970   1.740
 4007SOL     OW12919   6.879   2.904   0.221
 4007SOL    HW112920   6.890   2.974   0.151
 4007SOL    HW212921   6.788   2.863   0.214
 4008SOL     OW12922   2.718   2.463   5.097
 4008SOL    HW112923   2.795   2.415   5.139
 4008SOL    HW212924   2.723   2.453   4.997
 4009SOL     OW12925   4.224   3.151   1.777
 4009SOL    HW112926   4.232   3.248   1.755
 4009SOL    HW212927   4.179   3.140   1.865
 4010SOL     OW12928   2.612   3.279   1.380
 4010SOL    HW112929   2.708   3.278   1.405
 4010SOL    HW212930   2.577   3.186   1.376
 4011SOL     OW12931   1.061   2.293   2.189
 4011SOL    HW112932   1.145   2.243   2.212
 4011SOL    HW212933   0.985   2.255   2.241
 4012SOL     OW12934   6.549   4.245   2.564
 4012SOL    HW112935   6.631   4.261   2.509
 4012SOL    HW212936   6.527   4.148   2.563
 4013SOL     OW12937   3.756   2.059   4.825
 4013SOL    HW112938   3.725   1.967   4.800
 4013SOL    HW212939   3.845   2.076   4.784
 4014SOL     OW12940   6.211   6.560   2.297
 4014SOL    HW112941   6.136   6.626   2.298
 4014SOL    HW212942   6.176   6.470   2.270
 4015SOL     OW12943   4.820   4.303   6.387
 4015SOL    HW112944   4.864   4.376   6.438
 4015SOL    HW212945   4.881   4.224   6.382
 4016SOL     OW12946   2.432   5.976   6.097
 4016SOL    HW112947   2.426   6.037   6.176
 4016SOL    HW212948   2.422   5.881   6.127
 4017SOL     OW12949   6.875   5.515   0.532
 4017SOL    HW112950   6.895   5.572   0.452
 4017SOL    HW212951   6.891   5.568   0.615
 4018SOL     OW12952   4.476   5.979   1.926
 4018SOL    HW112953   4.519   5.950   2.012
 4018SOL    HW212954   4.475   5.902   1.862
 4019SOL     OW12955   4.847   4.487   2.593
 4019SOL    HW112956   4.920   4.523   2.536
 4019SOL    HW212957   4.878   4.480   2.688
 4020SOL     OW12958   4.601   2.762   5.169
 4020SOL    HW112959   4.535   2.832   5.194
 4020SOL    HW212960   4.560   2.671   5.182
 4021SOL     OW12961   3.326   5.328   6.386
 4021SOL    HW112962   3.296   5.244   6.431
 4021SOL    HW212963   3.421   5.318   6.357
 4022SOL     OW12964   5.081   1.469   0.401
 4022SOL    HW112965   5.122   1.531   0.334
 4022SOL    HW212966   4.998   1.510   0.437
 4023SOL     OW12967   6.524   2.432   5.159
 4023SOL    HW112968   6.603   2.372   5.154
 4023SOL    HW212969   6.440   2.379   5.147
 4024SOL     OW12970   4.020   5.491   4.064
 4024SOL    HW112971   4.076   5.492   3.981
 4024SOL    HW212972   3.976   5.581   4.075
 4025SOL     OW12973   0.593   3.390   3.645
 4025SOL    HW112974   0.689   3.363   3.645
 4025SOL    HW212975   0.582   3.478   3.691
 4026SOL     OW12976   4.891   6.490   3.782
 4026SOL    HW112977   4.836   6.420   3.828
 4026SOL    HW212978   4.875   6.579   3.826
 4027SOL     OW12979   3.784   4.437   1.508
 4027SOL    HW112980   3.873   4.441   1.464
 4027SOL    HW212981   3.778   4.353   1.564
 4028SOL     OW12982   2.169   1.844   3.606
 4028SOL    HW112983   2.136   1.752   3.628
 4028SOL    HW212984   2.269   1.844   3.602
 4029SOL     OW12985   1.924   4.081   5.804
 4029SOL    HW112986   1.931   4.114   5.710
 4029SOL    HW212987   2.013   4.089   5.848
 4030SOL     OW12988   1.081   1.771   5.211
 4030SOL    HW112989   1.082   1.785   5.310
 4030SOL    HW212990   1.071   1.673   5.192
 4031SOL     OW12991   3.997   5.729   4.360
 4031SOL    HW112992   3.962   5.693   4.446
 4031SOL    HW212993   4.097   5.730   4.362
 4032SOL     OW12994   5.494   0.289   3.973
 4032SOL    HW112995   5.562   0.297   3.900
 4032SOL    HW212996   5.410   0.249   3.936
 4033SOL     OW12997   2.898   3.478   4.670
 4033SOL    HW112998   2.984   3.467   4.719
 4033SOL    HW212999   2.826   3.427   4.716
 4034SOL     OW13000   6.720   1.939   4.012
 4034SOL    HW113001   6.673   1.900   3.933
 4034SOL    HW213002   6.654   1.991   4.067
 4035SOL     OW13003   0.702   4.073   0.040
 4035SOL    HW113004   0.759   3.999   0.075
 4035SOL    HW213005   0.631   4.095   0.108
 4036SOL     OW13006   6.377   6.711   3.057
 4036SOL    HW113007   6.460   6.724   3.111
 4036SOL    HW213008   6.401   6.682   2.965
 4037SOL     OW13009   0.788   3.296   6.941
 4037SOL    HW113010   0.820   3.280   0.011
 4037SOL    HW213011   0.698   3.340   6.944
 4038SOL     OW13012   5.010   4.628   3.311
 4038SOL    HW113013   4.936   4.562   3.327
 4038SOL    HW213014   4.976   4.720   3.329
 4039SOL     OW13015   5.288   6.261   6.940
 4039SOL    HW113016   5.269   6.293   0.010
 4039SOL    HW213017   5.355   6.322   6.897
 4040SOL     OW13018   3.244   6.815   1.335
 4040SOL    HW113019   3.333   6.845   1.368
 4040SOL    HW213020   3.219   6.728   1.379
 4041SOL     OW13021   1.525   6.203   3.877
 4041SOL    HW113022   1.597   6.268   3.899
 4041SOL    HW213023   1.506   6.145   3.956
 4042SOL     OW13024   6.087   5.170   1.812
 4042SOL    HW113025   6.158   5.101   1.828
 4042SOL    HW213026   6.087   5.197   1.716
 4043SOL     OW13027   5.999   2.295   1.006
 4043SOL    HW113028   5.938   2.230   0.961
 4043SOL    HW213029   6.017   2.372   0.944
 4044SOL     OW13030   5.704   0.016   3.483
 4044SOL    HW113031   5.699   0.008   3.583
 4044SOL    HW213032   5.671   0.106   3.455
 4045SOL     OW13033   2.202   5.674   6.390
 4045SOL    HW113034   2.182   5.671   6.488
 4045SOL    HW213035   2.125   5.636   6.339
 4046SOL     OW13036   1.088   3.095   1.780
 4046SOL    HW113037   1.179   3.129   1.804
 4046SOL    HW213038   1.069   3.115   1.684
 4047SOL     OW13039   2.640   3.556   1.642
 4047SOL    HW113040   2.692   3.562   1.557
 4047SOL    HW213041   2.563   3.618   1.639
 4048SOL     OW13042   4.683   0.153   0.899
 4048SOL    HW113043   4.775   0.152   0.938
 4048SOL    HW213044   4.653   0.059   0.880
 4049SOL     OW13045   5.156   0.160   4.982
 4049SOL    HW113046   5.202   0.159   5.070
 4049SOL    HW213047   5.198   0.092   4.922
 4050SOL     OW13048   2.446   7.003   0.512
 4050SOL    HW113049   2.357   6.981   0.552
 4050SOL    HW213050   2.494   0.044   0.573
 4051SOL     OW13051   3.746   4.120   1.733
 4051SOL    HW113052   3.675   4.189   1.744
 4051SOL    HW213053   3.736   4.076   1.643
 4052SOL     OW13054   0.525   0.573   0.773
 4052SOL    HW113055   0.620   0.603   0.766
 4052SOL    HW213056   0.480   0.580   0.684
 4053SOL     OW13057   3.708   4.999   3.540
 4053SOL    HW113058   3.780   4.972   3.476
 4053SOL    HW213059   3.677   5.091   3.518
 4054SOL     OW13060   3.862   2.410   1.268
 4054SOL    HW113061   3.812   2.324   1.257
 4054SOL    HW213062   3.958   2.397   1.241
 4055SOL     OW13063   3.978   1.686   6.086
 4055SOL    HW113064   3.917   1.712   6.011
 4055SOL    HW213065   3.923   1.667   6.168
 4056SOL     OW13066   3.665   3.631   0.546
 4056SOL    HW113067   3.642   3.721   0.508
 4056SOL    HW213068   3.581   3.580   0.565
 4057SOL     OW13069   4.911   2.650   6.758
 4057SOL    HW113070   4.849   2.640   6.836
 4057SOL    HW213071   4.916   2.563   6.708
 4058SOL     OW13072   1.881   1.074   5.773
 4058SOL    HW113073   1.841   0.984   5.755
 4058SOL    HW213074   1.965   1.064   5.826
 4059SOL     OW13075   0.752   1.646   4.562
 4059SOL    HW113076   0.722   1.739   4.584
 4059SOL    HW213077   0.813   1.613   4.634
 4060SOL     OW13078   4.070   5.190   4.316
 4060SOL    HW113079   4.014   5.266   4.348
 4060SOL    HW213080   4.033   5.154   4.230
 4061SOL     OW13081   3.279   2.809   1.922
 4061SOL    HW113082   3.192   2.764   1.943
 4061SOL    HW213083   3.322   2.763   1.844
 4062SOL     OW13084   2.586   0.621   3.459
 4062SOL    HW113085   2.515   0.561   3.423
 4062SOL    HW213086   2.659   0.631   3.390
 4063SOL     OW13087   2.870   4.924   6.725
 4063SOL    HW113088   2.886   4.835   6.684
 4063SOL    HW213089   2.952   4.981   6.715
 4064SOL     OW13090   6.625   0.843   3.511
 4064SOL    HW113091   6.610   0.764   3.570
 4064SOL    HW213092   6.714   0.836   3.467
 4065SOL     OW13093   6.207   6.003   0.453
 4065SOL    HW113094   6.193   6.014   0.355
 4065SOL    HW213095   6.295   6.044   0.479
 4066SOL     OW13096   6.010   3.905   1.368
 4066SOL    HW113097   5.929   3.909   1.426
 4066SOL    HW213098   6.083   3.961   1.408
 4067SOL     OW13099   6.244   1.122   2.081
 4067SOL    HW113100   6.220   1.032   2.119
 4067SOL    HW213101   6.165   1.183   2.088
 4068SOL     OW13102   6.326   0.398   3.706
 4068SOL    HW113103   6.295   0.484   3.747
 4068SOL    HW213104   6.408   0.415   3.651
 4069SOL     OW13105   5.909   5.191   0.922
 4069SOL    HW113106   6.007   5.189   0.906
 4069SOL    HW213107   5.869   5.267   0.871
 4070SOL     OW13108   1.338   3.477   2.865
 4070SOL    HW113109   1.287   3.516   2.788
 4070SOL    HW213110   1.293   3.500   2.951
 4071SOL     OW13111   1.488   6.723   4.065
 4071SOL    HW113112   1.465   6.689   4.156
 4071SOL    HW213113   1.584   6.702   4.046
 4072SOL     OW13114   1.500   0.182   4.787
 4072SOL    HW113115   1.514   0.273   4.826
 4072SOL    HW213116   1.519   0.184   4.689
 4073SOL     OW13117   2.364   5.714   6.834
 4073SOL    HW113118   2.286   5.747   6.886
 4073SOL    HW213119   2.436   5.685   6.897
 4074SOL     OW13120   1.713   3.726   0.657
 4074SOL    HW113121   1.706   3.825   0.662
 4074SOL    HW213122   1.732   3.689   0.749
 4075SOL     OW13123   4.663   1.529   3.324
 4075SOL    HW113124   4.566   1.552   3.316
 4075SOL    HW213125   4.678   1.483   3.411
 4076SOL     OW13126   1.781   3.394   4.049
 4076SOL    HW113127   1.715   3.377   4.121
 4076SOL    HW213128   1.761   3.336   3.970
 4077SOL     OW13129   3.023   1.545   0.489
 4077SOL    HW113130   3.047   1.460   0.443
 4077SOL    HW213131   3.088   1.616   0.464
 4078SOL     OW13132   6.033   3.813   1.684
 4078SOL    HW113133   5.942   3.807   1.725
 4078SOL    HW213134   6.045   3.739   1.618
 4079SOL     OW13135   0.381   0.732   3.968
 4079SOL    HW113136   0.399   0.636   3.949
 4079SOL    HW213137   0.455   0.770   4.023
 4080SOL     OW13138   2.873   3.229   1.442
 4080SOL    HW113139   2.927   3.270   1.516
 4080SOL    HW213140   2.879   3.129   1.448
 4081SOL     OW13141   2.165   2.304   6.236
 4081SOL    HW113142   2.130   2.281   6.327
 4081SOL    HW213143   2.166   2.403   6.225
 4082SOL     OW13144   1.141   2.584   4.373
 4082SOL    HW113145   1.112   2.566   4.467
 4082SOL    HW213146   1.113   2.677   4.347
 4083SOL     OW13147   5.771   5.246   3.035
 4083SOL    HW113148   5.786   5.248   2.936
 4083SOL    HW213149   5.675   5.265   3.055
 4084SOL     OW13150   4.759   0.771   3.702
 4084SOL    HW113151   4.840   0.784   3.645
 4084SOL    HW213152   4.785   0.777   3.798
 4085SOL     OW13153   3.760   4.862   2.905
 4085SOL    HW113154   3.794   4.912   2.985
 4085SOL    HW213155   3.661   4.871   2.900
 4086SOL     OW13156   5.991   5.499   5.931
 4086SOL    HW113157   5.934   5.418   5.918
 4086SOL    HW213158   6.074   5.490   5.877
 4087SOL     OW13159   2.923   0.109   2.853
 4087SOL    HW113160   2.892   0.114   2.948
 4087SOL    HW213161   2.941   0.201   2.819
 4088SOL     OW13162   0.687   1.735   5.620
 4088SOL    HW113163   0.739   1.711   5.702
 4088SOL    HW213164   0.591   1.713   5.634
 4089SOL     OW13165   0.501   0.058   3.401
 4089SOL    HW113166   0.492   0.155   3.426
 4089SOL    HW213167   0.430   0.034   3.335
 4090SOL     OW13168   2.973   1.414   6.268
 4090SOL    HW113169   3.066   1.419   6.232
 4090SOL    HW213170   2.934   1.324   6.245
 4091SOL     OW13171   2.707   6.082   2.201
 4091SOL    HW113172   2.803   6.056   2.200
 4091SOL    HW213173   2.654   6.013   2.249
 4092SOL     OW13174   5.647   3.223   3.959
 4092SOL    HW113175   5.674   3.209   3.864
 4092SOL    HW213176   5.640   3.134   4.004
 4093SOL     OW13177   4.288   5.046   2.985
 4093SOL    HW113178   4.326   4.964   3.028
 4093SOL    HW213179   4.216   5.084   3.043
 4094SOL     OW13180   6.933   5.421   6.712
 4094SOL    HW113181   7.015   5.395   6.763
 4094SOL    HW213182   6.879   5.486   6.767
 4095SOL     OW13183   0.913   4.771   0.055
 4095SOL    HW113184   0.880   4.801   0.145
 4095SOL    HW213185   0.836   4.762   7.016
 4096SOL     OW13186   1.168   1.085   6.901
 4096SOL    HW113187   1.106   1.031   6.845
 4096SOL    HW213188   1.150   1.182   6.888
 4097SOL     OW13189   6.941   4.849   5.167
 4097SOL    HW113190   0.005   4.897   5.172
 4097SOL    HW213191   6.876   4.891   5.230
 4098SOL     OW13192   2.517   4.580   3.328
 4098SOL    HW113193   2.500   4.545   3.420
 4098SOL    HW213194   2.503   4.507   3.261
 4099SOL     OW13195   4.498   4.652   5.859
 4099SOL    HW113196   4.581   4.599   5.869
 4099SOL    HW213197   4.459   4.638   5.768
 4100SOL     OW13198   1.781   6.629   4.013
 4100SOL    HW113199   1.790   6.710   3.955
 4100SOL    HW213200   1.835   6.555   3.974
 4101SOL     OW13201   6.051   6.333   0.158
 4101SOL    HW113202   6.091   6.404   0.215
 4101SOL    HW213203   6.112   6.313   0.081
 4102SOL     OW13204   1.145   0.711   0.595
 4102SOL    HW113205   1.152   0.809   0.578
 4102SOL    HW213206   1.206   0.685   0.669
 4103SOL     OW13207   1.188   6.409   2.874
 4103SOL    HW113208   1.137   6.330   2.841
 4103SOL    HW213209   1.208   6.398   2.971
 4104SOL     OW13210   1.413   5.766   4.504
 4104SOL    HW113211   1.429   5.837   4.436
 4104SOL    HW213212   1.430   5.803   4.595
 4105SOL     OW13213   4.593   1.216   0.912
 4105SOL    HW113214   4.578   1.125   0.952
 4105SOL    HW213215   4.688   1.244   0.928
 4106SOL     OW13216   0.739   1.702   3.140
 4106SOL    HW113217   0.760   1.720   3.237
 4106SOL    HW213218   0.652   1.653   3.134
 4107SOL     OW13219   0.626   6.260   6.919
 4107SOL    HW113220   0.617   6.161   6.924
 4107SOL    HW213221   0.678   6.293   6.998
 4108SOL     OW13222   6.742   6.194   4.227
 4108SOL    HW113223   6.670   6.236   4.281
 4108SOL    HW213224   6.705   6.116   4.177
 4109SOL     OW13225   6.597   6.529   2.909
 4109SOL    HW113226   6.665   6.529   2.983
 4109SOL    HW213227   6.639   6.566   2.826
 4110SOL     OW13228   4.455   3.272   0.520
 4110SOL    HW113229   4.520   3.322   0.579
 4110SOL    HW213230   4.462   3.174   0.539
 4111SOL     OW13231   6.855   3.921   4.414
 4111SOL    HW113232   6.858   3.938   4.513
 4111SOL    HW213233   6.805   3.994   4.369
 4112SOL     OW13234   4.676   6.670   5.535
 4112SOL    HW113235   4.772   6.674   5.505
 4112SOL    HW213236   4.656   6.578   5.569
 4113SOL     OW13237   4.566   5.167   5.034
 4113SOL    HW113238   4.587   5.129   5.124
 4113SOL    HW213239   4.643   5.220   5.001
 4114SOL     OW13240   0.162   2.193   2.107
 4114SOL    HW113241   0.221   2.273   2.116
 4114SOL    HW213242   0.066   2.223   2.102
 4115SOL     OW13243   4.580   5.906   3.931
 4115SOL    HW113244   4.576   5.970   3.855
 4115SOL    HW213245   4.501   5.845   3.927
 4116SOL     OW13246   5.446   3.305   3.591
 4116SOL    HW113247   5.490   3.368   3.527
 4116SOL    HW213248   5.413   3.225   3.541
 4117SOL     OW13249   1.180   2.224   3.004
 4117SOL    HW113250   1.164   2.131   3.037
 4117SOL    HW213251   1.137   2.289   3.066
 4118SOL     OW13252   0.561   5.797   6.232
 4118SOL    HW113253   0.483   5.772   6.174
 4118SOL    HW213254   0.584   5.893   6.216
 4119SOL     OW13255   1.104   0.860   3.393
 4119SOL    HW113256   1.163   0.940   3.401
 4119SOL    HW213257   1.160   0.781   3.366
 4120SOL     OW13258   1.602   1.380   6.478
 4120SOL    HW113259   1.530   1.429   6.527
 4120SOL    HW213260   1.683   1.439   6.470
 4121SOL     OW13261   6.189   6.418   1.814
 4121SOL    HW113262   6.193   6.512   1.849
 4121SOL    HW213263   6.169   6.356   1.889
 4122SOL     OW13264   6.577   4.527   3.264
 4122SOL    HW113265   6.654   4.525   3.328
 4122SOL    HW213266   6.516   4.450   3.284
 4123SOL     OW13267   4.284   5.168   1.698
 4123SOL    HW113268   4.317   5.174   1.793
 4123SOL    HW213269   4.353   5.122   1.642
 4124SOL     OW13270   6.206   5.690   0.250
 4124SOL    HW113271   6.107   5.707   0.255
 4124SOL    HW213272   6.249   5.725   0.333
 4125SOL     OW13273   5.780   1.825   1.748
 4125SOL    HW113274   5.831   1.820   1.834
 4125SOL    HW213275   5.843   1.819   1.671
 4126SOL     OW13276   1.629   3.083   2.184
 4126SOL    HW113277   1.710   3.024   2.173
 4126SOL    HW213278   1.546   3.027   2.177
 4127SOL     OW13279   3.905   1.439   4.132
 4127SOL    HW113280   3.972   1.481   4.194
 4127SOL    HW213281   3.841   1.509   4.100
 4128SOL     OW13282   0.546   2.990   0.525
 4128SOL    HW113283   0.549   2.906   0.472
 4128SOL    HW213284   0.588   2.975   0.615
 4129SOL     OW13285   2.061   2.606   0.867
 4129SOL    HW113286   2.002   2.670   0.818
 4129SOL    HW213287   2.010   2.566   0.944
 4130SOL     OW13288   5.410   2.491   0.815
 4130SOL    HW113289   5.447   2.492   0.908
 4130SOL    HW213290   5.439   2.574   0.768
 4131SOL     OW13291   4.937   0.009   2.942
 4131SOL    HW113292   4.913   0.088   2.885
 4131SOL    HW213293   5.034   0.014   2.967
 4132SOL     OW13294   0.168   4.960   4.032
 4132SOL    HW113295   0.258   4.989   4.000
 4132SOL    HW213296   0.167   4.961   4.132
 4133SOL     OW13297   5.999   0.182   2.622
 4133SOL    HW113298   5.940   0.189   2.541
 4133SOL    HW213299   6.025   0.087   2.636
 4134SOL     OW13300   1.554   3.289   1.352
 4134SOL    HW113301   1.609   3.217   1.310
 4134SOL    HW213302   1.470   3.302   1.299
 4135SOL     OW13303   0.275   1.367   2.293
 4135SOL    HW113304   0.247   1.271   2.303
 4135SOL    HW213305   0.215   1.425   2.348
 4136SOL     OW13306   1.402   4.682   1.991
 4136SOL    HW113307   1.472   4.642   1.931
 4136SOL    HW213308   1.355   4.755   1.942
 4137SOL     OW13309   1.388   2.364   0.276
 4137SOL    HW113310   1.357   2.456   0.298
 4137SOL    HW213311   1.431   2.363   0.185
 4138SOL     OW13312   4.836   6.861   0.274
 4138SOL    HW113313   4.903   6.918   0.227
 4138SOL    HW213314   4.821   6.897   0.366
 4139SOL     OW13315   2.114   3.258   2.609
 4139SOL    HW113316   2.121   3.320   2.531
 4139SOL    HW213317   2.098   3.311   2.692
 4140SOL     OW13318   2.402   1.779   5.674
 4140SOL    HW113319   2.305   1.804   5.677
 4140SOL    HW213320   2.437   1.768   5.767
 4141SOL     OW13321   4.663   0.389   6.454
 4141SOL    HW113322   4.693   0.429   6.541
 4141SOL    HW213323   4.742   0.368   6.397
 4142SOL     OW13324   6.845   4.565   3.091
 4142SOL    HW113325   6.936   4.530   3.067
 4142SOL    HW213326   6.840   4.581   3.189
 4143SOL     OW13327   5.515   3.150   0.649
 4143SOL    HW113328   5.477   3.066   0.687
 4143SOL    HW213329   5.571   3.196   0.718
 4144SOL     OW13330   6.117   1.811   0.558
 4144SOL    HW113331   6.118   1.712   0.551
 4144SOL    HW213332   6.074   1.850   0.476
 4145SOL     OW13333   6.984   6.749   1.198
 4145SOL    HW113334   6.896   6.708   1.221
 4145SOL    HW213335   6.983   6.846   1.223
 4146SOL     OW13336   4.396   6.542   3.401
 4146SOL    HW113337   4.388   6.526   3.302
 4146SOL    HW213338   4.455   6.472   3.441
 4147SOL     OW13339   4.838   4.422   5.672
 4147SOL    HW113340   4.764   4.372   5.626
 4147SOL    HW213341   4.897   4.357   5.720
 4148SOL     OW13342   2.231   1.709   6.242
 4148SOL    HW113343   2.232   1.619   6.200
 4148SOL    HW213344   2.297   1.712   6.317
 4149SOL     OW13345   2.395   2.545   6.753
 4149SOL    HW113346   2.482   2.558   6.704
 4149SOL    HW213347   2.389   2.612   6.827
 4150SOL     OW13348   5.677   1.955   6.004
 4150SOL    HW113349   5.632   1.965   5.915
 4150SOL    HW213350   5.717   2.042   6.032
 4151SOL     OW13351   2.371   6.479   4.183
 4151SOL    HW113352   2.363   6.547   4.111
 4151SOL    HW213353   2.468   6.455   4.195
 4152SOL     OW13354   2.618   5.366   1.023
 4152SOL    HW113355   2.558   5.331   0.952
 4152SOL    HW213356   2.638   5.293   1.089
 4153SOL     OW13357   6.901   5.286   1.323
 4153SOL    HW113358   6.971   5.355   1.342
 4153SOL    HW213359   6.854   5.263   1.409
 4154SOL     OW13360   1.029   6.311   3.778
 4154SOL    HW113361   1.104   6.310   3.844
 4154SOL    HW213362   1.024   6.401   3.734
 4155SOL     OW13363   0.415   1.456   0.992
 4155SOL    HW113364   0.330   1.410   1.016
 4155SOL    HW213365   0.463   1.484   1.075
 4156SOL     OW13366   6.785   5.718   5.846
 4156SOL    HW113367   6.702   5.694   5.895
 4156SOL    HW213368   6.865   5.692   5.901
 4157SOL     OW13369   6.917   6.134   1.881
 4157SOL    HW113370   6.968   6.053   1.854
 4157SOL    HW213371   6.905   6.195   1.802
 4158SOL     OW13372   1.422   2.904   2.236
 4158SOL    HW113373   1.464   2.876   2.322
 4158SOL    HW213374   1.347   2.842   2.214
 4159SOL     OW13375   3.189   1.453   3.860
 4159SOL    HW113376   3.289   1.452   3.859
 4159SOL    HW213377   3.154   1.447   3.766
 4160SOL     OW13378   6.124   6.469   6.799
 4160SOL    HW113379   6.082   6.558   6.785
 4160SOL    HW213380   6.184   6.448   6.722
 4161SOL     OW13381   3.384   2.729   1.186
 4161SOL    HW113382   3.362   2.756   1.280
 4161SOL    HW213383   3.348   2.637   1.169
 4162SOL     OW13384   5.186   5.736   2.222
 4162SOL    HW113385   5.233   5.658   2.263
 4162SOL    HW213386   5.155   5.712   2.130
 4163SOL     OW13387   3.950   6.707   1.016
 4163SOL    HW113388   4.031   6.763   0.996
 4163SOL    HW213389   3.949   6.684   1.113
 4164SOL     OW13390   6.357   0.471   4.762
 4164SOL    HW113391   6.414   0.551   4.779
 4164SOL    HW213392   6.404   0.389   4.795
 4165SOL     OW13393   4.552   1.115   5.251
 4165SOL    HW113394   4.579   1.120   5.155
 4165SOL    HW213395   4.453   1.116   5.258
 4166SOL     OW13396   6.021   0.845   1.695
 4166SOL    HW113397   5.969   0.921   1.733
 4166SOL    HW213398   5.980   0.817   1.608
 4167SOL     OW13399   4.065   5.202   4.774
 4167SOL    HW113400   3.995   5.220   4.705
 4167SOL    HW213401   4.046   5.257   4.855
 4168SOL     OW13402   4.860   4.266   6.704
 4168SOL    HW113403   4.891   4.356   6.675
 4168SOL    HW213404   4.817   4.219   6.627
 4169SOL     OW13405   4.882   3.718   4.764
 4169SOL    HW113406   4.843   3.810   4.758
 4169SOL    HW213407   4.848   3.673   4.847
 4170SOL     OW13408   6.645   3.499   4.354
 4170SOL    HW113409   6.600   3.569   4.299
 4170SOL    HW213410   6.728   3.536   4.394
 4171SOL     OW13411   0.590   3.529   1.282
 4171SOL    HW113412   0.555   3.581   1.204
 4171SOL    HW213413   0.642   3.451   1.249
 4172SOL     OW13414   2.804   4.926   0.510
 4172SOL    HW113415   2.883   4.976   0.545
 4172SOL    HW213416   2.774   4.860   0.578
 4173SOL     OW13417   4.777   2.888   4.994
 4173SOL    HW113418   4.715   2.829   5.046
 4173SOL    HW213419   4.731   2.917   4.910
 4174SOL     OW13420   4.269   0.400   4.994
 4174SOL    HW113421   4.291   0.490   4.955
 4174SOL    HW213422   4.173   0.379   4.973
 4175SOL     OW13423   1.645   4.215   6.889
 4175SOL    HW113424   1.730   4.234   6.839
 4175SOL    HW213425   1.571   4.201   6.824
 4176SOL     OW13426   5.329   6.963   6.110
 4176SOL    HW113427   5.341   6.922   6.019
 4176SOL    HW213428   5.233   6.955   6.137
 4177SOL     OW13429   4.547   4.437   3.451
 4177SOL    HW113430   4.463   4.488   3.433
 4177SOL    HW213431   4.600   4.427   3.367
 4178SOL     OW13432   4.358   5.308   1.931
 4178SOL    HW113433   4.454   5.281   1.934
 4178SOL    HW213434   4.319   5.303   2.023
 4179SOL     OW13435   5.187   3.353   4.591
 4179SOL    HW113436   5.092   3.322   4.589
 4179SOL    HW213437   5.199   3.420   4.665
 4180SOL     OW13438   5.192   3.760   0.131
 4180SOL    HW113439   5.212   3.691   0.060
 4180SOL    HW213440   5.093   3.765   0.145
 4181SOL     OW13441   4.515   0.497   5.671
 4181SOL    HW113442   4.602   0.467   5.633
 4181SOL    HW213443   4.446   0.427   5.655
 4182SOL     OW13444   6.747   6.694   3.971
 4182SOL    HW113445   6.767   6.610   4.021
 4182SOL    HW213446   6.704   6.672   3.883
 4183SOL     OW13447   3.595   1.750   1.552
 4183SOL    HW113448   3.525   1.723   1.486
 4183SOL    HW213449   3.559   1.823   1.611
 4184SOL     OW13450   3.318   5.300   3.484
 4184SOL    HW113451   3.344   5.339   3.395
 4184SOL    HW213452   3.394   5.309   3.548
 4185SOL     OW13453   6.709   3.790   2.611
 4185SOL    HW113454   6.805   3.772   2.637
 4185SOL    HW213455   6.688   3.743   2.526
 4186SOL     OW13456   1.749   6.459   0.400
 4186SOL    HW113457   1.705   6.548   0.414
 4186SOL    HW213458   1.830   6.471   0.343
 4187SOL     OW13459   1.655   3.362   0.052
 4187SOL    HW113460   1.652   3.448   0.000
 4187SOL    HW213461   1.746   3.322   0.045
 4188SOL     OW13462   4.568   6.794   6.945
 4188SOL    HW113463   4.572   6.878   6.999
 4188SOL    HW213464   4.550   6.817   6.849
 4189SOL     OW13465   4.988   5.236   2.774
 4189SOL    HW113466   4.903   5.268   2.733
 4189SOL    HW213467   4.978   5.141   2.802
 4190SOL     OW13468   0.203   6.406   0.973
 4190SOL    HW113469   0.219   6.497   1.010
 4190SOL    HW213470   0.108   6.397   0.945
 4191SOL     OW13471   4.154   4.886   6.077
 4191SOL    HW113472   4.246   4.850   6.091
 4191SOL    HW213473   4.087   4.820   6.108
 4192SOL     OW13474   1.159   2.846   1.869
 4192SOL    HW113475   1.077   2.789   1.874
 4192SOL    HW213476   1.133   2.938   1.841
 4193SOL     OW13477   6.697   0.342   0.375
 4193SOL    HW113478   6.599   0.347   0.353
 4193SOL    HW213479   6.721   0.247   0.397
 4194SOL     OW13480   4.290   0.859   5.090
 4194SOL    HW113481   4.291   0.773   5.141
 4194SOL    HW213482   4.285   0.936   5.154
 4195SOL     OW13483   4.355   5.612   1.089
 4195SOL    HW113484   4.365   5.712   1.095
 4195SOL    HW213485   4.381   5.571   1.176
 4196SOL     OW13486   6.781   2.002   3.105
 4196SOL    HW113487   6.855   1.935   3.097
 4196SOL    HW213488   6.706   1.976   3.044
 4197SOL     OW13489   3.496   6.658   6.308
 4197SOL    HW113490   3.477   6.647   6.211
 4197SOL    HW213491   3.518   6.569   6.348
 4198SOL     OW13492   6.284   1.224   2.380
 4198SOL    HW113493   6.231   1.243   2.298
 4198SOL    HW213494   6.369   1.276   2.379
 4199SOL     OW13495   0.836   3.601   6.232
 4199SOL    HW113496   0.896   3.565   6.160
 4199SOL    HW213497   0.856   3.556   6.318
 4200SOL     OW13498   4.571   1.045   3.952
 4200SOL    HW113499   4.624   1.076   3.873
 4200SOL    HW213500   4.482   1.090   3.952
 4201SOL     OW13501   5.442   0.207   3.276
 4201SOL    HW113502   5.391   0.293   3.274
 4201SOL    HW213503   5.514   0.212   3.345
 4202SOL     OW13504   4.215   5.214   0.671
 4202SOL    HW113505   4.301   5.174   0.639
 4202SOL    HW213506   4.194   5.179   0.763
 4203SOL     OW13507   6.058   5.293   6.895
 4203SOL    HW113508   6.011   5.236   6.828
 4203SOL    HW213509   6.144   5.328   6.856
 4204SOL     OW13510   3.341   3.581   5.817
 4204SOL    HW113511   3.305   3.632   5.738
 4204SOL    HW213512   3.277   3.508   5.841
 4205SOL     OW13513   3.707   5.775   5.428
 4205SOL    HW113514   3.672   5.850   5.372
 4205SOL    HW213515   3.635   5.705   5.438
 4206SOL     OW13516   1.589   2.269   4.378
 4206SOL    HW113517   1.636   2.281   4.465
 4206SOL    HW213518   1.656   2.270   4.303
 4207SOL     OW13519   1.618   2.884   1.879
 4207SOL    HW113520   1.567   2.801   1.901
 4207SOL    HW213521   1.675   2.910   1.957
 4208SOL     OW13522   2.138   3.610   5.074
 4208SOL    HW113523   2.190   3.676   5.128
 4208SOL    HW213524   2.138   3.638   4.978
 4209SOL     OW13525   7.001   5.953   2.658
 4209SOL    HW113526   0.007   5.880   2.596
 4209SOL    HW213527   6.960   6.027   2.604
 4210SOL     OW13528   4.185   3.436   4.909
 4210SOL    HW113529   4.276   3.405   4.883
 4210SOL    HW213530   4.185   3.462   5.006
 4211SOL     OW13531   3.941   2.305   5.255
 4211SOL    HW113532   3.991   2.270   5.335
 4211SOL    HW213533   3.991   2.382   5.216
 4212SOL     OW13534   0.244   1.451   2.963
 4212SOL    HW113535   0.285   1.391   3.032
 4212SOL    HW213536   0.144   1.445   2.970
 4213SOL     OW13537   3.480   0.570   2.876
 4213SOL    HW113538   3.552   0.526   2.930
 4213SOL    HW213539   3.477   0.530   2.785
 4214SOL     OW13540   0.910   5.029   4.280
 4214SOL    HW113541   0.998   5.018   4.326
 4214SOL    HW213542   0.840   4.978   4.329
 4215SOL     OW13543   4.883   6.343   5.416
 4215SOL    HW113544   4.961   6.388   5.374
 4215SOL    HW213545   4.845   6.275   5.353
 4216SOL     OW13546   2.285   6.163   2.810
 4216SOL    HW113547   2.287   6.067   2.835
 4216SOL    HW213548   2.262   6.172   2.713
 4217SOL     OW13549   1.407   0.563   2.005
 4217SOL    HW113550   1.494   0.582   1.960
 4217SOL    HW213551   1.368   0.479   1.969
 4218SOL     OW13552   2.876   1.356   1.832
 4218SOL    HW113553   2.864   1.281   1.898
 4218SOL    HW213554   2.790   1.372   1.784
 4219SOL     OW13555   3.654   6.450   4.043
 4219SOL    HW113556   3.737   6.403   4.012
 4219SOL    HW213557   3.594   6.467   3.966
 4220SOL     OW13558   4.696   1.781   1.591
 4220SOL    HW113559   4.616   1.763   1.534
 4220SOL    HW213560   4.772   1.723   1.562
 4221SOL     OW13561   0.344   5.524   6.188
 4221SOL    HW113562   0.311   5.529   6.282
 4221SOL    HW213563   0.266   5.529   6.125
 4222SOL     OW13564   4.730   1.877   3.385
 4222SOL    HW113565   4.699   1.789   3.421
 4222SOL    HW213566   4.817   1.865   3.336
 4223SOL     OW13567   4.234   3.683   1.776
 4223SOL    HW113568   4.294   3.761   1.757
 4223SOL    HW213569   4.175   3.666   1.696
 4224SOL     OW13570   4.850   3.837   4.412
 4224SOL    HW113571   4.938   3.851   4.366
 4224SOL    HW213572   4.858   3.763   4.478
 4225SOL     OW13573   0.494   2.745   5.072
 4225SOL    HW113574   0.399   2.726   5.094
 4225SOL    HW213575   0.510   2.844   5.073
 4226SOL     OW13576   0.500   5.342   4.725
 4226SOL    HW113577   0.548   5.254   4.718
 4226SOL    HW213578   0.549   5.402   4.787
 4227SOL     OW13579   5.464   5.404   1.930
 4227SOL    HW113580   5.542   5.451   1.973
 4227SOL    HW213581   5.472   5.412   1.830
 4228SOL     OW13582   1.112   5.597   4.232
 4228SOL    HW113583   1.094   5.512   4.181
 4228SOL    HW213584   1.207   5.596   4.264
 4229SOL     OW13585   5.676   5.063   5.785
 4229SOL    HW113586   5.635   5.082   5.696
 4229SOL    HW213587   5.709   4.969   5.788
 4230SOL     OW13588   1.662   0.906   2.118
 4230SOL    HW113589   1.619   0.945   2.036
 4230SOL    HW213590   1.758   0.934   2.121
 4231SOL     OW13591   5.195   1.218   5.353
 4231SOL    HW113592   5.104   1.241   5.386
 4231SOL    HW213593   5.209   1.119   5.358
 4232SOL     OW13594   2.315   5.269   4.158
 4232SOL    HW113595   2.370   5.207   4.102
 4232SOL    HW213596   2.365   5.354   4.174
 4233SOL     OW13597   5.715   6.440   4.075
 4233SOL    HW113598   5.738   6.346   4.047
 4233SOL    HW213599   5.795   6.498   4.062
 4234SOL     OW13600   1.698   5.418   5.914
 4234SOL    HW113601   1.732   5.388   6.003
 4234SOL    HW213602   1.599   5.430   5.919
 4235SOL     OW13603   6.715   4.802   5.887
 4235SOL    HW113604   6.774   4.724   5.908
 4235SOL    HW213605   6.687   4.797   5.791
 4236SOL     OW13606   0.475   5.231   1.409
 4236SOL    HW113607   0.393   5.201   1.360
 4236SOL    HW213608   0.448   5.285   1.489
 4237SOL     OW13609   6.842   4.034   3.845
 4237SOL    HW113610   6.841   4.064   3.749
 4237SOL    HW213611   6.878   4.107   3.902
 4238SOL     OW13612   2.070   1.041   2.861
 4238SOL    HW113613   2.028   0.985   2.932
 4238SOL    HW213614   2.000   1.098   2.817
 4239SOL     OW13615   3.784   1.076   2.606
 4239SOL    HW113616   3.845   1.002   2.637
 4239SOL    HW213617   3.811   1.161   2.651
 4240SOL     OW13618   0.876   5.531   0.975
 4240SOL    HW113619   0.931   5.613   0.991
 4240SOL    HW213620   0.933   5.450   0.985
 4241SOL     OW13621   6.735   2.069   6.720
 4241SOL    HW113622   6.743   1.980   6.674
 4241SOL    HW213623   6.638   2.092   6.729
 4242SOL     OW13624   2.243   2.283   4.307
 4242SOL    HW113625   2.153   2.264   4.346
 4242SOL    HW213626   2.298   2.332   4.374
 4243SOL     OW13627   5.448   0.847   3.010
 4243SOL    HW113628   5.506   0.765   3.007
 4243SOL    HW213629   5.382   0.838   3.085
 4244SOL     OW13630   3.567   3.785   2.388
 4244SOL    HW113631   3.595   3.803   2.482
 4244SOL    HW213632   3.601   3.858   2.329
 4245SOL     OW13633   6.196   2.683   5.488
 4245SOL    HW113634   6.197   2.758   5.555
 4245SOL    HW213635   6.273   2.693   5.425
 4246SOL     OW13636   0.027   4.042   2.475
 4246SOL    HW113637   7.014   4.105   2.544
 4246SOL    HW213638   6.979   4.021   2.408
 4247SOL     OW13639   6.736   6.248   5.192
 4247SOL    HW113640   6.740   6.348   5.192
 4247SOL    HW213641   6.813   6.211   5.140
 4248SOL     OW13642   1.412   2.589   5.881
 4248SOL    HW113643   1.506   2.618   5.898
 4248SOL    HW213644   1.411   2.524   5.805
 4249SOL     OW13645   5.730   2.806   5.328
 4249SOL    HW113646   5.784   2.758   5.259
 4249SOL    HW213647   5.791   2.840   5.400
 4250SOL     OW13648   6.433   5.203   3.994
 4250SOL    HW113649   6.482   5.124   4.031
 4250SOL    HW213650   6.457   5.284   4.048
 4251SOL     OW13651   5.872   4.098   0.356
 4251SOL    HW113652   5.832   4.029   0.417
 4251SOL    HW213653   5.845   4.079   0.262
 4252SOL     OW13654   6.893   5.818   5.112
 4252SOL    HW113655   6.834   5.818   5.031
 4252SOL    HW213656   6.855   5.880   5.181
 4253SOL     OW13657   4.652   0.602   1.403
 4253SOL    HW113658   4.564   0.639   1.372
 4253SOL    HW213659   4.645   0.576   1.499
 4254SOL     OW13660   1.583   3.577   1.317
 4254SOL    HW113661   1.571   3.514   1.241
 4254SOL    HW213662   1.656   3.641   1.296
 4255SOL     OW13663   6.234   3.141   4.070
 4255SOL    HW113664   6.160   3.103   4.015
 4255SOL    HW213665   6.198   3.214   4.129
 4256SOL     OW13666   1.999   6.762   1.139
 4256SOL    HW113667   2.024   6.673   1.176
 4256SOL    HW213668   1.960   6.819   1.212
 4257SOL     OW13669   3.618   1.877   5.195
 4257SOL    HW113670   3.617   1.954   5.131
 4257SOL    HW213671   3.711   1.864   5.229
 4258SOL     OW13672   5.923   6.393   1.752
 4258SOL    HW113673   5.875   6.477   1.731
 4258SOL    HW213674   6.011   6.415   1.796
 4259SOL     OW13675   2.539   1.622   6.825
 4259SOL    HW113676   2.508   1.691   6.889
 4259SOL    HW213677   2.540   1.660   6.732
 4260SOL     OW13678   4.208   5.919   3.436
 4260SOL    HW113679   4.185   5.860   3.513
 4260SOL    HW213680   4.297   5.962   3.451
 4261SOL     OW13681   2.510   6.273   2.102
 4261SOL    HW113682   2.580   6.210   2.136
 4261SOL    HW213683   2.553   6.345   2.048
 4262SOL     OW13684   2.011   5.023   6.819
 4262SOL    HW113685   1.961   5.025   6.732
 4262SOL    HW213686   1.994   5.108   6.869
 4263SOL     OW13687   2.347   5.198   5.399
 4263SOL    HW113688   2.426   5.258   5.411
 4263SOL    HW213689   2.367   5.109   5.440
 4264SOL     OW13690   0.177   1.678   6.915
 4264SOL    HW113691   0.201   1.606   6.981
 4264SOL    HW213692   0.203   1.649   6.823
 4265SOL     OW13693   6.638   2.158   0.098
 4265SOL    HW113694   6.727   2.205   0.099
 4265SOL    HW213695   6.572   2.213   0.045
 4266SOL     OW13696   2.274   5.721   0.755
 4266SOL    HW113697   2.311   5.805   0.716
 4266SOL    HW213698   2.349   5.662   0.784
 4267SOL     OW13699   2.259   3.778   5.231
 4267SOL    HW113700   2.302   3.857   5.186
 4267SOL    HW213701   2.327   3.729   5.285
 4268SOL     OW13702   1.739   0.462   0.257
 4268SOL    HW113703   1.696   0.502   0.338
 4268SOL    HW213704   1.814   0.403   0.285
 4269SOL     OW13705   3.148   2.960   0.443
 4269SOL    HW113706   3.124   2.926   0.534
 4269SOL    HW213707   3.096   2.909   0.373
 4270SOL     OW13708   3.746   2.850   4.905
 4270SOL    HW113709   3.783   2.767   4.863
 4270SOL    HW213710   3.751   2.926   4.841
 4271SOL     OW13711   0.620   6.419   5.648
 4271SOL    HW113712   0.591   6.399   5.555
 4271SOL    HW213713   0.720   6.417   5.654
 4272SOL     OW13714   6.709   4.693   5.469
 4272SOL    HW113715   6.796   4.656   5.437
 4272SOL    HW213716   6.650   4.712   5.391
 4273SOL     OW13717   4.691   0.101   5.097
 4273SOL    HW113718   4.749   0.143   5.166
 4273SOL    HW213719   4.602   0.147   5.095
 4274SOL     OW13720   1.676   6.846   3.669
 4274SOL    HW113721   1.661   6.929   3.615
 4274SOL    HW213722   1.605   6.840   3.740
 4275SOL     OW13723   0.110   0.723   5.195
 4275SOL    HW113724   0.054   0.748   5.116
 4275SOL    HW213725   0.198   0.770   5.190
 4276SOL     OW13726   2.354   4.961   3.224
 4276SOL    HW113727   2.444   4.918   3.222
 4276SOL    HW213728   2.292   4.910   3.165
 4277SOL     OW13729   6.625   5.232   3.472
 4277SOL    HW113730   6.721   5.206   3.483
 4277SOL    HW213731   6.618   5.317   3.420
 4278SOL     OW13732   6.833   6.350   4.793
 4278SOL    HW113733   6.799   6.410   4.866
 4278SOL    HW213734   6.757   6.323   4.734
 4279SOL     OW13735   3.290   6.475   5.570
 4279SOL    HW113736   3.196   6.506   5.551
 4279SOL    HW213737   3.289   6.379   5.595
 4280SOL     OW13738   6.855   2.033   5.361
 4280SOL    HW113739   6.881   2.123   5.398
 4280SOL    HW213740   6.902   1.961   5.412
 4281SOL     OW13741   1.941   4.753   5.359
 4281SOL    HW113742   1.855   4.790   5.396
 4281SOL    HW213743   2.008   4.826   5.350
 4282SOL     OW13744   2.376   2.774   0.675
 4282SOL    HW113745   2.379   2.853   0.736
 4282SOL    HW213746   2.393   2.691   0.728
 4283SOL     OW13747   1.890   0.272   4.078
 4283SOL    HW113748   1.980   0.305   4.049
 4283SOL    HW213749   1.866   0.191   4.025
 4284SOL     OW13750   5.423   1.075   2.172
 4284SOL    HW113751   5.358   1.023   2.226
 4284SOL    HW213752   5.497   1.014   2.141
 4285SOL     OW13753   0.466   6.854   5.811
 4285SOL    HW113754   0.366   6.863   5.809
 4285SOL    HW213755   0.498   6.869   5.905
 4286SOL     OW13756   4.717   5.629   6.944
 4286SOL    HW113757   4.699   5.534   6.921
 4286SOL    HW213758   4.634   5.670   6.983
 4287SOL     OW13759   5.621   0.088   5.117
 4287SOL    HW113760   5.622   0.082   5.017
 4287SOL    HW213761   5.692   0.029   5.155
 4288SOL     OW13762   0.889   6.800   3.595
 4288SOL    HW113763   0.968   6.843   3.551
 4288SOL    HW213764   0.869   6.846   3.681
 4289SOL     OW13765   5.479   2.579   1.680
 4289SOL    HW113766   5.463   2.482   1.698
 4289SOL    HW213767   5.572   2.592   1.646
 4290SOL     OW13768   2.272   0.284   2.290
 4290SOL    HW113769   2.294   0.212   2.224
 4290SOL    HW213770   2.247   0.367   2.242
 4291SOL     OW13771   5.312   2.944   0.665
 4291SOL    HW113772   5.250   2.942   0.743
 4291SOL    HW213773   5.345   2.851   0.646
 4292SOL     OW13774   6.279   4.259   5.778
 4292SOL    HW113775   6.264   4.356   5.756
 4292SOL    HW213776   6.354   4.224   5.723
 4293SOL     OW13777   6.395   3.692   6.774
 4293SOL    HW113778   6.364   3.612   6.722
 4293SOL    HW213779   6.479   3.671   6.823
 4294SOL     OW13780   4.063   2.834   6.189
 4294SOL    HW113781   4.086   2.803   6.097
 4294SOL    HW213782   3.993   2.904   6.184
 4295SOL     OW13783   3.203   6.864   4.838
 4295SOL    HW113784   3.299   6.878   4.816
 4295SOL    HW213785   3.148   6.936   4.796
 4296SOL     OW13786   2.193   1.761   0.848
 4296SOL    HW113787   2.246   1.746   0.764
 4296SOL    HW213788   2.131   1.684   0.862
 4297SOL     OW13789   4.770   6.555   5.005
 4297SOL    HW113790   4.864   6.538   4.975
 4297SOL    HW213791   4.767   6.561   5.105
 4298SOL     OW13792   1.912   5.903   1.384
 4298SOL    HW113793   1.952   5.994   1.375
 4298SOL    HW213794   1.983   5.836   1.403
 4299SOL     OW13795   0.771   3.273   6.098
 4299SOL    HW113796   0.782   3.293   6.195
 4299SOL    HW213797   0.733   3.181   6.087
 4300SOL     OW13798   3.078   0.946   6.850
 4300SOL    HW113799   3.007   1.010   6.879
 4300SOL    HW213800   3.089   0.874   6.919
 4301SOL     OW13801   2.037   1.696   0.420
 4301SOL    HW113802   2.059   1.783   0.465
 4301SOL    HW213803   2.061   1.621   0.481
 4302SOL     OW13804   1.166   6.161   6.734
 4302SOL    HW113805   1.165   6.081   6.673
 4302SOL    HW213806   1.072   6.193   6.748
 4303SOL     OW13807   6.670   4.344   3.079
 4303SOL    HW113808   6.591   4.358   3.139
 4303SOL    HW213809   6.742   4.409   3.103
 4304SOL     OW13810   3.251   3.702   4.015
 4304SOL    HW113811   3.222   3.731   4.106
 4304SOL    HW213812   3.279   3.782   3.962
 4305SOL     OW13813   6.312   1.162   3.144
 4305SOL    HW113814   6.372   1.102   3.198
 4305SOL    HW213815   6.347   1.256   3.149
 4306SOL     OW13816   0.262   4.033   6.286
 4306SOL    HW113817   0.223   4.054   6.375
 4306SOL    HW213818   0.321   3.953   6.294
 4307SOL     OW13819   4.679   4.268   5.502
 4307SOL    HW113820   4.633   4.223   5.427
 4307SOL    HW213821   4.669   4.214   5.586
 4308SOL     OW13822   5.566   6.309   5.233
 4308SOL    HW113823   5.507   6.284   5.157
 4308SOL    HW213824   5.606   6.400   5.216
 4309SOL     OW13825   1.578   0.834   0.516
 4309SOL    HW113826   1.671   0.871   0.509
 4309SOL    HW213827   1.516   0.906   0.547
 4310SOL     OW13828   1.690   2.340   3.515
 4310SOL    HW113829   1.647   2.250   3.518
 4310SOL    HW213830   1.731   2.355   3.425
 4311SOL     OW13831   1.221   6.006   3.592
 4311SOL    HW113832   1.260   6.071   3.526
 4311SOL    HW213833   1.153   6.053   3.648
 4312SOL     OW13834   1.860   6.209   2.014
 4312SOL    HW113835   1.778   6.212   1.958
 4312SOL    HW213836   1.871   6.297   2.061
 4313SOL     OW13837   5.570   0.908   1.538
 4313SOL    HW113838   5.571   0.984   1.602
 4313SOL    HW213839   5.586   0.822   1.588
 4314SOL     OW13840   4.761   2.951   3.212
 4314SOL    HW113841   4.807   3.033   3.176
 4314SOL    HW213842   4.816   2.870   3.193
 4315SOL     OW13843   2.624   0.518   2.082
 4315SOL    HW113844   2.621   0.427   2.041
 4315SOL    HW213845   2.654   0.510   2.177
 4316SOL     OW13846   5.216   0.102   0.924
 4316SOL    HW113847   5.259   0.036   0.863
 4316SOL    HW213848   5.285   0.166   0.957
 4317SOL     OW13849   3.810   1.487   4.707
 4317SOL    HW113850   3.869   1.566   4.691
 4317SOL    HW213851   3.754   1.503   4.788
 4318SOL     OW13852   1.113   3.980   3.852
 4318SOL    HW113853   1.077   3.971   3.945
 4318SOL    HW213854   1.106   3.892   3.806
 4319SOL     OW13855   2.544   3.171   6.731
 4319SOL    HW113856   2.590   3.188   6.818
 4319SOL    HW213857   2.477   3.243   6.713
 4320SOL     OW13858   1.074   6.779   2.570
 4320SOL    HW113859   1.144   6.804   2.503
 4320SOL    HW213860   1.059   6.855   2.633
 4321SOL     OW13861   6.098   0.922   4.849
 4321SOL    HW113862   6.116   0.929   4.947
 4321SOL    HW213863   6.121   0.830   4.817
 4322SOL     OW13864   6.870   0.848   6.653
 4322SOL    HW113865   6.912   0.897   6.577
 4322SOL    HW213866   6.829   0.913   6.716
 4323SOL     OW13867   5.625   2.743   2.698
 4323SOL    HW113868   5.550   2.685   2.664
 4323SOL    HW213869   5.705   2.731   2.639
 4324SOL     OW13870   5.811   3.807   6.618
 4324SOL    HW113871   5.814   3.871   6.541
 4324SOL    HW213872   5.777   3.719   6.586
 4325SOL     OW13873   2.114   0.781   0.012
 4325SOL    HW113874   2.154   0.837   0.086
 4325SOL    HW213875   2.120   0.831   6.949
 4326SOL     OW13876   6.292   3.500   5.126
 4326SOL    HW113877   6.345   3.572   5.172
 4326SOL    HW213878   6.270   3.529   5.033
 4327SOL     OW13879   5.410   5.586   2.423
 4327SOL    HW113880   5.406   5.573   2.522
 4327SOL    HW213881   5.505   5.599   2.394
 4328SOL     OW13882   4.776   4.808   5.987
 4328SOL    HW113883   4.783   4.717   5.947
 4328SOL    HW213884   4.803   4.876   5.918
 4329SOL     OW13885   3.531   2.022   5.632
 4329SOL    HW113886   3.527   2.093   5.561
 4329SOL    HW213887   3.438   1.997   5.660
 4330SOL     OW13888   2.353   0.513   5.870
 4330SOL    HW113889   2.411   0.457   5.810
 4330SOL    HW213890   2.272   0.461   5.896
 4331SOL     OW13891   5.148   3.147   0.518
 4331SOL    HW113892   5.203   3.084   0.573
 4331SOL    HW213893   5.204   3.226   0.492
 4332SOL     OW13894   5.047   3.212   2.032
 4332SOL    HW113895   4.992   3.213   2.116
 4332SOL    HW213896   4.991   3.244   1.956
 4333SOL     OW13897   5.860   1.903   5.095
 4333SOL    HW113898   5.805   1.840   5.150
 4333SOL    HW213899   5.898   1.974   5.154
 4334SOL     OW13900   3.132   2.042   1.851
 4334SOL    HW113901   3.059   2.098   1.813
 4334SOL    HW213902   3.157   2.076   1.941
 4335SOL     OW13903   2.946   3.781   4.132
 4335SOL    HW113904   2.946   3.855   4.064
 4335SOL    HW213905   3.028   3.787   4.189
 4336SOL     OW13906   1.823   6.078   5.430
 4336SOL    HW113907   1.730   6.093   5.398
 4336SOL    HW213908   1.826   5.997   5.487
 4337SOL     OW13909   0.523   5.131   6.845
 4337SOL    HW113910   0.559   5.169   6.759
 4337SOL    HW213911   0.562   5.181   6.922
 4338SOL     OW13912   6.034   6.188   4.647
 4338SOL    HW113913   6.089   6.104   4.638
 4338SOL    HW213914   5.940   6.169   4.619
 4339SOL     OW13915   6.702   2.653   4.999
 4339SOL    HW113916   6.788   2.606   4.978
 4339SOL    HW213917   6.628   2.586   5.006
 4340SOL     OW13918   6.222   3.460   2.211
 4340SOL    HW113919   6.261   3.547   2.239
 4340SOL    HW213920   6.295   3.398   2.182
 4341SOL     OW13921   1.868   3.801   1.995
 4341SOL    HW113922   1.829   3.719   1.953
 4341SOL    HW213923   1.830   3.813   2.087
 4342SOL     OW13924   0.391   2.932   3.160
 4342SOL    HW113925   0.403   2.969   3.252
 4342SOL    HW213926   0.479   2.932   3.112
 4343SOL     OW13927   3.333   0.804   0.342
 4343SOL    HW113928   3.340   0.805   0.242
 4343SOL    HW213929   3.272   0.729   0.370
 4344SOL     OW13930   1.650   4.462   3.212
 4344SOL    HW113931   1.747   4.475   3.234
 4344SOL    HW213932   1.620   4.372   3.244
 4345SOL     OW13933   1.815   2.734   5.501
 4345SOL    HW113934   1.849   2.642   5.480
 4345SOL    HW213935   1.776   2.775   5.419
 4346SOL     OW13936   2.457   3.048   1.605
 4346SOL    HW113937   2.538   3.029   1.660
 4346SOL    HW213938   2.418   3.136   1.631
 4347SOL     OW13939   6.734   0.079   1.758
 4347SOL    HW113940   6.737   0.174   1.787
 4347SOL    HW213941   6.726   0.020   1.838
 4348SOL     OW13942   1.060   3.733   1.722
 4348SOL    HW113943   1.050   3.833   1.719
 4348SOL    HW213944   0.974   3.692   1.753
 4349SOL     OW13945   0.386   1.003   3.673
 4349SOL    HW113946   0.313   0.937   3.686
 4349SOL    HW213947   0.377   1.047   3.583
 4350SOL     OW13948   5.286   2.369   5.058
 4350SOL    HW113949   5.256   2.315   4.979
 4350SOL    HW213950   5.371   2.417   5.035
 4351SOL     OW13951   2.988   6.053   2.145
 4351SOL    HW113952   3.003   6.023   2.239
 4351SOL    HW213953   3.062   6.019   2.087
 4352SOL     OW13954   0.501   1.972   2.376
 4352SOL    HW113955   0.576   1.944   2.316
 4352SOL    HW213956   0.521   2.063   2.414
 4353SOL     OW13957   2.333   5.913   0.208
 4353SOL    HW113958   2.299   5.925   0.301
 4353SOL    HW213959   2.263   5.943   0.143
 4354SOL     OW13960   2.170   0.229   6.892
 4354SOL    HW113961   2.235   0.169   6.845
 4354SOL    HW213962   2.202   0.324   6.886
 4355SOL     OW13963   3.968   1.081   1.227
 4355SOL    HW113964   3.964   1.084   1.127
 4355SOL    HW213965   4.055   1.119   1.258
 4356SOL     OW13966   4.353   4.230   1.197
 4356SOL    HW113967   4.306   4.147   1.165
 4356SOL    HW213968   4.363   4.226   1.296
 4357SOL     OW13969   6.194   0.639   0.223
 4357SOL    HW113970   6.249   0.722   0.233
 4357SOL    HW213971   6.119   0.640   0.289
 4358SOL     OW13972   0.512   5.960   1.455
 4358SOL    HW113973   0.490   6.014   1.374
 4358SOL    HW213974   0.609   5.968   1.476
 4359SOL     OW13975   0.986   2.437   4.542
 4359SOL    HW113976   0.983   2.366   4.472
 4359SOL    HW213977   0.995   2.395   4.633
 4360SOL     OW13978   0.528   3.861   1.780
 4360SOL    HW113979   0.495   3.879   1.872
 4360SOL    HW213980   0.533   3.763   1.764
 4361SOL     OW13981   4.572   2.519   1.900
 4361SOL    HW113982   4.573   2.612   1.862
 4361SOL    HW213983   4.632   2.460   1.845
 4362SOL     OW13984   6.367   3.725   5.685
 4362SOL    HW113985   6.383   3.801   5.747
 4362SOL    HW213986   6.306   3.659   5.728
 4363SOL     OW13987   5.225   2.772   5.402
 4363SOL    HW113988   5.137   2.731   5.378
 4363SOL    HW213989   5.271   2.803   5.318
 4364SOL     OW13990   3.258   4.045   4.741
 4364SOL    HW113991   3.295   3.990   4.666
 4364SOL    HW213992   3.332   4.094   4.786
 4365SOL     OW13993   3.938   2.176   2.349
 4365SOL    HW113994   3.992   2.214   2.274
 4365SOL    HW213995   3.848   2.150   2.315
 4366SOL     OW13996   6.324   6.582   1.444
 4366SOL    HW113997   6.296   6.653   1.508
 4366SOL    HW213998   6.284   6.494   1.472
 4367SOL     OW13999   1.223   5.222   5.710
 4367SOL    HW114000   1.281   5.229   5.791
 4367SOL    HW214001   1.217   5.311   5.664
 4368SOL     OW14002   5.412   4.445   1.741
 4368SOL    HW114003   5.328   4.392   1.751
 4368SOL    HW214004   5.443   4.474   1.832
 4369SOL     OW14005   4.563   4.534   2.129
 4369SOL    HW114006   4.527   4.450   2.089
 4369SOL    HW214007   4.556   4.609   2.063
 4370SOL     OW14008   5.894   4.567   3.837
 4370SOL    HW114009   5.874   4.650   3.784
 4370SOL    HW214010   5.808   4.525   3.867
 4371SOL     OW14011   6.173   0.447   1.847
 4371SOL    HW114012   6.145   0.351   1.860
 4371SOL    HW214013   6.272   0.450   1.835
 4372SOL     OW14014   4.846   1.348   2.797
 4372SOL    HW114015   4.792   1.363   2.714
 4372SOL    HW214016   4.883   1.255   2.796
 4373SOL     OW14017   6.795   2.331   6.717
 4373SOL    HW114018   6.781   2.232   6.709
 4373SOL    HW214019   6.800   2.357   6.813
 4374SOL     OW14020   1.538   2.065   2.404
 4374SOL    HW114021   1.584   2.115   2.331
 4374SOL    HW214022   1.600   2.054   2.481
 4375SOL     OW14023   2.641   6.428   4.228
 4375SOL    HW114024   2.736   6.459   4.222
 4375SOL    HW214025   2.607   6.440   4.321
 4376SOL     OW14026   6.685   0.421   2.480
 4376SOL    HW114027   6.733   0.402   2.395
 4376SOL    HW214028   6.592   0.451   2.460
 4377SOL     OW14029   5.853   3.723   0.169
 4377SOL    HW114030   5.935   3.751   0.218
 4377SOL    HW214031   5.870   3.723   0.070
 4378SOL     OW14032   2.234   0.779   3.899
 4378SOL    HW114033   2.200   0.736   3.983
 4378SOL    HW214034   2.163   0.774   3.828
 4379SOL     OW14035   2.649   1.153   5.007
 4379SOL    HW114036   2.586   1.166   5.084
 4379SOL    HW214037   2.738   1.192   5.029
 4380SOL     OW14038   1.081   1.579   1.427
 4380SOL    HW114039   1.058   1.584   1.524
 4380SOL    HW214040   1.164   1.526   1.415
 4381SOL     OW14041   1.458   5.977   5.229
 4381SOL    HW114042   1.503   5.927   5.155
 4381SOL    HW214043   1.509   6.061   5.249
 4382SOL     OW14044   0.212   3.759   5.198
 4382SOL    HW114045   0.140   3.818   5.162
 4382SOL    HW214046   0.204   3.667   5.160
 4383SOL     OW14047   5.404   2.543   5.877
 4383SOL    HW114048   5.401   2.580   5.784
 4383SOL    HW214049   5.499   2.528   5.904
 4384SOL     OW14050   0.259   0.050   3.245
 4384SOL    HW114051   0.174   0.083   3.285
 4384SOL    HW214052   0.264   6.974   3.253
 4385SOL     OW14053   5.724   1.909   4.640
 4385SOL    HW114054   5.713   1.960   4.555
 4385SOL    HW214055   5.638   1.866   4.665
 4386SOL     OW14056   1.261   3.742   5.867
 4386SOL    HW114057   1.258   3.772   5.772
 4386SOL    HW214058   1.171   3.755   5.909
 4387SOL     OW14059   6.801   2.895   0.654
 4387SOL    HW114060   6.864   2.928   0.724
 4387SOL    HW214061   6.768   2.804   0.679
 4388SOL     OW14062   5.141   1.974   6.446
 4388SOL    HW114063   5.214   1.933   6.392
 4388SOL    HW214064   5.148   2.074   6.442
 4389SOL     OW14065   0.157   3.607   1.640
 4389SOL    HW114066   0.126   3.572   1.551
 4389SOL    HW214067   0.145   3.706   1.643
 4390SOL     OW14068   5.547   0.424   0.826
 4390SOL    HW114069   5.459   0.415   0.871
 4390SOL    HW214070   5.609   0.476   0.884
 4391SOL     OW14071   1.715   5.299   6.169
 4391SOL    HW114072   1.640   5.354   6.208
 4391SOL    HW214073   1.797   5.311   6.225
 4392SOL     OW14074   1.344   1.220   3.936
 4392SOL    HW114075   1.331   1.123   3.956
 4392SOL    HW214076   1.440   1.243   3.948
 4393SOL     OW14077   5.730   6.977   1.265
 4393SOL    HW114078   5.790   6.948   1.190
 4393SOL    HW214079   5.637   6.944   1.246
 4394SOL     OW14080   1.420   0.031   1.603
 4394SOL    HW114081   1.439   6.973   1.548
 4394SOL    HW214082   1.372   0.099   1.547
 4395SOL     OW14083   2.684   6.491   1.977
 4395SOL    HW114084   2.764   6.479   1.920
 4395SOL    HW214085   2.712   6.524   2.068
 4396SOL     OW14086   1.494   0.643   3.114
 4396SOL    HW114087   1.501   0.544   3.103
 4396SOL    HW214088   1.414   0.677   3.066
 4397SOL     OW14089   2.766   2.308   3.951
 4397SOL    HW114090   2.761   2.320   3.852
 4397SOL    HW214091   2.674   2.290   3.987
 4398SOL     OW14092   2.057   3.527   6.203
 4398SOL    HW114093   2.057   3.624   6.227
 4398SOL    HW214094   2.121   3.512   6.127
 4399SOL     OW14095   2.514   6.264   2.476
 4399SOL    HW114096   2.447   6.337   2.492
 4399SOL    HW214097   2.596   6.303   2.434
 4400SOL     OW14098   2.107   6.416   4.139
 4400SOL    HW114099   2.196   6.414   4.185
 4400SOL    HW214100   2.083   6.323   4.110
 4401SOL     OW14101   3.591   6.450   5.527
 4401SOL    HW114102   3.671   6.469   5.583
 4401SOL    HW214103   3.565   6.354   5.536
 4402SOL     OW14104   1.517   0.393   3.043
 4402SOL    HW114105   1.582   0.452   2.994
 4402SOL    HW214106   1.431   0.389   2.992
 4403SOL     OW14107   0.875   5.146   1.542
 4403SOL    HW114108   0.855   5.238   1.574
 4403SOL    HW214109   0.797   5.110   1.492
 4404SOL     OW14110   0.930   5.935   6.310
 4404SOL    HW114111   0.994   5.997   6.354
 4404SOL    HW214112   0.937   5.943   6.211
 4405SOL     OW14113   2.790   4.844   3.482
 4405SOL    HW114114   2.773   4.766   3.542
 4405SOL    HW214115   2.788   4.929   3.536
 4406SOL     OW14116   6.206   3.930   2.209
 4406SOL    HW114117   6.204   3.974   2.299
 4406SOL    HW214118   6.114   3.929   2.170
 4407SOL     OW14119   0.061   6.303   2.033
 4407SOL    HW114120   7.020   6.269   1.964
 4407SOL    HW214121   0.129   6.361   1.990
 4408SOL     OW14122   3.865   6.995   0.312
 4408SOL    HW114123   3.808   6.923   0.273
 4408SOL    HW214124   3.807   0.041   0.356
 4409SOL     OW14125   3.901   0.771   2.424
 4409SOL    HW114126   3.939   0.827   2.350
 4409SOL    HW214127   3.946   0.682   2.426
 4410SOL     OW14128   0.559   5.843   0.905
 4410SOL    HW114129   0.568   5.784   0.825
 4410SOL    HW214130   0.469   5.829   0.947
 4411SOL     OW14131   3.277   4.572   5.686
 4411SOL    HW114132   3.371   4.576   5.650
 4411SOL    HW214133   3.217   4.535   5.616
 4412SOL     OW14134   4.163   6.844   3.552
 4412SOL    HW114135   4.167   6.782   3.630
 4412SOL    HW214136   4.249   6.840   3.502
 4413SOL     OW14137   3.379   0.227   4.480
 4413SOL    HW114138   3.299   0.220   4.540
 4413SOL    HW214139   3.401   0.324   4.466
 4414SOL     OW14140   5.056   4.810   2.017
 4414SOL    HW114141   5.135   4.767   1.971
 4414SOL    HW214142   5.020   4.883   1.959
 4415SOL     OW14143   3.341   3.899   1.678
 4415SOL    HW114144   3.370   3.979   1.731
 4415SOL    HW214145   3.420   3.850   1.643
 4416SOL     OW14146   4.102   1.909   4.283
 4416SOL    HW114147   4.069   1.892   4.191
 4416SOL    HW214148   4.059   1.991   4.321
 4417SOL     OW14149   0.574   3.641   3.741
 4417SOL    HW114150   0.603   3.644   3.836
 4417SOL    HW214151   0.594   3.729   3.697
 4418SOL     OW14152   6.273   0.518   0.960
 4418SOL    HW114153   6.313   0.609   0.964
 4418SOL    HW214154   6.345   0.451   0.943
 4419SOL     OW14155   6.545   5.717   5.988
 4419SOL    HW114156   6.515   5.624   5.967
 4419SOL    HW214157   6.560   5.726   6.087
 4420SOL     OW14158   3.571   2.265   0.960
 4420SOL    HW114159   3.564   2.255   1.060
 4420SOL    HW214160   3.499   2.327   0.928
 4421SOL     OW14161   1.420   2.874   4.491
 4421SOL    HW114162   1.455   2.786   4.460
 4421SOL    HW214163   1.322   2.866   4.511
 4422SOL     OW14164   0.236   4.581   6.988
 4422SOL    HW114165   0.262   4.665   0.012
 4422SOL    HW214166   0.167   4.533   0.019
 4423SOL     OW14167   5.789   3.899   5.834
 4423SOL    HW114168   5.850   3.924   5.910
 4423SOL    HW214169   5.839   3.844   5.767
 4424SOL     OW14170   4.808   6.074   4.190
 4424SOL    HW114171   4.814   6.015   4.110
 4424SOL    HW214172   4.733   6.043   4.249
 4425SOL     OW14173   1.889   5.485   1.329
 4425SOL    HW114174   1.886   5.527   1.238
 4425SOL    HW214175   1.802   5.439   1.347
 4426SOL     OW14176   0.845   6.950   3.846
 4426SOL    HW114177   0.746   6.948   3.835
 4426SOL    HW214178   0.875   6.866   3.891
 4427SOL     OW14179   3.555   6.132   3.088
 4427SOL    HW114180   3.547   6.034   3.073
 4427SOL    HW214181   3.625   6.170   3.027
 4428SOL     OW14182   5.587   1.087   3.792
 4428SOL    HW114183   5.622   1.052   3.879
 4428SOL    HW214184   5.532   1.016   3.747
 4429SOL     OW14185   2.818   5.985   3.312
 4429SOL    HW114186   2.893   6.034   3.268
 4429SOL    HW214187   2.803   5.898   3.265
 4430SOL     OW14188   5.123   4.843   4.424
 4430SOL    HW114189   5.034   4.803   4.401
 4430SOL    HW214190   5.188   4.825   4.351
 4431SOL     OW14191   3.469   0.695   3.626
 4431SOL    HW114192   3.452   0.763   3.555
 4431SOL    HW214193   3.395   0.699   3.694
 4432SOL     OW14194   1.595   3.251   6.151
 4432SOL    HW114195   1.671   3.316   6.159
 4432SOL    HW214196   1.551   3.262   6.063
 4433SOL     OW14197   1.145   1.129   4.751
 4433SOL    HW114198   1.128   1.055   4.816
 4433SOL    HW214199   1.074   1.129   4.680
 4434SOL     OW14200   6.790   1.706   1.326
 4434SOL    HW114201   6.747   1.776   1.383
 4434SOL    HW214202   6.837   1.640   1.385
 4435SOL     OW14203   2.656   3.745   0.261
 4435SOL    HW114204   2.744   3.776   0.297
 4435SOL    HW214205   2.659   3.646   0.246
 4436SOL     OW14206   4.503   1.723   1.418
 4436SOL    HW114207   4.451   1.782   1.356
 4436SOL    HW214208   4.478   1.628   1.401
 4437SOL     OW14209   0.216   3.586   2.145
 4437SOL    HW114210   0.186   3.550   2.057
 4437SOL    HW214211   0.312   3.614   2.138
 4438SOL     OW14212   4.289   6.918   6.043
 4438SOL    HW114213   4.294   6.991   6.111
 4438SOL    HW214214   4.378   6.871   6.039
 4439SOL     OW14215   2.320   6.680   2.770
 4439SOL    HW114216   2.353   6.763   2.725
 4439SOL    HW214217   2.230   6.657   2.733
 4440SOL     OW14218   1.696   4.895   0.786
 4440SOL    HW114219   1.757   4.850   0.721
 4440SOL    HW214220   1.685   4.991   0.760
 4441SOL     OW14221   0.720   1.505   6.964
 4441SOL    HW114222   0.744   1.487   6.869
 4441SOL    HW214223   0.797   1.482   0.000
 4442SOL     OW14224   1.819   4.654   6.529
 4442SOL    HW114225   1.918   4.659   6.514
 4442SOL    HW214226   1.778   4.599   6.456
 4443SOL     OW14227   0.496   4.891   6.933
 4443SOL    HW114228   0.500   4.986   6.902
 4443SOL    HW214229   0.401   4.860   6.932
 4444SOL     OW14230   5.071   3.791   0.553
 4444SOL    HW114231   4.974   3.816   0.564
 4444SOL    HW214232   5.120   3.809   0.638
 4445SOL     OW14233   0.425   5.686   6.815
 4445SOL    HW114234   0.332   5.660   6.788
 4445SOL    HW214235   0.422   5.772   6.866
 4446SOL     OW14236   4.968   0.906   0.709
 4446SOL    HW114237   4.939   0.993   0.669
 4446SOL    HW214238   5.059   0.917   0.751
 4447SOL     OW14239   5.522   4.854   5.384
 4447SOL    HW114240   5.547   4.948   5.404
 4447SOL    HW214241   5.468   4.851   5.299
 4448SOL     OW14242   3.069   6.547   2.254
 4448SOL    HW114243   2.969   6.547   2.247
 4448SOL    HW214244   3.104   6.638   2.230
 4449SOL     OW14245   3.708   1.251   6.498
 4449SOL    HW114246   3.702   1.153   6.477
 4449SOL    HW214247   3.793   1.288   6.461
 4450SOL     OW14248   3.613   0.462   6.999
 4450SOL    HW114249   3.558   0.443   6.918
 4450SOL    HW214250   3.621   0.379   0.031
 4451SOL     OW14251   4.882   4.460   4.012
 4451SOL    HW114252   4.924   4.485   3.925
 4451SOL    HW214253   4.810   4.526   4.035
 4452SOL     OW14254   5.144   6.402   4.065
 4452SOL    HW114255   5.047   6.412   4.086
 4452SOL    HW214256   5.193   6.372   4.147
 4453SOL     OW14257   0.373   3.296   1.105
 4453SOL    HW114258   0.301   3.292   1.036
 4453SOL    HW214259   0.407   3.389   1.113
 4454SOL     OW14260   0.903   2.274   0.316
 4454SOL    HW114261   0.805   2.258   0.332
 4454SOL    HW214262   0.938   2.205   0.253
 4455SOL     OW14263   6.834   5.990   4.889
 4455SOL    HW114264   6.818   6.051   4.966
 4455SOL    HW214265   6.754   5.988   4.830
 4456SOL     OW14266   1.872   6.868   3.865
 4456SOL    HW114267   1.859   6.866   3.766
 4456SOL    HW214268   1.803   6.927   3.906
 4457SOL     OW14269   1.389   1.823   4.600
 4457SOL    HW114270   1.376   1.810   4.698
 4457SOL    HW214271   1.441   1.907   4.583
 4458SOL     OW14272   2.127   3.833   1.478
 4458SOL    HW114273   2.102   3.738   1.495
 4458SOL    HW214274   2.144   3.880   1.564
 4459SOL     OW14275   1.785   2.689   4.234
 4459SOL    HW114276   1.740   2.762   4.183
 4459SOL    HW214277   1.806   2.613   4.173
 4460SOL     OW14278   0.153   3.610   3.866
 4460SOL    HW114279   0.202   3.607   3.779
 4460SOL    HW214280   0.119   3.702   3.882
 4461SOL     OW14281   2.553   1.281   1.457
 4461SOL    HW114282   2.642   1.239   1.471
 4461SOL    HW214283   2.558   1.348   1.383
 4462SOL     OW14284   6.267   4.288   1.868
 4462SOL    HW114285   6.349   4.295   1.924
 4462SOL    HW214286   6.197   4.234   1.917
 4463SOL     OW14287   5.992   2.180   1.585
 4463SOL    HW114288   6.008   2.100   1.643
 4463SOL    HW214289   5.925   2.157   1.515
 4464SOL     OW14290   0.532   5.471   0.460
 4464SOL    HW114291   0.471   5.428   0.394
 4464SOL    HW214292   0.617   5.417   0.467
 4465SOL     OW14293   2.546   5.982   0.569
 4465SOL    HW114294   2.570   5.991   0.473
 4465SOL    HW214295   2.459   5.933   0.578
 4466SOL     OW14296   1.939   1.944   3.760
 4466SOL    HW114297   1.873   1.874   3.734
 4466SOL    HW214298   2.022   1.933   3.706
 4467SOL     OW14299   3.503   5.851   3.104
 4467SOL    HW114300   3.434   5.798   3.055
 4467SOL    HW214301   3.534   5.800   3.184
 4468SOL     OW14302   1.089   3.298   2.296
 4468SOL    HW114303   1.038   3.213   2.307
 4468SOL    HW214304   1.187   3.280   2.303
 4469SOL     OW14305   2.467   0.081   1.540
 4469SOL    HW114306   2.479   0.062   1.443
 4469SOL    HW214307   2.551   0.120   1.577
 4470SOL     OW14308   1.510   0.206   2.194
 4470SOL    HW114309   1.592   0.148   2.199
 4470SOL    HW214310   1.535   0.296   2.159
 4471SOL     OW14311   1.912   1.752   6.173
 4471SOL    HW114312   1.899   1.837   6.122
 4471SOL    HW214313   2.008   1.724   6.168
 4472SOL     OW14314   1.798   3.043   0.919
 4472SOL    HW114315   1.749   3.050   0.832
 4472SOL    HW214316   1.761   3.111   0.983
 4473SOL     OW14317   0.131   3.327   4.388
 4473SOL    HW114318   0.103   3.338   4.483
 4473SOL    HW214319   0.222   3.285   4.384
 4474SOL     OW14320   3.182   0.714   1.675
 4474SOL    HW114321   3.215   0.624   1.649
 4474SOL    HW214322   3.258   0.767   1.714
 4475SOL     OW14323   0.934   3.527   1.865
 4475SOL    HW114324   0.914   3.588   1.942
 4475SOL    HW214325   0.979   3.445   1.899
 4476SOL     OW14326   5.387   1.697   3.801
 4476SOL    HW114327   5.327   1.632   3.754
 4476SOL    HW214328   5.381   1.683   3.899
 4477SOL     OW14329   2.327   0.215   5.843
 4477SOL    HW114330   2.238   0.261   5.849
 4477SOL    HW214331   2.360   0.194   5.935
 4478SOL     OW14332   1.450   0.122   0.428
 4478SOL    HW114333   1.372   0.128   0.490
 4478SOL    HW214334   1.424   0.154   0.337
 4479SOL     OW14335   0.710   2.918   0.756
 4479SOL    HW114336   0.697   2.951   0.850
 4479SOL    HW214337   0.782   2.971   0.712
 4480SOL     OW14338   0.044   6.028   4.103
 4480SOL    HW114339   7.013   6.098   4.056
 4480SOL    HW214340   0.084   6.068   4.185
 4481SOL     OW14341   2.900   4.866   6.213
 4481SOL    HW114342   2.890   4.792   6.280
 4481SOL    HW214343   2.924   4.951   6.261
 4482SOL     OW14344   2.940   5.416   6.707
 4482SOL    HW114345   2.932   5.357   6.786
 4482SOL    HW214346   3.010   5.486   6.724
 4483SOL     OW14347   0.465   2.747   1.760
 4483SOL    HW114348   0.473   2.674   1.827
 4483SOL    HW214349   0.483   2.835   1.804
 4484SOL     OW14350   2.661   2.563   6.650
 4484SOL    HW114351   2.621   2.554   6.559
 4484SOL    HW214352   2.756   2.531   6.647
 4485SOL     OW14353   5.244   2.571   4.521
 4485SOL    HW114354   5.266   2.622   4.437
 4485SOL    HW214355   5.224   2.636   4.595
 4486SOL     OW14356   4.603   4.993   5.265
 4486SOL    HW114357   4.687   4.960   5.307
 4486SOL    HW214358   4.561   4.919   5.212
 4487SOL     OW14359   1.503   2.475   0.035
 4487SOL    HW114360   1.463   2.567   0.038
 4487SOL    HW214361   1.597   2.481   0.003
 4488SOL     OW14362   0.490   4.347   4.412
 4488SOL    HW114363   0.425   4.406   4.460
 4488SOL    HW214364   0.493   4.258   4.457
 4489SOL     OW14365   4.367   4.976   5.417
 4489SOL    HW114366   4.457   4.984   5.374
 4489SOL    HW214367   4.356   5.050   5.484
 4490SOL     OW14368   5.072   1.690   0.860
 4490SOL    HW114369   5.048   1.777   0.903
 4490SOL    HW214370   4.997   1.625   0.871
 4491SOL     OW14371   0.993   2.705   3.524
 4491SOL    HW114372   0.918   2.656   3.479
 4491SOL    HW214373   1.072   2.709   3.462
 4492SOL     OW14374   5.761   0.446   1.741
 4492SOL    HW114375   5.789   0.479   1.831
 4492SOL    HW214376   5.836   0.458   1.676
 4493SOL     OW14377   5.007   0.988   5.162
 4493SOL    HW114378   4.987   0.891   5.179
 4493SOL    HW214379   5.088   0.995   5.103
 4494SOL     OW14380   0.063   0.371   0.189
 4494SOL    HW114381   7.000   0.329   0.219
 4494SOL    HW214382   0.052   0.404   0.095
 4495SOL     OW14383   4.146   6.070   2.181
 4495SOL    HW114384   4.060   6.120   2.194
 4495SOL    HW214385   4.157   6.047   2.084
 4496SOL     OW14386   3.876   5.922   6.448
 4496SOL    HW114387   3.881   6.007   6.395
 4496SOL    HW214388   3.795   5.870   6.421
 4497SOL     OW14389   3.877   1.924   6.257
 4497SOL    HW114390   3.918   1.855   6.198
 4497SOL    HW214391   3.902   2.015   6.225
 4498SOL     OW14392   0.451   5.161   5.548
 4498SOL    HW114393   0.397   5.216   5.485
 4498SOL    HW214394   0.402   5.077   5.569
 4499SOL     OW14395   5.984   1.964   2.510
 4499SOL    HW114396   6.038   2.011   2.440
 4499SOL    HW214397   6.026   1.979   2.600
 4500SOL     OW14398   3.311   5.500   0.076
 4500SOL    HW114399   3.349   5.581   0.121
 4500SOL    HW214400   3.234   5.527   0.019
 4501SOL     OW14401   5.442   1.531   2.320
 4501SOL    HW114402   5.432   1.567   2.413
 4501SOL    HW214403   5.355   1.491   2.290
 4502SOL     OW14404   0.569   3.252   6.684
 4502SOL    HW114405   0.633   3.208   6.748
 4502SOL    HW214406   0.591   3.349   6.677
 4503SOL     OW14407   2.909   6.804   2.287
 4503SOL    HW114408   2.947   6.794   2.379
 4503SOL    HW214409   2.982   6.830   2.223
 4504SOL     OW14410   0.480   1.686   3.356
 4504SOL    HW114411   0.500   1.597   3.316
 4504SOL    HW214412   0.385   1.689   3.386
 4505SOL     OW14413   5.764   3.644   2.708
 4505SOL    HW114414   5.723   3.636   2.617
 4505SOL    HW214415   5.793   3.554   2.740
 4506SOL     OW14416   4.976   3.197   4.264
 4506SOL    HW114417   5.018   3.266   4.205
 4506SOL    HW214418   4.948   3.119   4.208
 4507SOL     OW14419   6.408   3.253   3.363
 4507SOL    HW114420   6.500   3.217   3.345
 4507SOL    HW214421   6.413   3.318   3.439
 4508SOL     OW14422   0.945   5.181   0.594
 4508SOL    HW114423   0.951   5.083   0.572
 4508SOL    HW214424   1.033   5.214   0.626
 4509SOL     OW14425   4.446   2.449   2.647
 4509SOL    HW114426   4.461   2.356   2.613
 4509SOL    HW214427   4.470   2.515   2.575
 4510SOL     OW14428   4.921   1.558   4.644
 4510SOL    HW114429   4.882   1.469   4.619
 4510SOL    HW214430   4.900   1.625   4.573
 4511SOL     OW14431   0.700   4.701   0.953
 4511SOL    HW114432   0.619   4.660   0.911
 4511SOL    HW214433   0.675   4.789   0.994
 4512SOL     OW14434   3.675   2.382   5.920
 4512SOL    HW114435   3.589   2.423   5.893
 4512SOL    HW214436   3.682   2.290   5.882
 4513SOL     OW14437   1.406   6.613   0.167
 4513SOL    HW114438   1.423   6.695   0.223
 4513SOL    HW214439   1.493   6.578   0.132
 4514SOL     OW14440   3.289   3.606   6.458
 4514SOL    HW114441   3.364   3.671   6.469
 4514SOL    HW214442   3.213   3.650   6.411
 4515SOL     OW14443   4.602   0.018   5.805
 4515SOL    HW114444   4.697   0.044   5.822
 4515SOL    HW214445   4.574   0.047   5.714
 4516SOL     OW14446   3.878   1.862   5.288
 4516SOL    HW114447   3.975   1.842   5.297
 4516SOL    HW214448   3.843   1.901   5.373
 4517SOL     OW14449   4.036   0.694   5.910
 4517SOL    HW114450   4.041   0.670   5.813
 4517SOL    HW214451   4.078   0.621   5.965
 4518SOL     OW14452   1.654   0.085   0.842
 4518SOL    HW114453   1.667   0.054   0.936
 4518SOL    HW214454   1.682   0.181   0.834
 4519SOL     OW14455   5.450   6.640   6.521
 4519SOL    HW114456   5.388   6.596   6.586
 4519SOL    HW214457   5.544   6.612   6.541
 4520SOL     OW14458   4.112   6.734   5.137
 4520SOL    HW114459   4.135   6.802   5.067
 4520SOL    HW214460   4.094   6.646   5.095
 4521SOL     OW14461   4.841   3.118   4.664
 4521SOL    HW114462   4.779   3.040   4.670
 4521SOL    HW214463   4.849   3.161   4.754
 4522SOL     OW14464   4.822   3.937   3.427
 4522SOL    HW114465   4.746   4.002   3.419
 4522SOL    HW214466   4.863   3.922   3.337
 4523SOL     OW14467   0.541   3.273   6.375
 4523SOL    HW114468   0.638   3.251   6.387
 4523SOL    HW214469   0.492   3.258   6.461
 4524SOL     OW14470   0.346   3.359   3.014
 4524SOL    HW114471   0.382   3.389   3.102
 4524SOL    HW214472   0.246   3.372   3.014
 4525SOL     OW14473   2.116   2.266   5.415
 4525SOL    HW114474   2.078   2.343   5.466
 4525SOL    HW214475   2.212   2.253   5.441
 4526SOL     OW14476   0.903   6.904   5.783
 4526SOL    HW114477   0.988   6.855   5.762
 4526SOL    HW214478   0.826   6.855   5.744
 4527SOL     OW14479   6.116   6.992   3.475
 4527SOL    HW114480   6.059   6.992   3.557
 4527SOL    HW214481   6.059   7.015   3.396
 4528SOL     OW14482   3.711   0.734   5.741
 4528SOL    HW114483   3.756   0.812   5.698
 4528SOL    HW214484   3.615   0.755   5.758
 4529SOL     OW14485   3.031   1.003   5.453
 4529SOL    HW114486   3.000   0.994   5.548
 4529SOL    HW214487   3.097   1.078   5.447
 4530SOL     OW14488   2.738   6.007   5.119
 4530SOL    HW114489   2.724   5.918   5.075
 4530SOL    HW214490   2.654   6.036   5.163
 4531SOL     OW14491   0.778   5.162   5.966
 4531SOL    HW114492   0.851   5.135   6.029
 4531SOL    HW214493   0.758   5.259   5.977
 4532SOL     OW14494   5.548   0.768   2.703
 4532SOL    HW114495   5.496   0.685   2.723
 4532SOL    HW214496   5.610   0.787   2.778
 4533SOL     OW14497   2.407   0.677   2.098
 4533SOL    HW114498   2.449   0.764   2.073
 4533SOL    HW214499   2.473   0.620   2.146
 4534SOL     OW14500   4.581   1.669   3.988
 4534SOL    HW114501   4.667   1.717   3.970
 4534SOL    HW214502   4.529   1.719   4.058
 4535SOL     OW14503   2.870   1.619   0.270
 4535SOL    HW114504   2.924   1.620   0.186
 4535SOL    HW214505   2.929   1.595   0.347
 4536SOL     OW14506   2.882   1.520   6.031
 4536SOL    HW114507   2.949   1.561   5.969
 4536SOL    HW214508   2.929   1.482   6.111
 4537SOL     OW14509   3.498   4.089   4.163
 4537SOL    HW114510   3.563   4.164   4.165
 4537SOL    HW214511   3.443   4.095   4.080
 4538SOL     OW14512   6.764   2.717   1.039
 4538SOL    HW114513   6.825   2.642   1.014
 4538SOL    HW214514   6.679   2.709   0.986
 4539SOL     OW14515   1.173   5.748   5.879
 4539SOL    HW114516   1.162   5.791   5.968
 4539SOL    HW214517   1.253   5.786   5.833
 4540SOL     OW14518   0.106   1.242   0.528
 4540SOL    HW114519   0.021   1.268   0.483
 4540SOL    HW214520   0.089   1.162   0.587
 4541SOL     OW14521   4.212   2.099   5.708
 4541SOL    HW114522   4.239   2.195   5.718
 4541SOL    HW214523   4.222   2.052   5.796
 4542SOL     OW14524   0.222   2.997   1.460
 4542SOL    HW114525   0.311   2.962   1.435
 4542SOL    HW214526   0.151   2.930   1.437
 4543SOL     OW14527   3.304   2.104   6.762
 4543SOL    HW114528   3.313   2.044   6.842
 4543SOL    HW214529   3.213   2.144   6.761
 4544SOL     OW14530   5.747   5.359   0.757
 4544SOL    HW114531   5.672   5.419   0.784
 4544SOL    HW214532   5.735   5.331   0.662
 4545SOL     OW14533   1.953   3.026   5.335
 4545SOL    HW114534   2.000   2.962   5.275
 4545SOL    HW214535   2.012   3.048   5.413
 4546SOL     OW14536   2.329   1.213   6.739
 4546SOL    HW114537   2.333   1.289   6.674
 4546SOL    HW214538   2.238   1.208   6.779
 4547SOL     OW14539   6.420   0.107   0.314
 4547SOL    HW114540   6.509   0.122   0.270
 4547SOL    HW214541   6.382   0.195   0.342
 4548SOL     OW14542   2.153   3.285   3.206
 4548SOL    HW114543   2.137   3.220   3.280
 4548SOL    HW214544   2.065   3.310   3.164
 4549SOL     OW14545   5.911   3.851   3.100
 4549SOL    HW114546   5.991   3.866   3.158
 4549SOL    HW214547   5.843   3.922   3.118
 4550SOL     OW14548   0.755   4.593   2.751
 4550SOL    HW114549   0.810   4.520   2.711
 4550SOL    HW214550   0.676   4.554   2.798
 4551SOL     OW14551   1.023   3.568   4.886
 4551SOL    HW114552   0.987   3.477   4.863
 4551SOL    HW214553   0.947   3.630   4.903
 4552SOL     OW14554   5.640   1.240   1.083
 4552SOL    HW114555   5.578   1.261   1.158
 4552SOL    HW214556   5.731   1.219   1.118
 4553SOL     OW14557   5.888   5.187   6.206
 4553SOL    HW114558   5.929   5.233   6.285
 4553SOL    HW214559   5.959   5.136   6.157
 4554SOL     OW14560   0.866   6.419   1.900
 4554SOL    HW114561   0.935   6.491   1.903
 4554SOL    HW214562   0.776   6.460   1.889
 4555SOL     OW14563   0.502   1.068   6.770
 4555SOL    HW114564   0.414   1.065   6.819
 4555SOL    HW214565   0.552   1.150   6.797
 4556SOL     OW14566   5.948   3.365   5.836
 4556SOL    HW114567   5.902   3.279   5.814
 4556SOL    HW214568   5.890   3.442   5.808
 4557SOL     OW14569   6.280   4.837   3.061
 4557SOL    HW114570   6.257   4.933   3.076
 4557SOL    HW214571   6.200   4.788   3.027
 4558SOL     OW14572   0.118   3.284   5.195
 4558SOL    HW114573   0.027   3.287   5.237
 4558SOL    HW214574   0.156   3.192   5.204
 4559SOL     OW14575   0.085   3.001   2.671
 4559SOL    HW114576   7.022   2.956   2.693
 4559SOL    HW214577   0.137   3.017   2.755
 4560SOL     OW14578   5.625   4.813   2.614
 4560SOL    HW114579   5.675   4.727   2.622
 4560SOL    HW214580   5.590   4.840   2.703
 4561SOL     OW14581   4.006   2.110   4.670
 4561SOL    HW114582   3.984   2.134   4.576
 4561SOL    HW214583   4.033   2.014   4.676
 4562SOL     OW14584   2.446   1.039   1.069
 4562SOL    HW114585   2.353   1.041   1.032
 4562SOL    HW214586   2.445   1.003   1.163
 4563SOL     OW14587   0.411   3.299   1.564
 4563SOL    HW114588   0.331   3.279   1.507
 4563SOL    HW214589   0.384   3.301   1.660
 4564SOL     OW14590   0.185   4.023   1.864
 4564SOL    HW114591   0.216   4.100   1.918
 4564SOL    HW214592   0.157   3.948   1.924
 4565SOL     OW14593   2.058   6.400   5.162
 4565SOL    HW114594   2.013   6.385   5.250
 4565SOL    HW214595   2.072   6.313   5.115
 4566SOL     OW14596   6.570   4.395   1.864
 4566SOL    HW114597   6.666   4.371   1.878
 4566SOL    HW214598   6.526   4.324   1.809
 4567SOL     OW14599   0.518   0.241   6.389
 4567SOL    HW114600   0.538   0.272   6.481
 4567SOL    HW214601   0.419   0.227   6.380
 4568SOL     OW14602   0.532   5.534   3.588
 4568SOL    HW114603   0.504   5.475   3.664
 4568SOL    HW214604   0.527   5.484   3.502
 4569SOL     OW14605   2.659   1.245   3.044
 4569SOL    HW114606   2.610   1.184   3.107
 4569SOL    HW214607   2.755   1.250   3.071
 4570SOL     OW14608   6.356   5.424   1.681
 4570SOL    HW114609   6.389   5.335   1.713
 4570SOL    HW214610   6.328   5.479   1.760
 4571SOL     OW14611   3.575   3.182   6.457
 4571SOL    HW114612   3.577   3.094   6.505
 4571SOL    HW214613   3.666   3.222   6.457
 4572SOL     OW14614   2.544   3.033   1.180
 4572SOL    HW114615   2.488   2.961   1.220
 4572SOL    HW214616   2.626   3.048   1.237
 4573SOL     OW14617   1.703   6.230   1.239
 4573SOL    HW114618   1.622   6.196   1.288
 4573SOL    HW214619   1.725   6.168   1.164
 4574SOL     OW14620   5.797   2.558   0.942
 4574SOL    HW114621   5.748   2.498   0.879
 4574SOL    HW214622   5.894   2.533   0.944
 4575SOL     OW14623   6.361   0.320   3.987
 4575SOL    HW114624   6.438   0.364   3.941
 4575SOL    HW214625   6.288   0.303   3.921
 4576SOL     OW14626   2.530   4.932   5.195
 4576SOL    HW114627   2.444   4.884   5.214
 4576SOL    HW214628   2.606   4.878   5.232
 4577SOL     OW14629   1.931   1.489   2.892
 4577SOL    HW114630   1.883   1.555   2.835
 4577SOL    HW214631   2.030   1.501   2.881
 4578SOL     OW14632   1.220   0.988   1.939
 4578SOL    HW114633   1.251   0.957   1.849
 4578SOL    HW214634   1.291   0.969   2.007
 4579SOL     OW14635   3.636   0.581   2.231
 4579SOL    HW114636   3.696   0.502   2.244
 4579SOL    HW214637   3.632   0.605   2.134
 4580SOL     OW14638   6.647   2.938   0.442
 4580SOL    HW114639   6.716   2.923   0.513
 4580SOL    HW214640   6.676   3.012   0.381
 4581SOL     OW14641   3.541   6.927   1.732
 4581SOL    HW114642   3.528   7.009   1.789
 4581SOL    HW214643   3.636   6.899   1.735
 4582SOL     OW14644   6.038   0.832   2.761
 4582SOL    HW114645   5.959   0.833   2.699
 4582SOL    HW214646   6.008   0.856   2.853
 4583SOL     OW14647   2.045   6.980   6.586
 4583SOL    HW114648   2.004   0.047   6.595
 4583SOL    HW214649   1.998   6.915   6.647
 4584SOL     OW14650   1.138   0.601   5.584
 4584SOL    HW114651   1.051   0.623   5.628
 4584SOL    HW214652   1.142   0.503   5.566
 4585SOL     OW14653   0.973   3.993   3.044
 4585SOL    HW114654   0.989   3.904   3.000
 4585SOL    HW214655   1.038   4.060   3.010
 4586SOL     OW14656   5.392   4.535   6.532
 4586SOL    HW114657   5.314   4.571   6.480
 4586SOL    HW214658   5.362   4.458   6.588
 4587SOL     OW14659   3.039   3.994   4.559
 4587SOL    HW114660   3.061   4.011   4.655
 4587SOL    HW214661   2.953   3.942   4.554
 4588SOL     OW14662   2.478   4.178   5.832
 4588SOL    HW114663   2.560   4.215   5.790
 4588SOL    HW214664   2.503   4.106   5.897
 4589SOL     OW14665   5.140   6.654   2.411
 4589SOL    HW114666   5.066   6.693   2.356
 4589SOL    HW214667   5.102   6.584   2.472
 4590SOL     OW14668   3.446   5.386   1.997
 4590SOL    HW114669   3.403   5.450   1.934
 4590SOL    HW214670   3.519   5.433   2.047
 4591SOL     OW14671   2.086   0.430   5.204
 4591SOL    HW114672   2.031   0.444   5.122
 4591SOL    HW214673   2.063   0.341   5.244
 4592SOL     OW14674   2.610   1.667   4.582
 4592SOL    HW114675   2.639   1.716   4.500
 4592SOL    HW214676   2.536   1.603   4.558
 4593SOL     OW14677   0.804   5.859   4.346
 4593SOL    HW114678   0.724   5.814   4.386
 4593SOL    HW214679   0.777   5.903   4.260
 4594SOL     OW14680   2.052   0.311   2.487
 4594SOL    HW114681   2.134   0.284   2.437
 4594SOL    HW214682   2.078   0.354   2.574
 4595SOL     OW14683   4.768   1.792   6.348
 4595SOL    HW114684   4.834   1.718   6.358
 4595SOL    HW214685   4.810   1.878   6.378
 4596SOL     OW14686   1.147   1.165   2.179
 4596SOL    HW114687   1.162   1.087   2.239
 4596SOL    HW214688   1.188   1.146   2.089
 4597SOL     OW14689   3.016   6.010   0.033
 4597SOL    HW114690   3.017   5.918   0.072
 4597SOL    HW214691   3.042   6.076   0.103
 4598SOL     OW14692   2.163   5.797   6.985
 4598SOL    HW114693   2.070   5.834   6.982
 4598SOL    HW214694   2.159   5.698   6.996
 4599SOL     OW14695   1.867   5.113   2.805
 4599SOL    HW114696   1.804   5.086   2.877
 4599SOL    HW214697   1.857   5.051   2.727
 4600SOL     OW14698   6.826   6.566   5.747
 4600SOL    HW114699   6.887   6.531   5.676
 4600SOL    HW214700   6.825   6.503   5.825
 4601SOL     OW14701   0.945   1.276   4.463
 4601SOL    HW114702   0.922   1.190   4.417
 4601SOL    HW214703   0.899   1.352   4.416
 4602SOL     OW14704   2.968   1.635   0.006
 4602SOL    HW114705   3.056   1.602   0.041
 4602SOL    HW214706   2.937   1.576   6.955
 4603SOL     OW14707   4.732   5.915   0.874
 4603SOL    HW114708   4.691   5.835   0.919
 4603SOL    HW214709   4.775   5.886   0.789
 4604SOL     OW14710   5.543   0.234   6.092
 4604SOL    HW114711   5.487   0.230   6.009
 4604SOL    HW214712   5.493   0.192   6.167
 4605SOL     OW14713   3.183   0.051   2.085
 4605SOL    HW114714   3.263   0.081   2.135
 4605SOL    HW214715   3.211   0.010   1.998
 4606SOL     OW14716   6.794   6.553   3.095
 4606SOL    HW114717   6.799   6.485   3.168
 4606SOL    HW214718   6.884   6.594   3.081
 4607SOL     OW14719   1.903   3.072   2.534
 4607SOL    HW114720   1.866   3.128   2.460
 4607SOL    HW214721   1.991   3.109   2.564
 4608SOL     OW14722   0.152   3.628   4.937
 4608SOL    HW114723   0.210   3.610   4.858
 4608SOL    HW214724   0.124   3.725   4.937
 4609SOL     OW14725   4.532   6.445   6.332
 4609SOL    HW114726   4.627   6.416   6.322
 4609SOL    HW214727   4.474   6.390   6.272
 4610SOL     OW14728   5.163   2.249   0.836
 4610SOL    HW114729   5.176   2.182   0.909
 4610SOL    HW214730   5.242   2.311   0.834
 4611SOL     OW14731   0.925   0.302   5.810
 4611SOL    HW114732   0.902   0.399   5.819
 4611SOL    HW214733   0.842   0.248   5.825
 4612SOL     OW14734   1.608   6.630   2.163
 4612SOL    HW114735   1.594   6.711   2.106
 4612SOL    HW214736   1.676   6.650   2.233
 4613SOL     OW14737   1.507   5.228   1.775
 4613SOL    HW114738   1.469   5.320   1.786
 4613SOL    HW214739   1.461   5.165   1.838
 4614SOL     OW14740   6.778   3.737   4.845
 4614SOL    HW114741   6.814   3.802   4.911
 4614SOL    HW214742   6.818   3.646   4.862
 4615SOL     OW14743   0.878   1.977   1.118
 4615SOL    HW114744   0.965   1.983   1.168
 4615SOL    HW214745   0.802   1.981   1.183
 4616SOL     OW14746   6.322   2.964   4.515
 4616SOL    HW114747   6.232   2.992   4.550
 4616SOL    HW214748   6.350   3.027   4.442
 4617SOL     OW14749   0.327   2.387   2.703
 4617SOL    HW114750   0.417   2.344   2.716
 4617SOL    HW214751   0.279   2.342   2.627
 4618SOL     OW14752   2.664   4.389   5.755
 4618SOL    HW114753   2.615   4.433   5.680
 4618SOL    HW214754   2.757   4.425   5.760
 4619SOL     OW14755   3.466   6.202   5.230
 4619SOL    HW114756   3.539   6.269   5.239
 4619SOL    HW214757   3.449   6.184   5.133
 4620SOL     OW14758   0.702   5.755   2.608
 4620SOL    HW114759   0.740   5.792   2.693
 4620SOL    HW214760   0.741   5.805   2.530
 4621SOL     OW14761   5.042   0.319   2.383
 4621SOL    HW114762   5.026   0.399   2.441
 4621SOL    HW214763   5.122   0.334   2.325
 4622SOL     OW14764   4.693   5.668   1.016
 4622SOL    HW114765   4.790   5.659   0.994
 4622SOL    HW214766   4.683   5.695   1.111
 4623SOL     OW14767   2.951   5.062   1.109
 4623SOL    HW114768   3.024   5.001   1.076
 4623SOL    HW214769   2.888   5.082   1.034
 4624SOL     OW14770   4.023   1.104   2.867
 4624SOL    HW114771   4.083   1.118   2.946
 4624SOL    HW214772   3.979   1.015   2.873
 4625SOL     OW14773   2.050   5.323   2.087
 4625SOL    HW114774   2.020   5.317   2.182
 4625SOL    HW214775   2.047   5.418   2.057
 4626SOL     OW14776   4.000   3.747   1.600
 4626SOL    HW114777   3.939   3.721   1.526
 4626SOL    HW214778   4.045   3.833   1.578
 4627SOL     OW14779   6.599   6.610   4.735
 4627SOL    HW114780   6.647   6.626   4.648
 4627SOL    HW214781   6.501   6.624   4.722
 4628SOL     OW14782   5.145   5.383   3.565
 4628SOL    HW114783   5.233   5.406   3.525
 4628SOL    HW214784   5.145   5.286   3.590
 4629SOL     OW14785   1.907   5.959   0.025
 4629SOL    HW114786   1.862   6.032   6.997
 4629SOL    HW214787   2.005   5.980   0.035
 4630SOL     OW14788   1.862   4.077   2.127
 4630SOL    HW114789   1.814   4.155   2.086
 4630SOL    HW214790   1.859   3.999   2.064
 4631SOL     OW14791   0.332   0.565   3.720
 4631SOL    HW114792   0.237   0.589   3.697
 4631SOL    HW214793   0.394   0.634   3.683
 4632SOL     OW14794   3.501   4.920   2.796
 4632SOL    HW114795   3.499   4.933   2.697
 4632SOL    HW214796   3.410   4.894   2.828
 4633SOL     OW14797   5.139   1.386   4.131
 4633SOL    HW114798   5.042   1.371   4.147
 4633SOL    HW214799   5.155   1.482   4.109
 4634SOL     OW14800   3.276   3.779   4.829
 4634SOL    HW114801   3.209   3.845   4.864
 4634SOL    HW214802   3.292   3.708   4.897
 4635SOL     OW14803   5.151   5.625   0.622
 4635SOL    HW114804   5.114   5.592   0.709
 4635SOL    HW214805   5.140   5.554   0.552
 4636SOL     OW14806   1.912   5.599   0.414
 4636SOL    HW114807   1.956   5.535   0.352
 4636SOL    HW214808   1.982   5.652   0.462
 4637SOL     OW14809   1.732   0.041   2.453
 4637SOL    HW114810   1.751   0.066   2.358
 4637SOL    HW214811   1.676   6.981   2.455
 4638SOL     OW14812   3.668   5.248   0.355
 4638SOL    HW114813   3.709   5.296   0.277
 4638SOL    HW214814   3.572   5.275   0.364
 4639SOL     OW14815   1.945   2.380   0.756
 4639SOL    HW114816   2.016   2.380   0.686
 4639SOL    HW214817   1.968   2.447   0.827
 4640SOL     OW14818   6.642   3.047   5.534
 4640SOL    HW114819   6.643   3.001   5.623
 4640SOL    HW214820   6.731   3.035   5.489
 4641SOL     OW14821   0.689   5.345   4.178
 4641SOL    HW114822   0.768   5.302   4.134
 4641SOL    HW214823   0.610   5.283   4.172
 4642SOL     OW14824   0.782   1.468   3.520
 4642SOL    HW114825   0.769   1.445   3.616
 4642SOL    HW214826   0.777   1.568   3.508
 4643SOL     OW14827   0.273   2.007   6.812
 4643SOL    HW114828   0.281   2.094   6.861
 4643SOL    HW214829   0.287   1.931   6.875
 4644SOL     OW14830   1.623   0.781   0.847
 4644SOL    HW114831   1.704   0.777   0.787
 4644SOL    HW214832   1.643   0.840   0.925
 4645SOL     OW14833   2.021   1.036   3.695
 4645SOL    HW114834   2.073   1.087   3.763
 4645SOL    HW214835   2.014   1.089   3.611
 4646SOL     OW14836   2.027   5.159   3.818
 4646SOL    HW114837   1.930   5.150   3.843
 4646SOL    HW214838   2.061   5.248   3.848
 4647SOL     OW14839   1.539   6.638   2.930
 4647SOL    HW114840   1.593   6.699   2.872
 4647SOL    HW214841   1.446   6.629   2.893
 4648SOL     OW14842   3.068   1.576   4.633
 4648SOL    HW114843   3.007   1.653   4.614
 4648SOL    HW214844   3.036   1.495   4.584
 4649SOL     OW14845   5.880   0.528   0.325
 4649SOL    HW114846   5.800   0.476   0.354
 4649SOL    HW214847   5.947   0.529   0.398
 4650SOL     OW14848   5.505   6.598   1.568
 4650SOL    HW114849   5.550   6.687   1.570
 4650SOL    HW214850   5.428   6.602   1.505
 4651SOL     OW14851   5.901   2.736   5.640
 4651SOL    HW114852   5.928   2.824   5.604
 4651SOL    HW214853   5.958   2.712   5.719
 4652SOL     OW14854   0.118   6.414   4.169
 4652SOL    HW114855   0.143   6.477   4.241
 4652SOL    HW214856   0.114   6.321   4.205
 4653SOL     OW14857   5.487   5.631   1.057
 4653SOL    HW114858   5.391   5.605   1.062
 4653SOL    HW214859   5.543   5.564   1.106
 4654SOL     OW14860   0.471   6.361   5.223
 4654SOL    HW114861   0.444   6.306   5.302
 4654SOL    HW214862   0.558   6.407   5.243
 4655SOL     OW14863   4.593   2.651   1.192
 4655SOL    HW114864   4.513   2.593   1.172
 4655SOL    HW214865   4.642   2.613   1.270
 4656SOL     OW14866   0.782   1.328   1.416
 4656SOL    HW114867   0.755   1.282   1.501
 4656SOL    HW214868   0.748   1.276   1.338
 4657SOL     OW14869   5.059   6.646   1.857
 4657SOL    HW114870   5.017   6.644   1.948
 4657SOL    HW214871   5.066   6.741   1.826
 4658SOL     OW14872   2.847   2.428   5.514
 4658SOL    HW114873   2.755   2.459   5.494
 4658SOL    HW214874   2.881   2.474   5.595
 4659SOL     OW14875   3.647   4.873   0.898
 4659SOL    HW114876   3.747   4.869   0.897
 4659SOL    HW214877   3.613   4.873   0.804
 4660SOL     OW14878   0.962   6.468   4.175
 4660SOL    HW114879   0.938   6.506   4.085
 4660SOL    HW214880   1.057   6.439   4.174
 4661SOL     OW14881   1.715   3.445   5.842
 4661SOL    HW114882   1.617   3.436   5.821
 4661SOL    HW214883   1.740   3.542   5.842
 4662SOL     OW14884   2.570   6.468   4.734
 4662SOL    HW114885   2.611   6.541   4.790
 4662SOL    HW214886   2.606   6.379   4.764
 4663SOL     OW14887   0.974   6.825   0.023
 4663SOL    HW114888   0.895   6.885   0.018
 4663SOL    HW214889   1.010   6.811   6.954
 4664SOL     OW14890   6.163   6.416   0.569
 4664SOL    HW114891   6.197   6.434   0.477
 4664SOL    HW214892   6.078   6.467   0.584
 4665SOL     OW14893   2.258   0.679   4.670
 4665SOL    HW114894   2.174   0.718   4.709
 4665SOL    HW214895   2.327   0.671   4.742
 4666SOL     OW14896   1.872   2.203   5.530
 4666SOL    HW114897   1.959   2.236   5.493
 4666SOL    HW214898   1.887   2.120   5.584
 4667SOL     OW14899   6.942   3.812   1.555
 4667SOL    HW114900   6.886   3.893   1.539
 4667SOL    HW214901   0.015   3.838   1.559
 4668SOL     OW14902   4.410   2.485   4.873
 4668SOL    HW114903   4.434   2.390   4.855
 4668SOL    HW214904   4.322   2.489   4.920
 4669SOL     OW14905   5.558   0.092   6.902
 4669SOL    HW114906   5.467   0.082   6.942
 4669SOL    HW214907   5.588   0.005   6.864
 4670SOL     OW14908   0.726   3.473   0.948
 4670SOL    HW114909   0.796   3.544   0.953
 4670SOL    HW214910   0.663   3.493   0.872
 4671SOL     OW14911   0.086   3.672   0.089
 4671SOL    HW114912   0.095   3.752   0.148
 4671SOL    HW214913   0.003   3.681   0.033
 4672SOL     OW14914   3.193   4.017   5.684
 4672SOL    HW114915   3.271   4.053   5.634
 4672SOL    HW214916   3.110   4.064   5.655
 4673SOL     OW14917   6.135   0.290   6.824
 4673SOL    HW114918   6.154   0.344   6.906
 4673SOL    HW214919   6.169   0.338   6.744
 4674SOL     OW14920   0.755   1.946   0.231
 4674SOL    HW114921   0.694   1.868   0.213
 4674SOL    HW214922   0.718   2.000   0.307
 4675SOL     OW14923   3.063   6.215   0.259
 4675SOL    HW114924   2.971   6.246   0.232
 4675SOL    HW214925   3.088   6.257   0.346
 4676SOL     OW14926   0.871   6.086   3.663
 4676SOL    HW114927   0.870   6.024   3.741
 4676SOL    HW214928   0.913   6.173   3.690
 4677SOL     OW14929   4.340   0.730   6.106
 4677SOL    HW114930   4.282   0.782   6.043
 4677SOL    HW214931   4.289   0.709   6.189
 4678SOL     OW14932   2.130   4.781   0.427
 4678SOL    HW114933   2.121   4.774   0.327
 4678SOL    HW214934   2.115   4.875   0.455
 4679SOL     OW14935   2.778   0.799   6.405
 4679SOL    HW114936   2.810   0.837   6.492
 4679SOL    HW214937   2.696   0.848   6.375
 4680SOL     OW14938   1.637   5.159   0.740
 4680SOL    HW114939   1.556   5.185   0.688
 4680SOL    HW214940   1.657   5.231   0.807
 4681SOL     OW14941   0.131   5.230   5.665
 4681SOL    HW114942   0.175   5.157   5.717
 4681SOL    HW214943   0.138   5.210   5.567
 4682SOL     OW14944   3.778   6.428   0.586
 4682SOL    HW114945   3.754   6.525   0.575
 4682SOL    HW214946   3.877   6.418   0.592
 4683SOL     OW14947   5.871   4.019   2.363
 4683SOL    HW114948   5.879   4.084   2.287
 4683SOL    HW214949   5.899   3.928   2.332
 4684SOL     OW14950   1.559   1.998   4.490
 4684SOL    HW114951   1.591   2.084   4.452
 4684SOL    HW214952   1.601   1.921   4.441
 4685SOL     OW14953   5.059   5.247   4.797
 4685SOL    HW114954   5.013   5.158   4.808
 4685SOL    HW214955   5.054   5.275   4.701
 4686SOL     OW14956   4.976   5.202   6.226
 4686SOL    HW114957   5.001   5.229   6.319
 4686SOL    HW214958   4.955   5.284   6.172
 4687SOL     OW14959   5.861   4.712   5.117
 4687SOL    HW114960   5.814   4.797   5.143
 4687SOL    HW214961   5.800   4.657   5.059
 4688SOL     OW14962   0.712   3.031   6.856
 4688SOL    HW114963   0.726   3.017   6.758
 4688SOL    HW214964   0.761   3.113   6.885
 4689SOL     OW14965   6.992   6.197   4.608
 4689SOL    HW114966   0.057   6.207   4.654
 4689SOL    HW214967   6.918   6.215   4.673
 4690SOL     OW14968   1.687   1.227   0.160
 4690SOL    HW114969   1.704   1.299   0.226
 4690SOL    HW214970   1.611   1.253   0.100
 4691SOL     OW14971   2.444   4.875   1.029
 4691SOL    HW114972   2.379   4.951   1.029
 4691SOL    HW214973   2.409   4.800   1.085
 4692SOL     OW14974   6.921   5.173   3.267
 4692SOL    HW114975   6.909   5.164   3.366
 4692SOL    HW214976   6.928   5.269   3.243
 4693SOL     OW14977   0.541   1.252   4.529
 4693SOL    HW114978   0.518   1.185   4.600
 4693SOL    HW214979   0.550   1.343   4.571
 4694SOL     OW14980   1.687   1.501   0.555
 4694SOL    HW114981   1.657   1.427   0.615
 4694SOL    HW214982   1.610   1.561   0.535
 4695SOL     OW14983   4.158   3.331   2.203
 4695SOL    HW114984   4.242   3.351   2.152
 4695SOL    HW214985   4.140   3.233   2.200
 4696SOL     OW14986   6.862   3.154   6.398
 4696SOL    HW114987   6.857   3.063   6.439
 4696SOL    HW214988   6.912   3.150   6.312
 4697SOL     OW14989   1.115   4.408   7.021
 4697SOL    HW114990   1.021   4.443   0.002
 4697SOL    HW214991   1.173   4.465   0.056
 4698SOL     OW14992   5.498   3.501   0.991
 4698SOL    HW114993   5.589   3.526   1.025
 4698SOL    HW214994   5.508   3.441   0.911
 4699SOL     OW14995   0.189   0.721   2.309
 4699SOL    HW114996   0.158   0.626   2.306
 4699SOL    HW214997   0.111   0.782   2.291
 4700SOL     OW14998   4.263   1.280   1.046
 4700SOL    HW114999   4.293   1.338   1.122
 4700SOL    HW215000   4.323   1.294   0.967
 4701SOL     OW15001   0.522   1.413   0.122
 4701SOL    HW115002   0.585   1.474   0.072
 4701SOL    HW215003   0.442   1.395   0.066
 4702SOL     OW15004   3.578   3.670   0.143
 4702SOL    HW115005   3.479   3.657   0.146
 4702SOL    HW215006   3.602   3.759   0.181
 4703SOL     OW15007   1.904   0.747   2.563
 4703SOL    HW115008   1.922   0.781   2.471
 4703SOL    HW215009   1.990   0.742   2.614
 4704SOL     OW15010   6.747   6.733   0.629
 4704SOL    HW115011   6.792   6.673   0.694
 4704SOL    HW215012   6.756   6.828   0.659
 4705SOL     OW15013   3.453   3.482   4.007
 4705SOL    HW115014   3.372   3.540   4.019
 4705SOL    HW215015   3.460   3.457   3.910
 4706SOL     OW15016   4.215   6.434   6.819
 4706SOL    HW115017   4.252   6.502   6.883
 4706SOL    HW215018   4.151   6.478   6.756
 4707SOL     OW15019   2.010   5.429   1.041
 4707SOL    HW115020   1.929   5.372   1.026
 4707SOL    HW215021   2.092   5.372   1.038
 4708SOL     OW15022   2.458   2.813   1.319
 4708SOL    HW115023   2.370   2.800   1.365
 4708SOL    HW215024   2.457   2.766   1.231
 4709SOL     OW15025   3.930   5.165   5.166
 4709SOL    HW115026   3.954   5.245   5.111
 4709SOL    HW215027   3.937   5.188   5.263
 4710SOL     OW15028   4.575   1.533   6.757
 4710SOL    HW115029   4.561   1.448   6.707
 4710SOL    HW215030   4.658   1.578   6.722
 4711SOL     OW15031   3.473   6.907   2.493
 4711SOL    HW115032   3.563   6.863   2.485
 4711SOL    HW215033   3.464   6.949   2.583
 4712SOL     OW15034   1.987   4.593   0.796
 4712SOL    HW115035   2.054   4.659   0.831
 4712SOL    HW215036   1.920   4.573   0.868
 4713SOL     OW15037   1.785   5.235   0.987
 4713SOL    HW115038   1.816   5.144   1.015
 4713SOL    HW215039   1.711   5.265   1.047
 4714SOL     OW15040   3.354   1.882   1.430
 4714SOL    HW115041   3.368   1.785   1.408
 4714SOL    HW215042   3.273   1.892   1.487
 4715SOL     OW15043   0.032   2.458   3.190
 4715SOL    HW115044   0.050   2.394   3.265
 4715SOL    HW215045   0.078   2.545   3.209
 4716SOL     OW15046   3.746   5.835   0.411
 4716SOL    HW115047   3.763   5.876   0.322
 4716SOL    HW215048   3.737   5.736   0.402
 4717SOL     OW15049   1.503   6.048   3.377
 4717SOL    HW115050   1.486   5.972   3.314
 4717SOL    HW215051   1.422   6.107   3.380
 4718SOL     OW15052   5.958   1.196   6.284
 4718SOL    HW115053   5.991   1.201   6.379
 4718SOL    HW215054   5.953   1.289   6.247
 4719SOL     OW15055   5.159   3.444   1.756
 4719SOL    HW115056   5.230   3.386   1.797
 4719SOL    HW215057   5.180   3.459   1.659
 4720SOL     OW15058   2.443   0.085   5.607
 4720SOL    HW115059   2.401   0.144   5.676
 4720SOL    HW215060   2.372   0.047   5.548
 4721SOL     OW15061   1.892   1.770   1.294
 4721SOL    HW115062   1.801   1.811   1.286
 4721SOL    HW215063   1.961   1.838   1.270
 4722SOL     OW15064   1.781   6.840   0.230
 4722SOL    HW115065   1.817   6.796   0.148
 4722SOL    HW215066   1.695   6.885   0.210
 4723SOL     OW15067   2.925   6.668   6.734
 4723SOL    HW115068   2.957   6.753   6.693
 4723SOL    HW215069   2.952   6.666   6.831
 4724SOL     OW15070   3.863   6.595   1.812
 4724SOL    HW115071   3.813   6.682   1.806
 4724SOL    HW215072   3.811   6.531   1.870
 4725SOL     OW15073   5.713   6.486   3.652
 4725SOL    HW115074   5.691   6.392   3.628
 4725SOL    HW215075   5.741   6.491   3.748
 4726SOL     OW15076   0.982   4.176   6.876
 4726SOL    HW115077   1.045   4.242   6.919
 4726SOL    HW215078   0.888   4.208   6.888
 4727SOL     OW15079   6.834   5.871   6.988
 4727SOL    HW115080   6.809   5.844   0.058
 4727SOL    HW215081   6.923   5.916   6.990
 4728SOL     OW15082   0.228   0.771   6.742
 4728SOL    HW115083   0.209   0.788   6.645
 4728SOL    HW215084   0.159   0.709   6.779
 4729SOL     OW15085   3.638   0.296   2.371
 4729SOL    HW115086   3.581   0.235   2.316
 4729SOL    HW215087   3.584   0.334   2.446
 4730SOL     OW15088   2.103   6.144   5.595
 4730SOL    HW115089   2.016   6.130   5.547
 4730SOL    HW215090   2.178   6.150   5.529
 4731SOL     OW15091   6.144   1.551   4.847
 4731SOL    HW115092   6.058   1.590   4.815
 4731SOL    HW215093   6.218   1.618   4.834
 4732SOL     OW15094   0.072   3.273   7.007
 4732SOL    HW115095   7.002   3.258   6.972
 4732SOL    HW215096   0.072   3.269   0.084
 4733SOL     OW15097   6.732   4.038   3.569
 4733SOL    HW115098   6.769   3.945   3.569
 4733SOL    HW215099   6.636   4.036   3.543
 4734SOL     OW15100   4.414   3.720   6.433
 4734SOL    HW115101   4.331   3.757   6.391
 4734SOL    HW215102   4.413   3.739   6.531
 4735SOL     OW15103   0.991   4.992   3.548
 4735SOL    HW115104   1.030   4.905   3.576
 4735SOL    HW215105   0.966   5.045   3.629
 4736SOL     OW15106   0.899   0.905   0.190
 4736SOL    HW115107   0.874   0.902   0.093
 4736SOL    HW215108   0.850   0.980   0.235
 4737SOL     OW15109   2.104   5.021   1.880
 4737SOL    HW115110   2.137   5.113   1.862
 4737SOL    HW215111   2.171   4.955   1.846
 4738SOL     OW15112   0.007   6.701   2.084
 4738SOL    HW115113   6.936   6.722   2.112
 4738SOL    HW215114   0.065   6.695   2.164
 4739SOL     OW15115   4.564   0.363   2.225
 4739SOL    HW115116   4.631   0.300   2.265
 4739SOL    HW215117   4.501   0.394   2.296
 4740SOL     OW15118   1.151   1.907   2.592
 4740SOL    HW115119   1.227   1.973   2.586
 4740SOL    HW215120   1.136   1.866   2.502
 4741SOL     OW15121   4.586   3.394   1.714
 4741SOL    HW115122   4.662   3.330   1.710
 4741SOL    HW215123   4.619   3.483   1.746
 4742SOL     OW15124   2.828   6.862   0.642
 4742SOL    HW115125   2.764   6.834   0.713
 4742SOL    HW215126   2.777   6.883   0.558
 4743SOL     OW15127   2.457   4.930   1.364
 4743SOL    HW115128   2.409   5.018   1.359
 4743SOL    HW215129   2.395   4.861   1.401
 4744SOL     OW15130   1.833   6.740   0.937
 4744SOL    HW115131   1.904   6.757   1.005
 4744SOL    HW215132   1.743   6.744   0.981
 4745SOL     OW15133   1.586   4.182   0.336
 4745SOL    HW115134   1.512   4.250   0.342
 4745SOL    HW215135   1.546   4.091   0.334
 4746SOL     OW15136   4.673   5.807   4.565
 4746SOL    HW115137   4.644   5.748   4.490
 4746SOL    HW215138   4.681   5.752   4.649
 4747SOL     OW15139   1.378   2.155   0.690
 4747SOL    HW115140   1.328   2.095   0.752
 4747SOL    HW215141   1.424   2.101   0.620
 4748SOL     OW15142   1.481   6.742   3.214
 4748SOL    HW115143   1.448   6.669   3.154
 4748SOL    HW215144   1.526   6.813   3.159
 4749SOL     OW15145   2.123   7.020   0.226
 4749SOL    HW115146   2.184   0.055   0.280
 4749SOL    HW215147   2.030   0.002   0.263
 4750SOL     OW15148   5.264   3.067   5.509
 4750SOL    HW115149   5.355   3.089   5.545
 4750SOL    HW215150   5.269   2.984   5.454
 4751SOL     OW15151   4.757   0.759   3.037
 4751SOL    HW115152   4.796   0.819   3.107
 4751SOL    HW215153   4.665   0.790   3.015
 4752SOL     OW15154   4.650   1.933   0.272
 4752SOL    HW115155   4.572   1.900   0.218
 4752SOL    HW215156   4.661   2.032   0.257
 4753SOL     OW15157   2.987   6.277   5.306
 4753SOL    HW115158   2.987   6.241   5.213
 4753SOL    HW215159   2.893   6.285   5.339
 4754SOL     OW15160   4.410   4.823   6.297
 4754SOL    HW115161   4.443   4.728   6.294
 4754SOL    HW215162   4.424   4.865   6.208
 4755SOL     OW15163   1.373   0.941   1.370
 4755SOL    HW115164   1.296   0.915   1.313
 4755SOL    HW215165   1.424   0.859   1.397
 4756SOL     OW15166   6.249   4.021   6.755
 4756SOL    HW115167   6.224   4.099   6.698
 4756SOL    HW215168   6.333   3.980   6.720
 4757SOL     OW15169   1.805   3.611   1.668
 4757SOL    HW115170   1.815   3.588   1.765
 4757SOL    HW215171   1.715   3.650   1.652
 4758SOL     OW15172   2.012   6.919   3.424
 4758SOL    HW115173   1.989   6.967   3.508
 4758SOL    HW215174   2.079   6.848   3.443
 4759SOL     OW15175   1.209   4.974   1.178
 4759SOL    HW115176   1.258   4.888   1.195
 4759SOL    HW215177   1.132   4.982   1.241
 4760SOL     OW15178   1.670   6.382   0.651
 4760SOL    HW115179   1.735   6.428   0.711
 4760SOL    HW215180   1.700   6.393   0.556
 4761SOL     OW15181   6.465   6.657   1.221
 4761SOL    HW115182   6.474   6.598   1.141
 4761SOL    HW215183   6.396   6.619   1.283
 4762SOL     OW15184   2.263   6.138   2.203
 4762SOL    HW115185   2.358   6.155   2.177
 4762SOL    HW215186   2.204   6.157   2.125
 4763SOL     OW15187   4.688   5.452   2.051
 4763SOL    HW115188   4.762   5.389   2.076
 4763SOL    HW215189   4.726   5.542   2.032
 4764SOL     OW15190   3.983   3.859   5.965
 4764SOL    HW115191   4.067   3.846   5.911
 4764SOL    HW215192   3.982   3.952   6.002
 4765SOL     OW15193   3.647   1.600   4.888
 4765SOL    HW115194   3.706   1.604   4.969
 4765SOL    HW215195   3.558   1.564   4.914
 4766SOL     OW15196   0.082   0.027   4.007
 4766SOL    HW115197   0.167   0.046   4.057
 4766SOL    HW215198   0.011   7.020   4.071
 4767SOL     OW15199   2.013   4.795   5.063
 4767SOL    HW115200   1.940   4.847   5.019
 4767SOL    HW215201   2.068   4.857   5.120
 4768SOL     OW15202   4.329   2.030   0.397
 4768SOL    HW115203   4.327   1.941   0.350
 4768SOL    HW215204   4.422   2.048   0.430
 4769SOL     OW15205   3.189   5.418   1.548
 4769SOL    HW115206   3.179   5.319   1.549
 4769SOL    HW215207   3.101   5.461   1.569
 4770SOL     OW15208   0.192   0.970   5.568
 4770SOL    HW115209   0.282   0.983   5.611
 4770SOL    HW215210   0.121   0.981   5.637
 4771SOL     OW15211   2.435   6.617   5.477
 4771SOL    HW115212   2.427   6.670   5.562
 4771SOL    HW215213   2.393   6.528   5.490
 4772SOL     OW15214   2.341   6.017   1.721
 4772SOL    HW115215   2.276   6.092   1.709
 4772SOL    HW215216   2.296   5.942   1.769
 4773SOL     OW15217   2.157   4.963   5.272
 4773SOL    HW115218   2.163   5.020   5.190
 4773SOL    HW215219   2.167   5.021   5.353
 4774SOL     OW15220   1.430   3.879   0.342
 4774SOL    HW115221   1.387   3.802   0.295
 4774SOL    HW215222   1.442   3.856   0.439
 4775SOL     OW15223   6.132   6.627   4.905
 4775SOL    HW115224   6.042   6.668   4.920
 4775SOL    HW215225   6.121   6.536   4.865
 4776SOL     OW15226   0.895   0.942   6.005
 4776SOL    HW115227   0.881   0.860   6.061
 4776SOL    HW215228   0.863   0.925   5.912
 4777SOL     OW15229   0.987   6.189   1.441
 4777SOL    HW115230   0.911   6.223   1.496
 4777SOL    HW215231   1.071   6.187   1.496
 4778SOL     OW15232   1.619   2.740   5.716
 4778SOL    HW115233   1.643   2.823   5.768
 4778SOL    HW215234   1.664   2.743   5.627
 4779SOL     OW15235   5.144   1.077   3.690
 4779SOL    HW115236   5.124   1.128   3.773
 4779SOL    HW215237   5.162   1.140   3.615
 4780SOL     OW15238   6.439   2.873   5.019
 4780SOL    HW115239   6.483   2.920   4.942
 4780SOL    HW215240   6.502   2.804   5.056
 4781SOL     OW15241   2.393   6.271   3.053
 4781SOL    HW115242   2.374   6.252   2.957
 4781SOL    HW215243   2.479   6.227   3.079
 4782SOL     OW15244   6.553   5.774   4.422
 4782SOL    HW115245   6.645   5.790   4.388
 4782SOL    HW215246   6.525   5.680   4.400
 4783SOL     OW15247   6.307   3.117   1.257
 4783SOL    HW115248   6.346   3.140   1.346
 4783SOL    HW215249   6.235   3.182   1.234
 4784SOL     OW15250   5.223   2.339   6.181
 4784SOL    HW115251   5.152   2.336   6.110
 4784SOL    HW215252   5.223   2.429   6.224
 4785SOL     OW15253   0.447   5.698   4.080
 4785SOL    HW115254   0.478   5.725   4.172
 4785SOL    HW215255   0.348   5.687   4.080
 4786SOL     OW15256   2.208   6.277   0.511
 4786SOL    HW115257   2.250   6.312   0.427
 4786SOL    HW215258   2.274   6.218   0.558
 4787SOL     OW15259   3.395   1.107   4.668
 4787SOL    HW115260   3.331   1.151   4.605
 4787SOL    HW215261   3.349   1.089   4.755
 4788SOL     OW15262   5.734   6.140   6.662
 4788SOL    HW115263   5.732   6.219   6.601
 4788SOL    HW215264   5.818   6.142   6.717
 4789SOL     OW15265   5.281   0.470   2.533
 4789SOL    HW115266   5.332   0.483   2.618
 4789SOL    HW215267   5.334   0.507   2.456
 4790SOL     OW15268   6.483   2.017   4.849
 4790SOL    HW115269   6.454   2.084   4.917
 4790SOL    HW215270   6.469   2.055   4.757
 4791SOL     OW15271   7.022   1.822   0.015
 4791SOL    HW115272   6.983   1.892   6.979
 4791SOL    HW215273   0.041   1.751   6.982
 4792SOL     OW15274   2.030   3.599   3.437
 4792SOL    HW115275   1.934   3.611   3.410
 4792SOL    HW215276   2.055   3.503   3.430
 4793SOL     OW15277   0.669   3.515   5.637
 4793SOL    HW115278   0.627   3.600   5.668
 4793SOL    HW215279   0.679   3.453   5.715
 4794SOL     OW15280   4.466   0.766   3.900
 4794SOL    HW115281   4.513   0.854   3.889
 4794SOL    HW215282   4.412   0.746   3.819
 4795SOL     OW15283   0.628   0.743   5.557
 4795SOL    HW115284   0.699   0.680   5.588
 4795SOL    HW215285   0.538   0.707   5.583
 4796SOL     OW15286   3.892   1.526   5.072
 4796SOL    HW115287   3.826   1.452   5.059
 4796SOL    HW215288   3.939   1.514   5.160
 4797SOL     OW15289   0.903   5.637   4.828
 4797SOL    HW115290   0.944   5.575   4.762
 4797SOL    HW215291   0.811   5.605   4.851
 4798SOL     OW15292   4.478   4.558   6.442
 4798SOL    HW115293   4.521   4.572   6.531
 4798SOL    HW215294   4.548   4.565   6.370
 4799SOL     OW15295   3.454   2.779   6.249
 4799SOL    HW115296   3.488   2.685   6.260
 4799SOL    HW215297   3.362   2.785   6.289
 4800SOL     OW15298   0.925   4.913   0.552
 4800SOL    HW115299   0.889   4.883   0.464
 4800SOL    HW215300   0.901   4.847   0.623
 4801SOL     OW15301   4.944   2.632   1.918
 4801SOL    HW115302   4.930   2.691   1.838
 4801SOL    HW215303   4.867   2.642   1.981
 4802SOL     OW15304   6.954   6.857   2.686
 4802SOL    HW115305   6.980   6.891   2.776
 4802SOL    HW215306   6.868   6.806   2.693
 4803SOL     OW15307   5.508   3.707   6.151
 4803SOL    HW115308   5.419   3.752   6.150
 4803SOL    HW215309   5.504   3.624   6.095
 4804SOL     OW15310   5.426   1.458   0.651
 4804SOL    HW115311   5.499   1.515   0.614
 4804SOL    HW215312   5.416   1.375   0.595
 4805SOL     OW15313   6.340   1.960   0.911
 4805SOL    HW115314   6.260   1.970   0.851
 4805SOL    HW215315   6.319   2.000   1.000
 4806SOL     OW15316   0.921   0.990   2.994
 4806SOL    HW115317   0.894   1.075   2.948
 4806SOL    HW215318   1.013   1.000   3.031
 4807SOL     OW15319   0.986   3.040   6.019
 4807SOL    HW115320   0.895   3.079   6.036
 4807SOL    HW215321   0.994   2.953   6.068
 4808SOL     OW15322   3.928   5.768   0.621
 4808SOL    HW115323   4.004   5.724   0.574
 4808SOL    HW215324   3.863   5.805   0.554
 4809SOL     OW15325   3.594   4.918   1.688
 4809SOL    HW115326   3.542   4.947   1.769
 4809SOL    HW215327   3.545   4.946   1.606
 4810SOL     OW15328   0.582   3.876   3.617
 4810SOL    HW115329   0.680   3.892   3.605
 4810SOL    HW215330   0.531   3.938   3.558
 4811SOL     OW15331   2.876   3.759   4.935
 4811SOL    HW115332   2.797   3.729   4.881
 4811SOL    HW215333   2.915   3.842   4.894
 4812SOL     OW15334   0.156   0.226   2.517
 4812SOL    HW115335   0.118   0.277   2.594
 4812SOL    HW215336   0.252   0.204   2.536
 4813SOL     OW15337   6.155   1.592   6.071
 4813SOL    HW115338   6.204   1.520   6.120
 4813SOL    HW215339   6.073   1.553   6.029
 4814SOL     OW15340   6.817   4.051   1.580
 4814SOL    HW115341   6.849   4.112   1.653
 4814SOL    HW215342   6.730   4.086   1.545
 4815SOL     OW15343   5.150   5.332   2.995
 4815SOL    HW115344   5.057   5.316   3.026
 4815SOL    HW215345   5.149   5.363   2.900
 4816SOL     OW15346   1.906   0.264   1.974
 4816SOL    HW115347   1.934   0.204   2.049
 4816SOL    HW215348   1.987   0.309   1.936
 4817SOL     OW15349   4.374   1.509   0.823
 4817SOL    HW115350   4.322   1.571   0.764
 4817SOL    HW215351   4.434   1.452   0.767
 4818SOL     OW15352   3.437   0.183   5.028
 4818SOL    HW115353   3.446   0.217   4.934
 4818SOL    HW215354   3.343   0.197   5.059
 4819SOL     OW15355   2.724   0.625   1.107
 4819SOL    HW115356   2.665   0.698   1.141
 4819SOL    HW215357   2.668   0.548   1.075
 4820SOL     OW15358   6.742   4.109   2.094
 4820SOL    HW115359   6.665   4.171   2.078
 4820SOL    HW215360   6.815   4.129   2.029
 4821SOL     OW15361   6.620   4.751   1.328
 4821SOL    HW115362   6.523   4.764   1.306
 4821SOL    HW215363   6.643   4.654   1.320
 4822SOL     OW15364   1.820   4.067   3.382
 4822SOL    HW115365   1.886   4.078   3.308
 4822SOL    HW215366   1.833   4.139   3.449
 4823SOL     OW15367   0.932   0.524   4.761
 4823SOL    HW115368   0.863   0.481   4.704
 4823SOL    HW215369   1.006   0.559   4.704
 4824SOL     OW15370   5.016   2.650   2.722
 4824SOL    HW115371   4.997   2.605   2.809
 4824SOL    HW215372   5.115   2.656   2.708
 4825SOL     OW15373   0.748   3.836   2.666
 4825SOL    HW115374   0.698   3.784   2.597
 4825SOL    HW215375   0.768   3.777   2.744
 4826SOL     OW15376   0.112   5.812   0.918
 4826SOL    HW115377   0.148   5.800   1.010
 4826SOL    HW215378   0.085   5.908   0.905
 4827SOL     OW15379   4.831   0.538   0.944
 4827SOL    HW115380   4.878   0.522   0.857
 4827SOL    HW215381   4.886   0.601   1.000
 4828SOL     OW15382   5.148   3.579   1.254
 4828SOL    HW115383   5.246   3.569   1.237
 4828SOL    HW215384   5.128   3.675   1.276
 4829SOL     OW15385   3.186   1.400   6.092
 4829SOL    HW115386   3.249   1.462   6.045
 4829SOL    HW215387   3.238   1.323   6.131
 4830SOL     OW15388   4.278   6.859   4.573
 4830SOL    HW115389   4.341   6.850   4.496
 4830SOL    HW215390   4.319   6.917   4.644
 4831SOL     OW15391   6.317   4.601   5.664
 4831SOL    HW115392   6.318   4.567   5.571
 4831SOL    HW215393   6.262   4.684   5.669
 4832SOL     OW15394   2.590   3.373   5.860
 4832SOL    HW115395   2.495   3.357   5.885
 4832SOL    HW215396   2.646   3.382   5.943
 4833SOL     OW15397   3.868   1.296   2.748
 4833SOL    HW115398   3.811   1.318   2.827
 4833SOL    HW215399   3.944   1.238   2.776
 4834SOL     OW15400   5.003   1.582   2.118
 4834SOL    HW115401   5.080   1.520   2.126
 4834SOL    HW215402   4.966   1.578   2.025
 4835SOL     OW15403   2.021   6.975   6.925
 4835SOL    HW115404   2.039   0.038   6.972
 4835SOL    HW215405   2.108   6.935   6.894
 4836SOL     OW15406   4.901   2.086   4.299
 4836SOL    HW115407   4.963   2.035   4.359
 4836SOL    HW215408   4.955   2.137   4.231
 4837SOL     OW15409   2.450   2.988   0.172
 4837SOL    HW115410   2.357   2.951   0.175
 4837SOL    HW215411   2.447   3.086   0.194
 4838SOL     OW15412   3.576   4.975   2.111
 4838SOL    HW115413   3.513   4.948   2.183
 4838SOL    HW215414   3.589   4.898   2.048
 4839SOL     OW15415   0.284   5.137   6.062
 4839SOL    HW115416   0.242   5.120   6.151
 4839SOL    HW215417   0.381   5.112   6.066
 4840SOL     OW15418   6.762   6.202   0.074
 4840SOL    HW115419   6.823   6.260   0.128
 4840SOL    HW215420   6.811   6.120   0.045
 4841SOL     OW15421   3.033   5.257   2.280
 4841SOL    HW115422   3.117   5.304   2.252
 4841SOL    HW215423   2.995   5.302   2.361
 4842SOL     OW15424   4.899   6.048   1.296
 4842SOL    HW115425   4.991   6.030   1.260
 4842SOL    HW215426   4.905   6.071   1.393
 4843SOL     OW15427   6.582   3.635   0.176
 4843SOL    HW115428   6.661   3.574   0.167
 4843SOL    HW215429   6.545   3.627   0.268
 4844SOL     OW15430   5.880   2.335   6.270
 4844SOL    HW115431   5.951   2.343   6.340
 4844SOL    HW215432   5.796   2.379   6.301
 4845SOL     OW15433   5.767   5.134   4.067
 4845SOL    HW115434   5.803   5.161   3.978
 4845SOL    HW215435   5.706   5.206   4.102
 4846SOL     OW15436   1.412   3.128   1.030
 4846SOL    HW115437   1.482   3.185   0.987
 4846SOL    HW215438   1.419   3.035   0.995
 4847SOL     OW15439   3.613   2.099   5.049
 4847SOL    HW115440   3.665   2.079   4.966
 4847SOL    HW215441   3.516   2.097   5.029
 4848SOL     OW15442   2.757   1.900   2.789
 4848SOL    HW115443   2.749   1.802   2.773
 4848SOL    HW215444   2.717   1.950   2.713
 4849SOL     OW15445   0.733   0.417   0.320
 4849SOL    HW115446   0.725   0.373   0.410
 4849SOL    HW215447   0.767   0.510   0.331
 4850SOL     OW15448   4.222   0.398   1.741
 4850SOL    HW115449   4.149   0.452   1.783
 4850SOL    HW215450   4.309   0.420   1.784
 4851SOL     OW15451   4.565   6.430   5.165
 4851SOL    HW115452   4.543   6.503   5.230
 4851SOL    HW215453   4.511   6.442   5.082
 4852SOL     OW15454   2.168   0.880   6.780
 4852SOL    HW115455   2.143   0.975   6.758
 4852SOL    HW215456   2.160   0.824   6.697
 4853SOL     OW15457   3.667   1.419   2.234
 4853SOL    HW115458   3.730   1.363   2.287
 4853SOL    HW215459   3.719   1.484   2.178
 4854SOL     OW15460   5.255   6.433   2.252
 4854SOL    HW115461   5.200   6.405   2.173
 4854SOL    HW215462   5.213   6.512   2.296
 4855SOL     OW15463   6.242   1.503   2.295
 4855SOL    HW115464   6.186   1.496   2.377
 4855SOL    HW215465   6.262   1.599   2.277
 4856SOL     OW15466   2.620   4.809   3.857
 4856SOL    HW115467   2.645   4.758   3.774
 4856SOL    HW215468   2.703   4.846   3.899
 4857SOL     OW15469   0.442   2.047   5.743
 4857SOL    HW115470   0.513   2.090   5.799
 4857SOL    HW215471   0.352   2.070   5.779
 4858SOL     OW15472   1.981   2.262   4.414
 4858SOL    HW115473   1.948   2.346   4.459
 4858SOL    HW215474   1.990   2.189   4.482
 4859SOL     OW15475   1.825   5.819   4.965
 4859SOL    HW115476   1.793   5.912   4.980
 4859SOL    HW215477   1.750   5.755   4.979
 4860SOL     OW15478   4.999   4.997   1.803
 4860SOL    HW115479   4.982   4.969   1.708
 4860SOL    HW215480   5.091   5.035   1.811
 4861SOL     OW15481   4.945   4.193   5.360
 4861SOL    HW115482   4.927   4.099   5.387
 4861SOL    HW215483   4.859   4.237   5.334
 4862SOL     OW15484   2.309   5.920   2.353
 4862SOL    HW115485   2.306   5.999   2.291
 4862SOL    HW215486   2.246   5.850   2.320
 4863SOL     OW15487   5.852   4.097   0.056
 4863SOL    HW115488   5.815   4.190   0.052
 4863SOL    HW215489   5.823   4.045   6.999
 4864SOL     OW15490   2.945   1.305   3.086
 4864SOL    HW115491   3.008   1.342   3.017
 4864SOL    HW215492   2.960   1.350   3.173
 4865SOL     OW15493   2.654   5.761   5.000
 4865SOL    HW115494   2.581   5.753   4.932
 4865SOL    HW215495   2.627   5.713   5.083
 4866SOL     OW15496   6.705   4.001   1.263
 4866SOL    HW115497   6.620   3.950   1.255
 4866SOL    HW215498   6.717   4.059   1.182
 4867SOL     OW15499   4.616   6.597   2.974
 4867SOL    HW115500   4.618   6.537   2.893
 4867SOL    HW215501   4.661   6.683   2.952
 4868SOL     OW15502   6.656   4.426   1.613
 4868SOL    HW115503   6.755   4.419   1.626
 4868SOL    HW215504   6.617   4.485   1.685
 4869SOL     OW15505   0.638   1.668   6.253
 4869SOL    HW115506   0.692   1.734   6.202
 4869SOL    HW215507   0.554   1.711   6.286
 4870SOL     OW15508   0.903   5.998   1.787
 4870SOL    HW115509   0.918   6.058   1.866
 4870SOL    HW215510   0.807   6.005   1.759
 4871SOL     OW15511   1.634   0.857   4.379
 4871SOL    HW115512   1.588   0.889   4.296
 4871SOL    HW215513   1.567   0.848   4.453
 4872SOL     OW15514   6.701   6.920   3.083
 4872SOL    HW115515   6.664   6.847   3.140
 4872SOL    HW215516   6.696   7.007   3.133
 4873SOL     OW15517   0.314   6.352   5.012
 4873SOL    HW115518   0.356   6.342   5.103
 4873SOL    HW215519   0.372   6.308   4.944
 4874SOL     OW15520   4.688   2.855   3.471
 4874SOL    HW115521   4.719   2.927   3.533
 4874SOL    HW215522   4.681   2.891   3.378
 4875SOL     OW15523   5.250   6.583   6.707
 4875SOL    HW115524   5.200   6.552   6.788
 4875SOL    HW215525   5.240   6.682   6.698
 4876SOL     OW15526   1.526   1.630   3.013
 4876SOL    HW115527   1.540   1.721   3.052
 4876SOL    HW215528   1.542   1.633   2.915
 4877SOL     OW15529   0.867   1.046   4.315
 4877SOL    HW115530   0.795   0.986   4.351
 4877SOL    HW215531   0.890   1.017   4.222
 4878SOL     OW15532   6.538   1.726   2.368
 4878SOL    HW115533   6.568   1.643   2.322
 4878SOL    HW215534   6.616   1.787   2.383
 4879SOL     OW15535   4.664   1.827   2.783
 4879SOL    HW115536   4.571   1.850   2.756
 4879SOL    HW215537   4.713   1.788   2.704
 4880SOL     OW15538   6.045   2.916   5.992
 4880SOL    HW115539   5.983   2.840   5.970
 4880SOL    HW215540   6.076   2.908   6.086
 4881SOL     OW15541   1.815   2.897   2.125
 4881SOL    HW115542   1.819   2.798   2.139
 4881SOL    HW215543   1.894   2.925   2.071
 4882SOL     OW15544   4.497   2.484   5.159
 4882SOL    HW115545   4.431   2.412   5.179
 4882SOL    HW215546   4.484   2.517   5.065
 4883SOL     OW15547   5.591   3.533   0.700
 4883SOL    HW115548   5.565   3.629   0.708
 4883SOL    HW215549   5.690   3.527   0.686
 4884SOL     OW15550   1.647   6.217   1.814
 4884SOL    HW115551   1.673   6.121   1.821
 4884SOL    HW215552   1.560   6.225   1.766
 4885SOL     OW15553   1.817   4.979   1.017
 4885SOL    HW115554   1.734   4.966   1.072
 4885SOL    HW215555   1.800   4.948   0.924
 4886SOL     OW15556   3.773   1.123   2.132
 4886SOL    HW115557   3.805   1.155   2.043
 4886SOL    HW215558   3.677   1.096   2.125
 4887SOL     OW15559   1.055   6.662   1.942
 4887SOL    HW115560   1.147   6.625   1.932
 4887SOL    HW215561   1.044   6.698   2.035
 4888SOL     OW15562   3.257   6.720   2.913
 4888SOL    HW115563   3.355   6.739   2.904
 4888SOL    HW215564   3.239   6.684   3.005
 4889SOL     OW15565   6.780   2.327   3.951
 4889SOL    HW115566   6.798   2.260   4.024
 4889SOL    HW215567   6.758   2.415   3.993
 4890SOL     OW15568   0.778   0.674   5.190
 4890SOL    HW115569   0.864   0.725   5.183
 4890SOL    HW215570   0.709   0.732   5.234
 4891SOL     OW15571   2.529   5.357   6.234
 4891SOL    HW115572   2.503   5.268   6.196
 4891SOL    HW215573   2.482   5.430   6.184
 4892SOL     OW15574   5.889   6.585   2.412
 4892SOL    HW115575   5.842   6.537   2.338
 4892SOL    HW215576   5.823   6.612   2.482
 4893SOL     OW15577   0.185   3.888   1.602
 4893SOL    HW115578   0.205   3.938   1.685
 4893SOL    HW215579   0.251   3.913   1.531
 4894SOL     OW15580   3.879   6.533   2.281
 4894SOL    HW115581   3.952   6.465   2.292
 4894SOL    HW215582   3.792   6.487   2.270
 4895SOL     OW15583   6.883   5.149   3.543
 4895SOL    HW115584   6.951   5.213   3.578
 4895SOL    HW215585   6.872   5.073   3.608
 4896SOL     OW15586   2.001   4.863   3.564
 4896SOL    HW115587   2.041   4.955   3.564
 4896SOL    HW215588   1.937   4.855   3.487
 4897SOL     OW15589   1.839   5.833   5.666
 4897SOL    HW115590   1.910   5.780   5.620
 4897SOL    HW215591   1.765   5.773   5.696
 4898SOL     OW15592   3.720   2.017   4.359
 4898SOL    HW115593   3.657   1.971   4.297
 4898SOL    HW215594   3.672   2.043   4.442
 4899SOL     OW15595   6.981   5.180   1.944
 4899SOL    HW115596   6.967   5.272   1.980
 4899SOL    HW215597   7.015   5.121   2.017
 4900SOL     OW15598   4.236   6.054   5.648
 4900SOL    HW115599   4.255   6.054   5.549
 4900SOL    HW215600   4.282   6.133   5.690
 4901SOL     OW15601   0.635   1.487   6.019
 4901SOL    HW115602   0.624   1.545   6.100
 4901SOL    HW215603   0.724   1.442   6.023
 4902SOL     OW15604   2.283   0.509   6.500
 4902SOL    HW115605   2.329   0.535   6.415
 4902SOL    HW215606   2.272   0.410   6.503
 4903SOL     OW15607   5.411   5.397   1.392
 4903SOL    HW115608   5.501   5.420   1.356
 4903SOL    HW215609   5.340   5.442   1.337
 4904SOL     OW15610   1.158   0.841   0.166
 4904SOL    HW115611   1.196   0.930   0.188
 4904SOL    HW215612   1.059   0.843   0.179
 4905SOL     OW15613   3.517   6.705   3.189
 4905SOL    HW115614   3.522   6.623   3.132
 4905SOL    HW215615   3.530   6.786   3.131
 4906SOL     OW15616   5.014   3.026   5.044
 4906SOL    HW115617   4.932   2.969   5.042
 4906SOL    HW215618   5.014   3.088   4.966
 4907SOL     OW15619   4.862   1.406   0.076
 4907SOL    HW115620   4.819   1.344   0.010
 4907SOL    HW215621   4.829   1.499   0.061
 4908SOL     OW15622   4.931   0.155   6.946
 4908SOL    HW115623   4.910   0.119   6.855
 4908SOL    HW215624   4.850   0.202   6.983
 4909SOL     OW15625   5.974   4.189   3.388
 4909SOL    HW115626   5.976   4.092   3.411
 4909SOL    HW215627   5.966   4.243   3.472
 4910SOL     OW15628   4.671   1.162   6.024
 4910SOL    HW115629   4.571   1.159   6.030
 4910SOL    HW215630   4.709   1.170   6.117
 4911SOL     OW15631   1.744   2.068   2.049
 4911SOL    HW115632   1.647   2.089   2.057
 4911SOL    HW215633   1.777   2.029   2.135
 4912SOL     OW15634   6.131   2.071   5.018
 4912SOL    HW115635   6.133   1.984   5.066
 4912SOL    HW215636   6.082   2.060   4.931
 4913SOL     OW15637   6.125   2.801   4.719
 4913SOL    HW115638   6.103   2.879   4.660
 4913SOL    HW215639   6.183   2.736   4.669
 4914SOL     OW15640   4.696   0.978   4.222
 4914SOL    HW115641   4.626   0.998   4.154
 4914SOL    HW215642   4.775   1.038   4.207
 4915SOL     OW15643   3.452   5.872   5.543
 4915SOL    HW115644   3.542   5.909   5.563
 4915SOL    HW215645   3.386   5.906   5.610
 4916SOL     OW15646   5.926   1.283   3.774
 4916SOL    HW115647   5.969   1.346   3.838
 4916SOL    HW215648   5.979   1.198   3.770
 4917SOL     OW15649   4.313   6.237   0.784
 4917SOL    HW115650   4.255   6.273   0.857
 4917SOL    HW215651   4.322   6.306   0.712
 4918SOL     OW15652   6.586   5.466   1.949
 4918SOL    HW115653   6.656   5.536   1.937
 4918SOL    HW215654   6.501   5.508   1.981
 4919SOL     OW15655   4.088   3.607   2.021
 4919SOL    HW115656   4.141   3.638   1.941
 4919SOL    HW215657   4.066   3.510   2.011
 4920SOL     OW15658   6.212   1.299   4.985
 4920SOL    HW115659   6.172   1.369   4.926
 4920SOL    HW215660   6.301   1.272   4.948
 4921SOL     OW15661   0.437   6.925   1.081
 4921SOL    HW115662   0.523   6.874   1.083
 4921SOL    HW215663   0.381   6.898   1.159
 4922SOL     OW15664   3.851   2.142   5.518
 4922SOL    HW115665   3.784   2.149   5.444
 4922SOL    HW215666   3.939   2.176   5.487
 4923SOL     OW15667   3.372   1.786   3.096
 4923SOL    HW115668   3.382   1.854   3.025
 4923SOL    HW215669   3.288   1.803   3.147
 4924SOL     OW15670   2.697   1.746   6.275
 4924SOL    HW115671   2.717   1.707   6.185
 4924SOL    HW215672   2.780   1.745   6.330
 4925SOL     OW15673   4.784   7.009   3.160
 4925SOL    HW115674   4.839   0.005   3.078
 4925SOL    HW215675   4.687   7.009   3.135
 4926SOL     OW15676   5.457   2.167   1.810
 4926SOL    HW115677   5.462   2.221   1.726
 4926SOL    HW215678   5.476   2.071   1.790
 4927SOL     OW15679   3.582   1.625   6.686
 4927SOL    HW115680   3.488   1.650   6.710
 4927SOL    HW215681   3.601   1.532   6.718
 4928SOL     OW15682   0.980   2.646   1.224
 4928SOL    HW115683   0.940   2.612   1.139
 4928SOL    HW215684   0.973   2.576   1.294
 4929SOL     OW15685   6.916   0.238   3.782
 4929SOL    HW115686   6.862   0.168   3.735
 4929SOL    HW215687   7.013   0.222   3.766
 4930SOL     OW15688   5.809   6.640   1.799
 4930SOL    HW115689   5.777   6.695   1.876
 4930SOL    HW215690   5.823   6.700   1.719
 4931SOL     OW15691   6.378   6.027   1.748
 4931SOL    HW115692   6.333   6.056   1.664
 4931SOL    HW215693   6.389   5.927   1.747
 4932SOL     OW15694   3.110   3.401   2.056
 4932SOL    HW115695   3.059   3.467   2.111
 4932SOL    HW215696   3.071   3.396   1.964
 4933SOL     OW15697   3.254   6.168   4.732
 4933SOL    HW115698   3.194   6.095   4.700
 4933SOL    HW215699   3.337   6.169   4.677
 4934SOL     OW15700   3.668   5.386   3.264
 4934SOL    HW115701   3.704   5.479   3.260
 4934SOL    HW215702   3.702   5.333   3.186
 4935SOL     OW15703   0.561   1.720   6.821
 4935SOL    HW115704   0.616   1.684   6.746
 4935SOL    HW215705   0.596   1.686   6.908
 4936SOL     OW15706   2.618   4.119   1.095
 4936SOL    HW115707   2.712   4.096   1.119
 4936SOL    HW215708   2.557   4.043   1.119
 4937SOL     OW15709   5.050   3.499   4.835
 4937SOL    HW115710   5.143   3.527   4.859
 4937SOL    HW215711   4.990   3.511   4.915
 4938SOL     OW15712   4.146   5.520   6.031
 4938SOL    HW115713   4.060   5.479   6.001
 4938SOL    HW215714   4.212   5.519   5.956
 4939SOL     OW15715   4.684   3.263   5.515
 4939SOL    HW115716   4.591   3.301   5.517
 4939SOL    HW215717   4.690   3.194   5.443
 4940SOL     OW15718   2.093   6.150   4.810
 4940SOL    HW115719   2.188   6.168   4.786
 4940SOL    HW215720   2.089   6.075   4.876
 4941SOL     OW15721   4.940   1.154   0.233
 4941SOL    HW115722   4.933   1.247   0.198
 4941SOL    HW215723   4.981   1.156   0.324
 4942SOL     OW15724   5.034   3.617   5.208
 4942SOL    HW115725   5.115   3.583   5.160
 4942SOL    HW215726   4.958   3.623   5.144
 4943SOL     OW15727   4.163   2.248   0.964
 4943SOL    HW115728   4.108   2.256   1.047
 4943SOL    HW215729   4.137   2.164   0.915
 4944SOL     OW15730   1.988   4.699   2.454
 4944SOL    HW115731   1.957   4.766   2.522
 4944SOL    HW215732   2.077   4.727   2.419
 4945SOL     OW15733   0.109   6.322   3.710
 4945SOL    HW115734   0.010   6.322   3.702
 4945SOL    HW215735   0.135   6.358   3.799
 4946SOL     OW15736   1.501   3.802   2.315
 4946SOL    HW115737   1.598   3.807   2.292
 4946SOL    HW215738   1.477   3.878   2.375
 4947SOL     OW15739   0.564   6.881   0.745
 4947SOL    HW115740   0.556   6.789   0.783
 4947SOL    HW215741   0.595   6.875   0.650
 4948SOL     OW15742   2.514   1.261   2.280
 4948SOL    HW115743   2.423   1.220   2.266
 4948SOL    HW215744   2.522   1.289   2.376
 4949SOL     OW15745   5.724   1.047   5.109
 4949SOL    HW115746   5.630   1.071   5.134
 4949SOL    HW215747   5.738   0.949   5.125
 4950SOL     OW15748   2.856   5.275   5.146
 4950SOL    HW115749   2.781   5.307   5.089
 4950SOL    HW215750   2.839   5.182   5.176
 4951SOL     OW15751   4.199   1.826   4.524
 4951SOL    HW115752   4.287   1.781   4.510
 4951SOL    HW215753   4.166   1.863   4.437
 4952SOL     OW15754   0.220   6.401   5.607
 4952SOL    HW115755   0.265   6.380   5.694
 4952SOL    HW215756   0.282   6.381   5.531
 4953SOL     OW15757   1.786   5.744   1.994
 4953SOL    HW115758   1.753   5.697   2.076
 4953SOL    HW215759   1.874   5.706   1.968
 4954SOL     OW15760   5.492   5.596   6.678
 4954SOL    HW115761   5.454   5.577   6.769
 4954SOL    HW215762   5.584   5.635   6.688
 4955SOL     OW15763   1.718   6.744   1.504
 4955SOL    HW115764   1.793   6.798   1.465
 4955SOL    HW215765   1.718   6.653   1.463
 4956SOL     OW15766   4.154   6.936   4.884
 4956SOL    HW115767   4.245   6.969   4.910
 4956SOL    HW215768   4.159   6.839   4.861
 4957SOL     OW15769   0.937   0.503   3.787
 4957SOL    HW115770   0.977   0.578   3.840
 4957SOL    HW215771   0.902   0.538   3.700
 4958SOL     OW15772   0.725   5.747   0.013
 4958SOL    HW115773   0.668   5.721   0.092
 4958SOL    HW215774   0.721   5.846   7.023
 4959SOL     OW15775   0.885   0.994   1.603
 4959SOL    HW115776   0.944   1.046   1.665
 4959SOL    HW215777   0.794   0.986   1.643
 4960SOL     OW15778   3.796   6.445   4.719
 4960SOL    HW115779   3.698   6.444   4.698
 4960SOL    HW215780   3.848   6.434   4.634
 4961SOL     OW15781   4.960   0.848   4.794
 4961SOL    HW115782   5.048   0.890   4.770
 4961SOL    HW215783   4.957   0.754   4.759
 4962SOL     OW15784   6.739   2.451   1.455
 4962SOL    HW115785   6.838   2.459   1.442
 4962SOL    HW215786   6.714   2.501   1.539
 4963SOL     OW15787   0.570   5.023   1.742
 4963SOL    HW115788   0.483   4.996   1.782
 4963SOL    HW215789   0.601   4.954   1.678
 4964SOL     OW15790   3.245   6.560   3.436
 4964SOL    HW115791   3.156   6.522   3.461
 4964SOL    HW215792   3.235   6.621   3.357
 4965SOL     OW15793   6.247   0.534   4.494
 4965SOL    HW115794   6.313   0.550   4.419
 4965SOL    HW215795   6.294   0.542   4.582
 4966SOL     OW15796   3.030   4.999   4.796
 4966SOL    HW115797   2.951   4.939   4.806
 4966SOL    HW215798   3.061   5.029   4.887
 4967SOL     OW15799   3.839   2.600   5.959
 4967SOL    HW115800   3.811   2.682   6.010
 4967SOL    HW215801   3.768   2.530   5.967
 4968SOL     OW15802   6.114   3.386   5.370
 4968SOL    HW115803   6.093   3.289   5.354
 4968SOL    HW215804   6.182   3.417   5.305
 4969SOL     OW15805   1.520   0.978   1.873
 4969SOL    HW115806   1.487   1.071   1.858
 4969SOL    HW215807   1.577   0.950   1.795
 4970SOL     OW15808   1.006   1.919   4.993
 4970SOL    HW115809   1.026   1.843   5.055
 4970SOL    HW215810   1.091   1.963   4.967
 4971SOL     OW15811   5.925   6.619   3.577
 4971SOL    HW115812   5.980   6.573   3.507
 4971SOL    HW215813   5.841   6.569   3.592
 4972SOL     OW15814   1.948   3.473   0.308
 4972SOL    HW115815   1.960   3.500   0.212
 4972SOL    HW215816   1.903   3.547   0.358
 4973SOL     OW15817   5.968   6.014   2.517
 4973SOL    HW115818   6.050   6.065   2.491
 4973SOL    HW215819   5.898   6.078   2.549
 4974SOL     OW15820   5.753   6.411   2.252
 4974SOL    HW115821   5.749   6.313   2.267
 4974SOL    HW215822   5.665   6.443   2.216
 4975SOL     OW15823   5.915   5.633   0.630
 4975SOL    HW115824   5.948   5.702   0.565
 4975SOL    HW215825   5.910   5.674   0.721
 4976SOL     OW15826   3.627   0.679   5.191
 4976SOL    HW115827   3.678   0.759   5.159
 4976SOL    HW215828   3.670   0.643   5.274
 4977SOL     OW15829   3.402   3.041   0.766
 4977SOL    HW115830   3.436   2.991   0.686
 4977SOL    HW215831   3.317   3.089   0.742
 4978SOL     OW15832   5.257   3.097   6.327
 4978SOL    HW115833   5.316   3.160   6.277
 4978SOL    HW215834   5.313   3.028   6.372
 4979SOL     OW15835   1.036   6.964   5.427
 4979SOL    HW115836   1.101   7.011   5.367
 4979SOL    HW215837   1.060   6.983   5.522
 4980SOL     OW15838   3.606   5.176   2.374
 4980SOL    HW115839   3.558   5.262   2.391
 4980SOL    HW215840   3.670   5.187   2.298
 4981SOL     OW15841   4.186   6.332   5.407
 4981SOL    HW115842   4.248   6.358   5.481
 4981SOL    HW215843   4.239   6.317   5.323
 4982SOL     OW15844   2.551   2.743   0.415
 4982SOL    HW115845   2.498   2.812   0.464
 4982SOL    HW215846   2.538   2.755   0.316
 4983SOL     OW15847   5.293   3.290   4.358
 4983SOL    HW115848   5.259   3.317   4.448
 4983SOL    HW215849   5.256   3.201   4.333
 4984SOL     OW15850   4.930   3.685   3.510
 4984SOL    HW115851   4.871   3.762   3.487
 4984SOL    HW215852   4.891   3.601   3.474
 4985SOL     OW15853   5.281   5.091   2.325
 4985SOL    HW115854   5.292   4.994   2.348
 4985SOL    HW215855   5.278   5.145   2.409
 4986SOL     OW15856   5.112   4.697   2.980
 4986SOL    HW115857   5.087   4.647   3.063
 4986SOL    HW215858   5.053   4.669   2.905
 4987SOL     OW15859   0.214   3.239   1.349
 4987SOL    HW115860   0.206   3.145   1.381
 4987SOL    HW215861   0.280   3.243   1.274
 4988SOL     OW15862   0.664   1.293   4.273
 4988SOL    HW115863   0.639   1.212   4.219
 4988SOL    HW215864   0.628   1.284   4.365
 4989SOL     OW15865   0.145   1.511   0.480
 4989SOL    HW115866   0.141   1.565   0.564
 4989SOL    HW215867   0.143   1.413   0.503
 4990SOL     OW15868   1.345   2.447   5.323
 4990SOL    HW115869   1.283   2.514   5.283
 4990SOL    HW215870   1.434   2.451   5.277
 4991SOL     OW15871   1.172   2.986   4.094
 4991SOL    HW115872   1.137   2.931   4.169
 4991SOL    HW215873   1.263   2.953   4.069
 4992SOL     OW15874   3.488   0.919   5.420
 4992SOL    HW115875   3.564   0.926   5.356
 4992SOL    HW215876   3.480   0.825   5.452
 4993SOL     OW15877   2.859   6.244   3.836
 4993SOL    HW115878   2.953   6.253   3.868
 4993SOL    HW215879   2.848   6.157   3.789
 4994SOL     OW15880   0.427   0.190   2.525
 4994SOL    HW115881   0.501   0.133   2.489
 4994SOL    HW215882   0.406   0.264   2.461
 4995SOL     OW15883   6.106   2.373   6.443
 4995SOL    HW115884   6.105   2.473   6.439
 4995SOL    HW215885   6.197   2.339   6.418
 4996SOL     OW15886   1.228   1.347   3.146
 4996SOL    HW115887   1.222   1.361   3.245
 4996SOL    HW215888   1.161   1.406   3.100
 4997SOL     OW15889   0.200   2.770   3.654
 4997SOL    HW115890   0.236   2.734   3.740
 4997SOL    HW215891   0.235   2.716   3.577
 4998SOL     OW15892   1.357   5.471   4.622
 4998SOL    HW115893   1.282   5.433   4.675
 4998SOL    HW215894   1.327   5.552   4.573
 4999SOL     OW15895   6.010   5.498   1.185
 4999SOL    HW115896   6.099   5.454   1.189
 4999SOL    HW215897   5.975   5.494   1.091
 5000SOL     OW15898   0.003   7.017   4.531
 5000SOL    HW115899   0.041   6.945   4.473
 5000SOL    HW215900   7.022   6.985   4.625
 5001SOL     OW15901   3.412   4.228   5.178
 5001SOL    HW115902   3.477   4.241   5.253
 5001SOL    HW215903   3.321   4.254   5.208
 5002SOL     OW15904   1.832   1.051   1.776
 5002SOL    HW115905   1.796   1.113   1.846
 5002SOL    HW215906   1.757   1.019   1.718
 5003SOL     OW15907   6.311   5.978   2.785
 5003SOL    HW115908   6.380   5.906   2.790
 5003SOL    HW215909   6.348   6.061   2.828
 5004SOL     OW15910   2.922   6.279   6.901
 5004SOL    HW115911   2.844   6.304   6.844
 5004SOL    HW215912   2.952   6.186   6.879
 5005SOL     OW15913   4.553   3.012   0.110
 5005SOL    HW115914   4.643   3.040   0.145
 5005SOL    HW215915   4.549   2.912   0.106
 5006SOL     OW15916   5.055   6.217   4.809
 5006SOL    HW115917   5.099   6.184   4.726
 5006SOL    HW215918   5.066   6.148   4.882
 5007SOL     OW15919   4.026   1.293   5.248
 5007SOL    HW115920   4.051   1.220   5.185
 5007SOL    HW215921   4.086   1.372   5.233
 5008SOL     OW15922   5.948   0.824   3.304
 5008SOL    HW115923   6.003   0.770   3.239
 5008SOL    HW215924   5.983   0.918   3.306
 5009SOL     OW15925   0.666   6.325   3.051
 5009SOL    HW115926   0.644   6.342   2.955
 5009SOL    HW215927   0.683   6.228   3.066
 5010SOL     OW15928   3.839   3.990   4.130
 5010SOL    HW115929   3.832   4.031   4.221
 5010SOL    HW215930   3.768   3.920   4.121
 5011SOL     OW15931   1.065   2.708   2.789
 5011SOL    HW115932   1.086   2.707   2.691
 5011SOL    HW215933   0.975   2.667   2.804
 5012SOL     OW15934   6.876   2.884   6.493
 5012SOL    HW115935   6.808   2.883   6.419
 5012SOL    HW215936   6.830   2.868   6.581
 5013SOL     OW15937   4.232   1.770   6.150
 5013SOL    HW115938   4.136   1.747   6.136
 5013SOL    HW215939   4.251   1.780   6.247
 5014SOL     OW15940   5.690   6.466   0.301
 5014SOL    HW115941   5.668   6.412   0.220
 5014SOL    HW215942   5.730   6.406   0.371
 5015SOL     OW15943   4.478   2.445   3.895
 5015SOL    HW115944   4.500   2.542   3.884
 5015SOL    HW215945   4.554   2.389   3.863
 5016SOL     OW15946   2.381   0.057   2.918
 5016SOL    HW115947   2.443   0.101   2.983
 5016SOL    HW215948   2.289   0.053   2.957
 5017SOL     OW15949   2.424   2.688   1.075
 5017SOL    HW115950   2.487   2.684   0.998
 5017SOL    HW215951   2.381   2.598   1.089
 5018SOL     OW15952   6.125   5.266   3.733
 5018SOL    HW115953   6.085   5.306   3.650
 5018SOL    HW215954   6.219   5.239   3.714
 5019SOL     OW15955   2.054   4.161   0.040
 5019SOL    HW115956   2.105   4.149   6.978
 5019SOL    HW215957   2.059   4.077   0.094
 5020SOL     OW15958   5.204   4.744   6.459
 5020SOL    HW115959   5.294   4.788   6.460
 5020SOL    HW215960   5.161   4.757   6.369
 5021SOL     OW15961   1.785   4.231   6.318
 5021SOL    HW115962   1.832   4.188   6.241
 5021SOL    HW215963   1.784   4.331   6.304
 5022SOL     OW15964   1.440   6.002   0.403
 5022SOL    HW115965   1.487   6.079   0.362
 5022SOL    HW215966   1.386   6.033   0.481
 5023SOL     OW15967   6.283   3.035   2.108
 5023SOL    HW115968   6.304   3.038   2.011
 5023SOL    HW215969   6.298   2.942   2.143
 5024SOL     OW15970   6.262   4.010   4.552
 5024SOL    HW115971   6.195   4.022   4.478
 5024SOL    HW215972   6.294   4.100   4.583
 5025SOL     OW15973   5.266   1.241   3.484
 5025SOL    HW115974   5.335   1.267   3.551
 5025SOL    HW215975   5.249   1.317   3.421
 5026SOL     OW15976   6.821   6.458   4.112
 5026SOL    HW115977   6.908   6.466   4.161
 5026SOL    HW215978   6.780   6.369   4.131
 5027SOL     OW15979   0.740   6.591   3.369
 5027SOL    HW115980   0.821   6.624   3.418
 5027SOL    HW215981   0.767   6.554   3.281
 5028SOL     OW15982   0.298   0.813   3.034
 5028SOL    HW115983   0.357   0.842   2.959
 5028SOL    HW215984   0.353   0.797   3.116
 5029SOL     OW15985   0.193   2.125   1.282
 5029SOL    HW115986   0.277   2.077   1.306
 5029SOL    HW215987   0.159   2.092   1.194
 5030SOL     OW15988   0.742   0.194   6.870
 5030SOL    HW115989   0.695   0.274   6.909
 5030SOL    HW215990   0.757   0.209   6.772
 5031SOL     OW15991   5.547   0.734   4.159
 5031SOL    HW115992   5.483   0.705   4.231
 5031SOL    HW215993   5.594   0.654   4.122
 5032SOL     OW15994   1.730   5.564   1.144
 5032SOL    HW115995   1.694   5.622   1.217
 5032SOL    HW215996   1.659   5.500   1.114
 5033SOL     OW15997   2.468   4.106   5.556
 5033SOL    HW115998   2.523   4.029   5.589
 5033SOL    HW215999   2.417   4.146   5.631
 5034SOL     OW16000   6.587   3.142   1.077
 5034SOL    HW116001   6.500   3.136   1.126
 5034SOL    HW216002   6.578   3.097   0.988
 5035SOL     OW16003   4.868   4.856   0.536
 5035SOL    HW116004   4.904   4.796   0.464
 5035SOL    HW216005   4.885   4.951   0.512
 5036SOL     OW16006   0.841   6.906   1.152
 5036SOL    HW116007   0.899   6.882   1.230
 5036SOL    HW216008   0.777   6.978   1.179
 5037SOL     OW16009   4.339   2.067   4.285
 5037SOL    HW116010   4.353   2.114   4.372
 5037SOL    HW216011   4.246   2.030   4.282
 5038SOL     OW16012   1.481   6.484   5.628
 5038SOL    HW116013   1.435   6.433   5.700
 5038SOL    HW216014   1.455   6.449   5.538
 5039SOL     OW16015   1.971   2.170   5.149
 5039SOL    HW116016   2.041   2.150   5.080
 5039SOL    HW216017   2.005   2.145   5.240
 5040SOL     OW16018   3.372   4.051   5.480
 5040SOL    HW116019   3.353   4.004   5.394
 5040SOL    HW216020   3.459   4.100   5.473
 5041SOL     OW16021   1.336   3.848   1.427
 5041SOL    HW116022   1.411   3.827   1.365
 5041SOL    HW216023   1.262   3.782   1.413
 5042SOL     OW16024   5.251   2.805   6.085
 5042SOL    HW116025   5.248   2.795   5.986
 5042SOL    HW216026   5.175   2.864   6.115
 5043SOL     OW16027   3.410   0.802   3.399
 5043SOL    HW116028   3.372   0.725   3.349
 5043SOL    HW216029   3.420   0.880   3.337
 5044SOL     OW16030   5.810   5.116   3.315
 5044SOL    HW116031   5.802   5.171   3.231
 5044SOL    HW216032   5.792   5.020   3.294
 5045SOL     OW16033   6.524   2.363   6.569
 5045SOL    HW116034   6.607   2.320   6.605
 5045SOL    HW216035   6.458   2.374   6.643
 5046SOL     OW16036   3.500   3.064   5.018
 5046SOL    HW116037   3.463   2.975   4.989
 5046SOL    HW216038   3.522   3.061   5.115
 5047SOL     OW16039   1.031   0.802   2.101
 5047SOL    HW116040   1.006   0.895   2.075
 5047SOL    HW216041   1.077   0.757   2.024
 5048SOL     OW16042   6.660   2.805   1.373
 5048SOL    HW116043   6.585   2.739   1.365
 5048SOL    HW216044   6.699   2.800   1.465
 5049SOL     OW16045   0.737   2.547   2.612
 5049SOL    HW116046   0.786   2.460   2.606
 5049SOL    HW216047   0.674   2.555   2.535
 5050SOL     OW16048   1.144   3.461   2.059
 5050SOL    HW116049   1.086   3.542   2.069
 5050SOL    HW216050   1.113   3.390   2.122
 5051SOL     OW16051   3.140   5.515   0.754
 5051SOL    HW116052   3.079   5.450   0.709
 5051SOL    HW216053   3.088   5.591   0.792
 5052SOL     OW16054   5.521   4.839   1.376
 5052SOL    HW116055   5.459   4.918   1.373
 5052SOL    HW216056   5.467   4.755   1.382
 5053SOL     OW16057   2.534   4.550   0.734
 5053SOL    HW116058   2.509   4.455   0.715
 5053SOL    HW216059   2.520   4.569   0.831
 5054SOL     OW16060   3.623   5.558   4.807
 5054SOL    HW116061   3.557   5.608   4.863
 5054SOL    HW216062   3.645   5.611   4.726
 5055SOL     OW16063   0.970   1.314   5.158
 5055SOL    HW116064   0.889   1.265   5.126
 5055SOL    HW216065   1.019   1.258   5.225
 5056SOL     OW16066   1.107   3.188   5.045
 5056SOL    HW116067   1.110   3.286   5.065
 5056SOL    HW216068   1.188   3.143   5.085
 5057SOL     OW16069   7.011   5.409   3.202
 5057SOL    HW116070   6.972   5.419   3.111
 5057SOL    HW216071   0.031   5.495   3.230
 5058SOL     OW16072   4.633   4.528   6.666
 5058SOL    HW116073   4.620   4.438   6.709
 5058SOL    HW216074   4.592   4.598   6.724
 5059SOL     OW16075   3.322   1.873   3.859
 5059SOL    HW116076   3.381   1.952   3.847
 5059SOL    HW216077   3.244   1.879   3.796
 5060SOL     OW16078   0.757   3.108   5.409
 5060SOL    HW116079   0.675   3.093   5.352
 5060SOL    HW216080   0.793   3.200   5.391
 5061SOL     OW16081   3.645   2.913   5.212
 5061SOL    HW116082   3.723   2.941   5.269
 5061SOL    HW216083   3.679   2.867   5.130
 5062SOL     OW16084   5.127   0.903   2.796
 5062SOL    HW116085   5.145   0.842   2.874
 5062SOL    HW216086   5.180   0.987   2.806
 5063SOL     OW16087   1.043   6.981   2.327
 5063SOL    HW116088   1.141   6.997   2.340
 5063SOL    HW216089   0.992   0.040   2.353
 5064SOL     OW16090   4.592   5.588   0.754
 5064SOL    HW116091   4.492   5.593   0.757
 5064SOL    HW216092   4.630   5.625   0.839
 5065SOL     OW16093   2.608   6.884   2.999
 5065SOL    HW116094   2.509   6.883   3.013
 5065SOL    HW216095   2.628   6.882   2.902
 5066SOL     OW16096   2.514   4.400   1.689
 5066SOL    HW116097   2.435   4.462   1.686
 5066SOL    HW216098   2.500   4.332   1.761
 5067SOL     OW16099   3.886   3.154   1.548
 5067SOL    HW116100   3.817   3.138   1.477
 5067SOL    HW216101   3.976   3.157   1.506
 5068SOL     OW16102   3.055   6.335   0.512
 5068SOL    HW116103   3.109   6.341   0.596
 5068SOL    HW216104   2.980   6.270   0.525
 5069SOL     OW16105   3.225   4.723   6.089
 5069SOL    HW116106   3.173   4.647   6.129
 5069SOL    HW216107   3.298   4.686   6.032
 5070SOL     OW16108   6.312   3.459   3.816
 5070SOL    HW116109   6.358   3.423   3.897
 5070SOL    HW216110   6.232   3.402   3.795
 5071SOL     OW16111   3.034   0.955   3.672
 5071SOL    HW116112   3.037   1.012   3.590
 5071SOL    HW216113   2.939   0.938   3.698
 5072SOL     OW16114   1.161   1.140   0.753
 5072SOL    HW116115   1.153   1.240   0.757
 5072SOL    HW216116   1.222   1.109   0.827
 5073SOL     OW16117   2.920   6.941   2.625
 5073SOL    HW116118   2.937   7.004   2.701
 5073SOL    HW216119   2.982   6.962   2.550
 5074SOL     OW16120   3.466   2.183   1.755
 5074SOL    HW116121   3.451   2.113   1.826
 5074SOL    HW216122   3.551   2.232   1.775
 5075SOL     OW16123   1.031   3.200   6.890
 5075SOL    HW116124   0.948   3.256   6.895
 5075SOL    HW216125   1.068   3.186   6.982
 5076SOL     OW16126   5.795   0.243   6.913
 5076SOL    HW116127   5.720   0.177   6.906
 5076SOL    HW216128   5.815   0.260   7.009
 5077SOL     OW16129   0.937   4.405   3.764
 5077SOL    HW116130   0.984   4.317   3.773
 5077SOL    HW216131   0.896   4.411   3.673
 5078SOL     OW16132   0.322   1.230   3.964
 5078SOL    HW116133   0.254   1.283   4.014
 5078SOL    HW216134   0.288   1.138   3.947
 5079SOL     OW16135   1.539   2.444   6.236
 5079SOL    HW116136   1.494   2.417   6.151
 5079SOL    HW216137   1.633   2.409   6.238
 5080SOL     OW16138   5.913   5.343   6.433
 5080SOL    HW116139   5.991   5.399   6.463
 5080SOL    HW216140   5.828   5.386   6.464
 5081SOL     OW16141   3.018   5.588   5.426
 5081SOL    HW116142   3.078   5.661   5.393
 5081SOL    HW216143   2.940   5.629   5.475
 5082SOL     OW16144   5.877   5.924   1.608
 5082SOL    HW116145   5.838   6.016   1.602
 5082SOL    HW216146   5.935   5.918   1.689
 5083SOL     OW16147   2.315   0.159   3.301
 5083SOL    HW116148   2.241   0.131   3.241
 5083SOL    HW216149   2.403   0.146   3.254
 5084SOL     OW16150   1.287   4.822   5.578
 5084SOL    HW116151   1.327   4.908   5.548
 5084SOL    HW216152   1.320   4.800   5.670
 5085SOL     OW16153   0.237   3.634   6.256
 5085SOL    HW116154   0.289   3.550   6.237
 5085SOL    HW216155   0.296   3.701   6.300
 5086SOL     OW16156   1.939   4.852   2.124
 5086SOL    HW116157   1.896   4.815   2.042
 5086SOL    HW216158   2.019   4.797   2.147
 5087SOL     OW16159   6.413   4.884   2.557
 5087SOL    HW116160   6.505   4.853   2.584
 5087SOL    HW216161   6.345   4.833   2.610
 5088SOL     OW16162   4.510   6.320   1.749
 5088SOL    HW116163   4.524   6.281   1.840
 5088SOL    HW216164   4.597   6.352   1.712
 5089SOL     OW16165   5.746   5.099   4.718
 5089SOL    HW116166   5.786   5.068   4.632
 5089SOL    HW216167   5.717   5.194   4.709
 5090SOL     OW16168   2.900   0.119   5.172
 5090SOL    HW116169   2.825   0.086   5.114
 5090SOL    HW216170   2.879   0.099   5.268
 5091SOL     OW16171   6.222   6.985   0.140
 5091SOL    HW116172   6.266   0.014   0.212
 5091SOL    HW216173   6.174   0.024   0.078
 5092SOL     OW16174   3.340   3.613   5.018
 5092SOL    HW116175   3.425   3.594   5.067
 5092SOL    HW216176   3.266   3.559   5.057
 5093SOL     OW16177   1.834   1.884   2.270
 5093SOL    HW116178   1.880   1.831   2.199
 5093SOL    HW216179   1.899   1.904   2.344
 5094SOL     OW16180   2.619   5.840   6.428
 5094SOL    HW116181   2.703   5.894   6.433
 5094SOL    HW216182   2.552   5.877   6.492
 5095SOL     OW16183   0.075   0.710   2.926
 5095SOL    HW116184   0.059   0.733   2.830
 5095SOL    HW216185   0.169   0.737   2.951
 5096SOL     OW16186   4.977   2.651   6.066
 5096SOL    HW116187   5.052   2.627   6.004
 5096SOL    HW216188   5.009   2.717   6.134
 5097SOL     OW16189   0.428   5.963   6.910
 5097SOL    HW116190   0.376   5.992   6.830
 5097SOL    HW216191   0.402   6.020   6.988
 5098SOL     OW16192   3.848   2.322   1.637
 5098SOL    HW116193   3.925   2.385   1.624
 5098SOL    HW216194   3.810   2.335   1.729
 5099SOL     OW16195   1.167   6.188   1.685
 5099SOL    HW116196   1.253   6.239   1.689
 5099SOL    HW216197   1.143   6.157   1.777
 5100SOL     OW16198   4.852   3.721   2.570
 5100SOL    HW116199   4.881   3.711   2.475
 5100SOL    HW216200   4.866   3.634   2.618
 5101SOL     OW16201   4.102   6.907   5.503
 5101SOL    HW116202   4.147   6.972   5.564
 5101SOL    HW216203   4.020   6.871   5.548
 5102SOL     OW16204   5.050   5.145   4.502
 5102SOL    HW116205   5.137   5.104   4.528
 5102SOL    HW216206   4.979   5.075   4.501
 5103SOL     OW16207   1.096   0.083   5.653
 5103SOL    HW116208   1.172   0.036   5.698
 5103SOL    HW216209   1.031   0.115   5.722
 5104SOL     OW16210   3.408   4.636   1.526
 5104SOL    HW116211   3.358   4.640   1.439
 5104SOL    HW216212   3.358   4.688   1.595
 5105SOL     OW16213   3.899   2.532   6.827
 5105SOL    HW116214   3.806   2.518   6.859
 5105SOL    HW216215   3.909   2.494   6.735
 5106SOL     OW16216   4.403   2.872   1.187
 5106SOL    HW116217   4.436   2.787   1.146
 5106SOL    HW216218   4.322   2.903   1.139
 5107SOL     OW16219   4.988   3.416   1.100
 5107SOL    HW116220   5.063   3.443   1.162
 5107SOL    HW216221   5.026   3.375   1.017
 5108SOL     OW16222   4.620   3.721   6.275
 5108SOL    HW116223   4.540   3.715   6.334
 5108SOL    HW216224   4.591   3.733   6.180
 5109SOL     OW16225   1.808   2.212   1.074
 5109SOL    HW116226   1.736   2.278   1.051
 5109SOL    HW216227   1.818   2.146   1.000
 5110SOL     OW16228   6.255   0.442   6.613
 5110SOL    HW116229   6.180   0.509   6.609
 5110SOL    HW216230   6.274   0.407   6.521
 5111SOL     OW16231   0.839   6.116   5.001
 5111SOL    HW116232   0.855   6.026   5.041
 5111SOL    HW216233   0.893   6.124   4.917
 5112SOL     OW16234   0.362   0.408   3.227
 5112SOL    HW116235   0.287   0.431   3.165
 5112SOL    HW216236   0.407   0.324   3.196
 5113SOL     OW16237   1.889   4.778   0.638
 5113SOL    HW116238   1.920   4.696   0.687
 5113SOL    HW216239   1.960   4.848   0.643
 5114SOL     OW16240   4.384   6.235   1.147
 5114SOL    HW116241   4.335   6.155   1.110
 5114SOL    HW216242   4.459   6.259   1.085
 5115SOL     OW16243   1.733   3.507   1.103
 5115SOL    HW116244   1.804   3.496   1.173
 5115SOL    HW216245   1.772   3.553   1.023
 5116SOL     OW16246   1.905   6.537   6.515
 5116SOL    HW116247   1.992   6.542   6.465
 5116SOL    HW216248   1.856   6.623   6.504
 5117SOL     OW16249   1.682   2.975   4.165
 5117SOL    HW116250   1.616   3.032   4.215
 5117SOL    HW216251   1.773   3.014   4.174
 5118SOL     OW16252   5.684   5.849   6.991
 5118SOL    HW116253   5.604   5.867   6.932
 5118SOL    HW216254   5.687   5.751   7.012
 5119SOL     OW16255   4.815   1.546   0.482
 5119SOL    HW116256   4.778   1.637   0.468
 5119SOL    HW216257   4.792   1.515   0.575
 5120SOL     OW16258   4.871   0.204   5.253
 5120SOL    HW116259   4.941   0.149   5.299
 5120SOL    HW216260   4.867   0.294   5.297
 5121SOL     OW16261   2.914   3.991   6.649
 5121SOL    HW116262   2.948   4.084   6.636
 5121SOL    HW216263   2.849   3.989   6.724
 5122SOL     OW16264   4.653   5.211   3.604
 5122SOL    HW116265   4.682   5.303   3.630
 5122SOL    HW216266   4.713   5.143   3.646
 5123SOL     OW16267   4.598   2.583   2.432
 5123SOL    HW116268   4.696   2.562   2.434
 5123SOL    HW216269   4.585   2.681   2.419
 5124SOL     OW16270   2.268   6.271   3.951
 5124SOL    HW116271   2.181   6.234   3.984
 5124SOL    HW216272   2.306   6.331   4.021
 5125SOL     OW16273   0.631   2.098   4.064
 5125SOL    HW116274   0.569   2.146   4.002
 5125SOL    HW216275   0.582   2.024   4.110
 5126SOL     OW16276   1.947   0.128   1.423
 5126SOL    HW116277   1.940   0.200   1.353
 5126SOL    HW216278   1.942   0.170   1.514
 5127SOL     OW16279   1.969   5.256   0.725
 5127SOL    HW116280   1.916   5.223   0.803
 5127SOL    HW216281   1.909   5.309   0.665
 5128SOL     OW16282   6.310   6.036   1.486
 5128SOL    HW116283   6.215   6.012   1.466
 5128SOL    HW216284   6.371   5.986   1.424
 5129SOL     OW16285   5.337   6.773   0.913
 5129SOL    HW116286   5.254   6.723   0.889
 5129SOL    HW216287   5.403   6.710   0.954
 5130SOL     OW16288   6.071   4.916   3.536
 5130SOL    HW116289   6.056   5.002   3.487
 5130SOL    HW216290   6.164   4.884   3.519
 5131SOL     OW16291   2.216   2.596   3.723
 5131SOL    HW116292   2.169   2.625   3.639
 5131SOL    HW216293   2.196   2.660   3.797
 5132SOL     OW16294   3.214   5.014   5.900
 5132SOL    HW116295   3.146   5.064   5.846
 5132SOL    HW216296   3.228   5.060   5.988
 5133SOL     OW16297   4.041   6.360   6.292
 5133SOL    HW116298   4.018   6.299   6.368
 5133SOL    HW216299   4.044   6.307   6.207
 5134SOL     OW16300   0.512   3.686   1.080
 5134SOL    HW116301   0.435   3.749   1.090
 5134SOL    HW216302   0.497   3.628   0.999
 5135SOL     OW16303   0.043   1.959   4.595
 5135SOL    HW116304   0.057   2.000   4.685
 5135SOL    HW216305   6.970   1.971   4.567
 5136SOL     OW16306   4.881   1.145   4.068
 5136SOL    HW116307   4.943   1.139   4.146
 5136SOL    HW216308   4.835   1.234   4.069
 5137SOL     OW16309   4.485   4.397   6.098
 5137SOL    HW116310   4.508   4.387   6.001
 5137SOL    HW216311   4.414   4.467   6.108
 5138SOL     OW16312   2.351   3.882   5.849
 5138SOL    HW116313   2.365   3.841   5.759
 5138SOL    HW216314   2.437   3.883   5.900
 5139SOL     OW16315   1.235   6.892   4.120
 5139SOL    HW116316   1.314   6.835   4.099
 5139SOL    HW216317   1.175   6.896   4.040
 5140SOL     OW16318   3.498   2.852   0.599
 5140SOL    HW116319   3.590   2.881   0.626
 5140SOL    HW216320   3.478   2.762   0.636
 5141SOL     OW16321   5.591   2.882   0.073
 5141SOL    HW116322   5.650   2.962   0.059
 5141SOL    HW216323   5.627   2.805   0.020
 5142SOL     OW16324   5.861   3.980   4.662
 5142SOL    HW116325   5.872   4.038   4.581
 5142SOL    HW216326   5.774   3.999   4.706
 5143SOL     OW16327   6.616   5.349   4.508
 5143SOL    HW116328   6.695   5.409   4.512
 5143SOL    HW216329   6.547   5.389   4.448
 5144SOL     OW16330   1.304   0.715   5.791
 5144SOL    HW116331   1.271   0.645   5.727
 5144SOL    HW216332   1.241   0.721   5.868
 5145SOL     OW16333   2.382   5.135   6.148
 5145SOL    HW116334   2.306   5.152   6.084
 5145SOL    HW216335   2.346   5.125   6.241
 5146SOL     OW16336   3.443   4.303   6.863
 5146SOL    HW116337   3.521   4.361   6.840
 5146SOL    HW216338   3.405   4.332   6.951
 5147SOL     OW16339   6.423   4.178   0.018
 5147SOL    HW116340   6.336   4.153   6.999
 5147SOL    HW216341   6.412   4.180   0.118
 5148SOL     OW16342   0.019   6.053   1.314
 5148SOL    HW116343   0.058   6.061   1.406
 5148SOL    HW216344   0.085   6.083   1.246
 5149SOL     OW16345   6.391   1.483   3.824
 5149SOL    HW116346   6.451   1.434   3.887
 5149SOL    HW216347   6.359   1.568   3.867
 5150SOL     OW16348   1.862   5.621   3.843
 5150SOL    HW116349   1.934   5.687   3.823
 5150SOL    HW216350   1.797   5.619   3.767
 5151SOL     OW16351   5.118   1.288   6.597
 5151SOL    HW116352   5.161   1.358   6.540
 5151SOL    HW216353   5.151   1.198   6.570
 5152SOL     OW16354   0.932   3.993   0.185
 5152SOL    HW116355   0.940   3.941   0.100
 5152SOL    HW216356   1.018   3.988   0.236
 5153SOL     OW16357   1.535   1.949   0.525
 5153SOL    HW116358   1.628   1.985   0.526
 5153SOL    HW216359   1.507   1.933   0.430
 5154SOL     OW16360   1.659   3.098   5.681
 5154SOL    HW116361   1.573   3.049   5.670
 5154SOL    HW216362   1.695   3.082   5.773
 5155SOL     OW16363   3.796   6.878   1.863
 5155SOL    HW116364   3.892   6.903   1.849
 5155SOL    HW216365   3.751   6.950   1.916
 5156SOL     OW16366   6.785   2.347   5.418
 5156SOL    HW116367   6.717   2.299   5.362
 5156SOL    HW216368   6.823   2.424   5.366
 5157SOL     OW16369   4.875   3.045   3.603
 5157SOL    HW116370   4.936   3.026   3.526
 5157SOL    HW216371   4.906   3.128   3.649
 5158SOL     OW16372   4.196   1.044   0.938
 5158SOL    HW116373   4.096   1.039   0.942
 5158SOL    HW216374   4.227   1.128   0.982
 5159SOL     OW16375   1.259   3.794   4.384
 5159SOL    HW116376   1.190   3.791   4.456
 5159SOL    HW216377   1.322   3.717   4.394
 5160SOL     OW16378   2.013   3.969   4.608
 5160SOL    HW116379   2.068   3.942   4.687
 5160SOL    HW216380   1.990   4.066   4.615
 5161SOL     OW16381   1.029   2.949   5.468
 5161SOL    HW116382   0.942   2.995   5.449
 5161SOL    HW216383   1.093   3.014   5.509
 5162SOL     OW16384   6.855   6.469   3.407
 5162SOL    HW116385   6.776   6.407   3.406
 5162SOL    HW216386   6.937   6.417   3.431
 5163SOL     OW16387   5.707   4.662   1.461
 5163SOL    HW116388   5.695   4.610   1.545
 5163SOL    HW216389   5.640   4.736   1.457
 5164SOL     OW16390   5.886   3.456   5.520
 5164SOL    HW116391   5.930   3.528   5.574
 5164SOL    HW216392   5.949   3.425   5.449
 5165SOL     OW16393   6.567   4.553   4.335
 5165SOL    HW116394   6.629   4.593   4.268
 5165SOL    HW216395   6.592   4.585   4.427
 5166SOL     OW16396   1.913   5.426   2.300
 5166SOL    HW116397   1.888   5.508   2.248
 5166SOL    HW216398   1.874   5.431   2.392
 5167SOL     OW16399   0.383   6.408   5.829
 5167SOL    HW116400   0.455   6.437   5.766
 5167SOL    HW216401   0.377   6.473   5.905
 5168SOL     OW16402   4.222   2.142   3.030
 5168SOL    HW116403   4.264   2.054   3.008
 5168SOL    HW216404   4.185   2.183   2.947
 5169SOL     OW16405   3.465   3.796   5.955
 5169SOL    HW116406   3.375   3.836   5.972
 5169SOL    HW216407   3.454   3.707   5.911
 5170SOL     OW16408   6.283   4.484   4.937
 5170SOL    HW116409   6.319   4.501   4.845
 5170SOL    HW216410   6.207   4.419   4.931
 5171SOL     OW16411   1.768   4.869   4.510
 5171SOL    HW116412   1.727   4.894   4.422
 5171SOL    HW216413   1.727   4.783   4.541
 5172SOL     OW16414   0.757   4.865   2.425
 5172SOL    HW116415   0.673   4.865   2.370
 5172SOL    HW216416   0.790   4.771   2.434
 5173SOL     OW16417   5.082   2.707   6.536
 5173SOL    HW116418   5.014   2.674   6.601
 5173SOL    HW216419   5.097   2.805   6.551
 5174SOL     OW16420   1.337   4.904   6.205
 5174SOL    HW116421   1.435   4.922   6.195
 5174SOL    HW216422   1.301   4.955   6.283
 5175SOL     OW16423   0.959   4.227   0.699
 5175SOL    HW116424   0.892   4.163   0.660
 5175SOL    HW216425   0.922   4.266   0.783
 5176SOL     OW16426   3.922   3.707   0.604
 5176SOL    HW116427   3.947   3.666   0.692
 5176SOL    HW216428   3.823   3.697   0.590
 5177SOL     OW16429   5.078   6.921   6.189
 5177SOL    HW116430   5.033   6.858   6.126
 5177SOL    HW216431   5.062   6.892   6.284
 5178SOL     OW16432   2.471   2.587   1.699
 5178SOL    HW116433   2.557   2.545   1.730
 5178SOL    HW216434   2.453   2.669   1.753
 5179SOL     OW16435   3.365   6.202   5.507
 5179SOL    HW116436   3.311   6.119   5.517
 5179SOL    HW216437   3.388   6.216   5.411
 5180SOL     OW16438   2.974   2.624   0.862
 5180SOL    HW116439   2.991   2.545   0.803
 5180SOL    HW216440   3.059   2.677   0.873
 5181SOL     OW16441   4.380   0.077   2.937
 5181SOL    HW116442   4.318   0.006   2.902
 5181SOL    HW216443   4.347   0.167   2.908
 5182SOL     OW16444   5.812   4.544   2.079
 5182SOL    HW116445   5.723   4.542   2.033
 5182SOL    HW216446   5.810   4.480   2.156
 5183SOL     OW16447   4.617   6.687   1.556
 5183SOL    HW116448   4.686   6.751   1.590
 5183SOL    HW216449   4.536   6.738   1.527
 5184SOL     OW16450   0.739   0.730   3.065
 5184SOL    HW116451   0.740   0.732   3.165
 5184SOL    HW216452   0.784   0.812   3.029
 5185SOL     OW16453   3.335   0.430   2.189
 5185SOL    HW116454   3.382   0.392   2.109
 5185SOL    HW216455   3.383   0.513   2.219
 5186SOL     OW16456   6.677   4.714   0.484
 5186SOL    HW116457   6.583   4.733   0.514
 5186SOL    HW216458   6.724   4.661   0.555
 5187SOL     OW16459   6.252   1.904   3.424
 5187SOL    HW116460   6.328   1.925   3.362
 5187SOL    HW216461   6.238   1.805   3.427
 5188SOL     OW16462   0.753   3.897   5.838
 5188SOL    HW116463   0.769   3.959   5.761
 5188SOL    HW216464   0.695   3.942   5.906
 5189SOL     OW16465   4.839   4.795   6.481
 5189SOL    HW116466   4.865   4.854   6.404
 5189SOL    HW216467   4.743   4.811   6.505
 5190SOL     OW16468   1.128   2.521   4.026
 5190SOL    HW116469   1.214   2.570   4.012
 5190SOL    HW216470   1.069   2.574   4.087
 5191SOL     OW16471   3.551   1.408   1.371
 5191SOL    HW116472   3.499   1.374   1.449
 5191SOL    HW216473   3.628   1.347   1.351
 5192SOL     OW16474   5.829   5.830   2.648
 5192SOL    HW116475   5.891   5.899   2.610
 5192SOL    HW216476   5.882   5.762   2.700
 5193SOL     OW16477   4.926   4.030   4.073
 5193SOL    HW116478   4.969   3.950   4.117
 5193SOL    HW216479   4.903   4.097   4.143
 5194SOL     OW16480   5.345   0.812   5.624
 5194SOL    HW116481   5.297   0.890   5.584
 5194SOL    HW216482   5.332   0.731   5.567
 5195SOL     OW16483   6.144   6.558   5.334
 5195SOL    HW116484   6.143   6.657   5.316
 5195SOL    HW216485   6.164   6.543   5.431
 5196SOL     OW16486   0.115   4.226   1.635
 5196SOL    HW116487   0.194   4.284   1.654
 5196SOL    HW216488   0.115   4.148   1.697
 5197SOL     OW16489   2.413   5.352   5.177
 5197SOL    HW116490   2.414   5.297   5.260
 5197SOL    HW216491   2.498   5.335   5.126
 5198SOL     OW16492   3.862   6.408   5.437
 5198SOL    HW116493   3.909   6.321   5.446
 5198SOL    HW216494   3.870   6.460   5.522
 5199SOL     OW16495   2.150   5.480   1.364
 5199SOL    HW116496   2.153   5.410   1.435
 5199SOL    HW216497   2.059   5.484   1.325
 5200SOL     OW16498   0.283   1.361   4.994
 5200SOL    HW116499   0.205   1.337   5.053
 5200SOL    HW216500   0.257   1.436   4.933
 5201SOL     OW16501   5.753   4.845   4.094
 5201SOL    HW116502   5.828   4.795   4.051
 5201SOL    HW216503   5.768   4.943   4.083
 5202SOL     OW16504   3.803   2.785   6.406
 5202SOL    HW116505   3.740   2.759   6.479
 5202SOL    HW216506   3.863   2.858   6.439
 5203SOL     OW16507   1.953   0.293   0.365
 5203SOL    HW116508   1.910   0.203   0.373
 5203SOL    HW216509   2.041   0.283   0.317
 5204SOL     OW16510   3.383   0.790   0.070
 5204SOL    HW116511   3.408   0.858   0.001
 5204SOL    HW216512   3.451   0.717   0.071
 5205SOL     OW16513   0.402   5.551   0.938
 5205SOL    HW116514   0.366   5.539   0.846
 5205SOL    HW216515   0.346   5.499   1.003
 5206SOL     OW16516   0.908   4.620   5.095
 5206SOL    HW116517   0.910   4.574   5.184
 5206SOL    HW216518   0.939   4.557   5.024
 5207SOL     OW16519   0.437   0.842   4.362
 5207SOL    HW116520   0.340   0.847   4.341
 5207SOL    HW216521   0.450   0.795   4.449
 5208SOL     OW16522   4.570   2.206   0.511
 5208SOL    HW116523   4.654   2.260   0.524
 5208SOL    HW216524   4.535   2.176   0.599
 5209SOL     OW16525   4.907   5.847   2.870
 5209SOL    HW116526   4.825   5.821   2.923
 5209SOL    HW216527   4.887   5.840   2.773
 5210SOL     OW16528   5.583   4.240   0.514
 5210SOL    HW116529   5.614   4.147   0.535
 5210SOL    HW216530   5.649   4.306   0.551
 5211SOL     OW16531   4.777   2.893   4.249
 5211SOL    HW116532   4.772   2.840   4.334
 5211SOL    HW216533   4.693   2.880   4.197
 5212SOL     OW16534   1.333   3.288   1.548
 5212SOL    HW116535   1.409   3.257   1.491
 5212SOL    HW216536   1.248   3.245   1.517
 5213SOL     OW16537   4.071   3.536   2.841
 5213SOL    HW116538   4.020   3.450   2.828
 5213SOL    HW216539   4.025   3.609   2.792
 5214SOL     OW16540   5.458   3.489   5.967
 5214SOL    HW116541   5.485   3.539   5.885
 5214SOL    HW216542   5.531   3.426   5.993
 5215SOL     OW16543   0.471   3.799   4.911
 5215SOL    HW116544   0.447   3.756   4.998
 5215SOL    HW216545   0.494   3.895   4.926
 5216SOL     OW16546   5.284   5.284   0.112
 5216SOL    HW116547   5.187   5.273   0.092
 5216SOL    HW216548   5.329   5.195   0.114
 5217SOL     OW16549   4.370   6.516   3.925
 5217SOL    HW116550   4.391   6.431   3.876
 5217SOL    HW216551   4.453   6.571   3.931
 5218SOL     OW16552   0.137   0.092   0.694
 5218SOL    HW116553   0.222   0.080   0.746
 5218SOL    HW216554   0.091   0.175   0.724
 5219SOL     OW16555   2.298   1.914   5.175
 5219SOL    HW116556   2.360   1.836   5.188
 5219SOL    HW216557   2.246   1.930   5.259
 5220SOL     OW16558   1.880   4.551   4.055
 5220SOL    HW116559   1.793   4.501   4.059
 5220SOL    HW216560   1.868   4.634   4.000
 5221SOL     OW16561   6.649   0.036   1.284
 5221SOL    HW116562   6.654   0.123   1.333
 5221SOL    HW216563   6.621   6.987   1.348
 5222SOL     OW16564   4.787   4.364   1.247
 5222SOL    HW116565   4.787   4.384   1.345
 5222SOL    HW216566   4.813   4.446   1.196
 5223SOL     OW16567   0.810   3.269   1.346
 5223SOL    HW116568   0.776   3.267   1.252
 5223SOL    HW216569   0.738   3.237   1.408
 5224SOL     OW16570   0.611   2.622   4.872
 5224SOL    HW116571   0.575   2.673   4.950
 5224SOL    HW216572   0.540   2.563   4.835
 5225SOL     OW16573   0.562   1.916   4.663
 5225SOL    HW116574   0.501   1.843   4.695
 5225SOL    HW216575   0.556   1.923   4.563
 5226SOL     OW16576   0.275   6.422   3.937
 5226SOL    HW116577   0.358   6.370   3.956
 5226SOL    HW216578   0.215   6.421   4.017
 5227SOL     OW16579   0.255   2.685   5.174
 5227SOL    HW116580   0.299   2.675   5.263
 5227SOL    HW216581   0.248   2.596   5.130
 5228SOL     OW16582   1.980   2.355   5.893
 5228SOL    HW116583   1.982   2.392   5.800
 5228SOL    HW216584   2.073   2.337   5.924
 5229SOL     OW16585   4.370   1.100   5.982
 5229SOL    HW116586   4.299   1.093   6.051
 5229SOL    HW216587   4.367   1.191   5.940
 5230SOL     OW16588   6.643   6.893   1.939
 5230SOL    HW116589   6.556   6.843   1.934
 5230SOL    HW216590   6.699   6.857   2.014
 5231SOL     OW16591   6.430   1.923   2.676
 5231SOL    HW116592   6.459   1.968   2.592
 5231SOL    HW216593   6.371   1.845   2.654
 5232SOL     OW16594   2.235   2.892   5.717
 5232SOL    HW116595   2.325   2.867   5.679
 5232SOL    HW216596   2.200   2.972   5.669
 5233SOL     OW16597   2.957   0.334   2.709
 5233SOL    HW116598   2.981   0.422   2.749
 5233SOL    HW216599   3.027   0.306   2.643
 5234SOL     OW16600   2.424   1.943   0.662
 5234SOL    HW116601   2.379   2.021   0.705
 5234SOL    HW216602   2.522   1.947   0.682
 5235SOL     OW16603   2.404   1.669   1.174
 5235SOL    HW116604   2.437   1.643   1.265
 5235SOL    HW216605   2.455   1.619   1.104
 5236SOL     OW16606   3.876   5.565   1.683
 5236SOL    HW116607   3.921   5.649   1.712
 5236SOL    HW216608   3.861   5.567   1.584
 5237SOL     OW16609   1.983   2.414   3.909
 5237SOL    HW116610   2.058   2.475   3.881
 5237SOL    HW216611   2.019   2.342   3.967
 5238SOL     OW16612   0.967   6.303   2.703
 5238SOL    HW116613   0.912   6.239   2.649
 5238SOL    HW216614   0.934   6.396   2.689
 5239SOL     OW16615   2.513   3.793   1.154
 5239SOL    HW116616   2.608   3.765   1.171
 5239SOL    HW216617   2.462   3.715   1.117
 5240SOL     OW16618   2.256   3.672   5.682
 5240SOL    HW116619   2.212   3.690   5.594
 5240SOL    HW216620   2.193   3.621   5.740
 5241SOL     OW16621   0.781   5.849   2.362
 5241SOL    HW116622   0.712   5.830   2.293
 5241SOL    HW216623   0.849   5.776   2.363
 5242SOL     OW16624   4.853   0.660   6.381
 5242SOL    HW116625   4.774   0.700   6.334
 5242SOL    HW216626   4.921   0.731   6.398
 5243SOL     OW16627   2.657   6.751   1.896
 5243SOL    HW116628   2.675   6.653   1.905
 5243SOL    HW216629   2.558   6.766   1.893
 5244SOL     OW16630   4.973   2.994   1.045
 5244SOL    HW116631   4.879   2.968   1.068
 5244SOL    HW216632   4.986   3.091   1.063
 5245SOL     OW16633   4.453   3.488   1.499
 5245SOL    HW116634   4.509   3.452   1.574
 5245SOL    HW216635   4.503   3.560   1.452
 5246SOL     OW16636   6.038   3.039   1.165
 5246SOL    HW116637   6.067   3.101   1.238
 5246SOL    HW216638   6.059   3.081   1.077
 5247SOL     OW16639   4.197   2.206   6.627
 5247SOL    HW116640   4.249   2.257   6.559
 5247SOL    HW216641   4.259   2.170   6.697
 5248SOL     OW16642   6.667   1.308   3.360
 5248SOL    HW116643   6.623   1.313   3.450
 5248SOL    HW216644   6.614   1.361   3.294
 5249SOL     OW16645   0.675   4.685   6.955
 5249SOL    HW116646   0.693   4.656   6.860
 5249SOL    HW216647   0.612   4.762   6.954
 5250SOL     OW16648   2.295   6.238   0.921
 5250SOL    HW116649   2.338   6.307   0.979
 5250SOL    HW216650   2.200   6.226   0.949
 5251SOL     OW16651   0.878   4.674   0.727
 5251SOL    HW116652   0.819   4.685   0.807
 5251SOL    HW216653   0.964   4.630   0.754
 5252SOL     OW16654   3.889   0.435   2.169
 5252SOL    HW116655   3.922   0.460   2.259
 5252SOL    HW216656   3.907   0.510   2.105
 5253SOL     OW16657   6.143   5.165   4.613
 5253SOL    HW116658   6.051   5.165   4.575
 5253SOL    HW216659   6.151   5.091   4.680
 5254SOL     OW16660   5.962   0.190   3.068
 5254SOL    HW116661   6.020   0.140   3.003
 5254SOL    HW216662   5.873   0.206   3.026
 5255SOL     OW16663   6.296   1.725   5.097
 5255SOL    HW116664   6.231   1.661   5.139
 5255SOL    HW216665   6.253   1.768   5.017
 5256SOL     OW16666   5.894   1.220   2.402
 5256SOL    HW116667   5.814   1.273   2.372
 5256SOL    HW216668   5.923   1.254   2.492
 5257SOL     OW16669   3.929   0.919   6.109
 5257SOL    HW116670   3.849   0.977   6.097
 5257SOL    HW216671   3.947   0.867   6.025
 5258SOL     OW16672   4.701   2.057   2.968
 5258SOL    HW116673   4.791   2.043   3.009
 5258SOL    HW216674   4.688   1.992   2.893
 5259SOL     OW16675   5.801   5.477   2.758
 5259SOL    HW116676   5.706   5.498   2.734
 5259SOL    HW216677   5.825   5.388   2.720
 5260SOL     OW16678   2.060   1.169   0.960
 5260SOL    HW116679   2.017   1.171   0.870
 5260SOL    HW216680   2.126   1.245   0.967
 5261SOL     OW16681   6.019   4.422   0.121
 5261SOL    HW116682   6.046   4.336   0.165
 5261SOL    HW216683   5.921   4.418   0.099
 5262SOL     OW16684   2.102   0.750   2.754
 5262SOL    HW116685   2.194   0.788   2.757
 5262SOL    HW216686   2.092   0.682   2.827
 5263SOL     OW16687   2.106   0.398   2.743
 5263SOL    HW116688   2.185   0.338   2.749
 5263SOL    HW216689   2.098   0.451   2.828
 5264SOL     OW16690   6.854   1.968   1.822
 5264SOL    HW116691   6.850   1.869   1.806
 5264SOL    HW216692   6.792   1.992   1.897
 5265SOL     OW16693   6.739   4.419   4.657
 5265SOL    HW116694   6.713   4.396   4.751
 5265SOL    HW216695   6.774   4.338   4.611
 5266SOL     OW16696   2.416   0.738   0.921
 5266SOL    HW116697   2.472   0.769   0.998
 5266SOL    HW216698   2.319   0.748   0.944
 5267SOL     OW16699   4.966   2.378   4.204
 5267SOL    HW116700   4.905   2.457   4.191
 5267SOL    HW216701   4.958   2.317   4.126
 5268SOL     OW16702   5.966   0.921   6.232
 5268SOL    HW116703   6.063   0.906   6.254
 5268SOL    HW216704   5.942   1.016   6.250
 5269SOL     OW16705   0.438   6.241   3.416
 5269SOL    HW116706   0.502   6.289   3.476
 5269SOL    HW216707   0.366   6.199   3.472
 5270SOL     OW16708   0.157   2.520   6.426
 5270SOL    HW116709   0.104   2.463   6.489
 5270SOL    HW216710   0.251   2.486   6.420
 5271SOL     OW16711   6.572   5.586   3.887
 5271SOL    HW116712   6.642   5.658   3.879
 5271SOL    HW216713   6.617   5.497   3.890
 5272SOL     OW16714   4.903   0.678   0.059
 5272SOL    HW116715   4.971   0.604   0.063
 5272SOL    HW216716   4.821   0.650   0.108
 5273SOL     OW16717   0.979   2.616   3.123
 5273SOL    HW116718   1.079   2.607   3.120
 5273SOL    HW216719   0.940   2.581   3.038
 5274SOL     OW16720   4.604   5.470   2.308
 5274SOL    HW116721   4.646   5.492   2.220
 5274SOL    HW216722   4.539   5.395   2.295
 5275SOL     OW16723   3.951   1.290   6.202
 5275SOL    HW116724   3.960   1.353   6.279
 5275SOL    HW216725   3.863   1.306   6.156
 5276SOL     OW16726   3.809   6.408   2.568
 5276SOL    HW116727   3.883   6.340   2.564
 5276SOL    HW216728   3.848   6.500   2.555
 5277SOL     OW16729   2.318   2.175   1.560
 5277SOL    HW116730   2.246   2.199   1.625
 5277SOL    HW216731   2.401   2.226   1.583
 5278SOL     OW16732   4.589   4.802   1.448
 5278SOL    HW116733   4.649   4.850   1.384
 5278SOL    HW216734   4.517   4.755   1.397
 5279SOL     OW16735   3.095   5.148   1.802
 5279SOL    HW116736   3.023   5.217   1.805
 5279SOL    HW216737   3.054   5.057   1.791
 5280SOL     OW16738   4.145   5.991   4.457
 5280SOL    HW116739   4.093   6.017   4.539
 5280SOL    HW216740   4.188   5.902   4.472
 5281SOL     OW16741   0.499   2.046   1.685
 5281SOL    HW116742   0.464   2.120   1.742
 5281SOL    HW216743   0.596   2.031   1.706
 5282SOL     OW16744   3.517   1.773   3.326
 5282SOL    HW116745   3.449   1.746   3.258
 5282SOL    HW216746   3.596   1.815   3.279
 5283SOL     OW16747   5.285   5.078   6.564
 5283SOL    HW116748   5.332   5.042   6.483
 5283SOL    HW216749   5.265   5.175   6.550
 5284SOL     OW16750   5.662   3.099   3.114
 5284SOL    HW116751   5.698   3.104   3.021
 5284SOL    HW216752   5.727   3.144   3.177
 5285SOL     OW16753   3.374   5.658   2.966
 5285SOL    HW116754   3.436   5.588   2.932
 5285SOL    HW216755   3.357   5.643   3.064
 5286SOL     OW16756   2.037   4.667   1.510
 5286SOL    HW116757   1.955   4.675   1.453
 5286SOL    HW216758   2.023   4.714   1.597
 5287SOL     OW16759   1.534   2.028   0.953
 5287SOL    HW116760   1.502   2.087   1.027
 5287SOL    HW216761   1.610   2.072   0.904
 5288SOL     OW16762   3.577   6.966   0.796
 5288SOL    HW116763   3.487   6.924   0.796
 5288SOL    HW216764   3.608   6.978   0.701
 5289SOL     OW16765   1.947   5.562   1.621
 5289SOL    HW116766   1.933   5.467   1.596
 5289SOL    HW216767   2.000   5.608   1.550
 5290SOL     OW16768   4.351   6.436   0.619
 5290SOL    HW116769   4.450   6.454   0.626
 5290SOL    HW216770   4.300   6.515   0.652
 5291SOL     OW16771   2.178   4.885   6.541
 5291SOL    HW116772   2.188   4.870   6.639
 5291SOL    HW216773   2.175   4.797   6.494
 5292SOL     OW16774   4.174   3.148   6.191
 5292SOL    HW116775   4.128   3.235   6.172
 5292SOL    HW216776   4.114   3.089   6.243
 5293SOL     OW16777   0.516   0.207   4.553
 5293SOL    HW116778   0.582   0.177   4.484
 5293SOL    HW216779   0.462   0.283   4.517
 5294SOL     OW16780   5.608   2.049   5.771
 5294SOL    HW116781   5.583   2.141   5.741
 5294SOL    HW216782   5.679   2.013   5.710
 5295SOL     OW16783   6.363   1.271   1.672
 5295SOL    HW116784   6.322   1.240   1.587
 5295SOL    HW216785   6.440   1.212   1.696
 5296SOL     OW16786   0.804   4.365   0.931
 5296SOL    HW116787   0.884   4.421   0.911
 5296SOL    HW216788   0.809   4.333   1.026
 5297SOL     OW16789   2.074   2.570   1.313
 5297SOL    HW116790   1.994   2.623   1.340
 5297SOL    HW216791   2.134   2.557   1.392
 5298SOL     OW16792   0.922   5.423   1.381
 5298SOL    HW116793   0.887   5.440   1.473
 5298SOL    HW216794   0.868   5.476   1.315
 5299SOL     OW16795   2.944   0.165   2.141
 5299SOL    HW116796   2.894   0.123   2.217
 5299SOL    HW216797   3.034   0.122   2.132
 5300SOL     OW16798   6.507   5.033   3.344
 5300SOL    HW116799   6.539   5.114   3.392
 5300SOL    HW216800   6.583   4.970   3.327
 5301SOL     OW16801   4.144   1.668   7.005
 5301SOL    HW116802   4.045   1.657   6.995
 5301SOL    HW216803   4.188   1.657   6.916
 5302SOL     OW16804   6.026   4.337   2.990
 5302SOL    HW116805   5.984   4.394   3.061
 5302SOL    HW216806   6.125   4.341   2.998
 5303SOL     OW16807   0.691   4.773   3.572
 5303SOL    HW116808   0.602   4.808   3.543
 5303SOL    HW216809   0.760   4.792   3.502
 5304SOL     OW16810   5.090   2.009   5.838
 5304SOL    HW116811   5.090   1.929   5.898
 5304SOL    HW216812   5.068   1.980   5.745
 5305SOL     OW16813   2.437   1.032   3.117
 5305SOL    HW116814   2.479   1.046   3.206
 5305SOL    HW216815   2.350   1.080   3.113
 5306SOL     OW16816   2.658   6.971   5.700
 5306SOL    HW116817   2.595   0.016   5.662
 5306SOL    HW216818   2.752   6.995   5.675
 5307SOL     OW16819   5.257   6.864   6.686
 5307SOL    HW116820   5.340   6.837   6.734
 5307SOL    HW216821   5.219   6.947   6.729
 5308SOL     OW16822   7.017   1.077   2.780
 5308SOL    HW116823   6.996   1.010   2.709
 5308SOL    HW216824   6.937   1.092   2.838
 5309SOL     OW16825   3.253   3.732   3.574
 5309SOL    HW116826   3.186   3.802   3.550
 5309SOL    HW216827   3.271   3.674   3.495
 5310SOL     OW16828   4.762   2.167   1.077
 5310SOL    HW116829   4.822   2.227   1.129
 5310SOL    HW216830   4.762   2.195   0.981
 5311SOL     OW16831   0.981   5.812   0.101
 5311SOL    HW116832   0.886   5.789   0.080
 5311SOL    HW216833   1.002   5.902   0.064
 5312SOL     OW16834   0.457   3.737   2.803
 5312SOL    HW116835   0.475   3.792   2.721
 5312SOL    HW216836   0.444   3.642   2.776
 5313SOL     OW16837   1.143   5.710   1.197
 5313SOL    HW116838   1.080   5.731   1.122
 5313SOL    HW216839   1.165   5.794   1.247
 5314SOL     OW16840   3.556   4.892   0.600
 5314SOL    HW116841   3.613   4.924   0.524
 5314SOL    HW216842   3.494   4.965   0.628
 5315SOL     OW16843   5.194   2.583   2.469
 5315SOL    HW116844   5.290   2.597   2.445
 5315SOL    HW216845   5.136   2.635   2.406
 5316SOL     OW16846   5.957   5.165   4.248
 5316SOL    HW116847   6.054   5.175   4.224
 5316SOL    HW216848   5.902   5.165   4.164
 5317SOL     OW16849   5.512   6.077   2.619
 5317SOL    HW116850   5.443   6.147   2.635
 5317SOL    HW216851   5.598   6.121   2.591
 5318SOL     OW16852   0.255   2.551   4.630
 5318SOL    HW116853   0.225   2.639   4.666
 5318SOL    HW216854   0.311   2.505   4.699
 5319SOL     OW16855   4.660   0.172   0.506
 5319SOL    HW116856   4.580   0.134   0.552
 5319SOL    HW216857   4.711   0.230   0.570
 5320SOL     OW16858   5.603   2.598   5.482
 5320SOL    HW116859   5.676   2.549   5.530
 5320SOL    HW216860   5.643   2.670   5.426
 5321SOL     OW16861   1.983   5.016   6.159
 5321SOL    HW116862   1.984   4.927   6.203
 5321SOL    HW216863   1.932   5.081   6.215
 5322SOL     OW16864   3.471   5.862   0.219
 5322SOL    HW116865   3.427   5.950   0.230
 5322SOL    HW216866   3.521   5.839   0.303
 5323SOL     OW16867   5.416   2.795   0.279
 5323SOL    HW116868   5.474   2.825   0.203
 5323SOL    HW216869   5.333   2.851   0.281
 5324SOL     OW16870   3.598   3.727   1.813
 5324SOL    HW116871   3.580   3.741   1.716
 5324SOL    HW216872   3.691   3.694   1.825
 5325SOL     OW16873   5.029   5.758   3.312
 5325SOL    HW116874   5.040   5.857   3.301
 5325SOL    HW216875   5.070   5.711   3.235
 5326SOL     OW16876   6.609   6.209   1.870
 5326SOL    HW116877   6.577   6.123   1.829
 5326SOL    HW216878   6.690   6.241   1.820
 5327SOL     OW16879   6.644   0.670   3.914
 5327SOL    HW116880   6.721   0.716   3.871
 5327SOL    HW216881   6.563   0.727   3.908
 5328SOL     OW16882   3.724   5.012   1.149
 5328SOL    HW116883   3.635   5.028   1.108
 5328SOL    HW216884   3.774   4.944   1.095
 5329SOL     OW16885   0.037   5.095   6.490
 5329SOL    HW116886   0.074   5.022   6.548
 5329SOL    HW216887   6.964   5.077   6.471
 5330SOL     OW16888   4.748   4.337   0.701
 5330SOL    HW116889   4.770   4.245   0.668
 5330SOL    HW216890   4.794   4.353   0.789
 5331SOL     OW16891   4.760   3.031   6.916
 5331SOL    HW116892   4.782   3.021   7.013
 5331SOL    HW216893   4.739   3.127   6.896
 5332SOL     OW16894   5.693   2.560   0.160
 5332SOL    HW116895   5.601   2.584   0.193
 5332SOL    HW216896   5.689   2.543   0.062
 5333SOL     OW16897   1.546   1.617   3.930
 5333SOL    HW116898   1.536   1.711   3.962
 5333SOL    HW216899   1.483   1.558   3.981
 5334SOL     OW16900   4.185   5.548   1.915
 5334SOL    HW116901   4.142   5.489   1.983
 5334SOL    HW216902   4.283   5.550   1.931
 5335SOL     OW16903   0.044   3.802   1.294
 5335SOL    HW116904   0.002   3.794   1.385
 5335SOL    HW216905   0.043   3.897   1.265
 5336SOL     OW16906   1.626   3.385   4.300
 5336SOL    HW116907   1.587   3.296   4.322
 5336SOL    HW216908   1.718   3.392   4.339
 5337SOL     OW16909   6.165   4.793   0.975
 5337SOL    HW116910   6.150   4.759   1.067
 5337SOL    HW216911   6.112   4.738   0.910
 5338SOL     OW16912   6.603   3.578   0.891
 5338SOL    HW116913   6.671   3.514   0.925
 5338SOL    HW216914   6.648   3.663   0.864
 5339SOL     OW16915   5.223   3.271   2.939
 5339SOL    HW116916   5.236   3.319   3.026
 5339SOL    HW216917   5.251   3.331   2.864
 5340SOL     OW16918   5.994   2.942   2.494
 5340SOL    HW116919   5.937   3.007   2.443
 5340SOL    HW216920   6.063   2.992   2.546
 5341SOL     OW16921   4.020   5.066   4.070
 5341SOL    HW116922   3.956   5.132   4.030
 5341SOL    HW216923   4.113   5.086   4.038
 5342SOL     OW16924   5.900   0.140   4.402
 5342SOL    HW116925   5.974   0.182   4.454
 5342SOL    HW216926   5.912   0.160   4.305
 5343SOL     OW16927   3.178   3.418   6.604
 5343SOL    HW116928   3.196   3.505   6.558
 5343SOL    HW216929   3.264   3.380   6.638
 5344SOL     OW16930   1.302   1.887   6.327
 5344SOL    HW116931   1.297   1.900   6.426
 5344SOL    HW216932   1.373   1.946   6.289
 5345SOL     OW16933   4.967   1.977   0.262
 5345SOL    HW116934   5.011   1.937   0.343
 5345SOL    HW216935   4.873   1.942   0.255
 5346SOL     OW16936   3.230   6.105   3.855
 5346SOL    HW116937   3.257   6.134   3.763
 5346SOL    HW216938   3.260   6.173   3.922
 5347SOL     OW16939   6.066   1.415   3.968
 5347SOL    HW116940   6.088   1.509   3.992
 5347SOL    HW216941   6.110   1.353   4.033
 5348SOL     OW16942   5.685   2.689   3.458
 5348SOL    HW116943   5.708   2.612   3.398
 5348SOL    HW216944   5.687   2.774   3.406
 5349SOL     OW16945   0.670   3.727   2.421
 5349SOL    HW116946   0.587   3.672   2.429
 5349SOL    HW216947   0.646   3.824   2.419
 5350SOL     OW16948   1.403   6.717   0.536
 5350SOL    HW116949   1.382   6.624   0.568
 5350SOL    HW216950   1.484   6.715   0.478
 5351SOL     OW16951   6.589   6.169   2.773
 5351SOL    HW116952   6.647   6.088   2.782
 5351SOL    HW216953   6.590   6.220   2.858
 5352SOL     OW16954   1.456   3.292   4.989
 5352SOL    HW116955   1.369   3.244   5.000
 5352SOL    HW216956   1.450   3.383   5.030
 5353SOL     OW16957   4.033   5.592   3.286
 5353SOL    HW116958   4.024   5.531   3.207
 5353SOL    HW216959   4.085   5.546   3.358
 5354SOL     OW16960   4.824   5.583   0.380
 5354SOL    HW116961   4.919   5.552   0.387
 5354SOL    HW216962   4.762   5.506   0.397
 5355SOL     OW16963   5.329   4.569   5.071
 5355SOL    HW116964   5.365   4.484   5.110
 5355SOL    HW216965   5.267   4.548   4.996
 5356SOL     OW16966   0.371   5.121   0.794
 5356SOL    HW116967   0.457   5.081   0.762
 5356SOL    HW216968   0.308   5.131   0.716
 5357SOL     OW16969   5.771   3.383   2.413
 5357SOL    HW116970   5.842   3.451   2.432
 5357SOL    HW216971   5.726   3.358   2.499
 5358SOL     OW16972   4.223   1.832   0.223
 5358SOL    HW116973   4.154   1.822   0.295
 5358SOL    HW216974   4.191   1.785   0.140
 5359SOL     OW16975   3.882   2.187   6.945
 5359SOL    HW116976   3.895   2.280   6.912
 5359SOL    HW216977   3.923   2.123   6.880
 5360SOL     OW16978   5.692   4.517   3.369
 5360SOL    HW116979   5.659   4.492   3.460
 5360SOL    HW216980   5.776   4.570   3.378
 5361SOL     OW16981   2.311   5.485   2.217
 5361SOL    HW116982   2.403   5.499   2.179
 5361SOL    HW216983   2.309   5.400   2.269
 5362SOL     OW16984   5.140   0.313   1.939
 5362SOL    HW116985   5.160   0.333   2.035
 5362SOL    HW216986   5.113   0.397   1.892
 5363SOL     OW16987   5.866   5.755   3.155
 5363SOL    HW116988   5.921   5.815   3.098
 5363SOL    HW216989   5.795   5.712   3.100
 5364SOL     OW16990   4.774   0.939   2.232
 5364SOL    HW116991   4.805   0.846   2.255
 5364SOL    HW216992   4.737   0.940   2.139
 5365SOL     OW16993   3.286   2.890   3.658
 5365SOL    HW116994   3.336   2.857   3.738
 5365SOL    HW216995   3.198   2.927   3.686
 5366SOL     OW16996   6.149   5.806   2.621
 5366SOL    HW116997   6.199   5.846   2.697
 5366SOL    HW216998   6.076   5.868   2.593
 5367SOL     OW16999   6.383   6.327   1.609
 5367SOL    HW117000   6.364   6.240   1.562
 5367SOL    HW217001   6.314   6.342   1.680
 5368SOL     OW17002   6.369   6.068   3.836
 5368SOL    HW117003   6.428   6.148   3.843
 5368SOL    HW217004   6.415   5.997   3.782
 5369SOL     OW17005   3.116   5.428   2.839
 5369SOL    HW117006   3.035   5.441   2.897
 5369SOL    HW217007   3.114   5.495   2.765
 5370SOL     OW17008   1.516   3.565   0.923
 5370SOL    HW117009   1.452   3.559   1.000
 5370SOL    HW217010   1.607   3.590   0.956
 5371SOL     OW17011   5.744   5.818   4.522
 5371SOL    HW117012   5.759   5.739   4.582
 5371SOL    HW217013   5.648   5.846   4.527
 5372SOL     OW17014   1.052   0.029   3.212
 5372SOL    HW117015   0.954   0.029   3.194
 5372SOL    HW217016   1.098   6.991   3.148
 5373SOL     OW17017   3.289   1.658   6.751
 5373SOL    HW117018   3.215   1.725   6.742
 5373SOL    HW217019   3.295   1.604   6.667
 5374SOL     OW17020   1.585   4.806   2.536
 5374SOL    HW117021   1.524   4.877   2.571
 5374SOL    HW217022   1.665   4.849   2.495
 5375SOL     OW17023   1.903   4.180   4.778
 5375SOL    HW117024   1.928   4.166   4.874
 5375SOL    HW217025   1.969   4.242   4.735
 5376SOL     OW17026   0.447   6.996   6.046
 5376SOL    HW117027   0.536   7.015   6.087
 5376SOL    HW217028   0.376   7.002   6.116
 5377SOL     OW17029   2.048   1.003   3.307
 5377SOL    HW117030   2.126   0.965   3.357
 5377SOL    HW217031   2.063   1.101   3.292
 5378SOL     OW17032   4.888   0.706   2.247
 5378SOL    HW117033   4.881   0.660   2.159
 5378SOL    HW217034   4.948   0.653   2.307
 5379SOL     OW17035   1.704   2.466   5.653
 5379SOL    HW117036   1.706   2.554   5.700
 5379SOL    HW217037   1.795   2.445   5.616
 5380SOL     OW17038   4.444   6.462   1.481
 5380SOL    HW117039   4.427   6.446   1.578
 5380SOL    HW217040   4.496   6.547   1.470
 5381SOL     OW17041   4.012   6.987   4.002
 5381SOL    HW117042   3.927   6.935   3.995
 5381SOL    HW217043   4.081   6.932   4.049
 5382SOL     OW17044   4.454   1.184   1.309
 5382SOL    HW117045   4.462   1.281   1.284
 5382SOL    HW217046   4.476   1.172   1.406
 5383SOL     OW17047   2.331   2.823   4.703
 5383SOL    HW117048   2.317   2.922   4.705
 5383SOL    HW217049   2.309   2.784   4.793
 5384SOL     OW17050   5.610   5.563   4.303
 5384SOL    HW117051   5.666   5.644   4.317
 5384SOL    HW217052   5.623   5.528   4.210
 5385SOL     OW17053   3.719   3.249   6.125
 5385SOL    HW117054   3.755   3.289   6.209
 5385SOL    HW217055   3.621   3.268   6.119
 5386SOL     OW17056   5.877   4.752   4.765
 5386SOL    HW117057   5.813   4.737   4.841
 5386SOL    HW217058   5.960   4.795   4.801
 5387SOL     OW17059   1.808   1.395   3.540
 5387SOL    HW117060   1.821   1.297   3.523
 5387SOL    HW217061   1.720   1.424   3.505
 5388SOL     OW17062   0.350   6.611   2.129
 5388SOL    HW117063   0.277   6.607   2.197
 5388SOL    HW217064   0.414   6.684   2.152
 5389SOL     OW17065   4.529   1.751   4.284
 5389SOL    HW117066   4.530   1.707   4.374
 5389SOL    HW217067   4.441   1.735   4.240
 5390SOL     OW17068   0.656   2.897   3.073
 5390SOL    HW117069   0.636   2.838   2.995
 5390SOL    HW217070   0.715   2.848   3.138
 5391SOL     OW17071   2.986   3.616   0.401
 5391SOL    HW117072   2.896   3.581   0.427
 5391SOL    HW217073   3.000   3.604   0.303
 5392SOL     OW17074   5.254   1.900   3.991
 5392SOL    HW117075   5.196   1.946   3.923
 5392SOL    HW217076   5.350   1.918   3.971
 5393SOL     OW17077   4.708   1.826   4.799
 5393SOL    HW117078   4.745   1.863   4.884
 5393SOL    HW217079   4.711   1.726   4.802
 5394SOL     OW17080   1.294   1.858   1.023
 5394SOL    HW117081   1.393   1.871   1.015
 5394SOL    HW217082   1.268   1.859   1.119
 5395SOL     OW17083   6.481   1.981   0.489
 5395SOL    HW117084   6.430   1.899   0.513
 5395SOL    HW217085   6.579   1.965   0.502
 5396SOL     OW17086   4.805   3.943   0.536
 5396SOL    HW117087   4.804   3.998   0.620
 5396SOL    HW217088   4.717   3.898   0.524
 5397SOL     OW17089   0.703   1.092   2.316
 5397SOL    HW117090   0.612   1.113   2.353
 5397SOL    HW217091   0.768   1.161   2.347
 5398SOL     OW17092   5.829   1.657   2.588
 5398SOL    HW117093   5.905   1.669   2.524
 5398SOL    HW217094   5.836   1.726   2.661
 5399SOL     OW17095   1.849   1.666   0.092
 5399SOL    HW117096   1.942   1.660   0.057
 5399SOL    HW217097   1.811   1.574   0.103
 5400SOL     OW17098   5.195   3.545   2.095
 5400SOL    HW117099   5.246   3.520   2.177
 5400SOL    HW217100   5.174   3.462   2.042
 5401SOL     OW17101   5.837   2.582   1.390
 5401SOL    HW117102   5.843   2.620   1.298
 5401SOL    HW217103   5.840   2.657   1.457
 5402SOL     OW17104   1.271   6.166   1.955
 5402SOL    HW117105   1.360   6.180   1.998
 5402SOL    HW217106   1.199   6.171   2.024
 5403SOL     OW17107   4.773   3.127   0.234
 5403SOL    HW117108   4.862   3.146   0.192
 5403SOL    HW217109   4.783   3.127   0.334
 5404SOL     OW17110   5.656   0.801   0.407
 5404SOL    HW117111   5.597   0.737   0.358
 5404SOL    HW217112   5.631   0.895   0.383
 5405SOL     OW17113   0.071   5.362   0.103
 5405SOL    HW117114   0.081   5.461   0.105
 5405SOL    HW217115   0.084   5.325   0.195
 5406SOL     OW17116   2.345   0.697   5.660
 5406SOL    HW117117   2.367   0.790   5.690
 5406SOL    HW217118   2.359   0.633   5.736
 5407SOL     OW17119   2.277   0.035   2.512
 5407SOL    HW117120   2.183   0.043   2.545
 5407SOL    HW217121   2.329   7.003   2.577
 5408SOL     OW17122   3.415   1.934   4.145
 5408SOL    HW117123   3.360   1.866   4.097
 5408SOL    HW217124   3.505   1.941   4.101
 5409SOL     OW17125   0.860   3.146   2.339
 5409SOL    HW117126   0.858   3.085   2.418
 5409SOL    HW217127   0.809   3.105   2.263
 5410SOL     OW17128   1.198   2.782   1.126
 5410SOL    HW117129   1.206   2.871   1.171
 5410SOL    HW217130   1.113   2.738   1.153
 5411SOL     OW17131   3.003   5.619   7.021
 5411SOL    HW117132   3.071   5.615   6.948
 5411SOL    HW217133   2.911   5.617   6.982
 5412SOL     OW17134   0.132   2.270   6.100
 5412SOL    HW117135   0.130   2.370   6.111
 5412SOL    HW217136   0.040   2.238   6.077
 5413SOL     OW17137   6.999   6.212   4.328
 5413SOL    HW117138   6.911   6.191   4.286
 5413SOL    HW217139   6.994   6.196   4.427
 5414SOL     OW17140   5.417   4.231   5.937
 5414SOL    HW117141   5.339   4.282   5.900
 5414SOL    HW217142   5.389   4.183   6.020
 5415SOL     OW17143   4.328   1.148   0.084
 5415SOL    HW117144   4.293   1.064   0.044
 5415SOL    HW217145   4.274   1.172   0.165
 5416SOL     OW17146   3.350   6.145   6.317
 5416SOL    HW117147   3.277   6.143   6.385
 5416SOL    HW217148   3.327   6.083   6.242
 5417SOL     OW17149   4.165   6.847   4.210
 5417SOL    HW117150   4.076   6.817   4.246
 5417SOL    HW217151   4.227   6.864   4.287
 5418SOL     OW17152   6.904   3.221   4.741
 5418SOL    HW117153   6.967   3.191   4.813
 5418SOL    HW217154   6.823   3.163   4.741
 5419SOL     OW17155   5.038   0.288   6.068
 5419SOL    HW117156   4.985   0.204   6.072
 5419SOL    HW217157   4.988   0.357   6.016
 5420SOL     OW17158   0.912   1.312   2.276
 5420SOL    HW117159   0.973   1.248   2.228
 5420SOL    HW217160   0.925   1.301   2.375
 5421SOL     OW17161   3.930   4.884   2.062
 5421SOL    HW117162   3.960   4.789   2.051
 5421SOL    HW217163   3.880   4.912   1.980
 5422SOL     OW17164   2.692   5.355   3.759
 5422SOL    HW117165   2.787   5.329   3.776
 5422SOL    HW217166   2.634   5.274   3.762
 5423SOL     OW17167   5.682   5.748   1.707
 5423SOL    HW117168   5.635   5.716   1.624
 5423SOL    HW217169   5.766   5.796   1.682
 5424SOL     OW17170   4.273   4.064   5.408
 5424SOL    HW117171   4.191   4.088   5.459
 5424SOL    HW217172   4.316   4.148   5.374
 5425SOL     OW17173   1.871   4.159   5.502
 5425SOL    HW117174   1.786   4.113   5.528
 5425SOL    HW217175   1.872   4.252   5.540
 5426SOL     OW17176   6.200   5.293   1.170
 5426SOL    HW117177   6.287   5.263   1.210
 5426SOL    HW217178   6.218   5.348   1.088
 5427SOL     OW17179   4.375   2.146   6.207
 5427SOL    HW117180   4.348   2.240   6.229
 5427SOL    HW217181   4.450   2.119   6.266
 5428SOL     OW17182   5.939   5.611   2.213
 5428SOL    HW117183   5.846   5.576   2.224
 5428SOL    HW217184   6.003   5.550   2.262
 5429SOL     OW17185   3.584   0.235   4.706
 5429SOL    HW117186   3.560   0.333   4.709
 5429SOL    HW217187   3.525   0.189   4.639
 5430SOL     OW17188   2.628   3.895   5.597
 5430SOL    HW117189   2.614   3.849   5.510
 5430SOL    HW217190   2.703   3.850   5.647
 5431SOL     OW17191   3.485   4.242   0.292
 5431SOL    HW117192   3.415   4.230   0.363
 5431SOL    HW217193   3.440   4.263   0.205
 5432SOL     OW17194   0.079   5.702   6.879
 5432SOL    HW117195   0.031   5.689   6.966
 5432SOL    HW217196   0.074   5.618   6.825
 5433SOL     OW17197   2.051   0.698   1.563
 5433SOL    HW117198   2.086   0.712   1.655
 5433SOL    HW217199   2.047   0.599   1.544
 5434SOL     OW17200   5.498   0.834   4.949
 5434SOL    HW117201   5.446   0.890   5.014
 5434SOL    HW217202   5.592   0.868   4.944
 5435SOL     OW17203   6.488   4.485   0.844
 5435SOL    HW117204   6.388   4.493   0.848
 5435SOL    HW217205   6.529   4.575   0.850
 5436SOL     OW17206   0.979   4.284   2.858
 5436SOL    HW117207   1.006   4.348   2.785
 5436SOL    HW217208   1.055   4.222   2.878
 5437SOL     OW17209   4.017   5.365   1.461
 5437SOL    HW117210   3.993   5.459   1.439
 5437SOL    HW217211   4.069   5.362   1.546
 5438SOL     OW17212   4.685   5.786   2.397
 5438SOL    HW117213   4.597   5.739   2.403
 5438SOL    HW217214   4.739   5.748   2.322
 5439SOL     OW17215   0.773   4.907   2.066
 5439SOL    HW117216   0.747   4.875   1.975
 5439SOL    HW217217   0.867   4.878   2.086
 5440SOL     OW17218   6.365   6.803   3.795
 5440SOL    HW117219   6.353   6.902   3.794
 5440SOL    HW217220   6.276   6.759   3.781
 5441SOL     OW17221   6.399   3.448   4.122
 5441SOL    HW117222   6.419   3.449   4.220
 5441SOL    HW217223   6.428   3.361   4.083
 5442SOL     OW17224   4.113   0.053   5.739
 5442SOL    HW117225   4.041   0.018   5.799
 5442SOL    HW217226   4.160   0.128   5.785
 5443SOL     OW17227   4.913   1.255   3.477
 5443SOL    HW117228   4.861   1.188   3.528
 5443SOL    HW217229   4.884   1.254   3.381
 5444SOL     OW17230   6.283   1.623   4.573
 5444SOL    HW117231   6.201   1.568   4.558
 5444SOL    HW217232   6.317   1.608   4.666
 5445SOL     OW17233   6.200   5.970   4.647
 5445SOL    HW117234   6.157   5.881   4.632
 5445SOL    HW217235   6.280   5.980   4.588
 5446SOL     OW17236   6.988   4.133   6.118
 5446SOL    HW117237   6.940   4.169   6.197
 5446SOL    HW217238   0.037   4.070   6.147
 5447SOL     OW17239   0.563   2.675   1.325
 5447SOL    HW117240   0.605   2.589   1.355
 5447SOL    HW217241   0.551   2.736   1.403
 5448SOL     OW17242   4.761   5.016   3.115
 5448SOL    HW117243   4.776   4.952   3.191
 5448SOL    HW217244   4.682   5.074   3.136
 5449SOL     OW17245   3.279   1.048   2.028
 5449SOL    HW117246   3.291   1.130   2.085
 5449SOL    HW217247   3.212   1.066   1.956
 5450SOL     OW17248   4.278   5.672   1.529
 5450SOL    HW117249   4.203   5.704   1.471
 5450SOL    HW217250   4.245   5.601   1.591
 5451SOL     OW17251   6.957   6.974   2.984
 5451SOL    HW117252   6.868   6.938   3.012
 5451SOL    HW217253   0.007   6.918   3.023
 5452SOL     OW17254   2.413   4.387   1.989
 5452SOL    HW117255   2.406   4.402   2.088
 5452SOL    HW217256   2.465   4.462   1.948
 5453SOL     OW17257   5.983   3.538   2.992
 5453SOL    HW117258   5.901   3.511   3.043
 5453SOL    HW217259   5.982   3.637   2.978
 5454SOL     OW17260   5.825   4.305   2.238
 5454SOL    HW117261   5.742   4.312   2.294
 5454SOL    HW217262   5.904   4.335   2.291
 5455SOL     OW17263   1.828   1.968   4.028
 5455SOL    HW117264   1.876   1.912   4.095
 5455SOL    HW217265   1.884   1.979   3.946
 5456SOL     OW17266   5.218   1.650   1.081
 5456SOL    HW117267   5.232   1.552   1.065
 5456SOL    HW217268   5.147   1.683   1.020
 5457SOL     OW17269   6.039   1.483   6.617
 5457SOL    HW117270   6.020   1.568   6.666
 5457SOL    HW217271   5.955   1.450   6.574
 5458SOL     OW17272   6.037   3.082   0.062
 5458SOL    HW117273   6.015   2.985   0.059
 5458SOL    HW217274   5.997   3.123   0.144
 5459SOL     OW17275   1.854   3.266   5.250
 5459SOL    HW117276   1.867   3.172   5.281
 5459SOL    HW217277   1.926   3.324   5.289
 5460SOL     OW17278   1.477   1.115   1.164
 5460SOL    HW117279   1.544   1.172   1.212
 5460SOL    HW217280   1.425   1.062   1.231
 5461SOL     OW17281   6.527   1.514   5.242
 5461SOL    HW117282   6.530   1.609   5.274
 5461SOL    HW217283   6.618   1.487   5.210
 5462SOL     OW17284   4.597   4.186   6.555
 5462SOL    HW117285   4.499   4.205   6.544
 5462SOL    HW217286   4.648   4.229   6.482
 5463SOL     OW17287   1.277   2.877   6.944
 5463SOL    HW117288   1.244   2.787   6.973
 5463SOL    HW217289   1.294   2.876   6.846
 5464SOL     OW17290   0.970   5.939   6.039
 5464SOL    HW117291   0.953   5.985   5.951
 5464SOL    HW217292   0.912   5.858   6.046
 5465SOL     OW17293   6.576   6.612   3.763
 5465SOL    HW117294   6.512   6.689   3.775
 5465SOL    HW217295   6.525   6.529   3.743
 5466SOL     OW17296   5.921   2.712   4.886
 5466SOL    HW117297   5.998   2.651   4.905
 5466SOL    HW217298   5.951   2.787   4.827
 5467SOL     OW17299   4.553   2.616   4.276
 5467SOL    HW117300   4.582   2.646   4.367
 5467SOL    HW217301   4.472   2.559   4.284
 5468SOL     OW17302   6.992   1.436   0.873
 5468SOL    HW117303   6.973   1.534   0.877
 5468SOL    HW217304   6.919   1.389   0.823
 5469SOL     OW17305   3.168   0.200   5.063
 5469SOL    HW117306   3.095   0.144   5.102
 5469SOL    HW217307   3.140   0.296   5.063
 5470SOL     OW17308   3.617   5.257   3.502
 5470SOL    HW117309   3.588   5.327   3.566
 5470SOL    HW217310   3.631   5.298   3.411
 5471SOL     OW17311   4.443   0.861   3.345
 5471SOL    HW117312   4.366   0.898   3.294
 5471SOL    HW217313   4.519   0.926   3.342
 5472SOL     OW17314   2.574   2.358   6.885
 5472SOL    HW117315   2.479   2.367   6.854
 5472SOL    HW217316   2.636   2.366   6.807
 5473SOL     OW17317   2.716   4.559   1.658
 5473SOL    HW117318   2.651   4.484   1.648
 5473SOL    HW217319   2.771   4.544   1.740
 5474SOL     OW17320   1.049   5.292   2.961
 5474SOL    HW117321   0.997   5.213   2.930
 5474SOL    HW217322   1.111   5.322   2.889
 5475SOL     OW17323   0.138   1.670   5.306
 5475SOL    HW117324   0.229   1.690   5.270
 5475SOL    HW217325   0.070   1.684   5.234
 5476SOL     OW17326   2.644   6.583   5.826
 5476SOL    HW117327   2.579   6.636   5.771
 5476SOL    HW217328   2.715   6.644   5.861
 5477SOL     OW17329   1.530   4.449   4.542
 5477SOL    HW117330   1.602   4.510   4.507
 5477SOL    HW217331   1.557   4.414   4.631
 5478SOL     OW17332   5.310   4.070   5.659
 5478SOL    HW117333   5.234   4.019   5.700
 5478SOL    HW217334   5.307   4.164   5.691
 5479SOL     OW17335   3.868   1.031   4.724
 5479SOL    HW117336   3.869   1.026   4.624
 5479SOL    HW217337   3.799   0.969   4.760
 5480SOL     OW17338   0.099   3.981   4.397
 5480SOL    HW117339   0.156   3.929   4.461
 5480SOL    HW217340   0.008   3.940   4.394
 5481SOL     OW17341   4.265   1.001   6.667
 5481SOL    HW117342   4.209   1.059   6.726
 5481SOL    HW217343   4.361   1.007   6.696
 5482SOL     OW17344   5.209   2.800   1.255
 5482SOL    HW117345   5.276   2.813   1.329
 5482SOL    HW217346   5.123   2.846   1.280
 5483SOL     OW17347   0.171   3.365   5.595
 5483SOL    HW117348   0.213   3.390   5.683
 5483SOL    HW217349   0.231   3.393   5.520
 5484SOL     OW17350   6.076   6.469   4.412
 5484SOL    HW117351   6.132   6.420   4.479
 5484SOL    HW217352   6.029   6.545   4.458
 5485SOL     OW17353   3.087   6.663   5.387
 5485SOL    HW117354   3.107   6.602   5.311
 5485SOL    HW217355   3.162   6.728   5.399
 5486SOL     OW17356   0.407   0.851   3.292
 5486SOL    HW117357   0.320   0.889   3.321
 5486SOL    HW217358   0.476   0.923   3.290
 5487SOL     OW17359   5.199   5.130   0.415
 5487SOL    HW117360   5.295   5.150   0.395
 5487SOL    HW217361   5.183   5.136   0.513
 5488SOL     OW17362   5.740   1.463   6.464
 5488SOL    HW117363   5.814   1.505   6.411
 5488SOL    HW217364   5.652   1.497   6.431
 5489SOL     OW17365   1.389   4.051   3.063
 5489SOL    HW117366   1.402   4.054   3.162
 5489SOL    HW217367   1.392   3.956   3.032
 5490SOL     OW17368   2.145   1.493   0.583
 5490SOL    HW117369   2.165   1.395   0.579
 5490SOL    HW217370   2.226   1.542   0.613
 5491SOL     OW17371   0.975   5.214   0.940
 5491SOL    HW117372   0.914   5.206   0.861
 5491SOL    HW217373   1.052   5.152   0.928
 5492SOL     OW17374   0.972   1.429   6.370
 5492SOL    HW117375   0.996   1.525   6.378
 5492SOL    HW217376   0.872   1.419   6.366
 5493SOL     OW17377   3.295   3.489   7.002
 5493SOL    HW117378   3.257   3.554   6.937
 5493SOL    HW217379   3.301   3.532   0.069
 5494SOL     OW17380   5.640   2.837   1.809
 5494SOL    HW117381   5.601   2.928   1.821
 5494SOL    HW217382   5.587   2.770   1.861
 5495SOL     OW17383   3.895   3.603   2.540
 5495SOL    HW117384   3.945   3.687   2.562
 5495SOL    HW217385   3.960   3.530   2.520
 5496SOL     OW17386   4.100   5.846   1.404
 5496SOL    HW117387   4.123   5.915   1.473
 5496SOL    HW217388   4.054   5.890   1.327
 5497SOL     OW17389   6.424   0.549   1.815
 5497SOL    HW117390   6.452   0.589   1.728
 5497SOL    HW217391   6.444   0.613   1.889
 5498SOL     OW17392   4.325   1.133   5.539
 5498SOL    HW117393   4.419   1.145   5.570
 5498SOL    HW217394   4.265   1.193   5.592
 5499SOL     OW17395   0.134   1.284   2.619
 5499SOL    HW117396   0.125   1.381   2.642
 5499SOL    HW217397   0.069   1.230   2.672
 5500SOL     OW17398   2.429   5.454   1.541
 5500SOL    HW117399   2.352   5.465   1.478
 5500SOL    HW217400   2.500   5.399   1.499
 5501SOL     OW17401   2.726   0.048   2.273
 5501SOL    HW117402   2.743   6.987   2.324
 5501SOL    HW217403   2.635   0.084   2.297
 5502SOL     OW17404   5.535   3.669   5.725
 5502SOL    HW117405   5.509   3.636   5.634
 5502SOL    HW217406   5.530   3.769   5.727
 5503SOL     OW17407   1.222   5.283   3.785
 5503SOL    HW117408   1.300   5.346   3.788
 5503SOL    HW217409   1.177   5.291   3.696
 5504SOL     OW17410   3.184   1.936   5.188
 5504SOL    HW117411   3.241   1.973   5.115
 5504SOL    HW217412   3.182   1.836   5.182
 5505SOL     OW17413   3.037   5.280   5.832
 5505SOL    HW117414   3.049   5.308   5.737
 5505SOL    HW217415   2.963   5.212   5.838
 5506SOL     OW17416   6.244   0.588   5.644
 5506SOL    HW117417   6.154   0.561   5.678
 5506SOL    HW217418   6.234   0.671   5.588
 5507SOL     OW17419   2.412   5.989   3.916
 5507SOL    HW117420   2.459   6.003   3.829
 5507SOL    HW217421   2.398   6.077   3.961
 5508SOL     OW17422   3.392   0.700   6.576
 5508SOL    HW117423   3.366   0.758   6.498
 5508SOL    HW217424   3.314   0.687   6.636
 5509SOL     OW17425   5.791   6.862   6.611
 5509SOL    HW117426   5.702   6.907   6.606
 5509SOL    HW217427   5.853   6.918   6.666
 5510SOL     OW17428   5.342   0.893   5.874
 5510SOL    HW117429   5.377   0.987   5.879
 5510SOL    HW217430   5.344   0.861   5.779
 5511SOL     OW17431   0.722   0.711   1.958
 5511SOL    HW117432   0.724   0.619   1.995
 5511SOL    HW217433   0.786   0.769   2.008
 5512SOL     OW17434   1.245   0.695   6.928
 5512SOL    HW117435   1.320   0.629   6.935
 5512SOL    HW217436   1.225   0.733   7.018
 5513SOL     OW17437   4.632   4.291   4.513
 5513SOL    HW117438   4.697   4.219   4.539
 5513SOL    HW217439   4.599   4.274   4.420
 5514SOL     OW17440   5.318   4.591   2.422
 5514SOL    HW117441   5.287   4.529   2.494
 5514SOL    HW217442   5.394   4.550   2.373
 5515SOL     OW17443   6.767   2.680   1.641
 5515SOL    HW117444   6.734   2.722   1.725
 5515SOL    HW217445   6.860   2.646   1.654
 5516SOL     OW17446   1.251   3.682   6.357
 5516SOL    HW117447   1.187   3.716   6.426
 5516SOL    HW217448   1.250   3.742   6.277
 5517SOL     OW17449   2.321   1.965   1.806
 5517SOL    HW117450   2.273   2.015   1.733
 5517SOL    HW217451   2.418   1.986   1.802
 5518SOL     OW17452   6.097   5.295   5.088
 5518SOL    HW117453   6.060   5.224   5.028
 5518SOL    HW217454   6.195   5.278   5.102
 5519SOL     OW17455   5.372   4.019   3.928
 5519SOL    HW117456   5.279   4.033   3.895
 5519SOL    HW217457   5.435   4.017   3.850
 5520SOL     OW17458   1.495   4.078   1.980
 5520SOL    HW117459   1.439   4.160   1.969
 5520SOL    HW217460   1.577   4.101   2.033
 5521SOL     OW17461   6.027   5.258   1.538
 5521SOL    HW117462   6.036   5.187   1.468
 5521SOL    HW217463   6.099   5.327   1.523
 5522SOL     OW17464   2.378   3.322   1.653
 5522SOL    HW117465   2.451   3.386   1.630
 5522SOL    HW217466   2.332   3.353   1.737
 5523SOL     OW17467   2.904   0.626   2.227
 5523SOL    HW117468   2.873   0.672   2.145
 5523SOL    HW217469   2.960   0.547   2.202
 5524SOL     OW17470   6.983   4.835   6.042
 5524SOL    HW117471   6.978   4.779   6.125
 5524SOL    HW217472   6.936   4.922   6.057
 5525SOL     OW17473   6.482   5.679   5.490
 5525SOL    HW117474   6.535   5.757   5.524
 5525SOL    HW217475   6.393   5.711   5.456
 5526SOL     OW17476   6.163   3.273   4.285
 5526SOL    HW117477   6.200   3.363   4.310
 5526SOL    HW217478   6.064   3.274   4.295
 5527SOL     OW17479   1.501   3.511   1.643
 5527SOL    HW117480   1.432   3.438   1.645
 5527SOL    HW217481   1.457   3.599   1.660
 5528SOL     OW17482   0.767   3.677   4.345
 5528SOL    HW117483   0.678   3.664   4.302
 5528SOL    HW217484   0.788   3.774   4.351
 5529SOL     OW17485   2.632   1.424   4.822
 5529SOL    HW117486   2.657   1.521   4.821
 5529SOL    HW217487   2.712   1.368   4.801
 5530SOL     OW17488   0.804   2.739   0.473
 5530SOL    HW117489   0.862   2.659   0.457
 5530SOL    HW217490   0.830   2.813   0.411
 5531SOL     OW17491   3.564   2.893   5.767
 5531SOL    HW117492   3.574   2.975   5.711
 5531SOL    HW217493   3.643   2.833   5.753
 5532SOL     OW17494   2.186   1.653   1.325
 5532SOL    HW117495   2.090   1.663   1.298
 5532SOL    HW217496   2.245   1.677   1.248
 5533SOL     OW17497   3.718   1.203   1.301
 5533SOL    HW117498   3.633   1.153   1.321
 5533SOL    HW217499   3.793   1.138   1.291
 5534SOL     OW17500   0.245   4.063   6.571
 5534SOL    HW117501   0.214   4.136   6.632
 5534SOL    HW217502   0.228   3.974   6.615
 5535SOL     OW17503   6.361   3.241   2.504
 5535SOL    HW117504   6.442   3.287   2.468
 5535SOL    HW217505   6.351   3.152   2.460
 5536SOL     OW17506   2.740   0.728   3.960
 5536SOL    HW117507   2.814   0.710   4.024
 5536SOL    HW217508   2.763   0.690   3.871
 5537SOL     OW17509   4.075   0.036   5.268
 5537SOL    HW117510   4.090   7.009   5.353
 5537SOL    HW217511   4.036   6.997   5.200
 5538SOL     OW17512   4.522   1.644   6.996
 5538SOL    HW117513   4.476   1.596   0.047
 5538SOL    HW217514   4.511   1.591   6.911
 5539SOL     OW17515   2.386   6.822   1.438
 5539SOL    HW117516   2.392   6.875   1.523
 5539SOL    HW217517   2.290   6.805   1.417
 5540SOL     OW17518   5.101   1.826   0.061
 5540SOL    HW117519   5.046   1.885   0.121
 5540SOL    HW217520   5.143   1.882   7.012
 5541SOL     OW17521   4.684   3.914   6.627
 5541SOL    HW117522   4.651   3.879   6.539
 5541SOL    HW217523   4.669   4.013   6.631
 5542SOL     OW17524   5.688   4.230   6.382
 5542SOL    HW117525   5.590   4.217   6.394
 5542SOL    HW217526   5.716   4.318   6.420
 5543SOL     OW17527   1.666   0.123   1.136
 5543SOL    HW117528   1.613   0.049   1.177
 5543SOL    HW217529   1.754   0.132   1.183
 5544SOL     OW17530   4.355   5.169   6.021
 5544SOL    HW117531   4.274   5.126   6.061
 5544SOL    HW217532   4.365   5.262   6.057
 5545SOL     OW17533   4.521   0.876   2.973
 5545SOL    HW117534   4.437   0.822   2.965
 5545SOL    HW217535   4.504   0.957   3.030
 5546SOL     OW17536   6.971   6.212   5.805
 5546SOL    HW117537   6.950   6.276   5.730
 5546SOL    HW217538   6.983   6.120   5.768
 5547SOL     OW17539   5.314   1.692   5.344
 5547SOL    HW117540   5.244   1.685   5.273
 5547SOL    HW217541   5.361   1.604   5.353
 5548SOL     OW17542   6.608   3.994   5.246
 5548SOL    HW117543   6.636   3.941   5.327
 5548SOL    HW217544   6.529   3.950   5.204
 5549SOL     OW17545   3.905   3.402   1.944
 5549SOL    HW117546   3.879   3.388   1.848
 5549SOL    HW217547   3.831   3.372   2.003
 5550SOL     OW17548   1.588   4.222   3.311
 5550SOL    HW117549   1.500   4.175   3.316
 5550SOL    HW217550   1.661   4.154   3.302
 5551SOL     OW17551   2.277   5.441   3.628
 5551SOL    HW117552   2.241   5.473   3.715
 5551SOL    HW217553   2.294   5.520   3.568
 5552SOL     OW17554   6.982   6.956   6.177
 5552SOL    HW117555   6.897   6.989   6.217
 5552SOL    HW217556   6.995   6.860   6.200
 5553SOL     OW17557   4.779   0.463   6.740
 5553SOL    HW117558   4.757   0.554   6.776
 5553SOL    HW217559   4.854   0.472   6.674
 5554SOL     OW17560   5.781   2.961   1.237
 5554SOL    HW117561   5.881   2.955   1.238
 5554SOL    HW217562   5.753   3.042   1.187
 5555SOL     OW17563   1.204   3.998   2.619
 5555SOL    HW117564   1.249   4.027   2.535
 5555SOL    HW217565   1.106   3.991   2.604
 5556SOL     OW17566   6.732   1.000   4.310
 5556SOL    HW117567   6.740   1.041   4.219
 5556SOL    HW217568   6.661   1.049   4.361
 5557SOL     OW17569   3.284   5.449   2.206
 5557SOL    HW117570   3.342   5.489   2.277
 5557SOL    HW217571   3.340   5.429   2.125
 5558SOL     OW17572   3.410   4.364   0.698
 5558SOL    HW117573   3.473   4.403   0.631
 5558SOL    HW217574   3.460   4.301   0.757
 5559SOL     OW17575   1.251   6.869   2.899
 5559SOL    HW117576   1.284   6.893   2.991
 5559SOL    HW217577   1.181   6.934   2.871
 5560SOL     OW17578   0.279   5.417   3.004
 5560SOL    HW117579   0.226   5.381   2.927
 5560SOL    HW217580   0.277   5.351   3.079
 5561SOL     OW17581   3.207   1.154   3.787
 5561SOL    HW117582   3.170   1.247   3.780
 5561SOL    HW217583   3.138   1.088   3.757
 5562SOL     OW17584   4.237   4.044   0.489
 5562SOL    HW117585   4.232   3.965   0.429
 5562SOL    HW217586   4.261   4.125   0.436
 5563SOL     OW17587   3.209   4.882   3.061
 5563SOL    HW117588   3.275   4.929   3.120
 5563SOL    HW217589   3.117   4.899   3.095
 5564SOL     OW17590   5.322   0.490   5.834
 5564SOL    HW117591   5.389   0.476   5.907
 5564SOL    HW217592   5.256   0.559   5.863
 5565SOL     OW17593   3.780   3.145   0.504
 5565SOL    HW117594   3.742   3.105   0.420
 5565SOL    HW217595   3.795   3.243   0.490
 5566SOL     OW17596   0.921   3.648   0.344
 5566SOL    HW117597   0.933   3.744   0.369
 5566SOL    HW217598   0.892   3.596   0.424
 5567SOL     OW17599   6.859   3.514   1.516
 5567SOL    HW117600   6.861   3.609   1.546
 5567SOL    HW217601   6.951   3.485   1.492
 5568SOL     OW17602   4.456   6.578   2.644
 5568SOL    HW117603   4.357   6.582   2.645
 5568SOL    HW217604   4.487   6.501   2.700
 5569SOL     OW17605   2.817   2.077   3.382
 5569SOL    HW117606   2.905   2.114   3.412
 5569SOL    HW217607   2.744   2.141   3.409
 5570SOL     OW17608   6.439   3.363   3.615
 5570SOL    HW117609   6.380   3.395   3.689
 5570SOL    HW217610   6.531   3.399   3.627
 5571SOL     OW17611   6.970   5.410   2.073
 5571SOL    HW117612   0.001   5.360   2.142
 5571SOL    HW217613   0.008   5.466   2.018
 5572SOL     OW17614   1.067   3.702   5.266
 5572SOL    HW117615   0.974   3.707   5.303
 5572SOL    HW217616   1.081   3.776   5.201
 5573SOL     OW17617   1.440   4.891   5.287
 5573SOL    HW117618   1.453   4.920   5.382
 5573SOL    HW217619   1.487   4.804   5.271
 5574SOL     OW17620   0.685   2.300   6.363
 5574SOL    HW117621   0.747   2.377   6.376
 5574SOL    HW217622   0.716   2.245   6.286
 5575SOL     OW17623   1.012   0.321   1.670
 5575SOL    HW117624   1.103   0.281   1.668
 5575SOL    HW217625   1.011   0.397   1.735
 5576SOL     OW17626   2.438   4.374   3.163
 5576SOL    HW117627   2.387   4.288   3.157
 5576SOL    HW217628   2.495   4.386   3.082
 5577SOL     OW17629   1.300   3.289   6.865
 5577SOL    HW117630   1.318   3.267   6.960
 5577SOL    HW217631   1.207   3.260   6.841
 5578SOL     OW17632   3.878   3.433   3.176
 5578SOL    HW117633   3.802   3.457   3.117
 5578SOL    HW217634   3.956   3.492   3.156
 5579SOL     OW17635   0.160   3.085   1.067
 5579SOL    HW117636   0.245   3.081   1.014
 5579SOL    HW217637   0.148   3.000   1.117
 5580SOL     OW17638   4.953   1.563   6.086
 5580SOL    HW117639   5.002   1.633   6.034
 5580SOL    HW217640   4.900   1.506   6.023
 5581SOL     OW17641   0.426   1.943   0.925
 5581SOL    HW117642   0.520   1.914   0.939
 5581SOL    HW217643   0.373   1.868   0.885
 5582SOL     OW17644   2.566   3.719   6.458
 5582SOL    HW117645   2.653   3.695   6.415
 5582SOL    HW217646   2.584   3.770   6.542
 5583SOL     OW17647   4.917   0.470   2.673
 5583SOL    HW117648   4.884   0.507   2.760
 5583SOL    HW217649   4.946   0.545   2.614
 5584SOL     OW17650   6.833   4.239   4.912
 5584SOL    HW117651   6.907   4.305   4.913
 5584SOL    HW217652   6.767   4.262   4.983
 5585SOL     OW17653   4.934   4.920   2.637
 5585SOL    HW117654   4.931   4.844   2.572
 5585SOL    HW217655   4.998   4.898   2.710
 5586SOL     OW17656   6.832   3.859   6.075
 5586SOL    HW117657   6.893   3.897   6.005
 5586SOL    HW217658   6.869   3.773   6.110
 5587SOL     OW17659   4.513   1.307   6.607
 5587SOL    HW117660   4.440   1.253   6.566
 5587SOL    HW217661   4.566   1.353   6.536
 5588SOL     OW17662   2.683   6.849   2.736
 5588SOL    HW117663   2.691   6.749   2.733
 5588SOL    HW217664   2.762   6.890   2.689
 5589SOL     OW17665   5.855   4.306   6.167
 5589SOL    HW117666   5.953   4.294   6.185
 5589SOL    HW217667   5.803   4.265   6.241
 5590SOL     OW17668   5.308   5.893   3.971
 5590SOL    HW117669   5.250   5.894   3.890
 5590SOL    HW217670   5.251   5.879   4.052
 5591SOL     OW17671   0.180   1.783   1.526
 5591SOL    HW117672   0.106   1.843   1.497
 5591SOL    HW217673   0.187   1.785   1.626
 5592SOL     OW17674   1.490   4.814   3.426
 5592SOL    HW117675   1.452   4.735   3.475
 5592SOL    HW217676   1.445   4.822   3.337
 5593SOL     OW17677   6.760   2.886   6.748
 5593SOL    HW117678   6.853   2.853   6.766
 5593SOL    HW217679   6.758   2.986   6.756
 5594SOL     OW17680   5.153   1.377   5.141
 5594SOL    HW117681   5.214   1.317   5.192
 5594SOL    HW217682   5.059   1.344   5.151
 5595SOL     OW17683   1.297   2.300   5.073
 5595SOL    HW117684   1.238   2.220   5.086
 5595SOL    HW217685   1.320   2.340   5.161
 5596SOL     OW17686   3.864   6.962   2.926
 5596SOL    HW117687   3.827   0.025   2.892
 5596SOL    HW217688   3.907   6.911   2.851
 5597SOL     OW17689   5.053   2.808   4.202
 5597SOL    HW117690   5.047   2.710   4.179
 5597SOL    HW217691   4.961   2.843   4.220
 5598SOL     OW17692   4.612   2.686   3.898
 5598SOL    HW117693   4.699   2.641   3.918
 5598SOL    HW217694   4.629   2.769   3.844
 5599SOL     OW17695   1.140   0.673   4.539
 5599SOL    HW117696   1.203   0.664   4.615
 5599SOL    HW217697   1.177   0.625   4.459
 5600SOL     OW17698   0.962   2.065   3.264
 5600SOL    HW117699   1.010   2.146   3.296
 5600SOL    HW217700   1.019   2.015   3.199
 5601SOL     OW17701   2.401   0.996   6.017
 5601SOL    HW117702   2.388   0.897   6.007
 5601SOL    HW217703   2.314   1.043   6.000
 5602SOL     OW17704   0.644   1.485   0.820
 5602SOL    HW117705   0.723   1.494   0.881
 5602SOL    HW217706   0.564   1.460   0.874
 5603SOL     OW17707   5.310   1.497   6.993
 5603SOL    HW117708   5.219   1.500   0.010
 5603SOL    HW217709   5.346   1.590   6.987
 5604SOL     OW17710   6.453   2.100   5.696
 5604SOL    HW117711   6.443   2.055   5.785
 5604SOL    HW217712   6.540   2.150   5.694
 5605SOL     OW17713   0.515   1.142   4.846
 5605SOL    HW117714   0.600   1.116   4.800
 5605SOL    HW217715   0.536   1.178   4.937
 5606SOL     OW17716   5.716   6.385   1.310
 5606SOL    HW117717   5.731   6.364   1.214
 5606SOL    HW217718   5.669   6.309   1.354
 5607SOL     OW17719   5.203   1.413   2.205
 5607SOL    HW117720   5.253   1.366   2.132
 5607SOL    HW217721   5.186   1.349   2.280
 5608SOL     OW17722   4.517   0.288   4.358
 5608SOL    HW117723   4.583   0.249   4.422
 5608SOL    HW217724   4.489   0.379   4.390
 5609SOL     OW17725   2.208   5.947   0.431
 5609SOL    HW117726   2.213   6.013   0.506
 5609SOL    HW217727   2.175   5.860   0.466
 5610SOL     OW17728   5.020   7.009   0.114
 5610SOL    HW117729   5.104   0.014   0.161
 5610SOL    HW217730   4.985   0.062   0.060
 5611SOL     OW17731   1.911   4.944   2.585
 5611SOL    HW117732   1.897   4.978   2.492
 5611SOL    HW217733   2.009   4.940   2.605
 5612SOL     OW17734   3.639   1.983   6.358
 5612SOL    HW117735   3.668   2.061   6.412
 5612SOL    HW217736   3.707   1.964   6.287
 5613SOL     OW17737   4.650   4.306   2.551
 5613SOL    HW117738   4.715   4.378   2.573
 5613SOL    HW217739   4.566   4.319   2.604
 5614SOL     OW17740   4.162   2.287   3.440
 5614SOL    HW117741   4.204   2.203   3.405
 5614SOL    HW217742   4.192   2.364   3.384
 5615SOL     OW17743   0.647   0.461   6.530
 5615SOL    HW117744   0.583   0.496   6.598
 5615SOL    HW217745   0.712   0.532   6.506
 5616SOL     OW17746   2.321   0.570   5.189
 5616SOL    HW117747   2.227   0.534   5.193
 5616SOL    HW217748   2.334   0.638   5.260
 5617SOL     OW17749   2.372   0.056   6.271
 5617SOL    HW117750   2.366   0.153   6.246
 5617SOL    HW217751   2.374   0.000   6.188
 5618SOL     OW17752   7.006   3.826   4.662
 5618SOL    HW117753   7.014   3.753   4.594
 5618SOL    HW217754   6.949   3.794   4.738
 5619SOL     OW17755   2.867   4.012   6.355
 5619SOL    HW117756   2.851   3.927   6.303
 5619SOL    HW217757   2.862   3.992   6.453
 5620SOL     OW17758   3.696   3.023   0.264
 5620SOL    HW117759   3.726   2.960   0.192
 5620SOL    HW217760   3.603   2.999   0.293
 5621SOL     OW17761   1.568   1.711   5.692
 5621SOL    HW117762   1.551   1.746   5.784
 5621SOL    HW217763   1.596   1.786   5.632
 5622SOL     OW17764   4.831   0.111   5.906
 5622SOL    HW117765   4.914   0.070   5.868
 5622SOL    HW217766   4.833   0.210   5.890
 5623SOL     OW17767   1.955   6.436   6.080
 5623SOL    HW117768   1.873   6.453   6.135
 5623SOL    HW217769   1.929   6.412   5.987
 5624SOL     OW17770   1.361   4.772   3.184
 5624SOL    HW117771   1.318   4.727   3.262
 5624SOL    HW217772   1.405   4.704   3.126
 5625SOL     OW17773   6.257   2.243   4.280
 5625SOL    HW117774   6.255   2.335   4.319
 5625SOL    HW217775   6.174   2.229   4.225
 5626SOL     OW17776   3.015   6.469   4.984
 5626SOL    HW117777   2.983   6.398   4.921
 5626SOL    HW217778   2.943   6.490   5.050
 5627SOL     OW17779   1.608   5.927   1.169
 5627SOL    HW117780   1.689   5.976   1.136
 5627SOL    HW217781   1.637   5.849   1.224
 5628SOL     OW17782   1.579   2.162   5.658
 5628SOL    HW117783   1.632   2.239   5.622
 5628SOL    HW217784   1.585   2.161   5.758
 5629SOL     OW17785   3.160   3.672   1.777
 5629SOL    HW117786   3.102   3.687   1.857
 5629SOL    HW217787   3.216   3.753   1.760
 5630SOL     OW17788   1.520   4.681   0.899
 5630SOL    HW117789   1.457   4.650   0.828
 5630SOL    HW217790   1.576   4.756   0.864
 5631SOL     OW17791   3.976   1.996   0.184
 5631SOL    HW117792   3.931   2.005   0.095
 5631SOL    HW217793   4.073   1.974   0.170
 5632SOL     OW17794   4.345   3.870   6.131
 5632SOL    HW117795   4.298   3.865   6.219
 5632SOL    HW217796   4.367   3.965   6.110
 5633SOL     OW17797   6.509   2.461   3.665
 5633SOL    HW117798   6.530   2.555   3.693
 5633SOL    HW217799   6.592   2.417   3.632
 5634SOL     OW17800   3.066   5.358   5.564
 5634SOL    HW117801   3.048   5.288   5.495
 5634SOL    HW217802   3.055   5.449   5.524
 5635SOL     OW17803   2.074   3.224   5.029
 5635SOL    HW117804   2.073   3.132   4.991
 5635SOL    HW217805   2.082   3.291   4.954
 5636SOL     OW17806   3.766   6.099   2.451
 5636SOL    HW117807   3.722   6.185   2.477
 5636SOL    HW217808   3.836   6.118   2.381
 5637SOL     OW17809   5.906   0.139   4.144
 5637SOL    HW117810   6.005   0.124   4.149
 5637SOL    HW217811   5.860   0.051   4.132
 5638SOL     OW17812   5.704   2.700   1.180
 5638SOL    HW117813   5.706   2.667   1.086
 5638SOL    HW217814   5.683   2.798   1.180
 5639SOL     OW17815   0.582   1.514   6.594
 5639SOL    HW117816   0.507   1.499   6.529
 5639SOL    HW217817   0.669   1.504   6.547
 5640SOL     OW17818   2.609   0.489   4.200
 5640SOL    HW117819   2.638   0.416   4.137
 5640SOL    HW217820   2.687   0.518   4.255
 5641SOL     OW17821   6.935   4.306   5.926
 5641SOL    HW117822   6.946   4.250   6.009
 5641SOL    HW217823   6.857   4.367   5.938
 5642SOL     OW17824   1.707   0.329   0.007
 5642SOL    HW117825   1.760   0.382   6.963
 5642SOL    HW217826   1.710   0.376   0.096
 5643SOL     OW17827   5.620   2.466   4.333
 5643SOL    HW117828   5.680   2.520   4.393
 5643SOL    HW217829   5.675   2.404   4.278
 5644SOL     OW17830   2.954   0.009   5.620
 5644SOL    HW117831   2.922   0.095   5.579
 5644SOL    HW217832   3.049   0.019   5.649
 5645SOL     OW17833   6.259   3.656   3.388
 5645SOL    HW117834   6.305   3.625   3.472
 5645SOL    HW217835   6.311   3.625   3.309
 5646SOL     OW17836   2.341   4.651   3.054
 5646SOL    HW117837   2.267   4.708   3.090
 5646SOL    HW217838   2.303   4.566   3.017
 5647SOL     OW17839   5.498   6.073   2.210
 5647SOL    HW117840   5.417   6.105   2.259
 5647SOL    HW217841   5.487   5.976   2.189
 5648SOL     OW17842   2.781   5.842   2.919
 5648SOL    HW117843   2.765   5.792   2.833
 5648SOL    HW217844   2.855   5.908   2.905
 5649SOL     OW17845   0.950   5.249   4.118
 5649SOL    HW117846   1.038   5.224   4.077
 5649SOL    HW217847   0.926   5.181   4.187
 5650SOL     OW17848   0.770   4.637   0.486
 5650SOL    HW117849   0.750   4.548   0.445
 5650SOL    HW217850   0.776   4.627   0.585
 5651SOL     OW17851   1.336   0.146   0.184
 5651SOL    HW117852   1.281   0.062   0.183
 5651SOL    HW217853   1.299   0.211   0.118
 5652SOL     OW17854   0.178   5.344   2.237
 5652SOL    HW117855   0.246   5.410   2.208
 5652SOL    HW217856   0.204   5.304   2.324
 5653SOL     OW17857   0.177   6.189   1.144
 5653SOL    HW117858   0.174   6.248   1.063
 5653SOL    HW217859   0.272   6.167   1.165
 5654SOL     OW17860   1.582   6.142   4.838
 5654SOL    HW117861   1.641   6.220   4.822
 5654SOL    HW217862   1.490   6.174   4.863
 5655SOL     OW17863   6.466   3.237   3.940
 5655SOL    HW117864   6.403   3.182   3.995
 5655SOL    HW217865   6.533   3.176   3.897
 5656SOL     OW17866   0.159   3.252   6.493
 5656SOL    HW117867   0.169   3.349   6.516
 5656SOL    HW217868   0.232   3.224   6.432
 5657SOL     OW17869   4.446   4.713   4.203
 5657SOL    HW117870   4.375   4.754   4.146
 5657SOL    HW217871   4.463   4.772   4.282
 5658SOL     OW17872   1.703   2.747   6.069
 5658SOL    HW117873   1.695   2.788   6.159
 5658SOL    HW217874   1.722   2.818   6.001
 5659SOL     OW17875   3.131   4.156   6.620
 5659SOL    HW117876   3.222   4.196   6.610
 5659SOL    HW217877   3.128   4.101   6.703
 5660SOL     OW17878   4.830   0.026   6.359
 5660SOL    HW117879   4.827   0.025   6.259
 5660SOL    HW217880   4.775   6.974   6.395
 5661SOL     OW17881   0.818   5.713   6.073
 5661SOL    HW117882   0.758   5.729   6.152
 5661SOL    HW217883   0.762   5.707   5.990
 5662SOL     OW17884   2.698   6.384   3.051
 5662SOL    HW117885   2.797   6.396   3.042
 5662SOL    HW217886   2.659   6.360   2.963
 5663SOL     OW17887   1.319   2.634   0.961
 5663SOL    HW117888   1.295   2.704   1.028
 5663SOL    HW217889   1.236   2.598   0.919
 5664SOL     OW17890   5.501   4.380   4.481
 5664SOL    HW117891   5.430   4.425   4.428
 5664SOL    HW217892   5.561   4.328   4.420
 5665SOL     OW17893   1.675   0.050   0.551
 5665SOL    HW117894   1.645   0.064   0.645
 5665SOL    HW217895   1.606   0.083   0.488
 5666SOL     OW17896   6.426   1.515   4.149
 5666SOL    HW117897   6.328   1.534   4.152
 5666SOL    HW217898   6.441   1.416   4.139
 5667SOL     OW17899   1.737   5.102   4.685
 5667SOL    HW117900   1.755   5.054   4.771
 5667SOL    HW217901   1.710   5.036   4.615
 5668SOL     OW17902   6.007   2.881   3.175
 5668SOL    HW117903   6.106   2.872   3.174
 5668SOL    HW217904   5.965   2.797   3.140
 5669SOL     OW17905   6.088   3.862   6.543
 5669SOL    HW117906   6.000   3.824   6.572
 5669SOL    HW217907   6.142   3.887   6.623
 5670SOL     OW17908   1.276   2.549   2.826
 5670SOL    HW117909   1.249   2.478   2.761
 5670SOL    HW217910   1.197   2.607   2.847
 5671SOL     OW17911   6.856   6.395   3.714
 5671SOL    HW117912   6.850   6.483   3.668
 5671SOL    HW217913   6.817   6.402   3.806
 5672SOL     OW17914   5.140   3.946   5.006
 5672SOL    HW117915   5.050   3.923   5.043
 5672SOL    HW217916   5.192   3.999   5.073
 5673SOL     OW17917   0.660   6.889   1.707
 5673SOL    HW117918   0.736   6.856   1.762
 5673SOL    HW217919   0.668   6.988   1.694
 5674SOL     OW17920   1.321   5.362   4.898
 5674SOL    HW117921   1.260   5.435   4.929
 5674SOL    HW217922   1.416   5.392   4.903
 5675SOL     OW17923   2.930   1.091   0.201
 5675SOL    HW117924   2.876   1.077   0.284
 5675SOL    HW217925   2.970   1.182   0.202
 5676SOL     OW17926   2.649   2.391   1.911
 5676SOL    HW117927   2.584   2.414   1.984
 5676SOL    HW217928   2.740   2.377   1.951
 5677SOL     OW17929   6.710   0.904   0.899
 5677SOL    HW117930   6.751   0.867   0.816
 5677SOL    HW217931   6.641   0.840   0.933
 5678SOL     OW17932   3.548   1.569   1.918
 5678SOL    HW117933   3.529   1.492   1.856
 5678SOL    HW217934   3.519   1.545   2.010
 5679SOL     OW17935   6.043   3.020   4.578
 5679SOL    HW117936   5.960   3.048   4.626
 5679SOL    HW217937   6.025   3.018   4.480
 5680SOL     OW17938   1.161   5.144   6.153
 5680SOL    HW117939   1.163   5.244   6.161
 5680SOL    HW217940   1.255   5.109   6.149
 5681SOL     OW17941   0.525   4.038   3.237
 5681SOL    HW117942   0.487   3.953   3.199
 5681SOL    HW217943   0.514   4.112   3.170
 5682SOL     OW17944   2.233   4.709   2.798
 5682SOL    HW117945   2.297   4.687   2.872
 5682SOL    HW217946   2.143   4.670   2.818
 5683SOL     OW17947   4.372   2.399   6.988
 5683SOL    HW117948   4.435   2.380   6.913
 5683SOL    HW217949   4.293   2.448   6.952
 5684SOL     OW17950   2.187   2.675   5.891
 5684SOL    HW117951   2.237   2.605   5.840
 5684SOL    HW217952   2.191   2.761   5.841
 5685SOL     OW17953   2.148   2.204   4.049
 5685SOL    HW117954   2.173   2.114   4.013
 5685SOL    HW217955   2.217   2.233   4.116
 5686SOL     OW17956   3.500   0.859   6.096
 5686SOL    HW117957   3.435   0.883   6.023
 5686SOL    HW217958   3.511   0.760   6.100
 5687SOL     OW17959   1.144   6.217   5.856
 5687SOL    HW117960   1.194   6.222   5.769
 5687SOL    HW217961   1.194   6.158   5.920
 5688SOL     OW17962   2.117   3.871   3.352
 5688SOL    HW117963   2.191   3.809   3.378
 5688SOL    HW217964   2.059   3.827   3.284
 5689SOL     OW17965   1.310   1.043   0.946
 5689SOL    HW117966   1.378   1.054   1.019
 5689SOL    HW217967   1.260   0.957   0.959
 5690SOL     OW17968   0.732   5.494   6.911
 5690SOL    HW117969   0.710   5.588   6.935
 5690SOL    HW217970   0.703   5.475   6.818
 5691SOL     OW17971   3.835   1.277   2.375
 5691SOL    HW117972   3.906   1.256   2.442
 5691SOL    HW217973   3.823   1.199   2.314
 5692SOL     OW17974   4.914   5.457   1.293
 5692SOL    HW117975   4.922   5.420   1.386
 5692SOL    HW217976   4.845   5.530   1.292
 5693SOL     OW17977   3.457   0.580   0.926
 5693SOL    HW117978   3.475   0.604   0.831
 5693SOL    HW217979   3.514   0.635   0.986
 5694SOL     OW17980   0.442   0.581   2.640
 5694SOL    HW117981   0.378   0.561   2.714
 5694SOL    HW217982   0.526   0.528   2.653
 5695SOL     OW17983   1.264   0.869   1.694
 5695SOL    HW117984   1.243   0.833   1.603
 5695SOL    HW217985   1.358   0.844   1.718
 5696SOL     OW17986   1.300   6.977   4.365
 5696SOL    HW117987   1.267   6.946   4.275
 5696SOL    HW217988   1.222   6.995   4.424
 5697SOL     OW17989   6.104   2.774   1.543
 5697SOL    HW117990   6.133   2.746   1.452
 5697SOL    HW217991   6.007   2.750   1.556
 5698SOL     OW17992   1.744   3.200   3.557
 5698SOL    HW117993   1.738   3.242   3.466
 5698SOL    HW217994   1.677   3.127   3.564
 5699SOL     OW17995   2.295   2.529   3.401
 5699SOL    HW117996   2.206   2.565   3.426
 5699SOL    HW217997   2.360   2.545   3.475
 5700SOL     OW17998   6.416   0.152   2.034
 5700SOL    HW117999   6.421   0.086   2.110
 5700SOL    HW218000   6.325   0.148   1.993
 5701SOL     OW18001   6.505   1.396   1.405
 5701SOL    HW118002   6.536   1.431   1.316
 5701SOL    HW218003   6.439   1.460   1.444
 5702SOL     OW18004   2.256   7.006   4.762
 5702SOL    HW118005   2.289   0.059   4.706
 5702SOL    HW218006   2.233   0.016   4.853
 5703SOL     OW18007   6.648   3.631   6.614
 5703SOL    HW118008   6.732   3.589   6.579
 5703SOL    HW218009   6.636   3.604   6.710
 5704SOL     OW18010   5.253   4.184   3.437
 5704SOL    HW118011   5.239   4.283   3.438
 5704SOL    HW218012   5.177   4.140   3.390
 5705SOL     OW18013   5.886   6.124   6.323
 5705SOL    HW118014   5.790   6.096   6.312
 5705SOL    HW218015   5.902   6.209   6.272
 5706SOL     OW18016   5.921   1.840   0.351
 5706SOL    HW118017   5.864   1.761   0.328
 5706SOL    HW218018   5.893   1.918   0.293
 5707SOL     OW18019   5.278   6.727   1.485
 5707SOL    HW118020   5.182   6.699   1.481
 5707SOL    HW218021   5.308   6.757   1.394
 5708SOL     OW18022   4.694   5.473   3.701
 5708SOL    HW118023   4.650   5.520   3.624
 5708SOL    HW218024   4.791   5.500   3.704
 5709SOL     OW18025   0.988   1.098   1.878
 5709SOL    HW118026   1.075   1.052   1.894
 5709SOL    HW218027   0.918   1.061   1.938
 5710SOL     OW18028   2.358   2.987   0.858
 5710SOL    HW118029   2.273   2.953   0.898
 5710SOL    HW218030   2.360   3.087   0.864
 5711SOL     OW18031   5.055   0.717   1.761
 5711SOL    HW118032   5.008   0.802   1.785
 5711SOL    HW218033   5.006   0.671   1.687
 5712SOL     OW18034   6.765   6.115   0.972
 5712SOL    HW118035   6.711   6.097   1.054
 5712SOL    HW218036   6.757   6.037   0.910
 5713SOL     OW18037   2.585   6.037   0.831
 5713SOL    HW118038   2.594   6.135   0.851
 5713SOL    HW218039   2.584   6.023   0.732
 5714SOL     OW18040   5.857   5.785   1.142
 5714SOL    HW118041   5.883   5.724   1.217
 5714SOL    HW218042   5.828   5.873   1.180
 5715SOL     OW18043   0.892   6.910   0.406
 5715SOL    HW118044   0.957   6.871   0.471
 5715SOL    HW218045   0.927   6.899   0.313
 5716SOL     OW18046   0.895   4.410   5.983
 5716SOL    HW118047   0.847   4.497   5.968
 5716SOL    HW218048   0.876   4.377   6.075
 5717SOL     OW18049   2.125   4.791   3.131
 5717SOL    HW118050   2.044   4.758   3.180
 5717SOL    HW218051   2.096   4.840   3.049
 5718SOL     OW18052   0.859   3.087   0.611
 5718SOL    HW118053   0.797   3.163   0.631
 5718SOL    HW218054   0.952   3.112   0.640
 5719SOL     OW18055   2.981   4.052   1.633
 5719SOL    HW118056   2.884   4.049   1.609
 5719SOL    HW218057   2.992   4.033   1.731
 5720SOL     OW18058   2.159   5.145   5.988
 5720SOL    HW118059   2.091   5.085   6.029
 5720SOL    HW218060   2.126   5.239   5.988
 5721SOL     OW18061   5.007   4.129   6.891
 5721SOL    HW118062   5.035   4.058   6.828
 5721SOL    HW218063   4.931   4.181   6.852
 5722SOL     OW18064   0.610   0.480   5.725
 5722SOL    HW118065   0.624   0.433   5.812
 5722SOL    HW218066   0.604   0.413   5.651
 5723SOL     OW18067   4.227   3.553   0.032
 5723SOL    HW118068   4.327   3.549   0.028
 5723SOL    HW218069   4.194   3.503   0.113
 5724SOL     OW18070   5.501   2.480   3.519
 5724SOL    HW118071   5.457   2.488   3.429
 5724SOL    HW218072   5.577   2.544   3.524
 5725SOL     OW18073   5.923   4.666   3.405
 5725SOL    HW118074   5.937   4.751   3.354
 5725SOL    HW218075   5.928   4.685   3.503
 5726SOL     OW18076   4.683   4.393   3.227
 5726SOL    HW118077   4.780   4.370   3.235
 5726SOL    HW218078   4.660   4.410   3.132
 5727SOL     OW18079   1.275   2.248   4.648
 5727SOL    HW118080   1.333   2.236   4.729
 5727SOL    HW218081   1.179   2.255   4.677
 5728SOL     OW18082   5.083   6.059   5.054
 5728SOL    HW118083   5.109   6.094   5.144
 5728SOL    HW218084   5.165   6.040   5.001
 5729SOL     OW18085   2.417   1.578   6.015
 5729SOL    HW118086   2.460   1.489   6.031
 5729SOL    HW218087   2.472   1.650   6.058
 5730SOL     OW18088   6.649   4.498   5.922
 5730SOL    HW118089   6.552   4.522   5.932
 5730SOL    HW218090   6.669   4.478   5.826
 5731SOL     OW18091   0.157   6.499   1.535
 5731SOL    HW118092   0.156   6.516   1.437
 5731SOL    HW218093   0.063   6.502   1.571
 5732SOL     OW18094   0.937   6.769   4.196
 5732SOL    HW118095   0.898   6.746   4.106
 5732SOL    HW218096   1.027   6.726   4.204
 5733SOL     OW18097   3.409   6.953   5.154
 5733SOL    HW118098   3.483   6.886   5.143
 5733SOL    HW218099   3.425   0.007   5.092
 5734SOL     OW18100   1.783   5.883   3.544
 5734SOL    HW118101   1.812   5.892   3.448
 5734SOL    HW218102   1.750   5.972   3.577
 5735SOL     OW18103   3.050   1.371   1.601
 5735SOL    HW118104   3.004   1.385   1.689
 5735SOL    HW218105   3.110   1.449   1.583
 5736SOL     OW18106   0.937   5.617   6.466
 5736SOL    HW118107   0.891   5.541   6.419
 5736SOL    HW218108   0.898   5.627   6.558
 5737SOL     OW18109   4.930   4.868   6.734
 5737SOL    HW118110   4.892   4.839   6.645
 5737SOL    HW218111   5.026   4.843   6.739
 5738SOL     OW18112   1.501   3.295   6.401
 5738SOL    HW118113   1.534   3.289   6.307
 5738SOL    HW218114   1.473   3.389   6.421
 5739SOL     OW18115   0.862   1.027   0.893
 5739SOL    HW118116   0.936   1.060   0.952
 5739SOL    HW218117   0.834   1.098   0.829
 5740SOL     OW18118   4.065   5.805   6.603
 5740SOL    HW118119   4.040   5.815   6.699
 5740SOL    HW218120   3.989   5.837   6.546
 5741SOL     OW18121   6.942   5.531   5.032
 5741SOL    HW118122   6.906   5.616   5.073
 5741SOL    HW218123   0.012   5.547   4.999
 5742SOL     OW18124   6.505   6.279   3.027
 5742SOL    HW118125   6.408   6.285   3.050
 5742SOL    HW218126   6.533   6.360   2.975
 5743SOL     OW18127   1.741   6.362   5.148
 5743SOL    HW118128   1.780   6.367   5.240
 5743SOL    HW218129   1.748   6.452   5.104
 5744SOL     OW18130   5.708   0.580   0.984
 5744SOL    HW118131   5.782   0.574   1.051
 5744SOL    HW218132   5.716   0.666   0.933
 5745SOL     OW18133   2.206   1.877   4.299
 5745SOL    HW118134   2.133   1.845   4.238
 5745SOL    HW218135   2.252   1.956   4.258
 5746SOL     OW18136   5.150   2.134   7.006
 5746SOL    HW118137   5.112   2.221   0.014
 5746SOL    HW218138   5.104   2.106   6.921
 5747SOL     OW18139   0.912   5.581   3.465
 5747SOL    HW118140   0.853   5.573   3.545
 5747SOL    HW218141   0.988   5.643   3.486
 5748SOL     OW18142   2.998   5.983   2.734
 5748SOL    HW118143   2.927   5.952   2.670
 5748SOL    HW218144   3.078   5.923   2.726
 5749SOL     OW18145   2.336   2.271   3.191
 5749SOL    HW118146   2.298   2.356   3.227
 5749SOL    HW218147   2.284   2.242   3.110
 5750SOL     OW18148   6.400   5.420   3.020
 5750SOL    HW118149   6.436   5.444   2.930
 5750SOL    HW218150   6.441   5.333   3.049
 5751SOL     OW18151   2.436   3.595   5.358
 5751SOL    HW118152   2.462   3.577   5.453
 5751SOL    HW218153   2.445   3.510   5.305
 5752SOL     OW18154   6.815   6.844   6.515
 5752SOL    HW118155   6.781   6.876   6.427
 5752SOL    HW218156   6.740   6.805   6.568
 5753SOL     OW18157   3.536   2.548   0.367
 5753SOL    HW118158   3.580   2.458   0.363
 5753SOL    HW218159   3.576   2.601   0.441
 5754SOL     OW18160   6.283   4.940   1.773
 5754SOL    HW118161   6.301   4.950   1.675
 5754SOL    HW218162   6.363   4.900   1.818
 5755SOL     OW18163   3.107   4.301   0.203
 5755SOL    HW118164   3.081   4.385   0.251
 5755SOL    HW218165   3.064   4.300   0.112
 5756SOL     OW18166   6.841   5.776   4.380
 5756SOL    HW118167   6.887   5.756   4.294
 5756SOL    HW218168   6.845   5.695   4.439
 5757SOL     OW18169   0.163   5.124   0.620
 5757SOL    HW118170   0.128   5.216   0.635
 5757SOL    HW218171   0.120   5.084   0.539
 5758SOL     OW18172   1.417   2.495   5.587
 5758SOL    HW118173   1.386   2.479   5.493
 5758SOL    HW218174   1.517   2.494   5.590
 5759SOL     OW18175   5.416   1.744   6.083
 5759SOL    HW118176   5.447   1.834   6.054
 5759SOL    HW218177   5.459   1.673   6.027
 5760SOL     OW18178   1.882   5.764   2.466
 5760SOL    HW118179   1.883   5.837   2.534
 5760SOL    HW218180   1.968   5.765   2.415
 5761SOL     OW18181   4.832   6.706   4.597
 5761SOL    HW118182   4.872   6.688   4.507
 5761SOL    HW218183   4.903   6.740   4.659
 5762SOL     OW18184   5.737   6.015   1.284
 5762SOL    HW118185   5.797   6.094   1.297
 5762SOL    HW218186   5.651   6.030   1.332
 5763SOL     OW18187   1.551   0.755   1.439
 5763SOL    HW118188   1.651   0.762   1.430
 5763SOL    HW218189   1.514   0.704   1.361
 5764SOL     OW18190   4.966   3.459   5.548
 5764SOL    HW118191   5.005   3.380   5.501
 5764SOL    HW218192   4.914   3.428   5.628
 5765SOL     OW18193   5.770   4.355   0.091
 5765SOL    HW118194   5.752   4.441   0.044
 5765SOL    HW218195   5.690   4.329   0.145
 5766SOL     OW18196   3.060   1.850   2.547
 5766SOL    HW118197   2.978   1.901   2.574
 5766SOL    HW218198   3.033   1.774   2.487
 5767SOL     OW18199   0.092   6.514   1.276
 5767SOL    HW118200   0.038   6.431   1.291
 5767SOL    HW218201   0.031   6.590   1.251
 5768SOL     OW18202   6.531   2.077   2.453
 5768SOL    HW118203   6.573   2.149   2.508
 5768SOL    HW218204   6.541   2.099   2.356
 5769SOL     OW18205   2.332   5.495   4.517
 5769SOL    HW118206   2.272   5.431   4.470
 5769SOL    HW218207   2.281   5.578   4.541
 5770SOL     OW18208   6.267   0.731   1.348
 5770SOL    HW118209   6.227   0.644   1.321
 5770SOL    HW218210   6.343   0.753   1.287
 5771SOL     OW18211   1.404   1.466   1.125
 5771SOL    HW118212   1.446   1.375   1.130
 5771SOL    HW218213   1.376   1.495   1.216
 5772SOL     OW18214   5.495   3.965   0.206
 5772SOL    HW118215   5.522   3.869   0.194
 5772SOL    HW218216   5.554   4.008   0.274
 5773SOL     OW18217   5.472   5.861   4.578
 5773SOL    HW118218   5.415   5.786   4.545
 5773SOL    HW218219   5.474   5.934   4.509
 5774SOL     OW18220   1.898   5.454   4.180
 5774SOL    HW118221   1.884   5.477   4.084
 5774SOL    HW218222   1.809   5.443   4.225
 5775SOL     OW18223   0.451   6.636   6.097
 5775SOL    HW118224   0.481   6.570   6.166
 5775SOL    HW218225   0.520   6.707   6.086
 5776SOL     OW18226   4.992   0.390   5.585
 5776SOL    HW118227   4.998   0.480   5.628
 5776SOL    HW218228   5.057   0.327   5.628
 5777SOL     OW18229   0.286   1.090   4.679
 5777SOL    HW118230   0.321   1.058   4.591
 5777SOL    HW218231   0.362   1.100   4.743
 5778SOL     OW18232   1.456   6.869   3.854
 5778SOL    HW118233   1.474   6.813   3.935
 5778SOL    HW218234   1.385   6.826   3.799
 5779SOL     OW18235   4.379   1.168   1.981
 5779SOL    HW118236   4.393   1.264   2.005
 5779SOL    HW218237   4.282   1.145   1.992
 5780SOL     OW18238   5.656   4.007   1.767
 5780SOL    HW118239   5.728   4.074   1.784
 5780SOL    HW218240   5.583   4.019   1.834
 5781SOL     OW18241   1.641   5.611   4.748
 5781SOL    HW118242   1.577   5.581   4.677
 5781SOL    HW218243   1.719   5.548   4.750
 5782SOL     OW18244   2.927   1.871   2.230
 5782SOL    HW118245   2.938   1.970   2.223
 5782SOL    HW218246   2.836   1.845   2.199
 5783SOL     OW18247   1.525   6.939   1.221
 5783SOL    HW118248   1.552   6.868   1.156
 5783SOL    HW218249   1.503   6.897   1.309
 5784SOL     OW18250   1.951   6.055   0.341
 5784SOL    HW118251   1.919   6.016   0.255
 5784SOL    HW218252   2.041   6.016   0.364
 5785SOL     OW18253   1.776   1.803   0.327
 5785SOL    HW118254   1.852   1.753   0.285
 5785SOL    HW218255   1.690   1.773   0.286
 5786SOL     OW18256   1.212   3.481   1.792
 5786SOL    HW118257   1.193   3.477   1.890
 5786SOL    HW218258   1.150   3.547   1.748
 5787SOL     OW18259   6.587   3.231   5.182
 5787SOL    HW118260   6.665   3.173   5.207
 5787SOL    HW218261   6.619   3.324   5.166
 5788SOL     OW18262   2.526   1.694   1.994
 5788SOL    HW118263   2.573   1.619   2.040
 5788SOL    HW218264   2.571   1.715   1.908
 5789SOL     OW18265   3.661   4.359   6.328
 5789SOL    HW118266   3.652   4.306   6.412
 5789SOL    HW218267   3.570   4.378   6.291
 5790SOL     OW18268   5.531   5.859   4.119
 5790SOL    HW118269   5.501   5.881   4.212
 5790SOL    HW218270   5.458   5.882   4.054
 5791SOL     OW18271   4.104   1.636   2.148
 5791SOL    HW118272   4.030   1.628   2.081
 5791SOL    HW218273   4.122   1.546   2.187
 5792SOL     OW18274   4.868   3.173   3.055
 5792SOL    HW118275   4.877   3.138   2.962
 5792SOL    HW218276   4.866   3.273   3.053
 5793SOL     OW18277   4.627   2.020   5.898
 5793SOL    HW118278   4.550   1.956   5.908
 5793SOL    HW218279   4.607   2.085   5.825
 5794SOL     OW18280   4.262   0.343   0.193
 5794SOL    HW118281   4.285   0.246   0.183
 5794SOL    HW218282   4.345   0.398   0.187
 5795SOL     OW18283   2.200   5.801   1.816
 5795SOL    HW118284   2.129   5.751   1.866
 5795SOL    HW218285   2.284   5.747   1.813
 5796SOL     OW18286   4.894   2.265   6.425
 5796SOL    HW118287   4.991   2.244   6.418
 5796SOL    HW218288   4.871   2.336   6.357
 5797SOL     OW18289   5.283   2.337   1.233
 5797SOL    HW118290   5.258   2.333   1.329
 5797SOL    HW218291   5.240   2.417   1.191
 5798SOL     OW18292   1.626   4.103   5.653
 5798SOL    HW118293   1.601   4.007   5.642
 5798SOL    HW218294   1.558   4.149   5.710
 5799SOL     OW18295   2.592   6.721   3.371
 5799SOL    HW118296   2.507   6.766   3.395
 5799SOL    HW218297   2.579   6.665   3.289
 5800SOL     OW18298   0.707   0.056   1.366
 5800SOL    HW118299   0.763   0.117   1.422
 5800SOL    HW218300   0.613   0.088   1.366
 5801SOL     OW18301   2.304   2.042   2.881
 5801SOL    HW118302   2.355   2.109   2.827
 5801SOL    HW218303   2.368   1.977   2.923
 5802SOL     OW18304   0.353   1.466   1.685
 5802SOL    HW118305   0.312   1.388   1.732
 5802SOL    HW218306   0.289   1.502   1.618
 5803SOL     OW18307   0.331   5.073   3.782
 5803SOL    HW118308   0.291   4.988   3.748
 5803SOL    HW218309   0.428   5.060   3.800
 5804SOL     OW18310   5.716   1.901   3.507
 5804SOL    HW118311   5.682   1.992   3.527
 5804SOL    HW218312   5.664   1.833   3.561
 5805SOL     OW18313   1.758   2.597   1.754
 5805SOL    HW118314   1.849   2.564   1.732
 5805SOL    HW218315   1.734   2.673   1.694
 5806SOL     OW18316   0.271   4.235   2.044
 5806SOL    HW118317   0.300   4.321   2.003
 5806SOL    HW218318   0.210   4.254   2.121
 5807SOL     OW18319   1.055   0.329   1.077
 5807SOL    HW118320   0.993   0.330   1.156
 5807SOL    HW218321   1.065   0.236   1.043
 5808SOL     OW18322   6.806   6.825   5.860
 5808SOL    HW118323   6.818   6.743   5.804
 5808SOL    HW218324   6.891   6.877   5.863
 5809SOL     OW18325   0.887   2.332   5.713
 5809SOL    HW118326   0.914   2.412   5.660
 5809SOL    HW218327   0.804   2.353   5.765
 5810SOL     OW18328   3.596   6.998   5.717
 5810SOL    HW118329   3.530   0.049   5.731
 5810SOL    HW218330   3.670   7.007   5.783
 5811SOL     OW18331   3.189   3.903   5.973
 5811SOL    HW118332   3.125   3.834   5.940
 5811SOL    HW218333   3.223   3.956   5.896
 5812SOL     OW18334   5.607   2.102   0.472
 5812SOL    HW118335   5.531   2.066   0.527
 5812SOL    HW218336   5.572   2.129   0.382
 5813SOL     OW18337   5.038   6.375   0.201
 5813SOL    HW118338   4.989   6.460   0.186
 5813SOL    HW218339   4.975   6.307   0.241
 5814SOL     OW18340   5.285   1.392   0.917
 5814SOL    HW118341   5.321   1.305   0.883
 5814SOL    HW218342   5.321   1.467   0.862
 5815SOL     OW18343   6.520   1.779   4.168
 5815SOL    HW118344   6.527   1.785   4.268
 5815SOL    HW218345   6.485   1.689   4.142
 5816SOL     OW18346   0.363   3.365   2.434
 5816SOL    HW118347   0.276   3.317   2.442
 5816SOL    HW218348   0.425   3.332   2.506
 5817SOL     OW18349   6.450   3.526   3.182
 5817SOL    HW118350   6.409   3.487   3.100
 5817SOL    HW218351   6.526   3.469   3.211
 5818SOL     OW18352   2.039   0.208   5.413
 5818SOL    HW118353   1.958   0.157   5.386
 5818SOL    HW218354   2.020   0.262   5.495
 5819SOL     OW18355   4.708   5.203   0.208
 5819SOL    HW118356   4.666   5.145   0.138
 5819SOL    HW218357   4.637   5.258   0.253
 5820SOL     OW18358   5.600   5.769   2.154
 5820SOL    HW118359   5.611   5.842   2.087
 5820SOL    HW218360   5.612   5.681   2.109
 5821SOL     OW18361   6.697   7.001   1.034
 5821SOL    HW118362   6.707   6.901   1.040
 5821SOL    HW218363   6.651   0.011   1.117
 5822SOL     OW18364   1.806   3.520   2.870
 5822SOL    HW118365   1.778   3.595   2.930
 5822SOL    HW218366   1.875   3.553   2.806
 5823SOL     OW18367   2.237   5.547   3.882
 5823SOL    HW118368   2.190   5.481   3.939
 5823SOL    HW218369   2.210   5.640   3.910
 5824SOL     OW18370   0.713   0.119   2.196
 5824SOL    HW118371   0.650   0.189   2.162
 5824SOL    HW218372   0.690   0.097   2.291
 5825SOL     OW18373   5.859   0.854   4.351
 5825SOL    HW118374   5.917   0.891   4.424
 5825SOL    HW218375   5.902   0.871   4.262
 5826SOL     OW18376   0.048   0.049   5.136
 5826SOL    HW118377   0.106   0.125   5.167
 5826SOL    HW218378   6.988   0.046   5.190
 5827SOL     OW18379   2.348   4.447   4.691
 5827SOL    HW118380   2.296   4.473   4.610
 5827SOL    HW218381   2.383   4.354   4.680
 5828SOL     OW18382   4.134   6.667   4.860
 5828SOL    HW118383   4.091   6.584   4.895
 5828SOL    HW218384   4.189   6.644   4.779
 5829SOL     OW18385   2.293   1.078   4.370
 5829SOL    HW118386   2.293   1.047   4.275
 5829SOL    HW218387   2.209   1.048   4.415
 5830SOL     OW18388   3.376   5.775   4.463
 5830SOL    HW118389   3.336   5.866   4.468
 5830SOL    HW218390   3.305   5.706   4.476
 5831SOL     OW18391   1.745   2.174   5.297
 5831SOL    HW118392   1.776   2.179   5.392
 5831SOL    HW218393   1.823   2.153   5.238
 5832SOL     OW18394   2.922   5.351   1.677
 5832SOL    HW118395   2.841   5.364   1.735
 5832SOL    HW218396   2.896   5.358   1.581
 5833SOL     OW18397   3.526   4.225   6.555
 5833SOL    HW118398   3.528   4.173   6.640
 5833SOL    HW218399   3.555   4.167   6.479
 5834SOL     OW18400   5.783   2.842   6.113
 5834SOL    HW118401   5.708   2.907   6.113
 5834SOL    HW218402   5.782   2.790   6.027
 5835SOL     OW18403   5.396   1.847   2.479
 5835SOL    HW118404   5.474   1.894   2.520
 5835SOL    HW218405   5.373   1.890   2.392
 5836SOL     OW18406   5.031   6.706   3.491
 5836SOL    HW118407   4.934   6.727   3.504
 5836SOL    HW218408   5.040   6.628   3.430
 5837SOL     OW18409   3.158   5.284   6.916
 5837SOL    HW118410   3.156   5.375   6.875
 5837SOL    HW218411   3.247   5.268   6.959
 5838SOL     OW18412   3.019   2.410   1.117
 5838SOL    HW118413   2.973   2.374   1.036
 5838SOL    HW218414   3.112   2.438   1.093
 5839SOL     OW18415   2.154   2.049   0.771
 5839SOL    HW118416   2.178   1.979   0.838
 5839SOL    HW218417   2.214   2.128   0.782
 5840SOL     OW18418   0.912   3.113   3.083
 5840SOL    HW118419   0.882   3.044   3.017
 5840SOL    HW218420   0.842   3.126   3.153
 5841SOL     OW18421   5.002   2.043   0.654
 5841SOL    HW118422   5.063   2.118   0.679
 5841SOL    HW218423   4.923   2.042   0.716
 5842SOL     OW18424   2.266   2.131   1.124
 5842SOL    HW118425   2.358   2.093   1.135
 5842SOL    HW218426   2.239   2.177   1.208
 5843SOL     OW18427   2.087   3.760   1.200
 5843SOL    HW118428   2.170   3.718   1.164
 5843SOL    HW218429   2.108   3.807   1.286
 5844SOL     OW18430   0.605   6.940   5.145
 5844SOL    HW118431   0.567   6.884   5.218
 5844SOL    HW218432   0.578   6.903   5.057
 5845SOL     OW18433   1.251   6.987   1.800
 5845SOL    HW118434   1.282   6.981   1.895
 5845SOL    HW218435   1.321   0.008   1.744
 5846SOL     OW18436   6.437   4.035   6.101
 5846SOL    HW118437   6.393   3.990   6.179
 5846SOL    HW218438   6.402   4.128   6.091
 5847SOL     OW18439   2.519   4.103   0.469
 5847SOL    HW118440   2.503   4.153   0.384
 5847SOL    HW218441   2.530   4.169   0.544
 5848SOL     OW18442   1.801   4.995   2.328
 5848SOL    HW118443   1.793   5.093   2.310
 5848SOL    HW218444   1.841   4.950   2.248
 5849SOL     OW18445   3.707   6.130   5.526
 5849SOL    HW118446   3.671   6.083   5.445
 5849SOL    HW218447   3.805   6.146   5.514
 5850SOL     OW18448   1.095   1.642   2.836
 5850SOL    HW118449   1.092   1.655   2.936
 5850SOL    HW218450   1.187   1.662   2.803
 5851SOL     OW18451   6.509   3.868   4.486
 5851SOL    HW118452   6.424   3.884   4.537
 5851SOL    HW218453   6.587   3.894   4.542
 5852SOL     OW18454   4.717   4.121   2.331
 5852SOL    HW118455   4.699   4.186   2.405
 5852SOL    HW218456   4.683   4.031   2.358
 5853SOL     OW18457   3.359   5.026   5.595
 5853SOL    HW118458   3.300   4.953   5.561
 5853SOL    HW218459   3.433   5.042   5.529
 5854SOL     OW18460   3.068   4.699   5.323
 5854SOL    HW118461   2.995   4.652   5.273
 5854SOL    HW218462   3.126   4.632   5.369
 5855SOL     OW18463   2.138   3.546   3.047
 5855SOL    HW118464   2.092   3.623   3.092
 5855SOL    HW218465   2.166   3.480   3.116
 5856SOL     OW18466   1.354   6.838   3.420
 5856SOL    HW118467   1.403   6.802   3.341
 5856SOL    HW218468   1.416   6.841   3.499
 5857SOL     OW18469   6.175   4.243   6.629
 5857SOL    HW118470   6.175   4.342   6.614
 5857SOL    HW218471   6.088   4.205   6.600
 5858SOL     OW18472   2.047   0.353   3.360
 5858SOL    HW118473   2.086   0.421   3.298
 5858SOL    HW218474   1.959   0.321   3.325
 5859SOL     OW18475   6.127   0.233   1.426
 5859SOL    HW118476   6.159   0.163   1.489
 5859SOL    HW218477   6.203   0.265   1.369
 5860SOL     OW18478   0.541   4.645   3.272
 5860SOL    HW118479   0.635   4.676   3.287
 5860SOL    HW218480   0.522   4.643   3.174
 5861SOL     OW18481   5.040   1.113   5.738
 5861SOL    HW118482   4.980   1.065   5.803
 5861SOL    HW218483   5.065   1.202   5.775
 5862SOL     OW18484   6.995   5.786   2.019
 5862SOL    HW118485   0.041   5.719   1.992
 5862SOL    HW218486   6.934   5.746   2.088
 5863SOL     OW18487   4.212   0.310   5.838
 5863SOL    HW118488   4.218   0.358   5.926
 5863SOL    HW218489   4.170   0.369   5.770
 5864SOL     OW18490   3.318   3.699   2.340
 5864SOL    HW118491   3.254   3.759   2.292
 5864SOL    HW218492   3.404   3.749   2.357
 5865SOL     OW18493   6.292   0.556   5.949
 5865SOL    HW118494   6.221   0.572   5.879
 5865SOL    HW218495   6.377   0.601   5.921
 5866SOL     OW18496   3.749   3.004   3.208
 5866SOL    HW118497   3.649   3.009   3.205
 5866SOL    HW218498   3.786   3.028   3.119
 5867SOL     OW18499   3.796   1.615   2.094
 5867SOL    HW118500   3.792   1.708   2.130
 5867SOL    HW218501   3.728   1.604   2.021
 5868SOL     OW18502   1.044   1.239   5.841
 5868SOL    HW118503   1.142   1.243   5.860
 5868SOL    HW218504   1.023   1.153   5.794
 5869SOL     OW18505   0.575   5.824   3.862
 5869SOL    HW118506   0.672   5.807   3.877
 5869SOL    HW218507   0.521   5.770   3.927
 5870SOL     OW18508   3.942   4.885   4.255
 5870SOL    HW118509   3.976   4.959   4.196
 5870SOL    HW218510   3.845   4.868   4.234
 5871SOL     OW18511   2.883   3.550   3.910
 5871SOL    HW118512   2.798   3.527   3.957
 5871SOL    HW218513   2.926   3.628   3.955
 5872SOL     OW18514   4.474   5.610   1.933
 5872SOL    HW118515   4.492   5.525   1.983
 5872SOL    HW218516   4.556   5.667   1.934
 5873SOL     OW18517   3.895   5.548   2.218
 5873SOL    HW118518   3.956   5.469   2.226
 5873SOL    HW218519   3.848   5.562   2.305
 5874SOL     OW18520   2.449   4.572   5.993
 5874SOL    HW118521   2.531   4.603   5.945
 5874SOL    HW218522   2.420   4.483   5.957
 5875SOL     OW18523   2.502   1.461   0.975
 5875SOL    HW118524   2.569   1.474   0.902
 5875SOL    HW218525   2.550   1.432   1.059
 5876SOL     OW18526   3.571   3.193   1.895
 5876SOL    HW118527   3.471   3.197   1.893
 5876SOL    HW218528   3.599   3.109   1.941
 5877SOL     OW18529   5.873   4.352   0.485
 5877SOL    HW118530   5.910   4.423   0.425
 5877SOL    HW218531   5.876   4.264   0.438
 5878SOL     OW18532   2.269   4.503   2.613
 5878SOL    HW118533   2.349   4.539   2.565
 5878SOL    HW218534   2.239   4.570   2.681
 5879SOL     OW18535   0.035   4.114   5.290
 5879SOL    HW118536   0.130   4.098   5.261
 5879SOL    HW218537   0.003   4.036   5.344
 5880SOL     OW18538   1.975   5.914   1.108
 5880SOL    HW118539   1.944   5.876   1.195
 5880SOL    HW218540   2.049   5.857   1.072
 5881SOL     OW18541   0.626   5.754   4.505
 5881SOL    HW118542   0.574   5.762   4.590
 5881SOL    HW218543   0.604   5.667   4.461
 5882SOL     OW18544   4.729   0.995   1.561
 5882SOL    HW118545   4.680   0.911   1.537
 5882SOL    HW218546   4.798   1.014   1.492
 5883SOL     OW18547   0.288   3.858   5.824
 5883SOL    HW118548   0.198   3.816   5.831
 5883SOL    HW218549   0.299   3.927   5.895
 5884SOL     OW18550   1.588   1.235   2.832
 5884SOL    HW118551   1.577   1.300   2.908
 5884SOL    HW218552   1.513   1.169   2.835
 5885SOL     OW18553   6.087   6.800   1.167
 5885SOL    HW118554   6.004   6.827   1.119
 5885SOL    HW218555   6.102   6.701   1.155
 5886SOL     OW18556   1.499   1.474   5.977
 5886SOL    HW118557   1.557   1.469   5.895
 5886SOL    HW218558   1.548   1.524   6.049
 5887SOL     OW18559   3.780   6.982   4.452
 5887SOL    HW118560   3.769   6.893   4.496
 5887SOL    HW218561   3.877   7.000   4.438
 5888SOL     OW18562   2.466   0.501   3.899
 5888SOL    HW118563   2.424   0.435   3.837
 5888SOL    HW218564   2.551   0.463   3.936
 5889SOL     OW18565   3.026   0.761   0.959
 5889SOL    HW118566   3.052   0.831   1.026
 5889SOL    HW218567   2.947   0.710   0.993
 5890SOL     OW18568   2.695   4.656   5.889
 5890SOL    HW118569   2.762   4.730   5.895
 5890SOL    HW218570   2.709   4.593   5.965
 5891SOL     OW18571   3.223   3.892   6.973
 5891SOL    HW118572   3.183   3.974   6.931
 5891SOL    HW218573   3.252   3.913   0.043
 5892SOL     OW18574   0.631   6.803   1.449
 5892SOL    HW118575   0.603   6.844   1.536
 5892SOL    HW218576   0.701   6.861   1.406
 5893SOL     OW18577   1.184   0.590   3.556
 5893SOL    HW118578   1.271   0.565   3.598
 5893SOL    HW218579   1.193   0.591   3.457
 5894SOL     OW18580   1.179   3.598   3.399
 5894SOL    HW118581   1.258   3.660   3.407
 5894SOL    HW218582   1.095   3.652   3.397
 5895SOL     OW18583   5.476   3.735   3.966
 5895SOL    HW118584   5.520   3.687   4.042
 5895SOL    HW218585   5.422   3.811   4.002
 5896SOL     OW18586   3.668   2.292   6.180
 5896SOL    HW118587   3.616   2.220   6.134
 5896SOL    HW218588   3.718   2.345   6.111
 5897SOL     OW18589   3.810   0.123   0.896
 5897SOL    HW118590   3.787   0.183   0.973
 5897SOL    HW218591   3.736   0.057   0.882
 5898SOL     OW18592   1.989   0.046   2.531
 5898SOL    HW118593   2.020   0.138   2.506
 5898SOL    HW218594   1.890   0.040   2.522
 5899SOL     OW18595   5.635   0.190   4.468
 5899SOL    HW118596   5.587   0.131   4.403
 5899SOL    HW218597   5.732   0.167   4.469
 5900SOL     OW18598   4.701   5.317   2.781
 5900SOL    HW118599   4.621   5.269   2.745
 5900SOL    HW218600   4.719   5.398   2.726
 5901SOL     OW18601   2.704   6.571   5.421
 5901SOL    HW118602   2.615   6.613   5.436
 5901SOL    HW218603   2.693   6.471   5.414
 5902SOL     OW18604   6.311   2.084   6.481
 5902SOL    HW118605   6.334   1.989   6.501
 5902SOL    HW218606   6.254   2.089   6.399
 5903SOL     OW18607   5.986   2.936   6.557
 5903SOL    HW118608   5.981   2.891   6.467
 5903SOL    HW218609   6.080   2.933   6.590
 5904SOL     OW18610   6.938   3.606   2.636
 5904SOL    HW118611   6.972   3.652   2.554
 5904SOL    HW218612   6.989   3.522   2.652
 5905SOL     OW18613   6.800   5.614   2.155
 5905SOL    HW118614   6.838   5.540   2.099
 5905SOL    HW218615   6.836   5.607   2.248
 5906SOL     OW18616   5.777   1.146   3.607
 5906SOL    HW118617   5.710   1.111   3.673
 5906SOL    HW218618   5.837   1.212   3.653
 5907SOL     OW18619   1.232   5.753   2.279
 5907SOL    HW118620   1.298   5.760   2.353
 5907SOL    HW218621   1.271   5.794   2.196
 5908SOL     OW18622   6.478   3.259   5.474
 5908SOL    HW118623   6.475   3.266   5.374
 5908SOL    HW218624   6.511   3.168   5.500
 5909SOL     OW18625   6.982   5.096   0.878
 5909SOL    HW118626   6.955   5.192   0.886
 5909SOL    HW218627   0.044   5.088   0.826
 5910SOL     OW18628   2.584   2.260   3.489
 5910SOL    HW118629   2.584   2.331   3.419
 5910SOL    HW218630   2.490   2.231   3.508
 5911SOL     OW18631   6.589   6.156   6.118
 5911SOL    HW118632   6.579   6.095   6.039
 5911SOL    HW218633   6.607   6.103   6.200
 5912SOL     OW18634   0.182   1.219   3.365
 5912SOL    HW118635   0.089   1.255   3.368
 5912SOL    HW218636   0.178   1.119   3.376
 5913SOL     OW18637   5.678   2.397   6.925
 5913SOL    HW118638   5.634   2.313   6.893
 5913SOL    HW218639   5.692   2.459   6.848
 5914SOL     OW18640   0.969   6.585   0.191
 5914SOL    HW118641   0.979   6.665   0.133
 5914SOL    HW218642   0.974   6.502   0.135
 5915SOL     OW18643   4.044   1.697   6.502
 5915SOL    HW118644   4.055   1.796   6.502
 5915SOL    HW218645   3.959   1.673   6.548
 5916SOL     OW18646   0.846   6.048   2.580
 5916SOL    HW118647   0.835   6.009   2.489
 5916SOL    HW218648   0.757   6.054   2.625
 5917SOL     OW18649   3.347   4.382   0.080
 5917SOL    HW118650   3.255   4.365   0.115
 5917SOL    HW218651   3.382   4.467   0.119
 5918SOL     OW18652   3.321   6.210   5.872
 5918SOL    HW118653   3.315   6.309   5.862
 5918SOL    HW218654   3.414   6.180   5.853
 5919SOL     OW18655   4.000   3.173   3.235
 5919SOL    HW118656   3.967   3.250   3.181
 5919SOL    HW218657   3.928   3.104   3.242
 5920SOL     OW18658   6.943   0.026   5.592
 5920SOL    HW118659   6.918   6.954   5.609
 5920SOL    HW218660   6.961   0.072   5.679
 5921SOL     OW18661   3.291   4.826   6.357
 5921SOL    HW118662   3.266   4.801   6.264
 5921SOL    HW218663   3.388   4.804   6.372
 5922SOL     OW18664   5.261   3.812   3.224
 5922SOL    HW118665   5.193   3.883   3.242
 5922SOL    HW218666   5.232   3.727   3.266
 5923SOL     OW18667   6.433   0.117   1.694
 5923SOL    HW118668   6.397   0.129   1.786
 5923SOL    HW218669   6.532   0.131   1.694
 5924SOL     OW18670   6.142   0.410   3.100
 5924SOL    HW118671   6.214   0.371   3.157
 5924SOL    HW218672   6.069   0.342   3.087
 5925SOL     OW18673   4.679   5.914   1.337
 5925SOL    HW118674   4.651   5.967   1.417
 5925SOL    HW218675   4.770   5.944   1.308
 5926SOL     OW18676   4.333   5.305   3.384
 5926SOL    HW118677   4.317   5.361   3.302
 5926SOL    HW218678   4.406   5.238   3.365
 5927SOL     OW18679   1.063   4.708   1.792
 5927SOL    HW118680   1.123   4.653   1.734
 5927SOL    HW218681   0.974   4.720   1.747
 5928SOL     OW18682   3.433   0.258   0.977
 5928SOL    HW118683   3.424   0.357   0.977
 5928SOL    HW218684   3.427   0.224   0.884
 5929SOL     OW18685   1.072   1.098   6.374
 5929SOL    HW118686   0.988   1.066   6.330
 5929SOL    HW218687   1.126   1.151   6.309
 5930SOL     OW18688   1.408   3.392   2.359
 5930SOL    HW118689   1.397   3.299   2.395
 5930SOL    HW218690   1.407   3.389   2.259
 5931SOL     OW18691   5.042   6.223   3.426
 5931SOL    HW118692   5.066   6.318   3.406
 5931SOL    HW218693   5.055   6.206   3.524
 5932SOL     OW18694   2.276   1.447   0.044
 5932SOL    HW118695   2.371   1.464   0.017
 5932SOL    HW218696   2.265   1.351   0.070
 5933SOL     OW18697   6.248   6.029   3.549
 5933SOL    HW118698   6.326   5.968   3.567
 5933SOL    HW218699   6.175   5.977   3.505
 5934SOL     OW18700   2.803   3.811   5.795
 5934SOL    HW118701   2.892   3.766   5.802
 5934SOL    HW218702   2.797   3.883   5.864
 5935SOL     OW18703   6.975   6.356   5.569
 5935SOL    HW118704   0.052   6.356   5.562
 5935SOL    HW218705   6.937   6.294   5.501
 5936SOL     OW18706   2.949   3.093   1.806
 5936SOL    HW118707   2.980   3.176   1.760
 5936SOL    HW218708   2.975   3.097   1.902
 5937SOL     OW18709   6.770   3.232   1.596
 5937SOL    HW118710   6.827   3.170   1.542
 5937SOL    HW218711   6.787   3.327   1.566
 5938SOL     OW18712   0.047   5.128   5.308
 5938SOL    HW118713   0.125   5.071   5.282
 5938SOL    HW218714   6.997   5.119   5.241
 5939SOL     OW18715   3.780   0.169   4.899
 5939SOL    HW118716   3.727   0.194   4.818
 5939SOL    HW218717   3.726   0.190   4.981
 5940SOL     OW18718   4.700   6.141   2.542
 5940SOL    HW118719   4.715   6.228   2.495
 5940SOL    HW218720   4.780   6.083   2.531
 5941SOL     OW18721   6.882   1.703   1.772
 5941SOL    HW118722   6.891   1.666   1.680
 5941SOL    HW218723   6.816   1.648   1.823
 5942SOL     OW18724   5.771   3.598   5.825
 5942SOL    HW118725   5.849   3.623   5.768
 5942SOL    HW218726   5.686   3.625   5.779
 5943SOL     OW18727   3.221   3.889   1.167
 5943SOL    HW118728   3.246   3.893   1.264
 5943SOL    HW218729   3.185   3.798   1.146
 5944SOL     OW18730   0.826   3.234   6.363
 5944SOL    HW118731   0.878   3.307   6.408
 5944SOL    HW218732   0.870   3.146   6.380
 5945SOL     OW18733   6.913   5.544   5.568
 5945SOL    HW118734   6.894   5.493   5.484
 5945SOL    HW218735   6.920   5.642   5.546
 5946SOL     OW18736   3.408   3.917   0.961
 5946SOL    HW118737   3.386   3.915   0.863
 5946SOL    HW218738   3.332   3.878   1.013
 5947SOL     OW18739   3.113   3.037   4.697
 5947SOL    HW118740   3.147   3.055   4.605
 5947SOL    HW218741   3.187   2.999   4.753
 5948SOL     OW18742   5.148   3.776   1.862
 5948SOL    HW118743   5.199   3.693   1.886
 5948SOL    HW218744   5.203   3.856   1.884
 5949SOL     OW18745   0.294   4.437   2.436
 5949SOL    HW118746   0.329   4.523   2.399
 5949SOL    HW218747   0.283   4.445   2.535
 5950SOL     OW18748   5.068   1.560   5.546
 5950SOL    HW118749   5.107   1.617   5.474
 5950SOL    HW218750   5.023   1.618   5.614
 5951SOL     OW18751   1.231   4.204   5.947
 5951SOL    HW118752   1.144   4.183   5.902
 5951SOL    HW218753   1.288   4.121   5.949
 5952SOL     OW18754   3.961   5.162   0.933
 5952SOL    HW118755   3.969   5.237   0.867
 5952SOL    HW218756   4.050   5.117   0.943
 5953SOL     OW18757   5.797   2.315   4.755
 5953SOL    HW118758   5.893   2.307   4.729
 5953SOL    HW218759   5.739   2.298   4.675
 5954SOL     OW18760   1.034   6.383   4.582
 5954SOL    HW118761   1.014   6.343   4.492
 5954SOL    HW218762   1.120   6.433   4.577
 5955SOL     OW18763   6.016   3.696   0.930
 5955SOL    HW118764   6.031   3.758   0.853
 5955SOL    HW218765   5.994   3.751   1.012
 5956SOL     OW18766   4.835   2.611   4.193
 5956SOL    HW118767   4.835   2.626   4.094
 5956SOL    HW218768   4.741   2.612   4.227
 5957SOL     OW18769   0.981   1.152   2.530
 5957SOL    HW118770   1.036   1.179   2.609
 5957SOL    HW218771   0.976   1.052   2.525
 5958SOL     OW18772   3.722   6.796   2.744
 5958SOL    HW118773   3.676   6.709   2.758
 5958SOL    HW218774   3.764   6.798   2.653
 5959SOL     OW18775   5.182   2.189   4.820
 5959SOL    HW118776   5.223   2.237   4.743
 5959SOL    HW218777   5.095   2.148   4.791
 5960SOL     OW18778   4.458   0.213   5.977
 5960SOL    HW118779   4.361   0.193   5.962
 5960SOL    HW218780   4.514   0.140   5.936
 5961SOL     OW18781   2.915   1.770   3.169
 5961SOL    HW118782   2.997   1.771   3.225
 5961SOL    HW218783   2.939   1.796   3.075
 5962SOL     OW18784   5.574   6.302   0.121
 5962SOL    HW118785   5.483   6.335   0.147
 5962SOL    HW218786   5.586   6.208   0.156
 5963SOL     OW18787   3.889   4.328   0.012
 5963SOL    HW118788   3.964   4.366   0.066
 5963SOL    HW218789   3.867   4.237   0.045
 5964SOL     OW18790   1.921   6.377   2.596
 5964SOL    HW118791   1.836   6.407   2.553
 5964SOL    HW218792   1.902   6.344   2.688
 5965SOL     OW18793   1.669   6.552   0.053
 5965SOL    HW118794   1.715   6.633   0.017
 5965SOL    HW218795   1.728   6.472   0.041
 5966SOL     OW18796   1.970   0.942   5.405
 5966SOL    HW118797   2.045   0.939   5.339
 5966SOL    HW218798   1.980   1.022   5.464
 5967SOL     OW18799   2.355   1.510   4.175
 5967SOL    HW118800   2.371   1.444   4.248
 5967SOL    HW218801   2.403   1.595   4.197
 5968SOL     OW18802   5.723   2.360   0.776
 5968SOL    HW118803   5.741   2.263   0.792
 5968SOL    HW218804   5.675   2.372   0.688
 5969SOL     OW18805   5.254   0.759   6.916
 5969SOL    HW118806   5.294   0.850   6.923
 5969SOL    HW218807   5.220   0.745   6.823
 5970SOL     OW18808   0.159   3.037   0.468
 5970SOL    HW118809   0.233   2.971   0.455
 5970SOL    HW218810   0.112   3.016   0.554
 5971SOL     OW18811   7.021   6.829   3.412
 5971SOL    HW118812   0.053   6.841   3.494
 5971SOL    HW218813   6.933   6.788   3.437
 5972SOL     OW18814   5.081   5.084   1.048
 5972SOL    HW118815   5.036   5.171   1.071
 5972SOL    HW218816   5.176   5.102   1.019
 5973SOL     OW18817   1.946   2.772   2.880
 5973SOL    HW118818   1.849   2.789   2.898
 5973SOL    HW218819   2.001   2.833   2.937
 5974SOL     OW18820   4.774   1.776   5.915
 5974SOL    HW118821   4.769   1.875   5.901
 5974SOL    HW218822   4.716   1.751   5.993
 5975SOL     OW18823   5.664   5.314   0.493
 5975SOL    HW118824   5.717   5.396   0.472
 5975SOL    HW218825   5.579   5.314   0.442
 5976SOL     OW18826   3.189   3.744   5.633
 5976SOL    HW118827   3.210   3.842   5.636
 5976SOL    HW218828   3.176   3.716   5.538
 5977SOL     OW18829   0.046   5.040   0.116
 5977SOL    HW118830   0.121   5.082   0.167
 5977SOL    HW218831   6.985   5.047   0.169
 5978SOL     OW18832   3.207   4.954   0.241
 5978SOL    HW118833   3.169   5.002   0.321
 5978SOL    HW218834   3.139   4.953   0.168
 5979SOL     OW18835   6.185   0.492   1.266
 5979SOL    HW118836   6.210   0.433   1.190
 5979SOL    HW218837   6.085   0.496   1.274
 5980SOL     OW18838   3.624   3.057   1.638
 5980SOL    HW118839   3.627   3.110   1.723
 5980SOL    HW218840   3.717   3.049   1.601
 5981SOL     OW18841   2.964   2.438   0.253
 5981SOL    HW118842   2.950   2.510   0.185
 5981SOL    HW218843   3.061   2.437   0.280
 5982SOL     OW18844   6.342   2.330   1.931
 5982SOL    HW118845   6.313   2.347   2.026
 5982SOL    HW218846   6.268   2.357   1.869
 5983SOL     OW18847   0.215   0.958   3.940
 5983SOL    HW118848   0.161   0.957   4.024
 5983SOL    HW218849   0.272   0.875   3.936
 5984SOL     OW18850   5.947   6.272   3.134
 5984SOL    HW118851   5.866   6.307   3.086
 5984SOL    HW218852   5.988   6.198   3.080
 5985SOL     OW18853   6.110   2.509   2.718
 5985SOL    HW118854   6.099   2.483   2.814
 5985SOL    HW218855   6.062   2.444   2.660
 5986SOL     OW18856   4.080   3.608   5.782
 5986SOL    HW118857   4.134   3.668   5.841
 5986SOL    HW218858   4.099   3.629   5.687
 5987SOL     OW18859   6.536   0.692   5.129
 5987SOL    HW118860   6.556   0.778   5.175
 5987SOL    HW218861   6.491   0.630   5.193
 5988SOL     OW18862   1.995   2.321   0.061
 5988SOL    HW118863   2.006   2.363   0.152
 5988SOL    HW218864   1.916   2.260   0.063
 5989SOL     OW18865   0.369   6.295   6.667
 5989SOL    HW118866   0.305   6.339   6.730
 5989SOL    HW218867   0.449   6.263   6.718
 5990SOL     OW18868   3.870   4.995   1.434
 5990SOL    HW118869   3.817   5.071   1.397
 5990SOL    HW218870   3.808   4.925   1.470
 5991SOL     OW18871   5.185   6.540   0.809
 5991SOL    HW118872   5.268   6.545   0.755
 5991SOL    HW218873   5.105   6.539   0.749
 5992SOL     OW18874   3.417   0.339   1.889
 5992SOL    HW118875   3.463   0.421   1.858
 5992SOL    HW218876   3.470   0.258   1.862
 5993SOL     OW18877   5.897   1.977   6.912
 5993SOL    HW118878   5.986   1.947   6.945
 5993SOL    HW218879   5.898   1.979   6.812
 5994SOL     OW18880   0.549   2.767   0.380
 5994SOL    HW118881   0.565   2.819   0.297
 5994SOL    HW218882   0.632   2.717   0.405
 5995SOL     OW18883   5.187   3.504   1.492
 5995SOL    HW118884   5.156   3.593   1.525
 5995SOL    HW218885   5.171   3.498   1.393
 5996SOL     OW18886   2.874   5.536   1.141
 5996SOL    HW118887   2.862   5.625   1.095
 5996SOL    HW218888   2.821   5.467   1.093
 5997SOL     OW18889   7.017   0.058   3.320
 5997SOL    HW118890   6.934   0.111   3.332
 5997SOL    HW218891   7.005   6.990   3.360
 5998SOL     OW18892   6.564   0.580   1.079
 5998SOL    HW118893   6.560   0.496   1.026
 5998SOL    HW218894   6.513   0.652   1.032
 5999SOL     OW18895   4.568   2.883   1.435
 5999SOL    HW118896   4.526   2.851   1.350
 5999SOL    HW218897   4.503   2.942   1.484
 6000SOL     OW18898   6.455   5.191   6.997
 6000SOL    HW118899   6.407   5.187   6.909
 6000SOL    HW218900   6.523   5.118   7.001
 6001SOL     OW18901   5.719   6.505   5.136
 6001SOL    HW118902   5.798   6.451   5.165
 6001SOL    HW218903   5.707   6.497   5.037
 6002SOL     OW18904   6.180   6.345   4.794
 6002SOL    HW118905   6.126   6.287   4.733
 6002SOL    HW218906   6.190   6.301   4.883
 6003SOL     OW18907   0.040   2.989   4.120
 6003SOL    HW118908   7.022   3.018   4.034
 6003SOL    HW218909   0.121   3.045   4.139
 6004SOL     OW18910   5.663   2.853   3.684
 6004SOL    HW118911   5.677   2.952   3.674
 6004SOL    HW218912   5.680   2.809   3.596
 6005SOL     OW18913   3.801   5.147   5.857
 6005SOL    HW118914   3.716   5.100   5.833
 6005SOL    HW218915   3.793   5.244   5.835
 6006SOL     OW18916   3.842   5.786   5.664
 6006SOL    HW118917   3.768   5.820   5.722
 6006SOL    HW218918   3.806   5.766   5.573
 6007SOL     OW18919   1.484   5.027   5.544
 6007SOL    HW118920   1.516   4.970   5.620
 6007SOL    HW218921   1.540   5.111   5.539
 6008SOL     OW18922   2.640   4.936   6.058
 6008SOL    HW118923   2.654   4.840   6.036
 6008SOL    HW218924   2.706   4.965   6.126
 6009SOL     OW18925   4.178   5.099   3.454
 6009SOL    HW118926   4.192   5.198   3.445
 6009SOL    HW218927   4.264   5.052   3.432
 6010SOL     OW18928   0.201   5.225   5.056
 6010SOL    HW118929   0.228   5.129   5.059
 6010SOL    HW218930   0.122   5.236   4.995
 6011SOL     OW18931   6.304   1.752   2.214
 6011SOL    HW118932   6.297   1.753   2.114
 6011SOL    HW218933   6.400   1.763   2.241
 6012SOL     OW18934   0.230   0.271   5.678
 6012SOL    HW118935   0.315   0.219   5.685
 6012SOL    HW218936   0.176   0.258   5.761
 6013SOL     OW18937   5.501   1.208   2.429
 6013SOL    HW118938   5.482   1.144   2.355
 6013SOL    HW218939   5.521   1.298   2.390
 6014SOL     OW18940   3.727   2.931   4.057
 6014SOL    HW118941   3.807   2.970   4.103
 6014SOL    HW218942   3.708   2.984   3.974
 6015SOL     OW18943   6.520   1.609   4.459
 6015SOL    HW118944   6.572   1.694   4.468
 6015SOL    HW218945   6.423   1.626   4.479
 6016SOL     OW18946   5.492   1.830   4.736
 6016SOL    HW118947   5.429   1.774   4.682
 6016SOL    HW218948   5.439   1.894   4.792
 6017SOL     OW18949   0.318   2.912   5.446
 6017SOL    HW118950   0.407   2.876   5.475
 6017SOL    HW218951   0.249   2.887   5.513
 6018SOL     OW18952   3.609   1.321   5.970
 6018SOL    HW118953   3.695   1.353   6.010
 6018SOL    HW218954   3.628   1.253   5.900
 6019SOL     OW18955   6.907   3.910   6.392
 6019SOL    HW118956   6.815   3.941   6.369
 6019SOL    HW218957   6.974   3.961   6.339
 6020SOL     OW18958   1.122   4.240   0.469
 6020SOL    HW118959   1.077   4.211   0.553
 6020SOL    HW218960   1.054   4.264   0.401
 6021SOL     OW18961   3.979   0.536   3.025
 6021SOL    HW118962   4.027   0.623   3.035
 6021SOL    HW218963   4.005   0.474   3.099
 6022SOL     OW18964   6.741   1.603   2.113
 6022SOL    HW118965   6.796   1.534   2.161
 6022SOL    HW218966   6.772   1.694   2.140
 6023SOL     OW18967   4.559   0.486   1.055
 6023SOL    HW118968   4.624   0.470   0.980
 6023SOL    HW218969   4.478   0.429   1.042
 6024SOL     OW18970   0.702   5.388   0.184
 6024SOL    HW118971   0.746   5.423   0.101
 6024SOL    HW218972   0.603   5.383   0.170
 6025SOL     OW18973   2.398   1.344   4.393
 6025SOL    HW118974   2.357   1.253   4.391
 6025SOL    HW218975   2.414   1.371   4.488
 6026SOL     OW18976   6.503   4.290   4.374
 6026SOL    HW118977   6.533   4.383   4.354
 6026SOL    HW218978   6.459   4.288   4.464
 6027SOL     OW18979   6.323   3.254   6.044
 6027SOL    HW118980   6.298   3.346   6.074
 6027SOL    HW218981   6.258   3.222   5.976
 6028SOL     OW18982   5.386   4.766   6.187
 6028SOL    HW118983   5.317   4.786   6.118
 6028SOL    HW218984   5.405   4.668   6.188
 6029SOL     OW18985   2.418   0.785   3.245
 6029SOL    HW118986   2.436   0.750   3.153
 6029SOL    HW218987   2.422   0.885   3.244
 6030SOL     OW18988   5.178   3.814   4.765
 6030SOL    HW118989   5.181   3.861   4.853
 6030SOL    HW218990   5.084   3.814   4.730
 6031SOL     OW18991   0.462   5.850   5.496
 6031SOL    HW118992   0.529   5.785   5.460
 6031SOL    HW218993   0.379   5.800   5.522
 6032SOL     OW18994   3.128   5.624   3.439
 6032SOL    HW118995   3.154   5.613   3.535
 6032SOL    HW218996   3.100   5.718   3.422
 6033SOL     OW18997   1.927   1.751   2.768
 6033SOL    HW118998   1.988   1.758   2.689
 6033SOL    HW218999   1.886   1.840   2.786
 6034SOL     OW19000   1.420   0.479   6.937
 6034SOL    HW119001   1.371   0.392   6.933
 6034SOL    HW219002   1.465   0.488   0.003
 6035SOL     OW19003   1.949   0.857   3.066
 6035SOL    HW119004   1.954   0.908   3.152
 6035SOL    HW219005   2.005   0.775   3.072
 6036SOL     OW19006   6.140   2.893   0.389
 6036SOL    HW119007   6.228   2.873   0.345
 6036SOL    HW219008   6.155   2.908   0.487
 6037SOL     OW19009   4.419   2.191   1.131
 6037SOL    HW119010   4.416   2.161   1.036
 6037SOL    HW219011   4.487   2.137   1.181
 6038SOL     OW19012   0.607   2.121   6.026
 6038SOL    HW119013   0.547   2.049   6.061
 6038SOL    HW219014   0.697   2.082   6.006
 6039SOL     OW19015   2.952   3.823   3.508
 6039SOL    HW119016   2.975   3.889   3.579
 6039SOL    HW219017   2.853   3.807   3.507
 6040SOL     OW19018   1.131   1.707   6.718
 6040SOL    HW119019   1.169   1.797   6.699
 6040SOL    HW219020   1.187   1.661   6.788
 6041SOL     OW19021   3.085   3.129   6.065
 6041SOL    HW119022   3.051   3.137   6.159
 6041SOL    HW219023   3.170   3.181   6.057
 6042SOL     OW19024   2.808   5.753   3.193
 6042SOL    HW119025   2.817   5.765   3.094
 6042SOL    HW219026   2.870   5.681   3.223
 6043SOL     OW19027   1.629   0.816   4.023
 6043SOL    HW119028   1.670   0.850   3.938
 6043SOL    HW219029   1.648   0.718   4.031
 6044SOL     OW19030   1.425   2.045   1.826
 6044SOL    HW119031   1.428   2.105   1.907
 6044SOL    HW219032   1.350   2.074   1.766
 6045SOL     OW19033   4.852   2.611   3.586
 6045SOL    HW119034   4.937   2.664   3.585
 6045SOL    HW219035   4.774   2.672   3.573
 6046SOL     OW19036   3.535   3.171   2.310
 6046SOL    HW119037   3.485   3.093   2.347
 6046SOL    HW219038   3.475   3.222   2.248
 6047SOL     OW19039   5.931   1.756   0.759
 6047SOL    HW119040   5.906   1.667   0.722
 6047SOL    HW219041   5.880   1.828   0.712
 6048SOL     OW19042   5.425   6.284   4.994
 6048SOL    HW119043   5.508   6.315   4.948
 6048SOL    HW219044   5.397   6.195   4.956
 6049SOL     OW19045   4.494   4.778   5.147
 6049SOL    HW119046   4.549   4.711   5.098
 6049SOL    HW219047   4.417   4.733   5.193
 6050SOL     OW19048   3.585   5.423   1.636
 6050SOL    HW119049   3.511   5.453   1.697
 6050SOL    HW219050   3.610   5.329   1.657
 6051SOL     OW19051   1.361   1.066   2.837
 6051SOL    HW119052   1.318   1.030   2.753
 6051SOL    HW219053   1.303   1.044   2.915
 6052SOL     OW19054   5.527   0.014   0.311
 6052SOL    HW119055   5.485   0.103   0.294
 6052SOL    HW219056   5.564   7.001   0.225
 6053SOL     OW19057   4.533   2.548   5.856
 6053SOL    HW119058   4.484   2.619   5.906
 6053SOL    HW219059   4.566   2.586   5.769
 6054SOL     OW19060   4.098   4.650   0.885
 6054SOL    HW119061   4.162   4.573   0.878
 6054SOL    HW219062   4.005   4.618   0.866
 6055SOL     OW19063   3.454   4.582   0.219
 6055SOL    HW119064   3.538   4.574   0.165
 6055SOL    HW219065   3.472   4.551   0.313
 6056SOL     OW19066   5.954   4.366   5.186
 6056SOL    HW119067   5.940   4.281   5.135
 6056SOL    HW219068   5.910   4.442   5.139
 6057SOL     OW19069   4.819   0.360   3.071
 6057SOL    HW119070   4.876   0.406   3.003
 6057SOL    HW219071   4.835   0.401   3.161
 6058SOL     OW19072   5.783   2.539   6.698
 6058SOL    HW119073   5.753   2.576   6.610
 6058SOL    HW219074   5.857   2.473   6.682
 6059SOL     OW19075   4.922   4.460   6.034
 6059SOL    HW119076   4.956   4.525   6.101
 6059SOL    HW219077   4.906   4.372   6.078
 6060SOL     OW19078   2.926   2.955   0.070
 6060SOL    HW119079   3.009   3.011   0.076
 6060SOL    HW219080   2.927   2.886   0.142
 6061SOL     OW19081   4.029   5.035   0.490
 6061SOL    HW119082   4.095   5.090   0.541
 6061SOL    HW219083   4.039   5.053   0.392
 6062SOL     OW19084   2.177   2.812   1.011
 6062SOL    HW119085   2.137   2.751   0.942
 6062SOL    HW219086   2.262   2.772   1.045
 6063SOL     OW19087   3.572   4.976   5.798
 6063SOL    HW119088   3.627   4.900   5.765
 6063SOL    HW219089   3.502   4.999   5.730
 6064SOL     OW19090   6.892   6.576   0.805
 6064SOL    HW119091   6.986   6.601   0.783
 6064SOL    HW219092   6.888   6.481   0.834
 6065SOL     OW19093   1.197   5.472   2.376
 6065SOL    HW119094   1.261   5.459   2.452
 6065SOL    HW219095   1.202   5.566   2.343
 6066SOL     OW19096   5.258   0.274   3.581
 6066SOL    HW119097   5.197   0.198   3.605
 6066SOL    HW219098   5.349   0.255   3.618
 6067SOL     OW19099   6.015   0.551   5.758
 6067SOL    HW119100   5.993   0.645   5.785
 6067SOL    HW219101   5.951   0.488   5.801
 6068SOL     OW19102   4.757   1.464   5.641
 6068SOL    HW119103   4.735   1.444   5.736
 6068SOL    HW219104   4.676   1.501   5.594
 6069SOL     OW19105   6.989   3.172   6.160
 6069SOL    HW119106   0.065   3.170   6.166
 6069SOL    HW219107   6.959   3.254   6.112
 6070SOL     OW19108   3.333   1.440   0.883
 6070SOL    HW119109   3.409   1.504   0.873
 6070SOL    HW219110   3.292   1.450   0.973
 6071SOL     OW19111   5.319   6.925   5.259
 6071SOL    HW119112   5.287   7.003   5.206
 6071SOL    HW219113   5.366   6.957   5.341
 6072SOL     OW19114   0.406   2.779   0.727
 6072SOL    HW119115   0.501   2.762   0.752
 6072SOL    HW219116   0.348   2.707   0.764
 6073SOL     OW19117   4.686   2.375   0.837
 6073SOL    HW119118   4.696   2.465   0.878
 6073SOL    HW219119   4.600   2.334   0.868
 6074SOL     OW19120   0.987   5.667   2.339
 6074SOL    HW119121   1.068   5.726   2.337
 6074SOL    HW219122   1.012   5.577   2.375
 6075SOL     OW19123   4.758   6.786   6.520
 6075SOL    HW119124   4.679   6.791   6.581
 6075SOL    HW219125   4.727   6.764   6.427
 6076SOL     OW19126   2.319   5.017   3.968
 6076SOL    HW119127   2.274   4.993   3.882
 6076SOL    HW219128   2.254   5.005   4.044
 6077SOL     OW19129   5.897   6.805   1.577
 6077SOL    HW119130   5.990   6.802   1.539
 6077SOL    HW219131   5.837   6.855   1.515
 6078SOL     OW19132   4.525   3.621   0.063
 6078SOL    HW119133   4.491   3.631   0.156
 6078SOL    HW219134   4.582   3.538   0.057
 6079SOL     OW19135   3.937   4.266   6.204
 6079SOL    HW119136   3.994   4.265   6.287
 6079SOL    HW219137   3.841   4.279   6.230
 6080SOL     OW19138   0.887   4.251   0.304
 6080SOL    HW119139   0.909   4.172   0.247
 6080SOL    HW219140   0.847   4.323   0.247
 6081SOL     OW19141   1.145   3.736   4.609
 6081SOL    HW119142   1.179   3.654   4.653
 6081SOL    HW219143   1.170   3.816   4.664
 6082SOL     OW19144   4.244   0.818   1.066
 6082SOL    HW119145   4.249   0.906   1.019
 6082SOL    HW219146   4.186   0.755   1.014
 6083SOL     OW19147   5.039   6.162   6.399
 6083SOL    HW119148   5.093   6.085   6.366
 6083SOL    HW219149   5.069   6.246   6.353
 6084SOL     OW19150   0.577   6.877   2.569
 6084SOL    HW119151   0.629   6.862   2.653
 6084SOL    HW219152   0.561   6.789   2.523
 6085SOL     OW19153   7.003   5.926   0.189
 6085SOL    HW119154   0.034   5.973   0.119
 6085SOL    HW219155   0.018   5.946   0.279
 6086SOL     OW19156   3.790   3.550   6.578
 6086SOL    HW119157   3.707   3.589   6.618
 6086SOL    HW219158   3.860   3.541   6.648
 6087SOL     OW19159   5.099   0.132   0.599
 6087SOL    HW119160   5.132   0.041   0.573
 6087SOL    HW219161   5.172   0.199   0.582
 6088SOL     OW19162   5.259   0.109   4.040
 6088SOL    HW119163   5.188   0.130   4.107
 6088SOL    HW219164   5.230   0.031   3.984
 6089SOL     OW19165   6.067   2.778   2.871
 6089SOL    HW119166   5.968   2.787   2.884
 6089SOL    HW219167   6.087   2.695   2.821
 6090SOL     OW19168   3.588   6.294   4.253
 6090SOL    HW119169   3.522   6.333   4.318
 6090SOL    HW219170   3.600   6.357   4.177
 6091SOL     OW19171   2.171   1.511   1.744
 6091SOL    HW119172   2.221   1.497   1.659
 6091SOL    HW219173   2.160   1.423   1.791
 6092SOL     OW19174   4.305   6.306   1.963
 6092SOL    HW119175   4.280   6.359   1.882
 6092SOL    HW219176   4.240   6.231   1.975
 6093SOL     OW19177   2.065   1.693   2.241
 6093SOL    HW119178   2.098   1.638   2.318
 6093SOL    HW219179   2.143   1.729   2.190
 6094SOL     OW19180   0.260   6.751   4.715
 6094SOL    HW119181   0.249   6.652   4.709
 6094SOL    HW219182   0.306   6.785   4.634
 6095SOL     OW19183   4.192   5.914   0.055
 6095SOL    HW119184   4.183   5.839   7.011
 6095SOL    HW219185   4.122   5.904   0.125
 6096SOL     OW19186   5.964   6.475   2.049
 6096SOL    HW119187   5.878   6.449   2.005
 6096SOL    HW219188   5.948   6.484   2.148
 6097SOL     OW19189   1.956   5.847   2.705
 6097SOL    HW119190   1.864   5.883   2.719
 6097SOL    HW219191   2.016   5.880   2.777
 6098SOL     OW19192   6.918   1.179   4.796
 6098SOL    HW119193   6.987   1.110   4.814
 6098SOL    HW219194   6.827   1.138   4.802
 6099SOL     OW19195   4.644   6.072   6.164
 6099SOL    HW119196   4.738   6.106   6.156
 6099SOL    HW219197   4.623   6.054   6.260
 6100SOL     OW19198   6.631   5.940   3.749
 6100SOL    HW119199   6.701   5.997   3.707
 6100SOL    HW219200   6.575   5.899   3.677
 6101SOL     OW19201   6.468   2.613   1.343
 6101SOL    HW119202   6.374   2.646   1.330
 6101SOL    HW219203   6.466   2.532   1.402
 6102SOL     OW19204   4.465   6.329   2.213
 6102SOL    HW119205   4.450   6.267   2.290
 6102SOL    HW219206   4.422   6.291   2.132
 6103SOL     OW19207   6.660   1.479   1.188
 6103SOL    HW119208   6.613   1.467   1.101
 6103SOL    HW219209   6.702   1.570   1.191
 6104SOL     OW19210   6.044   1.518   4.485
 6104SOL    HW119211   5.958   1.553   4.450
 6104SOL    HW219212   6.041   1.418   4.487
 6105SOL     OW19213   2.702   5.913   5.650
 6105SOL    HW119214   2.654   5.948   5.731
 6105SOL    HW219215   2.635   5.881   5.584
 6106SOL     OW19216   0.158   4.294   6.732
 6106SOL    HW119217   0.207   4.378   6.754
 6106SOL    HW219218   0.087   4.277   6.801
 6107SOL     OW19219   4.674   4.688   4.571
 6107SOL    HW119220   4.649   4.604   4.618
 6107SOL    HW219221   4.591   4.737   4.543
 6108SOL     OW19222   1.533   1.473   1.747
 6108SOL    HW119223   1.512   1.535   1.671
 6108SOL    HW219224   1.585   1.522   1.816
 6109SOL     OW19225   5.701   6.345   3.047
 6109SOL    HW119226   5.634   6.284   3.005
 6109SOL    HW219227   5.676   6.362   3.142
 6110SOL     OW19228   1.510   1.972   5.263
 6110SOL    HW119229   1.593   2.025   5.249
 6110SOL    HW219230   1.524   1.878   5.233
 6111SOL     OW19231   1.556   4.113   1.721
 6111SOL    HW119232   1.536   4.078   1.812
 6111SOL    HW219233   1.472   4.113   1.666
 6112SOL     OW19234   4.306   6.981   2.579
 6112SOL    HW119235   4.275   0.052   2.590
 6112SOL    HW219236   4.314   6.958   2.482
 6113SOL     OW19237   2.584   5.302   0.122
 6113SOL    HW119238   2.650   5.369   0.157
 6113SOL    HW219239   2.630   5.215   0.106
 6114SOL     OW19240   5.127   1.315   0.613
 6114SOL    HW119241   5.111   1.394   0.555
 6114SOL    HW219242   5.152   1.346   0.705
 6115SOL     OW19243   0.985   1.088   5.627
 6115SOL    HW119244   0.886   1.088   5.611
 6115SOL    HW219245   1.030   1.141   5.556
 6116SOL     OW19246   4.244   1.957   4.884
 6116SOL    HW119247   4.177   1.885   4.904
 6116SOL    HW219248   4.322   1.918   4.835
 6117SOL     OW19249   1.445   2.334   2.972
 6117SOL    HW119250   1.355   2.290   2.968
 6117SOL    HW219251   1.446   2.412   2.909
 6118SOL     OW19252   6.003   0.920   0.131
 6118SOL    HW119253   6.039   0.977   0.058
 6118SOL    HW219254   6.075   0.901   0.198
 6119SOL     OW19255   0.118   2.130   0.744
 6119SOL    HW119256   0.206   2.115   0.699
 6119SOL    HW219257   0.047   2.076   0.699
 6120SOL     OW19258   2.227   6.916   5.770
 6120SOL    HW119259   2.159   6.859   5.724
 6120SOL    HW219260   2.213   7.012   5.744
 6121SOL     OW19261   1.323   3.027   5.064
 6121SOL    HW119262   1.390   3.006   5.135
 6121SOL    HW219263   1.314   2.950   5.002
 6122SOL     OW19264   5.240   6.149   5.340
 6122SOL    HW119265   5.329   6.104   5.345
 6122SOL    HW219266   5.191   6.134   5.425
 6123SOL     OW19267   6.224   1.197   5.263
 6123SOL    HW119268   6.261   1.105   5.267
 6123SOL    HW219269   6.209   1.223   5.168
 6124SOL     OW19270   2.251   0.252   4.648
 6124SOL    HW119271   2.329   0.272   4.588
 6124SOL    HW219272   2.191   0.332   4.652
 6125SOL     OW19273   2.379   3.370   6.714
 6125SOL    HW119274   2.360   3.438   6.643
 6125SOL    HW219275   2.294   3.345   6.760
 6126SOL     OW19276   0.054   2.792   5.000
 6126SOL    HW119277   0.097   2.757   5.083
 6126SOL    HW219278   0.044   2.891   5.007
 6127SOL     OW19279   4.187   1.518   1.541
 6127SOL    HW119280   4.156   1.425   1.521
 6127SOL    HW219281   4.109   1.572   1.575
 6128SOL     OW19282   5.943   5.773   0.884
 6128SOL    HW119283   5.923   5.790   0.981
 6128SOL    HW219284   6.010   5.840   0.853
 6129SOL     OW19285   1.888   4.463   2.993
 6129SOL    HW119286   1.911   4.507   2.906
 6129SOL    HW219287   1.796   4.423   2.987
 6130SOL     OW19288   5.109   3.109   1.340
 6130SOL    HW119289   5.025   3.162   1.325
 6130SOL    HW219290   5.103   3.062   1.428
 6131SOL     OW19291   0.141   2.119   2.602
 6131SOL    HW119292   0.164   2.102   2.507
 6131SOL    HW219293   0.208   2.074   2.661
 6132SOL     OW19294   3.033   1.906   6.814
 6132SOL    HW119295   2.933   1.899   6.811
 6132SOL    HW219296   3.072   1.873   6.728
 6133SOL     OW19297   1.720   2.471   4.010
 6133SOL    HW119298   1.817   2.475   3.986
 6133SOL    HW219299   1.697   2.380   4.042
 6134SOL     OW19300   5.309   6.094   6.062
 6134SOL    HW119301   5.401   6.131   6.046
 6134SOL    HW219302   5.280   6.044   5.980
 6135SOL     OW19303   5.740   0.467   6.747
 6135SOL    HW119304   5.747   0.380   6.796
 6135SOL    HW219305   5.827   0.515   6.754
 6136SOL     OW19306   0.691   2.840   2.322
 6136SOL    HW119307   0.619   2.773   2.338
 6136SOL    HW219308   0.729   2.828   2.230
 6137SOL     OW19309   0.315   4.853   3.171
 6137SOL    HW119310   0.379   4.785   3.133
 6137SOL    HW219311   0.338   4.943   3.136
 6138SOL     OW19312   3.202   0.245   1.768
 6138SOL    HW119313   3.245   0.301   1.839
 6138SOL    HW219314   3.220   0.284   1.678
 6139SOL     OW19315   1.324   6.921   5.719
 6139SOL    HW119316   1.422   6.936   5.708
 6139SOL    HW219317   1.295   6.849   5.655
 6140SOL     OW19318   1.774   0.066   2.978
 6140SOL    HW119319   1.829   0.113   2.909
 6140SOL    HW219320   1.767   0.124   3.059
 6141SOL     OW19321   7.008   0.567   5.385
 6141SOL    HW119322   0.024   0.626   5.315
 6141SOL    HW219323   0.038   0.482   5.390
 6142SOL     OW19324   0.532   1.209   0.976
 6142SOL    HW119325   0.505   1.152   0.898
 6142SOL    HW219326   0.475   1.291   0.979
 6143SOL     OW19327   6.334   3.501   6.186
 6143SOL    HW119328   6.267   3.557   6.236
 6143SOL    HW219329   6.426   3.532   6.208
 6144SOL     OW19330   4.926   4.444   2.968
 6144SOL    HW119331   4.841   4.398   2.941
 6144SOL    HW219332   4.948   4.419   3.063
 6145SOL     OW19333   4.946   3.594   4.542
 6145SOL    HW119334   4.933   3.632   4.633
 6145SOL    HW219335   4.940   3.494   4.546
 6146SOL     OW19336   4.191   0.518   4.527
 6146SOL    HW119337   4.093   0.516   4.506
 6146SOL    HW219338   4.226   0.425   4.532
 6147SOL     OW19339   2.335   2.840   4.232
 6147SOL    HW119340   2.379   2.788   4.305
 6147SOL    HW219341   2.238   2.813   4.225
 6148SOL     OW19342   3.837   5.423   0.200
 6148SOL    HW119343   3.811   5.498   0.140
 6148SOL    HW219344   3.936   5.415   0.204
 6149SOL     OW19345   2.690   0.110   1.693
 6149SOL    HW119346   2.702   0.168   1.773
 6149SOL    HW219347   2.737   0.024   1.706
 6150SOL     OW19348   5.761   3.478   6.540
 6150SOL    HW119349   5.808   3.485   6.453
 6150SOL    HW219350   5.796   3.399   6.591
 6151SOL     OW19351   5.027   4.249   4.529
 6151SOL    HW119352   5.117   4.206   4.528
 6151SOL    HW219353   4.959   4.182   4.558
 6152SOL     OW19354   0.596   5.031   3.793
 6152SOL    HW119355   0.627   5.120   3.760
 6152SOL    HW219356   0.672   4.966   3.793
 6153SOL     OW19357   4.846   5.162   0.814
 6153SOL    HW119358   4.936   5.189   0.848
 6153SOL    HW219359   4.775   5.211   0.866
 6154SOL     OW19360   5.642   3.039   2.683
 6154SOL    HW119361   5.632   3.076   2.591
 6154SOL    HW219362   5.612   2.943   2.683
 6155SOL     OW19363   2.300   1.373   3.096
 6155SOL    HW119364   2.340   1.318   3.023
 6155SOL    HW219365   2.368   1.437   3.131
 6156SOL     OW19366   5.521   4.078   1.514
 6156SOL    HW119367   5.611   4.046   1.542
 6156SOL    HW219368   5.531   4.157   1.453
 6157SOL     OW19369   0.690   2.442   3.174
 6157SOL    HW119370   0.599   2.459   3.212
 6157SOL    HW219371   0.714   2.346   3.185
 6158SOL     OW19372   2.502   2.853   5.613
 6158SOL    HW119373   2.548   2.808   5.690
 6158SOL    HW219374   2.557   2.842   5.530
 6159SOL     OW19375   5.816   2.055   0.182
 6159SOL    HW119376   5.809   1.996   0.102
 6159SOL    HW219377   5.727   2.096   0.201
 6160SOL     OW19378   0.446   6.911   6.750
 6160SOL    HW119379   0.413   6.841   6.813
 6160SOL    HW219380   0.387   6.915   6.670
 6161SOL     OW19381   5.159   2.240   6.444
 6161SOL    HW119382   5.214   2.274   6.368
 6161SOL    HW219383   5.202   2.268   6.530
 6162SOL     OW19384   6.621   6.174   2.394
 6162SOL    HW119385   6.546   6.121   2.355
 6162SOL    HW219386   6.642   6.251   2.335
 6163SOL     OW19387   6.312   6.605   2.794
 6163SOL    HW119388   6.238   6.565   2.741
 6163SOL    HW219389   6.384   6.537   2.808
 6164SOL     OW19390   4.085   3.766   4.180
 6164SOL    HW119391   4.060   3.684   4.129
 6164SOL    HW219392   4.004   3.821   4.197
 6165SOL     OW19393   4.322   2.609   0.672
 6165SOL    HW119394   4.335   2.575   0.579
 6165SOL    HW219395   4.244   2.563   0.714
 6166SOL     OW19396   0.660   2.245   6.805
 6166SOL    HW119397   0.587   2.313   6.800
 6166SOL    HW219398   0.691   2.236   6.900
 6167SOL     OW19399   1.545   4.189   3.643
 6167SOL    HW119400   1.572   4.272   3.692
 6167SOL    HW219401   1.617   4.164   3.578
 6168SOL     OW19402   0.200   3.228   4.136
 6168SOL    HW119403   0.157   3.257   4.051
 6168SOL    HW219404   0.142   3.255   4.213
 6169SOL     OW19405   0.685   6.976   6.622
 6169SOL    HW119406   0.693   0.052   6.612
 6169SOL    HW219407   0.610   6.954   6.684
 6170SOL     OW19408   3.965   4.357   0.456
 6170SOL    HW119409   4.021   4.301   0.517
 6170SOL    HW219410   4.001   4.352   0.363
 6171SOL     OW19411   1.275   4.768   2.404
 6171SOL    HW119412   1.293   4.695   2.338
 6171SOL    HW219413   1.328   4.849   2.379
 6172SOL     OW19414   1.026   0.352   2.591
 6172SOL    HW119415   1.058   0.426   2.650
 6172SOL    HW219416   1.046   0.375   2.496
 6173SOL     OW19417   1.240   4.660   3.407
 6173SOL    HW119418   1.214   4.707   3.491
 6173SOL    HW219419   1.192   4.572   3.402
 6174SOL     OW19420   5.326   4.949   2.730
 6174SOL    HW119421   5.336   4.967   2.632
 6174SOL    HW219422   5.334   4.851   2.746
 6175SOL     OW19423   5.312   6.231   2.682
 6175SOL    HW119424   5.313   6.329   2.703
 6175SOL    HW219425   5.218   6.198   2.687
 6176SOL     OW19426   5.703   3.051   6.456
 6176SOL    HW119427   5.651   3.114   6.514
 6176SOL    HW219428   5.800   3.056   6.481
 6177SOL     OW19429   5.256   1.894   2.218
 6177SOL    HW119430   5.270   1.861   2.125
 6177SOL    HW219431   5.165   1.868   2.249
 6178SOL     OW19432   4.911   4.444   0.923
 6178SOL    HW119433   4.866   4.508   0.985
 6178SOL    HW219434   4.987   4.490   0.877
 6179SOL     OW19435   0.554   3.013   5.005
 6179SOL    HW119436   0.546   3.033   4.907
 6179SOL    HW219437   0.650   3.001   5.030
 6180SOL     OW19438   3.714   6.506   0.918
 6180SOL    HW119439   3.758   6.418   0.937
 6180SOL    HW219440   3.783   6.579   0.920
 6181SOL     OW19441   5.077   6.513   6.940
 6181SOL    HW119442   5.095   6.604   6.978
 6181SOL    HW219443   5.129   6.444   6.991
 6182SOL     OW19444   5.398   5.606   5.338
 6182SOL    HW119445   5.345   5.687   5.314
 6182SOL    HW219446   5.492   5.633   5.359
 6183SOL     OW19447   2.401   0.299   2.728
 6183SOL    HW119448   2.481   0.324   2.673
 6183SOL    HW219449   2.428   0.230   2.796
 6184SOL     OW19450   1.430   0.263   6.549
 6184SOL    HW119451   1.527   0.239   6.547
 6184SOL    HW219452   1.419   0.351   6.595
 6185SOL     OW19453   6.945   3.844   6.667
 6185SOL    HW119454   6.948   3.857   6.568
 6185SOL    HW219455   6.909   3.927   6.710
 6186SOL     OW19456   5.707   0.337   3.785
 6186SOL    HW119457   5.682   0.356   3.690
 6186SOL    HW219458   5.800   0.369   3.802
 6187SOL     OW19459   5.081   4.850   3.870
 6187SOL    HW119460   5.078   4.763   3.920
 6187SOL    HW219461   5.032   4.920   3.922
 6188SOL     OW19462   2.757   5.960   1.810
 6188SOL    HW119463   2.687   5.955   1.738
 6188SOL    HW219464   2.837   6.009   1.776
 6189SOL     OW19465   4.894   5.315   3.085
 6189SOL    HW119466   4.854   5.255   3.154
 6189SOL    HW219467   4.822   5.346   3.022
 6190SOL     OW19468   4.741   2.944   6.185
 6190SOL    HW119469   4.704   3.011   6.121
 6190SOL    HW219470   4.676   2.869   6.196
 6191SOL     OW19471   5.361   2.030   0.295
 6191SOL    HW119472   5.263   2.050   0.299
 6191SOL    HW219473   5.401   2.074   0.215
 6192SOL     OW19474   2.822   3.837   0.638
 6192SOL    HW119475   2.898   3.818   0.700
 6192SOL    HW219476   2.857   3.879   0.554
 6193SOL     OW19477   5.633   0.057   2.483
 6193SOL    HW119478   5.640   0.156   2.498
 6193SOL    HW219479   5.660   0.008   2.566
 6194SOL     OW19480   2.158   0.851   1.015
 6194SOL    HW119481   2.075   0.798   1.030
 6194SOL    HW219482   2.135   0.948   1.005
 6195SOL     OW19483   4.236   5.517   6.290
 6195SOL    HW119484   4.188   5.514   6.202
 6195SOL    HW219485   4.273   5.426   6.311
 6196SOL     OW19486   1.016   2.286   5.946
 6196SOL    HW119487   0.984   2.336   5.865
 6196SOL    HW219488   1.099   2.235   5.924
 6197SOL     OW19489   2.739   4.328   0.967
 6197SOL    HW119490   2.701   4.241   1.000
 6197SOL    HW219491   2.800   4.310   0.889
 6198SOL     OW19492   3.410   5.328   3.161
 6198SOL    HW119493   3.361   5.415   3.156
 6198SOL    HW219494   3.509   5.345   3.162
 6199SOL     OW19495   1.294   0.504   1.095
 6199SOL    HW119496   1.238   0.421   1.096
 6199SOL    HW219497   1.348   0.507   1.011
 6200SOL     OW19498   2.629   1.285   6.537
 6200SOL    HW119499   2.555   1.295   6.470
 6200SOL    HW219500   2.590   1.281   6.629
 6201SOL     OW19501   2.017   3.755   5.889
 6201SOL    HW119502   2.029   3.854   5.898
 6201SOL    HW219503   2.094   3.709   5.933
 6202SOL     OW19504   3.902   1.753   1.258
 6202SOL    HW119505   3.925   1.669   1.307
 6202SOL    HW219506   3.881   1.825   1.324
 6203SOL     OW19507   5.049   0.954   3.957
 6203SOL    HW119508   5.123   0.948   4.025
 6203SOL    HW219509   4.977   1.014   3.991
 6204SOL     OW19510   1.168   5.685   5.270
 6204SOL    HW119511   1.201   5.609   5.326
 6204SOL    HW219512   1.175   5.661   5.173
 6205SOL     OW19513   5.539   5.170   6.759
 6205SOL    HW119514   5.577   5.196   6.671
 6205SOL    HW219515   5.456   5.223   6.777
 6206SOL     OW19516   6.548   0.863   1.849
 6206SOL    HW119517   6.483   0.856   1.925
 6206SOL    HW219518   6.523   0.799   1.777
 6207SOL     OW19519   1.262   4.559   5.113
 6207SOL    HW119520   1.224   4.597   5.197
 6207SOL    HW219521   1.292   4.465   5.130
 6208SOL     OW19522   6.673   0.507   5.779
 6208SOL    HW119523   6.600   0.447   5.747
 6208SOL    HW219524   6.758   0.484   5.732
 6209SOL     OW19525   4.732   6.155   0.121
 6209SOL    HW119526   4.648   6.118   0.158
 6209SOL    HW219527   4.807   6.139   0.185
 6210SOL     OW19528   5.243   3.554   2.840
 6210SOL    HW119529   5.269   3.588   2.931
 6210SOL    HW219530   5.326   3.537   2.786
 6211SOL     OW19531   2.542   0.592   6.211
 6211SOL    HW119532   2.622   0.538   6.182
 6211SOL    HW219533   2.500   0.635   6.131
 6212SOL     OW19534   6.661   6.279   3.401
 6212SOL    HW119535   6.672   6.198   3.345
 6212SOL    HW219536   6.564   6.291   3.423
 6213SOL     OW19537   5.943   0.655   6.902
 6213SOL    HW119538   6.040   0.675   6.915
 6213SOL    HW219539   5.905   0.619   6.987
 6214SOL     OW19540   6.236   5.179   2.475
 6214SOL    HW119541   6.148   5.183   2.428
 6214SOL    HW219542   6.238   5.249   2.546
 6215SOL     OW19543   3.022   2.634   0.536
 6215SOL    HW119544   2.968   2.692   0.475
 6215SOL    HW219545   2.966   2.558   0.569
 6216SOL     OW19546   6.018   1.781   1.584
 6216SOL    HW119547   5.978   1.819   1.500
 6216SOL    HW219548   6.046   1.686   1.566
 6217SOL     OW19549   4.798   2.738   1.606
 6217SOL    HW119550   4.832   2.783   1.688
 6217SOL    HW219551   4.829   2.789   1.525
 6218SOL     OW19552   2.545   4.832   4.569
 6218SOL    HW119553   2.459   4.878   4.590
 6218SOL    HW219554   2.552   4.747   4.622
 6219SOL     OW19555   1.417   2.183   4.871
 6219SOL    HW119556   1.387   2.222   4.958
 6219SOL    HW219557   1.514   2.162   4.875
 6220SOL     OW19558   1.717   4.533   6.297
 6220SOL    HW119559   1.618   4.527   6.315
 6220SOL    HW219560   1.733   4.594   6.220
 6221SOL     OW19561   4.381   5.502   4.576
 6221SOL    HW119562   4.370   5.404   4.562
 6221SOL    HW219563   4.447   5.538   4.510
 6222SOL     OW19564   6.917   0.055   1.541
 6222SOL    HW119565   6.884   0.002   1.463
 6222SOL    HW219566   6.850   0.050   1.616
 6223SOL     OW19567   6.063   4.315   4.577
 6223SOL    HW119568   6.047   4.216   4.572
 6223SOL    HW219569   5.976   4.362   4.589
 6224SOL     OW19570   1.717   1.244   5.866
 6224SOL    HW119571   1.725   1.335   5.825
 6224SOL    HW219572   1.755   1.176   5.803
 6225SOL     OW19573   3.543   3.623   1.127
 6225SOL    HW119574   3.596   3.691   1.077
 6225SOL    HW219575   3.601   3.544   1.147
 6226SOL     OW19576   5.624   1.690   3.722
 6226SOL    HW119577   5.639   1.605   3.772
 6226SOL    HW219578   5.529   1.718   3.730
 6227SOL     OW19579   3.057   4.380   5.911
 6227SOL    HW119580   3.071   4.392   6.009
 6227SOL    HW219581   3.033   4.284   5.893
 6228SOL     OW19582   6.867   1.553   2.770
 6228SOL    HW119583   6.796   1.624   2.772
 6228SOL    HW219584   6.826   1.465   2.793
 6229SOL     OW19585   2.457   1.656   2.680
 6229SOL    HW119586   2.557   1.663   2.679
 6229SOL    HW219587   2.426   1.650   2.775
 6230SOL     OW19588   2.630   1.304   4.255
 6230SOL    HW119589   2.659   1.396   4.226
 6230SOL    HW219590   2.541   1.310   4.300
 6231SOL     OW19591   0.277   4.818   1.368
 6231SOL    HW119592   0.182   4.838   1.389
 6231SOL    HW219593   0.281   4.762   1.285
 6232SOL     OW19594   0.275   1.407   7.018
 6232SOL    HW119595   0.213   1.329   7.010
 6232SOL    HW219596   0.336   1.409   6.939
 6233SOL     OW19597   5.516   2.108   6.561
 6233SOL    HW119598   5.609   2.111   6.597
 6233SOL    HW219599   5.472   2.197   6.573
 6234SOL     OW19600   1.537   1.659   4.219
 6234SOL    HW119601   1.455   1.674   4.273
 6234SOL    HW219602   1.548   1.734   4.154
 6235SOL     OW19603   2.102   6.843   3.148
 6235SOL    HW119604   2.072   6.830   3.243
 6235SOL    HW219605   2.192   6.801   3.136
 6236SOL     OW19606   0.302   5.070   1.270
 6236SOL    HW119607   0.209   5.070   1.234
 6236SOL    HW219608   0.322   4.982   1.313
 6237SOL     OW19609   4.294   6.326   0.362
 6237SOL    HW119610   4.317   6.338   0.459
 6237SOL    HW219611   4.278   6.415   0.320
 6238SOL     OW19612   4.862   5.661   2.234
 6238SOL    HW119613   4.850   5.672   2.135
 6238SOL    HW219614   4.857   5.563   2.257
 6239SOL     OW19615   3.055   6.695   2.723
 6239SOL    HW119616   3.036   6.786   2.685
 6239SOL    HW219617   3.114   6.704   2.804
 6240SOL     OW19618   2.284   3.240   0.490
 6240SOL    HW119619   2.256   3.145   0.482
 6240SOL    HW219620   2.222   3.288   0.553
 6241SOL     OW19621   2.998   1.018   1.699
 6241SOL    HW119622   3.026   0.994   1.792
 6241SOL    HW219623   2.928   0.953   1.668
 6242SOL     OW19624   5.149   1.515   3.461
 6242SOL    HW119625   5.064   1.512   3.408
 6242SOL    HW219626   5.193   1.604   3.448
 6243SOL     OW19627   6.090   6.777   3.740
 6243SOL    HW119628   6.052   6.870   3.741
 6243SOL    HW219629   6.033   6.718   3.683
 6244SOL     OW19630   2.535   2.575   2.423
 6244SOL    HW119631   2.584   2.497   2.462
 6244SOL    HW219632   2.595   2.624   2.360
 6245SOL     OW19633   2.741   4.220   1.339
 6245SOL    HW119634   2.802   4.298   1.356
 6245SOL    HW219635   2.647   4.253   1.332
 6246SOL     OW19636   2.917   2.440   6.604
 6246SOL    HW119637   2.968   2.463   6.687
 6246SOL    HW219638   2.959   2.485   6.525
 6247SOL     OW19639   0.498   6.210   3.936
 6247SOL    HW119640   0.598   6.210   3.941
 6247SOL    HW219641   0.467   6.138   3.875
 6248SOL     OW19642   0.855   4.401   1.684
 6248SOL    HW119643   0.853   4.390   1.784
 6248SOL    HW219644   0.794   4.335   1.642
 6249SOL     OW19645   0.169   4.608   0.349
 6249SOL    HW119646   0.076   4.596   0.314
 6249SOL    HW219647   0.206   4.519   0.376
 6250SOL     OW19648   6.925   5.993   0.685
 6250SOL    HW119649   6.984   6.028   0.757
 6250SOL    HW219650   6.890   5.903   0.712
 6251SOL     OW19651   4.425   0.179   1.355
 6251SOL    HW119652   4.514   0.182   1.309
 6251SOL    HW219653   4.397   0.084   1.366
 6252SOL     OW19654   2.394   5.478   4.787
 6252SOL    HW119655   2.336   5.402   4.817
 6252SOL    HW219656   2.391   5.486   4.687
 6253SOL     OW19657   2.318   4.183   1.831
 6253SOL    HW119658   2.290   4.104   1.885
 6253SOL    HW219659   2.359   4.252   1.891
 6254SOL     OW19660   5.967   6.853   6.865
 6254SOL    HW119661   5.988   6.816   6.955
 6254SOL    HW219662   6.048   6.845   6.806
 6255SOL     OW19663   1.029   1.542   1.693
 6255SOL    HW119664   1.121   1.518   1.723
 6255SOL    HW219665   0.968   1.464   1.705
 6256SOL     OW19666   4.166   4.776   2.665
 6256SOL    HW119667   4.260   4.810   2.665
 6256SOL    HW219668   4.146   4.733   2.576
 6257SOL     OW19669   5.492   2.490   1.080
 6257SOL    HW119670   5.584   2.474   1.114
 6257SOL    HW219671   5.427   2.431   1.129
 6258SOL     OW19672   4.070   1.148   2.500
 6258SOL    HW119673   4.010   1.078   2.539
 6258SOL    HW219674   4.139   1.174   2.567
 6259SOL     OW19675   3.163   1.575   0.727
 6259SOL    HW119676   3.219   1.505   0.769
 6259SOL    HW219677   3.107   1.534   0.654
 6260SOL     OW19678   4.217   3.654   0.749
 6260SOL    HW119679   4.200   3.667   0.651
 6260SOL    HW219680   4.144   3.598   0.788
 6261SOL     OW19681   3.731   0.232   0.089
 6261SOL    HW119682   3.709   0.134   0.080
 6261SOL    HW219683   3.828   0.242   0.112
 6262SOL     OW19684   1.597   4.196   0.620
 6262SOL    HW119685   1.611   4.284   0.665
 6262SOL    HW219686   1.611   4.207   0.521
 6263SOL     OW19687   0.223   6.257   6.453
 6263SOL    HW119688   0.279   6.270   6.535
 6263SOL    HW219689   0.274   6.201   6.387
 6264SOL     OW19690   2.410   1.891   0.999
 6264SOL    HW119691   2.335   1.850   0.947
 6264SOL    HW219692   2.440   1.828   1.071
 6265SOL     OW19693   3.471   4.769   1.232
 6265SOL    HW119694   3.380   4.732   1.251
 6265SOL    HW219695   3.476   4.798   1.136
 6266SOL     OW19696   3.684   1.029   3.601
 6266SOL    HW119697   3.614   1.035   3.672
 6266SOL    HW219698   3.741   0.948   3.616
 6267SOL     OW19699   2.976   0.174   0.423
 6267SOL    HW119700   2.951   0.259   0.470
 6267SOL    HW219701   2.915   0.160   0.345
 6268SOL     OW19702   3.247   5.229   2.973
 6268SOL    HW119703   3.227   5.313   2.921
 6268SOL    HW219704   3.327   5.244   3.030
 6269SOL     OW19705   6.313   5.572   1.906
 6269SOL    HW119706   6.287   5.477   1.925
 6269SOL    HW219707   6.240   5.633   1.936
 6270SOL     OW19708   1.846   0.587   5.337
 6270SOL    HW119709   1.808   0.672   5.300
 6270SOL    HW219710   1.927   0.561   5.283
 6271SOL     OW19711   0.211   2.897   6.218
 6271SOL    HW119712   0.145   2.829   6.252
 6271SOL    HW219713   0.289   2.901   6.280
 6272SOL     OW19714   1.833   3.457   4.474
 6272SOL    HW119715   1.848   3.433   4.570
 6272SOL    HW219716   1.920   3.489   4.434
 6273SOL     OW19717   1.587   1.242   1.628
 6273SOL    HW119718   1.594   1.298   1.711
 6273SOL    HW219719   1.495   1.248   1.591
 6274SOL     OW19720   3.242   5.971   6.829
 6274SOL    HW119721   3.205   5.895   6.776
 6274SOL    HW219722   3.216   5.962   6.925
 6275SOL     OW19723   2.770   0.174   5.426
 6275SOL    HW119724   2.757   0.077   5.447
 6275SOL    HW219725   2.684   0.212   5.392
 6276SOL     OW19726   1.042   5.332   3.568
 6276SOL    HW119727   1.095   5.302   3.489
 6276SOL    HW219728   0.952   5.364   3.538
 6277SOL     OW19729   5.166   2.483   3.037
 6277SOL    HW119730   5.180   2.575   3.002
 6277SOL    HW219731   5.080   2.480   3.089
 6278SOL     OW19732   4.717   0.178   4.182
 6278SOL    HW119733   4.694   0.157   4.087
 6278SOL    HW219734   4.635   0.210   4.230
 6279SOL     OW19735   4.148   1.415   0.564
 6279SOL    HW119736   4.157   1.510   0.592
 6279SOL    HW219737   4.076   1.408   0.495
 6280SOL     OW19738   0.453   3.206   5.760
 6280SOL    HW119739   0.455   3.262   5.844
 6280SOL    HW219740   0.486   3.261   5.684
 6281SOL     OW19741   2.184   0.063   5.009
 6281SOL    HW119742   2.088   0.054   5.036
 6281SOL    HW219743   2.208   0.160   5.002
 6282SOL     OW19744   1.727   6.614   5.022
 6282SOL    HW119745   1.806   6.645   5.075
 6282SOL    HW219746   1.727   6.660   4.933
 6283SOL     OW19747   0.030   2.345   5.189
 6283SOL    HW119748   0.024   2.408   5.266
 6283SOL    HW219749   0.109   2.367   5.133
 6284SOL     OW19750   1.420   5.222   5.920
 6284SOL    HW119751   1.501   5.164   5.920
 6284SOL    HW219752   1.401   5.253   6.013
 6285SOL     OW19753   1.547   3.170   3.869
 6285SOL    HW119754   1.497   3.084   3.874
 6285SOL    HW219755   1.641   3.156   3.902
 6286SOL     OW19756   5.560   1.302   2.886
 6286SOL    HW119757   5.507   1.250   2.820
 6286SOL    HW219758   5.555   1.258   2.976
 6287SOL     OW19759   4.801   4.097   1.756
 6287SOL    HW119760   4.799   3.998   1.774
 6287SOL    HW219761   4.779   4.146   1.840
 6288SOL     OW19762   5.341   4.246   0.742
 6288SOL    HW119763   5.299   4.243   0.651
 6288SOL    HW219764   5.280   4.293   0.806
 6289SOL     OW19765   2.303   2.322   3.796
 6289SOL    HW119766   2.280   2.267   3.716
 6289SOL    HW219767   2.295   2.419   3.774
 6290SOL     OW19768   5.346   4.590   4.356
 6290SOL    HW119769   5.422   4.655   4.349
 6290SOL    HW219770   5.317   4.564   4.264
 6291SOL     OW19771   3.609   3.354   3.725
 6291SOL    HW119772   3.547   3.275   3.729
 6291SOL    HW219773   3.645   3.364   3.633
 6292SOL     OW19774   0.798   2.062   3.481
 6292SOL    HW119775   0.851   2.009   3.548
 6292SOL    HW219776   0.853   2.076   3.398
 6293SOL     OW19777   5.337   0.329   6.763
 6293SOL    HW119778   5.274   0.251   6.760
 6293SOL    HW219779   5.423   0.305   6.719
 6294SOL     OW19780   3.362   5.435   2.647
 6294SOL    HW119781   3.414   5.473   2.723
 6294SOL    HW219782   3.326   5.345   2.673
 6295SOL     OW19783   5.589   5.719   5.808
 6295SOL    HW119784   5.674   5.692   5.855
 6295SOL    HW219785   5.523   5.751   5.876
 6296SOL     OW19786   6.402   0.708   3.377
 6296SOL    HW119787   6.344   0.627   3.389
 6296SOL    HW219788   6.481   0.701   3.437
 6297SOL     OW19789   5.098   6.304   5.966
 6297SOL    HW119790   5.120   6.231   6.030
 6297SOL    HW219791   5.180   6.358   5.948
 6298SOL     OW19792   0.804   3.088   5.701
 6298SOL    HW119793   0.795   3.116   5.605
 6298SOL    HW219794   0.897   3.053   5.716
 6299SOL     OW19795   6.346   2.698   6.537
 6299SOL    HW119796   6.425   2.702   6.599
 6299SOL    HW219797   6.377   2.670   6.446
 6300SOL     OW19798   5.614   0.963   4.352
 6300SOL    HW119799   5.712   0.944   4.349
 6300SOL    HW219800   5.566   0.902   4.289
 6301SOL     OW19801   2.576   6.566   1.217
 6301SOL    HW119802   2.672   6.573   1.189
 6301SOL    HW219803   2.571   6.555   1.317
 6302SOL     OW19804   1.799   0.907   3.818
 6302SOL    HW119805   1.712   0.928   3.776
 6302SOL    HW219806   1.873   0.954   3.769
 6303SOL     OW19807   2.290   6.777   5.331
 6303SOL    HW119808   2.264   6.715   5.257
 6303SOL    HW219809   2.351   6.729   5.394
 6304SOL     OW19810   3.106   0.912   0.543
 6304SOL    HW119811   3.112   0.813   0.532
 6304SOL    HW219812   3.145   0.957   0.463
 6305SOL     OW19813   6.543   6.855   1.402
 6305SOL    HW119814   6.573   6.826   1.492
 6305SOL    HW219815   6.553   6.779   1.337
 6306SOL     OW19816   6.669   3.066   3.862
 6306SOL    HW119817   6.644   3.070   3.766
 6306SOL    HW219818   6.657   2.972   3.896
 6307SOL     OW19819   2.822   5.124   5.837
 6307SOL    HW119820   2.816   5.029   5.868
 6307SOL    HW219821   2.797   5.130   5.741
 6308SOL     OW19822   2.222   1.502   5.157
 6308SOL    HW119823   2.237   1.487   5.255
 6308SOL    HW219824   2.300   1.466   5.106
 6309SOL     OW19825   4.727   2.051   3.957
 6309SOL    HW119826   4.645   2.070   4.010
 6309SOL    HW219827   4.769   1.965   3.989
 6310SOL     OW19828   1.484   4.732   4.687
 6310SOL    HW119829   1.557   4.664   4.676
 6310SOL    HW219830   1.495   4.804   4.618
 6311SOL     OW19831   7.005   0.414   4.265
 6311SOL    HW119832   6.905   0.416   4.261
 6311SOL    HW219833   0.013   0.438   4.357
 6312SOL     OW19834   4.571   4.834   6.551
 6312SOL    HW119835   4.516   4.882   6.619
 6312SOL    HW219836   4.511   4.797   6.480
 6313SOL     OW19837   1.949   5.464   3.578
 6313SOL    HW119838   2.011   5.528   3.532
 6313SOL    HW219839   1.875   5.515   3.620
 6314SOL     OW19840   2.784   5.650   2.167
 6314SOL    HW119841   2.719   5.590   2.121
 6314SOL    HW219842   2.829   5.709   2.100
 6315SOL     OW19843   4.165   3.573   6.795
 6315SOL    HW119844   4.173   3.553   6.892
 6315SOL    HW219845   4.082   3.531   6.759
 6316SOL     OW19846   4.635   2.060   6.296
 6316SOL    HW119847   4.705   2.120   6.258
 6316SOL    HW219848   4.669   1.966   6.298
 6317SOL     OW19849   4.992   6.595   2.844
 6317SOL    HW119850   4.909   6.651   2.845
 6317SOL    HW219851   5.028   6.587   2.937
 6318SOL     OW19852   2.561   2.514   5.677
 6318SOL    HW119853   2.578   2.561   5.591
 6318SOL    HW219854   2.587   2.573   5.754
 6319SOL     OW19855   0.948   3.341   3.895
 6319SOL    HW119856   0.935   3.353   3.797
 6319SOL    HW219857   1.045   3.327   3.915
 6320SOL     OW19858   6.077   3.842   3.341
 6320SOL    HW119859   6.137   3.763   3.349
 6320SOL    HW219860   5.982   3.811   3.336
 6321SOL     OW19861   2.833   5.666   0.700
 6321SOL    HW119862   2.773   5.679   0.779
 6321SOL    HW219863   2.843   5.752   0.651
 6322SOL     OW19864   1.142   1.362   6.865
 6322SOL    HW119865   1.092   1.357   6.779
 6322SOL    HW219866   1.208   1.437   6.862
 6323SOL     OW19867   3.246   2.257   1.624
 6323SOL    HW119868   3.330   2.217   1.660
 6323SOL    HW219869   3.168   2.206   1.659
 6324SOL     OW19870   4.265   0.882   5.642
 6324SOL    HW119871   4.282   0.972   5.601
 6324SOL    HW219872   4.332   0.866   5.714
 6325SOL     OW19873   0.543   3.034   2.409
 6325SOL    HW119874   0.609   2.965   2.380
 6325SOL    HW219875   0.513   3.087   2.329
 6326SOL     OW19876   5.577   5.664   1.453
 6326SOL    HW119877   5.666   5.675   1.410
 6326SOL    HW219878   5.530   5.584   1.415
 6327SOL     OW19879   5.754   6.069   5.200
 6327SOL    HW119880   5.810   5.992   5.231
 6327SOL    HW219881   5.657   6.045   5.206
 6328SOL     OW19882   1.699   4.306   0.130
 6328SOL    HW119883   1.676   4.288   0.034
 6328SOL    HW219884   1.663   4.232   0.187
 6329SOL     OW19885   1.795   1.343   3.841
 6329SOL    HW119886   1.780   1.297   3.754
 6329SOL    HW219887   1.830   1.435   3.825
 6330SOL     OW19888   4.526   0.992   0.519
 6330SOL    HW119889   4.471   1.022   0.597
 6330SOL    HW219890   4.567   1.072   0.475
 6331SOL     OW19891   6.587   2.311   0.975
 6331SOL    HW119892   6.633   2.349   1.055
 6331SOL    HW219893   6.489   2.327   0.983
 6332SOL     OW19894   6.363   5.531   1.395
 6332SOL    HW119895   6.272   5.572   1.386
 6332SOL    HW219896   6.383   5.515   1.491
 6333SOL     OW19897   3.350   5.206   3.832
 6333SOL    HW119898   3.394   5.116   3.823
 6333SOL    HW219899   3.267   5.209   3.777
 6334SOL     OW19900   2.492   6.751   2.434
 6334SOL    HW119901   2.428   6.674   2.424
 6334SOL    HW219902   2.505   6.772   2.530
 6335SOL     OW19903   6.621   1.493   6.649
 6335SOL    HW119904   6.611   1.582   6.605
 6335SOL    HW219905   6.582   1.422   6.590
 6336SOL     OW19906   6.940   2.572   4.901
 6336SOL    HW119907   6.946   2.579   4.802
 6336SOL    HW219908   6.991   2.647   4.943
 6337SOL     OW19909   5.033   3.203   6.206
 6337SOL    HW119910   5.102   3.159   6.263
 6337SOL    HW219911   5.004   3.288   6.249
 6338SOL     OW19912   2.656   1.897   2.198
 6338SOL    HW119913   2.632   1.974   2.138
 6338SOL    HW219914   2.575   1.841   2.213
 6339SOL     OW19915   0.557   2.580   3.466
 6339SOL    HW119916   0.557   2.679   3.455
 6339SOL    HW219917   0.498   2.539   3.396
 6340SOL     OW19918   2.803   5.509   3.989
 6340SOL    HW119919   2.820   5.576   4.061
 6340SOL    HW219920   2.706   5.512   3.964
 6341SOL     OW19921   6.870   4.952   3.776
 6341SOL    HW119922   6.914   4.985   3.860
 6341SOL    HW219923   6.778   4.991   3.770
 6342SOL     OW19924   2.226   2.585   2.436
 6342SOL    HW119925   2.203   2.653   2.505
 6342SOL    HW219926   2.326   2.582   2.425
 6343SOL     OW19927   4.159   2.565   6.890
 6343SOL    HW119928   4.067   2.556   6.852
 6343SOL    HW219929   4.224   2.586   6.817
 6344SOL     OW19930   0.116   3.690   5.452
 6344SOL    HW119931   0.174   3.698   5.371
 6344SOL    HW219932   0.173   3.681   5.533
 6345SOL     OW19933   4.061   1.711   2.437
 6345SOL    HW119934   4.023   1.644   2.501
 6345SOL    HW219935   4.081   1.667   2.350
 6346SOL     OW19936   0.329   3.260   3.651
 6346SOL    HW119937   0.283   3.172   3.658
 6346SOL    HW219938   0.421   3.254   3.690
 6347SOL     OW19939   2.735   0.218   1.059
 6347SOL    HW119940   2.757   0.178   0.970
 6347SOL    HW219941   2.809   0.197   1.123
 6348SOL     OW19942   0.786   3.279   4.763
 6348SOL    HW119943   0.810   3.283   4.860
 6348SOL    HW219944   0.850   3.219   4.715
 6349SOL     OW19945   2.907   0.699   1.715
 6349SOL    HW119946   2.880   0.645   1.636
 6349SOL    HW219947   3.006   0.701   1.723
 6350SOL     OW19948   1.449   5.736   2.732
 6350SOL    HW119949   1.395   5.653   2.742
 6350SOL    HW219950   1.540   5.722   2.771
 6351SOL     OW19951   6.978   2.577   2.380
 6351SOL    HW119952   6.925   2.661   2.392
 6351SOL    HW219953   0.049   2.592   2.410
 6352SOL     OW19954   1.413   5.121   3.544
 6352SOL    HW119955   1.346   5.057   3.507
 6352SOL    HW219956   1.479   5.072   3.601
 6353SOL     OW19957   0.449   0.335   6.761
 6353SOL    HW119958   0.456   0.256   6.821
 6353SOL    HW219959   0.407   0.308   6.675
 6354SOL     OW19960   1.070   6.769   2.173
 6354SOL    HW119961   1.074   6.853   2.227
 6354SOL    HW219962   1.141   6.706   2.204
 6355SOL     OW19963   1.415   3.250   3.526
 6355SOL    HW119964   1.447   3.156   3.530
 6355SOL    HW219965   1.357   3.269   3.605
 6356SOL     OW19966   4.792   4.606   1.102
 6356SOL    HW119967   4.818   4.702   1.097
 6356SOL    HW219968   4.693   4.598   1.113
 6357SOL     OW19969   4.543   2.775   0.736
 6357SOL    HW119970   4.478   2.702   0.717
 6357SOL    HW219971   4.495   2.863   0.735
 6358SOL     OW19972   0.108   2.418   4.038
 6358SOL    HW119973   0.065   2.477   3.970
 6358SOL    HW219974   0.143   2.473   4.113
 6359SOL     OW19975   6.707   0.563   5.334
 6359SOL    HW119976   6.793   0.515   5.318
 6359SOL    HW219977   6.682   0.554   5.431
 6360SOL     OW19978   2.601   4.606   4.084
 6360SOL    HW119979   2.585   4.616   4.182
 6360SOL    HW219980   2.555   4.680   4.035
 6361SOL     OW19981   4.346   5.256   6.341
 6361SOL    HW119982   4.426   5.213   6.382
 6361SOL    HW219983   4.285   5.186   6.303
 6362SOL     OW19984   5.954   4.668   6.952
 6362SOL    HW119985   6.027   4.602   6.969
 6362SOL    HW219986   5.994   4.753   6.918
 6363SOL     OW19987   2.233   6.179   4.465
 6363SOL    HW119988   2.142   6.217   4.447
 6363SOL    HW219989   2.262   6.205   4.557
 6364SOL     OW19990   2.745   2.088   5.410
 6364SOL    HW119991   2.802   2.168   5.429
 6364SOL    HW219992   2.802   2.014   5.373
 6365SOL     OW19993   4.894   0.086   3.397
 6365SOL    HW119994   4.842   0.054   3.317
 6365SOL    HW219995   4.972   0.140   3.366
 6366SOL     OW19996   0.925   4.960   5.428
 6366SOL    HW119997   0.970   4.915   5.350
 6366SOL    HW219998   0.969   4.931   5.513
 6367SOL     OW19999   5.237   0.507   3.459
 6367SOL    HW120000   5.258   0.411   3.476
 6367SOL    HW220001   5.218   0.553   3.546
 6368SOL     OW20002   3.224   0.144   4.206
 6368SOL    HW120003   3.263   0.150   4.298
 6368SOL    HW220004   3.241   0.053   4.168
 6369SOL     OW20005   2.806   5.423   4.577
 6369SOL    HW120006   2.845   5.500   4.627
 6369SOL    HW220007   2.867   5.344   4.584
 6370SOL     OW20008   0.170   2.111   1.750
 6370SOL    HW120009   0.094   2.159   1.794
 6370SOL    HW220010   0.255   2.135   1.795
 6371SOL     OW20011   4.878   2.602   2.970
 6371SOL    HW120012   4.791   2.638   3.004
 6371SOL    HW220013   4.864   2.511   2.932
 6372SOL     OW20014   3.329   6.492   2.112
 6372SOL    HW120015   3.345   6.413   2.052
 6372SOL    HW220016   3.245   6.478   2.164
 6373SOL     OW20017   5.104   4.380   5.473
 6373SOL    HW120018   5.038   4.318   5.433
 6373SOL    HW220019   5.057   4.448   5.530
 6374SOL     OW20020   2.990   3.203   3.359
 6374SOL    HW120021   3.062   3.209   3.428
 6374SOL    HW220022   2.987   3.111   3.321
 6375SOL     OW20023   1.280   0.337   2.911
 6375SOL    HW120024   1.193   0.385   2.901
 6375SOL    HW220025   1.310   0.304   2.821
 6376SOL     OW20026   0.126   1.889   4.339
 6376SOL    HW120027   0.083   1.938   4.414
 6376SOL    HW220028   0.173   1.954   4.279
 6377SOL     OW20029   0.538   1.285   5.111
 6377SOL    HW120030   0.617   1.337   5.078
 6377SOL    HW220031   0.455   1.337   5.095
 6378SOL     OW20032   4.939   4.269   4.214
 6378SOL    HW120033   4.959   4.324   4.296
 6378SOL    HW220034   4.942   4.328   4.133
 6379SOL     OW20035   2.696   4.663   3.644
 6379SOL    HW120036   2.598   4.647   3.633
 6379SOL    HW220037   2.745   4.576   3.637
 6380SOL     OW20038   0.546   1.199   5.787
 6380SOL    HW120039   0.591   1.283   5.756
 6380SOL    HW220040   0.454   1.220   5.819
 6381SOL     OW20041   3.232   3.744   2.722
 6381SOL    HW120042   3.132   3.740   2.721
 6381SOL    HW220043   3.268   3.701   2.640
 6382SOL     OW20044   1.177   2.667   5.959
 6382SOL    HW120045   1.265   2.627   5.935
 6382SOL    HW220046   1.120   2.675   5.877
 6383SOL     OW20047   2.497   1.745   4.217
 6383SOL    HW120048   2.592   1.775   4.203
 6383SOL    HW220049   2.447   1.816   4.267
 6384SOL     OW20050   5.648   5.158   2.344
 6384SOL    HW120051   5.682   5.251   2.356
 6384SOL    HW220052   5.575   5.159   2.275
 6385SOL     OW20053   6.716   5.294   3.886
 6385SOL    HW120054   6.727   5.243   3.972
 6385SOL    HW220055   6.674   5.235   3.817
 6386SOL     OW20056   2.509   5.277   0.797
 6386SOL    HW120057   2.577   5.205   0.786
 6386SOL    HW220058   2.428   5.255   0.743
 6387SOL     OW20059   0.460   2.382   6.016
 6387SOL    HW120060   0.493   2.296   6.056
 6387SOL    HW220061   0.526   2.414   5.947
 6388SOL     OW20062   3.291   4.715   1.752
 6388SOL    HW120063   3.375   4.661   1.756
 6388SOL    HW220064   3.280   4.766   1.837
 6389SOL     OW20065   1.247   5.782   3.245
 6389SOL    HW120066   1.336   5.827   3.244
 6389SOL    HW220067   1.248   5.708   3.312
 6390SOL     OW20068   0.009   2.267   3.385
 6390SOL    HW120069   6.945   2.252   3.337
 6390SOL    HW220070   0.027   2.190   3.446
 6391SOL     OW20071   3.169   1.754   0.320
 6391SOL    HW120072   3.215   1.816   0.384
 6391SOL    HW220073   3.143   1.804   0.238
 6392SOL     OW20074   2.152   6.609   3.701
 6392SOL    HW120075   2.175   6.603   3.604
 6392SOL    HW220076   2.062   6.567   3.717
 6393SOL     OW20077   5.698   6.637   0.655
 6393SOL    HW120078   5.680   6.735   0.665
 6393SOL    HW220079   5.612   6.587   0.669
 6394SOL     OW20080   2.601   4.986   0.815
 6394SOL    HW120081   2.573   4.929   0.892
 6394SOL    HW220082   2.654   4.932   0.750
 6395SOL     OW20083   6.011   1.449   0.981
 6395SOL    HW120084   5.989   1.506   1.060
 6395SOL    HW220085   6.110   1.442   0.971
 6396SOL     OW20086   4.794   2.648   5.850
 6396SOL    HW120087   4.724   2.711   5.884
 6396SOL    HW220088   4.861   2.631   5.922
 6397SOL     OW20089   0.305   2.273   6.869
 6397SOL    HW120090   0.360   2.290   6.951
 6397SOL    HW220091   0.325   2.343   6.800
 6398SOL     OW20092   2.542   1.180   2.030
 6398SOL    HW120093   2.641   1.170   2.025
 6398SOL    HW220094   2.516   1.213   2.121
 6399SOL     OW20095   1.683   5.625   0.293
 6399SOL    HW120096   1.779   5.631   0.324
 6399SOL    HW220097   1.678   5.648   0.196
 6400SOL     OW20098   2.522   5.525   3.905
 6400SOL    HW120099   2.564   5.473   3.831
 6400SOL    HW220100   2.424   5.505   3.909
 6401SOL     OW20101   0.100   4.741   3.323
 6401SOL    HW120102   0.179   4.782   3.278
 6401SOL    HW220103   0.111   4.641   3.327
 6402SOL     OW20104   2.676   0.825   3.038
 6402SOL    HW120105   2.703   0.911   3.082
 6402SOL    HW220106   2.627   0.845   2.953
 6403SOL     OW20107   1.334   4.200   0.053
 6403SOL    HW120108   1.247   4.239   0.024
 6403SOL    HW220109   1.406   4.225   7.012
 6404SOL     OW20110   4.120   1.901   3.382
 6404SOL    HW120111   4.110   1.833   3.309
 6404SOL    HW220112   4.069   1.983   3.358
 6405SOL     OW20113   2.252   1.799   2.493
 6405SOL    HW120114   2.312   1.763   2.565
 6405SOL    HW220115   2.291   1.884   2.457
 6406SOL     OW20116   2.315   1.169   3.890
 6406SOL    HW120117   2.348   1.263   3.884
 6406SOL    HW220118   2.250   1.161   3.966
 6407SOL     OW20119   3.269   6.552   4.848
 6407SOL    HW120120   3.299   6.639   4.808
 6407SOL    HW220121   3.177   6.564   4.886
 6408SOL     OW20122   5.940   1.709   6.759
 6408SOL    HW120123   5.850   1.741   6.728
 6408SOL    HW220124   5.939   1.698   6.859
 6409SOL     OW20125   6.267   3.450   2.992
 6409SOL    HW120126   6.333   3.498   2.934
 6409SOL    HW220127   6.178   3.493   2.985
 6410SOL     OW20128   1.337   1.433   0.416
 6410SOL    HW120129   1.356   1.354   0.475
 6410SOL    HW220130   1.373   1.516   0.459
 6411SOL     OW20131   0.965   1.063   3.520
 6411SOL    HW120132   0.998   0.989   3.461
 6411SOL    HW220133   0.871   1.086   3.494
 6412SOL     OW20134   7.021   2.758   5.360
 6412SOL    HW120135   0.024   2.815   5.437
 6412SOL    HW220136   0.038   2.667   5.370
 6413SOL     OW20137   6.240   5.340   1.972
 6413SOL    HW120138   6.187   5.285   1.908
 6413SOL    HW220139   6.202   5.331   2.064
 6414SOL     OW20140   6.018   0.418   0.902
 6414SOL    HW120141   5.965   0.411   0.986
 6414SOL    HW220142   6.107   0.461   0.923
 6415SOL     OW20143   1.917   2.375   2.208
 6415SOL    HW120144   1.852   2.313   2.165
 6415SOL    HW220145   1.886   2.469   2.196
 6416SOL     OW20146   1.072   6.778   6.800
 6416SOL    HW120147   1.061   6.872   6.767
 6416SOL    HW220148   1.168   6.751   6.793
 6417SOL     OW20149   0.816   0.093   3.385
 6417SOL    HW120150   0.725   0.093   3.426
 6417SOL    HW220151   0.880   0.141   3.446
 6418SOL     OW20152   6.571   5.322   2.494
 6418SOL    HW120153   6.663   5.342   2.529
 6418SOL    HW220154   6.567   5.346   2.397
 6419SOL     OW20155   3.543   5.158   1.892
 6419SOL    HW120156   3.561   5.091   1.963
 6419SOL    HW220157   3.527   5.248   1.933
 6420SOL     OW20158   3.119   3.308   6.365
 6420SOL    HW120159   3.171   3.361   6.298
 6420SOL    HW220160   3.149   3.332   6.458
 6421SOL     OW20161   5.715   0.656   1.361
 6421SOL    HW120162   5.759   0.660   1.451
 6421SOL    HW220163   5.643   0.725   1.356
 6422SOL     OW20164   6.623   0.761   3.108
 6422SOL    HW120165   6.702   0.801   3.061
 6422SOL    HW220166   6.599   0.818   3.187
 6423SOL     OW20167   4.858   2.914   1.411
 6423SOL    HW120168   4.765   2.883   1.393
 6423SOL    HW220169   4.880   2.992   1.352
 6424SOL     OW20170   6.203   3.678   6.378
 6424SOL    HW120171   6.300   3.669   6.398
 6424SOL    HW220172   6.167   3.759   6.425
 6425SOL     OW20173   0.272   4.645   2.809
 6425SOL    HW120174   0.264   4.552   2.775
 6425SOL    HW220175   0.181   4.682   2.827
 6426SOL     OW20176   1.149   2.799   3.744
 6426SOL    HW120177   1.110   2.754   3.664
 6426SOL    HW220178   1.108   2.761   3.827
 6427SOL     OW20179   1.256   3.532   6.090
 6427SOL    HW120180   1.158   3.518   6.076
 6427SOL    HW220181   1.288   3.606   6.032
 6428SOL     OW20182   6.594   3.843   2.095
 6428SOL    HW120183   6.625   3.934   2.067
 6428SOL    HW220184   6.671   3.794   2.137
 6429SOL     OW20185   1.689   1.066   4.662
 6429SOL    HW120186   1.606   1.021   4.628
 6429SOL    HW220187   1.690   1.064   4.762
 6430SOL     OW20188   5.108   1.176   1.578
 6430SOL    HW120189   5.172   1.099   1.583
 6430SOL    HW220190   5.021   1.149   1.619
 6431SOL     OW20191   4.767   6.540   3.197
 6431SOL    HW120192   4.711   6.494   3.266
 6431SOL    HW220193   4.708   6.586   3.130
 6432SOL     OW20194   4.645   3.398   1.068
 6432SOL    HW120195   4.552   3.361   1.076
 6432SOL    HW220196   4.692   3.355   0.991
 6433SOL     OW20197   3.243   4.132   1.055
 6433SOL    HW120198   3.237   4.044   1.103
 6433SOL    HW220199   3.223   4.117   0.958
 6434SOL     OW20200   1.086   4.139   1.175
 6434SOL    HW120201   1.078   4.074   1.100
 6434SOL    HW220202   1.063   4.094   1.261
 6435SOL     OW20203   3.900   4.905   6.950
 6435SOL    HW120204   3.811   4.945   6.973
 6435SOL    HW220205   3.892   4.853   6.865
 6436SOL     OW20206   2.147   3.289   3.537
 6436SOL    HW120207   2.211   3.358   3.573
 6436SOL    HW220208   2.129   3.221   3.608
 6437SOL     OW20209   0.921   0.485   0.049
 6437SOL    HW120210   0.976   0.459   0.129
 6437SOL    HW220211   0.832   0.441   0.054
 6438SOL     OW20212   1.022   4.074   4.666
 6438SOL    HW120213   1.100   4.127   4.633
 6438SOL    HW220214   1.049   4.024   4.749
 6439SOL     OW20215   0.997   6.701   0.647
 6439SOL    HW120216   1.057   6.775   0.676
 6439SOL    HW220217   1.047   6.641   0.583
 6440SOL     OW20218   1.273   2.123   2.251
 6440SOL    HW120219   1.276   2.040   2.196
 6440SOL    HW220220   1.329   2.111   2.333
 6441SOL     OW20221   1.837   1.143   3.454
 6441SOL    HW120222   1.894   1.062   3.437
 6441SOL    HW220223   1.805   1.179   3.366
 6442SOL     OW20224   2.296   1.972   4.554
 6442SOL    HW120225   2.305   1.946   4.457
 6442SOL    HW220226   2.289   1.890   4.610
 6443SOL     OW20227   2.841   2.960   0.638
 6443SOL    HW120228   2.775   2.927   0.705
 6443SOL    HW220229   2.927   2.984   0.683
 6444SOL     OW20230   0.523   1.552   3.058
 6444SOL    HW120231   0.516   1.569   2.959
 6444SOL    HW220232   0.435   1.517   3.091
 6445SOL     OW20233   4.265   2.641   5.410
 6445SOL    HW120234   4.228   2.612   5.322
 6445SOL    HW220235   4.204   2.612   5.484
 6446SOL     OW20236   6.881   1.387   6.227
 6446SOL    HW120237   6.791   1.365   6.190
 6446SOL    HW220238   6.951   1.342   6.172
 6447SOL     OW20239   1.967   6.284   2.874
 6447SOL    HW120240   2.038   6.233   2.922
 6447SOL    HW220241   1.926   6.351   2.935
 6448SOL     OW20242   6.543   2.951   2.748
 6448SOL    HW120243   6.490   2.994   2.821
 6448SOL    HW220244   6.579   2.863   2.779
 6449SOL     OW20245   3.738   4.029   1.481
 6449SOL    HW120246   3.733   4.090   1.402
 6449SOL    HW220247   3.715   3.936   1.452
 6450SOL     OW20248   6.474   3.167   1.485
 6450SOL    HW120249   6.571   3.186   1.503
 6450SOL    HW220250   6.442   3.094   1.544
 6451SOL     OW20251   2.977   6.136   5.073
 6451SOL    HW120252   2.894   6.081   5.083
 6451SOL    HW220253   2.979   6.174   4.980
 6452SOL     OW20254   3.447   6.950   4.775
 6452SOL    HW120255   3.499   6.968   4.692
 6452SOL    HW220256   3.488   6.873   4.824
 6453SOL     OW20257   1.401   6.442   0.552
 6453SOL    HW120258   1.395   6.393   0.465
 6453SOL    HW220259   1.475   6.404   0.607
 6454SOL     OW20260   3.090   2.130   4.293
 6454SOL    HW120261   3.036   2.074   4.355
 6454SOL    HW220262   3.174   2.160   4.339
 6455SOL     OW20263   0.102   3.177   4.917
 6455SOL    HW120264   0.182   3.212   4.869
 6455SOL    HW220265   0.126   3.159   5.013
 6456SOL     OW20266   1.194   0.623   3.263
 6456SOL    HW120267   1.147   0.534   3.259
 6456SOL    HW220268   1.183   0.669   3.175
 6457SOL     OW20269   6.553   2.441   1.725
 6457SOL    HW120270   6.533   2.434   1.627
 6457SOL    HW220271   6.469   2.426   1.777
 6458SOL     OW20272   1.584   5.369   3.106
 6458SOL    HW120273   1.568   5.466   3.087
 6458SOL    HW220274   1.681   5.356   3.130
 6459SOL     OW20275   6.461   4.849   0.047
 6459SOL    HW120276   6.464   4.855   6.970
 6459SOL    HW220277   6.514   4.924   0.086
 6460SOL     OW20278   4.379   4.452   7.013
 6460SOL    HW120279   4.285   4.417   7.009
 6460SOL    HW220280   4.435   4.401   6.948
 6461SOL     OW20281   2.577   5.537   5.601
 6461SOL    HW120282   2.535   5.519   5.689
 6461SOL    HW220283   2.669   5.573   5.615
 6462SOL     OW20284   2.203   3.162   5.344
 6462SOL    HW120285   2.259   3.109   5.280
 6462SOL    HW220286   2.201   3.258   5.314
 6463SOL     OW20287   2.686   5.136   6.667
 6463SOL    HW120288   2.638   5.123   6.580
 6463SOL    HW220289   2.749   5.061   6.682
 6464SOL     OW20290   0.204   5.052   3.423
 6464SOL    HW120291   0.197   4.994   3.504
 6464SOL    HW220292   0.168   5.002   3.344
 6465SOL     OW20293   5.736   2.007   4.149
 6465SOL    HW120294   5.742   1.928   4.210
 6465SOL    HW220295   5.806   2.000   4.079
 6466SOL     OW20296   0.245   2.449   5.054
 6466SOL    HW120297   0.333   2.403   5.067
 6466SOL    HW220298   0.211   2.430   4.962
 6467SOL     OW20299   2.186   1.197   0.116
 6467SOL    HW120300   2.269   1.144   0.136
 6467SOL    HW220301   2.110   1.163   0.171
 6468SOL     OW20302   4.785   6.408   1.610
 6468SOL    HW120303   4.738   6.456   1.536
 6468SOL    HW220304   4.779   6.463   1.694
 6469SOL     OW20305   6.701   1.018   4.821
 6469SOL    HW120306   6.753   1.016   4.907
 6469SOL    HW220307   6.605   0.998   4.841
 6470SOL     OW20308   6.547   6.670   5.740
 6470SOL    HW120309   6.502   6.662   5.650
 6470SOL    HW220310   6.635   6.622   5.737
 6471SOL     OW20311   6.819   5.048   6.409
 6471SOL    HW120312   6.849   5.003   6.325
 6471SOL    HW220313   6.719   5.052   6.412
 6472SOL     OW20314   0.630   6.071   1.712
 6472SOL    HW120315   0.552   6.046   1.656
 6472SOL    HW220316   0.601   6.135   1.783
 6473SOL     OW20317   2.075   1.364   6.103
 6473SOL    HW120318   1.982   1.344   6.134
 6473SOL    HW220319   2.139   1.353   6.179
 6474SOL     OW20320   1.201   3.414   6.360
 6474SOL    HW120321   1.227   3.510   6.346
 6474SOL    HW220322   1.187   3.370   6.271
 6475SOL     OW20323   5.644   6.215   3.564
 6475SOL    HW120324   5.568   6.207   3.628
 6475SOL    HW220325   5.650   6.132   3.508
 6476SOL     OW20326   4.378   4.672   3.474
 6476SOL    HW120327   4.464   4.721   3.490
 6476SOL    HW220328   4.321   4.679   3.556
 6477SOL     OW20329   6.416   5.544   6.789
 6477SOL    HW120330   6.501   5.512   6.831
 6477SOL    HW220331   6.392   5.634   6.827
 6478SOL     OW20332   4.106   5.782   2.312
 6478SOL    HW120333   4.056   5.707   2.268
 6478SOL    HW220334   4.093   5.866   2.261
 6479SOL     OW20335   4.446   4.971   1.848
 6479SOL    HW120336   4.446   5.003   1.754
 6479SOL    HW220337   4.353   4.948   1.876
 6480SOL     OW20338   3.362   2.508   6.034
 6480SOL    HW120339   3.360   2.599   5.994
 6480SOL    HW220340   3.328   2.441   5.968
 6481SOL     OW20341   3.761   1.562   1.490
 6481SOL    HW120342   3.718   1.650   1.512
 6481SOL    HW220343   3.690   1.498   1.459
 6482SOL     OW20344   6.537   6.833   6.721
 6482SOL    HW120345   6.609   6.843   6.790
 6482SOL    HW220346   6.521   6.921   6.676
 6483SOL     OW20347   2.071   6.605   2.680
 6483SOL    HW120348   2.063   6.664   2.600
 6483SOL    HW220349   2.068   6.509   2.652
 6484SOL     OW20350   4.917   6.995   2.582
 6484SOL    HW120351   4.911   0.054   2.639
 6484SOL    HW220352   4.982   6.931   2.623
 6485SOL     OW20353   1.989   3.023   4.115
 6485SOL    HW120354   1.944   2.983   4.035
 6485SOL    HW220355   2.085   3.039   4.095
 6486SOL     OW20356   1.074   3.899   4.118
 6486SOL    HW120357   1.161   3.870   4.157
 6486SOL    HW220358   1.002   3.892   4.187
 6487SOL     OW20359   6.270   6.795   4.066
 6487SOL    HW120360   6.235   6.703   4.087
 6487SOL    HW220361   6.322   6.791   3.980
 6488SOL     OW20362   3.102   5.771   5.890
 6488SOL    HW120363   3.075   5.836   5.819
 6488SOL    HW220364   3.045   5.689   5.883
 6489SOL     OW20365   2.063   2.001   6.362
 6489SOL    HW120366   2.007   1.931   6.407
 6489SOL    HW220367   2.068   2.082   6.421
 6490SOL     OW20368   4.041   2.675   0.543
 6490SOL    HW120369   4.124   2.731   0.546
 6490SOL    HW220370   4.000   2.672   0.634
 6491SOL     OW20371   4.901   1.212   6.446
 6491SOL    HW120372   4.925   1.169   6.359
 6491SOL    HW220373   4.984   1.232   6.498
 6492SOL     OW20374   6.299   6.430   0.322
 6492SOL    HW120375   6.345   6.503   0.270
 6492SOL    HW220376   6.368   6.376   0.371
 6493SOL     OW20377   2.085   6.279   6.273
 6493SOL    HW120378   2.123   6.362   6.314
 6493SOL    HW220379   2.016   6.304   6.205
 6494SOL     OW20380   1.148   0.127   3.841
 6494SOL    HW120381   1.096   0.135   3.926
 6494SOL    HW220382   1.097   0.170   3.767
 6495SOL     OW20383   5.103   5.677   2.941
 6495SOL    HW120384   5.031   5.742   2.919
 6495SOL    HW220385   5.105   5.605   2.872
 6496SOL     OW20386   0.347   6.273   1.584
 6496SOL    HW120387   0.283   6.349   1.576
 6496SOL    HW220388   0.414   6.278   1.510
 6497SOL     OW20389   2.302   3.613   1.079
 6497SOL    HW120390   2.311   3.580   0.985
 6497SOL    HW220391   2.298   3.535   1.142
 6498SOL     OW20392   1.808   4.114   4.453
 6498SOL    HW120393   1.860   4.184   4.503
 6498SOL    HW220394   1.769   4.049   4.518
 6499SOL     OW20395   4.752   1.036   4.798
 6499SOL    HW120396   4.721   1.060   4.706
 6499SOL    HW220397   4.826   0.970   4.793
 6500SOL     OW20398   6.167   4.367   3.320
 6500SOL    HW120399   6.174   4.449   3.376
 6500SOL    HW220400   6.091   4.311   3.353
 6501SOL     OW20401   5.898   3.943   1.105
 6501SOL    HW120402   5.939   3.937   1.196
 6501SOL    HW220403   5.807   3.985   1.111
 6502SOL     OW20404   0.767   4.450   4.000
 6502SOL    HW120405   0.784   4.440   3.902
 6502SOL    HW220406   0.836   4.399   4.051
 6503SOL     OW20407   5.919   6.385   3.379
 6503SOL    HW120408   5.926   6.343   3.288
 6503SOL    HW220409   5.825   6.378   3.411
 6504SOL     OW20410   4.269   0.918   7.007
 6504SOL    HW120411   4.183   0.869   6.997
 6504SOL    HW220412   4.344   0.863   6.969
 6505SOL     OW20413   5.872   4.765   0.509
 6505SOL    HW120414   5.958   4.815   0.508
 6505SOL    HW220415   5.862   4.717   0.596
 6506SOL     OW20416   0.992   3.116   1.008
 6506SOL    HW120417   1.022   3.209   0.990
 6506SOL    HW220418   0.894   3.108   0.990
 6507SOL     OW20419   1.979   5.897   1.650
 6507SOL    HW120420   2.059   5.840   1.630
 6507SOL    HW220421   1.951   5.945   1.567
 6508SOL     OW20422   2.293   2.233   3.518
 6508SOL    HW120423   2.236   2.160   3.483
 6508SOL    HW220424   2.292   2.310   3.455
 6509SOL     OW20425   1.717   2.316   4.628
 6509SOL    HW120426   1.664   2.338   4.711
 6509SOL    HW220427   1.789   2.384   4.616
 6510SOL     OW20428   6.836   5.115   6.746
 6510SOL    HW120429   6.755   5.159   6.707
 6510SOL    HW220430   6.912   5.180   6.743
 6511SOL     OW20431   6.548   0.017   5.560
 6511SOL    HW120432   6.588   0.015   5.652
 6511SOL    HW220433   6.536   0.112   5.531
 6512SOL     OW20434   4.802   6.801   2.852
 6512SOL    HW120435   4.838   6.884   2.895
 6512SOL    HW220436   4.736   6.825   2.781
 6513SOL     OW20437   3.687   6.691   4.172
 6513SOL    HW120438   3.725   6.758   4.108
 6513SOL    HW220439   3.678   6.603   4.126
 6514SOL     OW20440   4.731   0.565   4.457
 6514SOL    HW120441   4.631   0.557   4.469
 6514SOL    HW220442   4.751   0.623   4.379
 6515SOL     OW20443   6.925   5.779   4.126
 6515SOL    HW120444   6.859   5.758   4.054
 6515SOL    HW220445   6.963   5.871   4.111
 6516SOL     OW20446   1.127   1.980   6.135
 6516SOL    HW120447   1.160   1.946   6.046
 6516SOL    HW220448   1.193   1.956   6.206
 6517SOL     OW20449   0.543   1.712   0.209
 6517SOL    HW120450   0.461   1.731   0.263
 6517SOL    HW220451   0.565   1.614   0.214
 6518SOL     OW20452   0.783   6.384   1.024
 6518SOL    HW120453   0.784   6.295   1.070
 6518SOL    HW220454   0.707   6.388   0.960
 6519SOL     OW20455   2.079   1.448   4.229
 6519SOL    HW120456   2.163   1.498   4.211
 6519SOL    HW220457   2.086   1.401   4.318
 6520SOL     OW20458   6.309   5.806   2.179
 6520SOL    HW120459   6.299   5.756   2.264
 6520SOL    HW220460   6.395   5.780   2.135
 6521SOL     OW20461   0.993   1.753   4.740
 6521SOL    HW120462   0.990   1.818   4.815
 6521SOL    HW220463   1.008   1.802   4.654
 6522SOL     OW20464   2.412   5.916   6.616
 6522SOL    HW120465   2.381   5.840   6.674
 6522SOL    HW220466   2.340   5.984   6.608
 6523SOL     OW20467   2.056   1.507   6.890
 6523SOL    HW120468   2.153   1.482   6.885
 6523SOL    HW220469   2.006   1.435   6.938
 6524SOL     OW20470   4.023   3.914   3.925
 6524SOL    HW120471   3.970   3.954   4.000
 6524SOL    HW220472   4.119   3.909   3.952
 6525SOL     OW20473   0.586   2.734   2.864
 6525SOL    HW120474   0.579   2.635   2.866
 6525SOL    HW220475   0.505   2.772   2.819
 6526SOL     OW20476   1.213   6.041   4.912
 6526SOL    HW120477   1.289   6.103   4.894
 6526SOL    HW220478   1.127   6.087   4.893
 6527SOL     OW20479   1.257   0.066   4.779
 6527SOL    HW120480   1.225   0.007   4.706
 6527SOL    HW220481   1.340   0.113   4.750
 6528SOL     OW20482   0.738   0.828   4.370
 6528SOL    HW120483   0.785   0.742   4.390
 6528SOL    HW220484   0.639   0.813   4.372
 6529SOL     OW20485   5.858   1.713   2.239
 6529SOL    HW120486   5.768   1.722   2.195
 6529SOL    HW220487   5.897   1.803   2.253
 6530SOL     OW20488   6.776   2.553   0.160
 6530SOL    HW120489   6.864   2.561   0.208
 6530SOL    HW220490   6.707   2.606   0.209
 6531SOL     OW20491   5.463   2.390   4.051
 6531SOL    HW120492   5.393   2.427   4.112
 6531SOL    HW220493   5.454   2.431   3.961
 6532SOL     OW20494   6.346   1.620   6.474
 6532SOL    HW120495   6.381   1.526   6.477
 6532SOL    HW220496   6.263   1.626   6.529
 6533SOL     OW20497   5.193   6.644   0.321
 6533SOL    HW120498   5.138   6.566   0.292
 6533SOL    HW220499   5.252   6.616   0.397
 6534SOL     OW20500   2.042   3.585   1.549
 6534SOL    HW120501   2.085   3.511   1.600
 6534SOL    HW220502   1.953   3.607   1.588
 6535SOL     OW20503   0.563   3.441   4.826
 6535SOL    HW120504   0.602   3.477   4.910
 6535SOL    HW220505   0.632   3.384   4.780
 6536SOL     OW20506   5.738   1.674   0.234
 6536SOL    HW120507   5.651   1.637   0.267
 6536SOL    HW220508   5.746   1.655   0.136
 6537SOL     OW20509   0.110   0.046   6.975
 6537SOL    HW120510   0.113   6.970   6.961
 6537SOL    HW220511   0.066   0.089   6.896
 6538SOL     OW20512   3.557   3.935   0.206
 6538SOL    HW120513   3.587   3.915   0.299
 6538SOL    HW220514   3.495   4.013   0.207
 6539SOL     OW20515   2.011   1.409   6.628
 6539SOL    HW120516   2.027   1.442   6.721
 6539SOL    HW220517   2.093   1.363   6.595
 6540SOL     OW20518   3.865   0.847   4.319
 6540SOL    HW120519   3.817   0.867   4.404
 6540SOL    HW220520   3.797   0.827   4.247
 6541SOL     OW20521   3.153   2.444   5.636
 6541SOL    HW120522   3.185   2.354   5.665
 6541SOL    HW220523   3.064   2.462   5.677
 6542SOL     OW20524   6.380   4.848   3.530
 6542SOL    HW120525   6.404   4.871   3.436
 6542SOL    HW220526   6.461   4.817   3.580
 6543SOL     OW20527   6.197   6.000   6.890
 6543SOL    HW120528   6.163   6.050   6.811
 6543SOL    HW220529   6.164   6.043   6.974
 6544SOL     OW20530   6.902   6.130   3.917
 6544SOL    HW120531   6.885   6.132   3.818
 6544SOL    HW220532   6.835   6.188   3.964
 6545SOL     OW20533   5.247   1.679   5.754
 6545SOL    HW120534   5.309   1.744   5.709
 6545SOL    HW220535   5.220   1.608   5.690
 6546SOL     OW20536   3.557   5.165   6.345
 6546SOL    HW120537   3.591   5.079   6.308
 6546SOL    HW220538   3.554   5.160   6.444
 6547SOL     OW20539   5.212   2.565   6.341
 6547SOL    HW120540   5.212   2.642   6.277
 6547SOL    HW220541   5.154   2.587   6.419
 6548SOL     OW20542   6.403   4.574   5.957
 6548SOL    HW120543   6.360   4.610   6.040
 6548SOL    HW220544   6.354   4.609   5.877
 6549SOL     OW20545   4.056   2.084   0.791
 6549SOL    HW120546   4.024   1.992   0.814
 6549SOL    HW220547   4.081   2.088   0.694
 6550SOL     OW20548   1.052   5.800   3.557
 6550SOL    HW120549   1.136   5.853   3.544
 6550SOL    HW220550   0.977   5.862   3.578
 6551SOL     OW20551   1.793   5.148   1.800
 6551SOL    HW120552   1.824   5.117   1.889
 6551SOL    HW220553   1.697   5.176   1.805
 6552SOL     OW20554   2.322   4.902   5.960
 6552SOL    HW120555   2.295   4.986   5.912
 6552SOL    HW220556   2.414   4.913   5.996
 6553SOL     OW20557   0.375   3.274   1.828
 6553SOL    HW120558   0.370   3.174   1.817
 6553SOL    HW220559   0.457   3.297   1.880
 6554SOL     OW20560   6.393   2.142   6.105
 6554SOL    HW120561   6.434   2.205   6.170
 6554SOL    HW220562   6.337   2.074   6.154
 6555SOL     OW20563   1.909   1.189   2.255
 6555SOL    HW120564   1.952   1.204   2.166
 6555SOL    HW220565   1.829   1.249   2.264
 6556SOL     OW20566   4.404   4.956   4.895
 6556SOL    HW120567   4.477   5.019   4.919
 6556SOL    HW220568   4.349   4.994   4.821
 6557SOL     OW20569   6.107   5.317   0.432
 6557SOL    HW120570   6.117   5.218   0.446
 6557SOL    HW220571   6.019   5.336   0.389
 6558SOL     OW20572   6.166   6.065   0.167
 6558SOL    HW120573   6.078   6.025   0.142
 6558SOL    HW220574   6.172   6.158   0.132
 6559SOL     OW20575   5.530   3.640   1.395
 6559SOL    HW120576   5.575   3.683   1.316
 6559SOL    HW220577   5.484   3.556   1.366
 6560SOL     OW20578   3.498   3.020   1.020
 6560SOL    HW120579   3.561   2.944   1.038
 6560SOL    HW220580   3.483   3.028   0.922
 6561SOL     OW20581   3.918   3.920   2.704
 6561SOL    HW120582   3.946   3.892   2.796
 6561SOL    HW220583   3.987   3.891   2.637
 6562SOL     OW20584   6.390   5.004   5.885
 6562SOL    HW120585   6.319   4.941   5.853
 6562SOL    HW220586   6.429   4.968   5.970
 6563SOL     OW20587   0.516   6.219   0.308
 6563SOL    HW120588   0.499   6.205   0.406
 6563SOL    HW220589   0.603   6.176   0.283
 6564SOL     OW20590   0.934   3.673   2.100
 6564SOL    HW120591   0.888   3.642   2.183
 6564SOL    HW220592   0.953   3.771   2.108
 6565SOL     OW20593   6.489   2.744   4.462
 6565SOL    HW120594   6.423   2.819   4.468
 6565SOL    HW220595   6.469   2.677   4.534
 6566SOL     OW20596   3.241   6.567   0.992
 6566SOL    HW120597   3.323   6.542   0.940
 6566SOL    HW220598   3.224   6.665   0.984
 6567SOL     OW20599   4.980   2.667   0.661
 6567SOL    HW120600   4.967   2.569   0.674
 6567SOL    HW220601   5.006   2.709   0.748
 6568SOL     OW20602   4.115   4.634   1.640
 6568SOL    HW120603   4.152   4.584   1.718
 6568SOL    HW220604   4.095   4.570   1.566
 6569SOL     OW20605   2.113   5.034   0.861
 6569SOL    HW120606   2.162   5.002   0.779
 6569SOL    HW220607   2.101   4.957   0.924
 6570SOL     OW20608   5.570   1.110   1.785
 6570SOL    HW120609   5.552   1.200   1.746
 6570SOL    HW220610   5.504   1.092   1.858
 6571SOL     OW20611   2.216   5.905   3.572
 6571SOL    HW120612   2.284   5.836   3.597
 6571SOL    HW220613   2.238   5.991   3.617
 6572SOL     OW20614   6.708   3.844   5.451
 6572SOL    HW120615   6.742   3.905   5.524
 6572SOL    HW220616   6.683   3.756   5.491
 6573SOL     OW20617   3.086   1.033   2.250
 6573SOL    HW120618   3.118   1.122   2.216
 6573SOL    HW220619   3.160   0.967   2.246
 6574SOL     OW20620   2.639   5.317   2.432
 6574SOL    HW120621   2.550   5.346   2.467
 6574SOL    HW220622   2.641   5.217   2.425
 6575SOL     OW20623   0.845   1.340   1.809
 6575SOL    HW120624   0.894   1.258   1.838
 6575SOL    HW220625   0.772   1.360   1.874
 6576SOL     OW20626   1.250   5.796   6.790
 6576SOL    HW120627   1.173   5.847   6.829
 6576SOL    HW220628   1.231   5.698   6.797
 6577SOL     OW20629   1.274   1.615   3.716
 6577SOL    HW120630   1.358   1.561   3.713
 6577SOL    HW220631   1.258   1.647   3.809
 6578SOL     OW20632   6.013   5.407   3.530
 6578SOL    HW120633   5.962   5.445   3.453
 6578SOL    HW220634   6.036   5.480   3.594
 6579SOL     OW20635   6.833   4.549   3.389
 6579SOL    HW120636   6.898   4.476   3.411
 6579SOL    HW220637   6.862   4.633   3.434
 6580SOL     OW20638   5.418   0.509   1.308
 6580SOL    HW120639   5.332   0.523   1.358
 6580SOL    HW220640   5.437   0.590   1.252
 6581SOL     OW20641   4.332   2.340   6.438
 6581SOL    HW120642   4.320   2.429   6.394
 6581SOL    HW220643   4.427   2.311   6.430
 6582SOL     OW20644   0.353   6.814   2.922
 6582SOL    HW120645   0.267   6.810   2.973
 6582SOL    HW220646   0.351   6.890   2.857
 6583SOL     OW20647   5.460   1.235   5.851
 6583SOL    HW120648   5.376   1.289   5.856
 6583SOL    HW220649   5.516   1.268   5.775
 6584SOL     OW20650   6.160   1.793   6.613
 6584SOL    HW120651   6.236   1.819   6.672
 6584SOL    HW220652   6.074   1.803   6.663
 6585SOL     OW20653   0.280   1.601   6.686
 6585SOL    HW120654   0.316   1.691   6.660
 6585SOL    HW220655   0.351   1.532   6.672
 6586SOL     OW20656   6.841   1.900   5.755
 6586SOL    HW120657   6.819   1.850   5.839
 6586SOL    HW220658   6.809   1.848   5.676
 6587SOL     OW20659   1.784   5.795   4.060
 6587SOL    HW120660   1.851   5.726   4.033
 6587SOL    HW220661   1.724   5.815   3.983
 6588SOL     OW20662   1.492   3.079   0.338
 6588SOL    HW120663   1.453   3.164   0.375
 6588SOL    HW220664   1.504   3.088   0.239
 6589SOL     OW20665   4.727   1.428   5.941
 6589SOL    HW120666   4.686   1.365   6.007
 6589SOL    HW220667   4.676   1.514   5.941
 6590SOL     OW20668   6.999   1.689   4.631
 6590SOL    HW120669   0.021   1.768   4.590
 6590SOL    HW220670   6.907   1.716   4.661
 6591SOL     OW20671   5.713   6.574   2.615
 6591SOL    HW120672   5.617   6.563   2.638
 6591SOL    HW220673   5.767   6.505   2.663
 6592SOL     OW20674   4.663   0.216   4.552
 6592SOL    HW120675   4.661   0.286   4.623
 6592SOL    HW220676   4.709   0.134   4.587
 6593SOL     OW20677   3.446   2.139   3.881
 6593SOL    HW120678   3.369   2.190   3.918
 6593SOL    HW220679   3.514   2.125   3.954
 6594SOL     OW20680   4.999   0.915   6.439
 6594SOL    HW120681   4.984   0.934   6.536
 6594SOL    HW220682   4.915   0.934   6.389
 6595SOL     OW20683   1.550   3.328   0.754
 6595SOL    HW120684   1.597   3.367   0.675
 6595SOL    HW220685   1.488   3.396   0.793
 6596SOL     OW20686   4.593   0.117   5.524
 6596SOL    HW120687   4.670   0.180   5.528
 6596SOL    HW220688   4.596   0.065   5.439
 6597SOL     OW20689   6.632   6.582   4.298
 6597SOL    HW120690   6.673   6.540   4.380
 6597SOL    HW220691   6.687   6.557   4.218
 6598SOL     OW20692   1.556   5.764   5.034
 6598SOL    HW120693   1.553   5.668   5.007
 6598SOL    HW220694   1.567   5.821   4.953
 6599SOL     OW20695   3.851   5.201   6.132
 6599SOL    HW120696   3.837   5.300   6.124
 6599SOL    HW220697   3.777   5.153   6.084
 6600SOL     OW20698   4.536   5.608   4.364
 6600SOL    HW120699   4.523   5.577   4.270
 6600SOL    HW220700   4.631   5.592   4.392
 6601SOL     OW20701   0.478   1.171   0.531
 6601SOL    HW120702   0.485   1.130   0.622
 6601SOL    HW220703   0.386   1.155   0.495
 6602SOL     OW20704   0.459   2.109   1.415
 6602SOL    HW120705   0.519   2.037   1.381
 6602SOL    HW220706   0.443   2.096   1.513
 6603SOL     OW20707   1.750   3.693   3.061
 6603SOL    HW120708   1.742   3.624   3.133
 6603SOL    HW220709   1.660   3.732   3.042
 6604SOL     OW20710   2.861   5.686   2.424
 6604SOL    HW120711   2.851   5.595   2.465
 6604SOL    HW220712   2.831   5.683   2.328
 6605SOL     OW20713   5.300   5.678   0.195
 6605SOL    HW120714   5.289   5.583   0.225
 6605SOL    HW220715   5.216   5.728   0.214
 6606SOL     OW20716   5.053   0.629   2.457
 6606SOL    HW120717   5.141   0.586   2.478
 6606SOL    HW220718   5.059   0.728   2.472
 6607SOL     OW20719   1.734   1.398   2.332
 6607SOL    HW120720   1.693   1.357   2.414
 6607SOL    HW220721   1.745   1.496   2.345
 6608SOL     OW20722   5.349   3.620   3.768
 6608SOL    HW120723   5.388   3.684   3.835
 6608SOL    HW220724   5.397   3.533   3.774
 6609SOL     OW20725   5.689   1.432   6.795
 6609SOL    HW120726   5.596   1.408   6.767
 6609SOL    HW220727   5.744   1.348   6.802
 6610SOL     OW20728   1.852   0.428   0.604
 6610SOL    HW120729   1.900   0.380   0.531
 6610SOL    HW220730   1.779   0.484   0.565
 6611SOL     OW20731   6.219   2.355   3.304
 6611SOL    HW120732   6.196   2.442   3.263
 6611SOL    HW220733   6.229   2.285   3.233
 6612SOL     OW20734   1.453   6.100   7.021
 6612SOL    HW120735   1.421   6.153   6.943
 6612SOL    HW220736   1.511   6.025   6.989
 6613SOL     OW20737   5.287   5.721   3.150
 6613SOL    HW120738   5.238   5.738   3.065
 6613SOL    HW220739   5.307   5.623   3.158
 6614SOL     OW20740   5.618   5.243   6.222
 6614SOL    HW120741   5.712   5.212   6.237
 6614SOL    HW220742   5.580   5.197   6.142
 6615SOL     OW20743   0.489   3.305   5.483
 6615SOL    HW120744   0.575   3.357   5.479
 6615SOL    HW220745   0.469   3.267   5.394
 6616SOL     OW20746   4.861   1.597   5.218
 6616SOL    HW120747   4.876   1.587   5.120
 6616SOL    HW220748   4.773   1.556   5.242
 6617SOL     OW20749   2.729   6.752   4.342
 6617SOL    HW120750   2.816   6.793   4.317
 6617SOL    HW220751   2.709   6.772   4.438
 6618SOL     OW20752   0.825   4.307   1.996
 6618SOL    HW120753   0.775   4.232   2.038
 6618SOL    HW220754   0.830   4.384   2.060
 6619SOL     OW20755   4.406   6.825   3.408
 6619SOL    HW120756   4.429   6.730   3.428
 6619SOL    HW220757   4.482   6.885   3.434
 6620SOL     OW20758   1.299   3.013   6.076
 6620SOL    HW120759   1.380   2.994   6.133
 6620SOL    HW220760   1.232   2.940   6.090
 6621SOL     OW20761   2.980   4.239   0.452
 6621SOL    HW120762   3.076   4.263   0.439
 6621SOL    HW220763   2.942   4.206   0.366
 6622SOL     OW20764   6.461   6.464   0.608
 6622SOL    HW120765   6.453   6.561   0.587
 6622SOL    HW220766   6.370   6.425   0.621
 6623SOL     OW20767   3.873   3.035   2.959
 6623SOL    HW120768   3.923   3.116   2.989
 6623SOL    HW220769   3.886   3.022   2.861
 6624SOL     OW20770   3.833   5.511   4.937
 6624SOL    HW120771   3.862   5.597   4.979
 6624SOL    HW220772   3.748   5.525   4.887
 6625SOL     OW20773   6.340   0.981   6.439
 6625SOL    HW120774   6.302   1.039   6.366
 6625SOL    HW220775   6.410   1.033   6.489
 6626SOL     OW20776   3.330   5.627   3.240
 6626SOL    HW120777   3.400   5.676   3.292
 6626SOL    HW220778   3.245   5.625   3.292
 6627SOL     OW20779   1.765   0.904   6.011
 6627SOL    HW120780   1.864   0.909   6.027
 6627SOL    HW220781   1.724   0.992   6.035
 6628SOL     OW20782   4.444   4.812   2.603
 6628SOL    HW120783   4.503   4.752   2.550
 6628SOL    HW220784   4.489   4.900   2.617
 6629SOL     OW20785   3.123   5.831   1.258
 6629SOL    HW120786   3.214   5.793   1.275
 6629SOL    HW220787   3.078   5.850   1.346
 6630SOL     OW20788   3.065   1.906   0.101
 6630SOL    HW120789   3.018   1.844   0.038
 6630SOL    HW220790   3.013   1.991   0.110
 6631SOL     OW20791   5.456   0.592   2.352
 6631SOL    HW120792   5.431   0.560   2.261
 6631SOL    HW220793   5.551   0.569   2.371
 6632SOL     OW20794   6.926   1.331   0.377
 6632SOL    HW120795   6.988   1.393   0.329
 6632SOL    HW220796   6.866   1.383   0.437
 6633SOL     OW20797   1.580   6.229   0.303
 6633SOL    HW120798   1.619   6.203   0.215
 6633SOL    HW220799   1.634   6.304   0.343
 6634SOL     OW20800   6.653   3.040   5.815
 6634SOL    HW120801   6.685   2.970   5.878
 6634SOL    HW220802   6.553   3.038   5.812
 6635SOL     OW20803   4.772   5.722   3.336
 6635SOL    HW120804   4.743   5.724   3.432
 6635SOL    HW220805   4.870   5.705   3.331
 6636SOL     OW20806   1.577   2.941   4.808
 6636SOL    HW120807   1.543   3.033   4.794
 6636SOL    HW220808   1.500   2.879   4.825
 6637SOL     OW20809   0.797   0.508   0.676
 6637SOL    HW120810   0.834   0.491   0.767
 6637SOL    HW220811   0.843   0.588   0.636
 6638SOL     OW20812   1.682   5.598   5.697
 6638SOL    HW120813   1.677   5.519   5.758
 6638SOL    HW220814   1.700   5.567   5.604
 6639SOL     OW20815   5.901   4.396   6.465
 6639SOL    HW120816   5.982   4.393   6.407
 6639SOL    HW220817   5.895   4.312   6.518
 6640SOL     OW20818   0.168   2.069   3.512
 6640SOL    HW120819   0.157   2.047   3.609
 6640SOL    HW220820   0.259   2.109   3.497
 6641SOL     OW20821   3.120   4.068   6.374
 6641SOL    HW120822   3.026   4.054   6.340
 6641SOL    HW220823   3.118   4.079   6.473
 6642SOL     OW20824   1.673   4.828   6.398
 6642SOL    HW120825   1.601   4.762   6.376
 6642SOL    HW220826   1.752   4.780   6.436
 6643SOL     OW20827   6.072   3.903   6.245
 6643SOL    HW120828   6.132   3.824   6.259
 6643SOL    HW220829   6.011   3.885   6.168
 6644SOL     OW20830   2.741   4.857   1.951
 6644SOL    HW120831   2.795   4.890   1.874
 6644SOL    HW220832   2.762   4.761   1.968
 6645SOL     OW20833   6.558   4.576   6.391
 6645SOL    HW120834   6.643   4.625   6.411
 6645SOL    HW220835   6.574   4.510   6.318
 6646SOL     OW20836   3.306   5.576   4.675
 6646SOL    HW120837   3.273   5.652   4.731
 6646SOL    HW220838   3.232   5.543   4.617
 6647SOL     OW20839   3.623   0.526   1.947
 6647SOL    HW120840   3.718   0.517   1.977
 6647SOL    HW220841   3.617   0.508   1.849
 6648SOL     OW20842   4.421   5.879   2.562
 6648SOL    HW120843   4.403   5.807   2.495
 6648SOL    HW220844   4.514   5.915   2.547
 6649SOL     OW20845   4.867   2.003   6.492
 6649SOL    HW120846   4.839   2.099   6.485
 6649SOL    HW220847   4.963   1.993   6.466
 6650SOL     OW20848   3.912   1.134   3.808
 6650SOL    HW120849   3.974   1.207   3.836
 6650SOL    HW220850   3.877   1.087   3.890
 6651SOL     OW20851   0.964   2.190   0.018
 6651SOL    HW120852   0.945   2.109   6.987
 6651SOL    HW220853   1.038   2.242   6.999
 6652SOL     OW20854   6.774   5.336   1.603
 6652SOL    HW120855   6.691   5.281   1.593
 6652SOL    HW220856   6.850   5.276   1.630
 6653SOL     OW20857   3.053   3.977   2.835
 6653SOL    HW120858   3.138   3.993   2.786
 6653SOL    HW220859   2.996   4.059   2.831
 6654SOL     OW20860   2.117   3.297   1.594
 6654SOL    HW120861   2.090   3.223   1.532
 6654SOL    HW220862   2.216   3.296   1.605
 6655SOL     OW20863   3.119   6.798   2.096
 6655SOL    HW120864   3.198   6.792   2.036
 6655SOL    HW220865   3.115   6.889   2.137
 6656SOL     OW20866   6.812   1.262   1.257
 6656SOL    HW120867   6.781   1.351   1.222
 6656SOL    HW220868   6.840   1.204   1.181
 6657SOL     OW20869   3.954   6.920   6.059
 6657SOL    HW120870   4.019   6.845   6.054
 6657SOL    HW220871   3.953   6.956   6.153
 6658SOL     OW20872   5.843   1.253   5.248
 6658SOL    HW120873   5.849   1.307   5.164
 6658SOL    HW220874   5.797   1.167   5.229
 6659SOL     OW20875   3.025   3.523   0.118
 6659SOL    HW120876   3.102   3.499   0.059
 6659SOL    HW220877   2.990   3.440   0.162
 6660SOL     OW20878   6.763   6.789   2.182
 6660SOL    HW120879   6.704   6.713   2.210
 6660SOL    HW220880   6.793   6.839   2.263
 6661SOL     OW20881   6.316   5.424   3.549
 6661SOL    HW120882   6.407   5.442   3.584
 6661SOL    HW220883   6.248   5.456   3.615
 6662SOL     OW20884   2.135   0.783   0.649
 6662SOL    HW120885   2.200   0.851   0.684
 6662SOL    HW220886   2.162   0.755   0.557
 6663SOL     OW20887   0.129   5.574   1.940
 6663SOL    HW120888   0.167   5.588   1.848
 6663SOL    HW220889   0.204   5.568   2.006
 6664SOL     OW20890   1.098   0.446   2.333
 6664SOL    HW120891   1.065   0.383   2.263
 6664SOL    HW220892   1.162   0.511   2.292
 6665SOL     OW20893   1.733   6.113   2.964
 6665SOL    HW120894   1.768   6.023   2.937
 6665SOL    HW220895   1.781   6.184   2.913
 6666SOL     OW20896   6.530   1.797   5.243
 6666SOL    HW120897   6.521   1.844   5.331
 6666SOL    HW220898   6.439   1.768   5.211
 6667SOL     OW20899   6.233   5.676   4.641
 6667SOL    HW120900   6.329   5.697   4.662
 6667SOL    HW220901   6.200   5.606   4.704
 6668SOL     OW20902   0.552   4.892   2.234
 6668SOL    HW120903   0.527   4.989   2.237
 6668SOL    HW220904   0.631   4.880   2.174
 6669SOL     OW20905   2.545   5.129   3.856
 6669SOL    HW120906   2.618   5.159   3.917
 6669SOL    HW220907   2.469   5.094   3.909
 6670SOL     OW20908   3.487   4.803   6.918
 6670SOL    HW120909   3.447   4.832   7.005
 6670SOL    HW220910   3.563   4.863   6.894
 6671SOL     OW20911   6.641   4.398   6.167
 6671SOL    HW120912   6.667   4.438   6.079
 6671SOL    HW220913   6.565   4.335   6.154
 6672SOL     OW20914   1.287   0.884   5.551
 6672SOL    HW120915   1.266   0.893   5.453
 6672SOL    HW220916   1.256   0.794   5.583
 6673SOL     OW20917   4.901   5.104   2.425
 6673SOL    HW120918   4.945   5.058   2.502
 6673SOL    HW220919   4.922   5.055   2.341
 6674SOL     OW20920   0.939   6.098   5.321
 6674SOL    HW120921   1.015   6.034   5.305
 6674SOL    HW220922   0.878   6.097   5.242
 6675SOL     OW20923   5.556   4.314   0.244
 6675SOL    HW120924   5.555   4.247   0.318
 6675SOL    HW220925   5.462   4.338   0.220
 6676SOL     OW20926   1.101   3.315   5.425
 6676SOL    HW120927   1.158   3.270   5.494
 6676SOL    HW220928   1.140   3.404   5.403
 6677SOL     OW20929   0.617   3.549   0.664
 6677SOL    HW120930   0.554   3.582   0.593
 6677SOL    HW220931   0.673   3.625   0.696
 6678SOL     OW20932   1.113   2.440   6.191
 6678SOL    HW120933   1.078   2.447   6.098
 6678SOL    HW220934   1.198   2.491   6.199
 6679SOL     OW20935   1.322   2.773   5.574
 6679SOL    HW120936   1.356   2.681   5.597
 6679SOL    HW220937   1.320   2.784   5.475
 6680SOL     OW20938   4.220   6.497   6.160
 6680SOL    HW120939   4.146   6.459   6.215
 6680SOL    HW220940   4.292   6.429   6.149
 6681SOL     OW20941   5.105   5.033   0.178
 6681SOL    HW120942   5.100   5.112   0.115
 6681SOL    HW220943   5.137   5.064   0.267
 6682SOL     OW20944   0.262   5.553   2.648
 6682SOL    HW120945   0.181   5.604   2.620
 6682SOL    HW220946   0.344   5.594   2.607
 6683SOL     OW20947   4.744   1.900   5.109
 6683SOL    HW120948   4.838   1.870   5.090
 6683SOL    HW220949   4.715   1.863   5.198
 6684SOL     OW20950   1.519   6.596   2.566
 6684SOL    HW120951   1.615   6.594   2.594
 6684SOL    HW220952   1.462   6.627   2.643
 6685SOL     OW20953   5.417   2.860   6.443
 6685SOL    HW120954   5.461   2.775   6.412
 6685SOL    HW220955   5.437   2.874   6.540
 6686SOL     OW20956   6.216   3.837   4.117
 6686SOL    HW120957   6.257   3.827   4.208
 6686SOL    HW220958   6.231   3.931   4.085
 6687SOL     OW20959   0.891   1.777   0.695
 6687SOL    HW120960   0.942   1.775   0.781
 6687SOL    HW220961   0.934   1.841   0.631
 6688SOL     OW20962   0.503   4.660   2.612
 6688SOL    HW120963   0.461   4.607   2.686
 6688SOL    HW220964   0.532   4.749   2.648
 6689SOL     OW20965   5.106   4.025   0.786
 6689SOL    HW120966   5.161   4.049   0.866
 6689SOL    HW220967   5.139   4.077   0.707
 6690SOL     OW20968   1.909   3.028   1.476
 6690SOL    HW120969   1.850   3.107   1.493
 6690SOL    HW220970   1.982   3.054   1.413
 6691SOL     OW20971   2.525   6.311   1.443
 6691SOL    HW120972   2.603   6.285   1.500
 6691SOL    HW220973   2.525   6.410   1.430
 6692SOL     OW20974   3.146   4.340   5.281
 6692SOL    HW120975   3.121   4.262   5.337
 6692SOL    HW220976   3.068   4.367   5.224
 6693SOL     OW20977   4.430   3.835   5.322
 6693SOL    HW120978   4.355   3.871   5.377
 6693SOL    HW220979   4.395   3.763   5.262
 6694SOL     OW20980   4.979   6.553   0.616
 6694SOL    HW120981   4.951   6.457   0.615
 6694SOL    HW220982   4.922   6.605   0.552
 6695SOL     OW20983   0.847   1.424   6.749
 6695SOL    HW120984   0.838   1.504   6.690
 6695SOL    HW220985   0.910   1.359   6.707
 6696SOL     OW20986   2.028   3.394   1.851
 6696SOL    HW120987   2.093   3.444   1.908
 6696SOL    HW220988   2.074   3.367   1.766
 6697SOL     OW20989   4.263   1.232   2.683
 6697SOL    HW120990   4.334   1.294   2.650
 6697SOL    HW220991   4.221   1.269   2.766
 6698SOL     OW20992   3.942   2.814   6.839
 6698SOL    HW120993   4.039   2.797   6.825
 6698SOL    HW220994   3.897   2.729   6.866
 6699SOL     OW20995   3.616   4.541   6.828
 6699SOL    HW120996   3.603   4.640   6.832
 6699SOL    HW220997   3.683   4.519   6.757
 6700SOL     OW20998   0.305   5.279   1.010
 6700SOL    HW120999   0.324   5.216   1.085
 6700SOL    HW221000   0.344   5.244   0.926
 6701SOL     OW21001   0.310   1.715   0.351
 6701SOL    HW121002   0.310   1.624   0.393
 6701SOL    HW221003   0.216   1.752   0.352
 6702SOL     OW21004   2.234   1.380   0.924
 6702SOL    HW121005   2.154   1.439   0.937
 6702SOL    HW221006   2.317   1.430   0.947
 6703SOL     OW21007   0.123   1.440   6.329
 6703SOL    HW121008   0.122   1.436   6.229
 6703SOL    HW221009   0.029   1.430   6.363
 6704SOL     OW21010   4.446   2.515   2.924
 6704SOL    HW121011   4.410   2.450   2.991
 6704SOL    HW221012   4.449   2.472   2.834
 6705SOL     OW21013   6.478   2.334   1.466
 6705SOL    HW121014   6.384   2.316   1.438
 6705SOL    HW221015   6.540   2.310   1.391
 6706SOL     OW21016   0.665   3.814   6.795
 6706SOL    HW121017   0.721   3.841   6.873
 6706SOL    HW221018   0.700   3.728   6.757
 6707SOL     OW21019   6.953   5.537   3.860
 6707SOL    HW121020   6.889   5.477   3.909
 6707SOL    HW221021   0.019   5.493   3.856
 6708SOL     OW21022   2.256   5.489   1.938
 6708SOL    HW121023   2.331   5.535   1.891
 6708SOL    HW221024   2.273   5.489   2.036
 6709SOL     OW21025   3.870   0.227   1.635
 6709SOL    HW121026   3.860   0.325   1.619
 6709SOL    HW221027   3.953   0.210   1.689
 6710SOL     OW21028   3.187   2.838   6.390
 6710SOL    HW121029   3.136   2.923   6.374
 6710SOL    HW221030   3.123   2.761   6.392
 6711SOL     OW21031   5.052   3.921   6.694
 6711SOL    HW121032   5.019   3.903   6.601
 6711SOL    HW221033   5.072   3.834   6.740
 6712SOL     OW21034   3.740   5.558   0.433
 6712SOL    HW121035   3.749   5.496   0.511
 6712SOL    HW221036   3.756   5.507   0.348
 6713SOL     OW21037   2.024   2.483   1.649
 6713SOL    HW121038   2.080   2.481   1.732
 6713SOL    HW221039   2.068   2.540   1.580
 6714SOL     OW21040   5.394   0.631   4.355
 6714SOL    HW121041   5.402   0.532   4.349
 6714SOL    HW221042   5.413   0.661   4.448
 6715SOL     OW21043   0.398   2.134   0.686
 6715SOL    HW121044   0.401   2.080   0.770
 6715SOL    HW221045   0.428   2.078   0.609
 6716SOL     OW21046   2.126   5.744   1.449
 6716SOL    HW121047   2.166   5.814   1.390
 6716SOL    HW221048   2.162   5.654   1.423
 6717SOL     OW21049   4.356   2.531   0.405
 6717SOL    HW121050   4.373   2.462   0.335
 6717SOL    HW221051   4.286   2.595   0.373
 6718SOL     OW21052   3.401   0.098   0.174
 6718SOL    HW121053   3.365   0.096   0.267
 6718SOL    HW221054   3.325   0.103   0.109
 6719SOL     OW21055   0.277   6.025   5.306
 6719SOL    HW121056   0.233   6.037   5.217
 6719SOL    HW221057   0.343   5.951   5.301
 6720SOL     OW21058   2.667   5.301   1.516
 6720SOL    HW121059   2.642   5.228   1.579
 6720SOL    HW221060   2.669   5.266   1.423
 6721SOL     OW21061   5.230   6.883   3.881
 6721SOL    HW121062   5.287   6.803   3.866
 6721SOL    HW221063   5.196   6.883   3.975
 6722SOL     OW21064   4.409   3.291   6.724
 6722SOL    HW121065   4.311   3.312   6.735
 6722SOL    HW221066   4.433   3.215   6.784
 6723SOL     OW21067   2.973   6.642   3.772
 6723SOL    HW121068   2.946   6.681   3.860
 6723SOL    HW221069   2.892   6.631   3.714
 6724SOL     OW21070   3.099   4.828   5.065
 6724SOL    HW121071   3.038   4.803   4.989
 6724SOL    HW221072   3.068   4.783   5.149
 6725SOL     OW21073   0.786   5.258   2.586
 6725SOL    HW121074   0.799   5.338   2.645
 6725SOL    HW221075   0.699   5.215   2.606
 6726SOL     OW21076   2.416   2.716   4.461
 6726SOL    HW121077   2.474   2.640   4.491
 6726SOL    HW221078   2.380   2.763   4.542
 6727SOL     OW21079   4.359   3.430   6.038
 6727SOL    HW121080   4.283   3.368   6.056
 6727SOL    HW221081   4.444   3.391   6.074
 6728SOL     OW21082   4.161   1.585   3.780
 6728SOL    HW121083   4.234   1.524   3.812
 6728SOL    HW221084   4.184   1.619   3.689
 6729SOL     OW21085   6.426   0.595   2.723
 6729SOL    HW121086   6.388   0.504   2.739
 6729SOL    HW221087   6.519   0.587   2.689
 6730SOL     OW21088   2.401   0.916   0.126
 6730SOL    HW121089   2.480   0.926   0.066
 6730SOL    HW221090   2.427   0.865   0.208
 6731SOL     OW21091   2.482   4.727   1.621
 6731SOL    HW121092   2.415   4.728   1.547
 6731SOL    HW221093   2.563   4.677   1.592
 6732SOL     OW21094   2.754   6.276   0.647
 6732SOL    HW121095   2.772   6.372   0.627
 6732SOL    HW221096   2.655   6.261   0.653
 6733SOL     OW21097   5.331   6.034   4.886
 6733SOL    HW121098   5.387   5.998   4.960
 6733SOL    HW221099   5.360   5.994   4.799
 6734SOL     OW21100   2.098   3.082   5.592
 6734SOL    HW121101   2.156   3.122   5.521
 6734SOL    HW221102   2.047   3.155   5.638
 6735SOL     OW21103   6.891   5.140   5.675
 6735SOL    HW121104   6.985   5.163   5.701
 6735SOL    HW221105   6.891   5.060   5.615
 6736SOL     OW21106   2.136   2.994   1.762
 6736SOL    HW121107   2.054   3.048   1.778
 6736SOL    HW221108   2.144   2.973   1.664
 6737SOL     OW21109   2.308   1.772   2.127
 6737SOL    HW121110   2.265   1.857   2.096
 6737SOL    HW221111   2.386   1.751   2.069
 6738SOL     OW21112   2.399   1.131   2.579
 6738SOL    HW121113   2.498   1.147   2.580
 6738SOL    HW221114   2.376   1.072   2.501
 6739SOL     OW21115   3.672   6.384   5.255
 6739SOL    HW121116   3.731   6.384   5.335
 6739SOL    HW221117   3.712   6.440   5.183
 6740SOL     OW21118   1.720   1.726   3.567
 6740SOL    HW121119   1.662   1.658   3.522
 6740SOL    HW221120   1.769   1.779   3.499
 6741SOL     OW21121   6.948   0.374   6.085
 6741SOL    HW121122   6.851   0.395   6.103
 6741SOL    HW221123   7.000   0.387   6.169
 6742SOL     OW21124   6.184   6.037   5.184
 6742SOL    HW121125   6.145   6.016   5.274
 6742SOL    HW221126   6.202   5.951   5.135
 6743SOL     OW21127   3.859   3.515   1.514
 6743SOL    HW121128   3.952   3.479   1.522
 6743SOL    HW221129   3.803   3.478   1.588
 6744SOL     OW21130   4.965   4.979   5.861
 6744SOL    HW121131   5.012   5.045   5.920
 6744SOL    HW221132   4.946   5.022   5.772
 6745SOL     OW21133   1.806   4.881   3.863
 6745SOL    HW121134   1.897   4.847   3.841
 6745SOL    HW221135   1.750   4.806   3.897
 6746SOL     OW21136   0.197   2.450   1.201
 6746SOL    HW121137   0.293   2.424   1.205
 6746SOL    HW221138   0.141   2.370   1.182
 6747SOL     OW21139   5.287   6.521   5.040
 6747SOL    HW121140   5.348   6.442   5.037
 6747SOL    HW221141   5.340   6.605   5.023
 6748SOL     OW21142   1.350   0.307   2.395
 6748SOL    HW121143   1.413   0.309   2.317
 6748SOL    HW221144   1.284   0.382   2.386
 6749SOL     OW21145   4.450   0.511   0.125
 6749SOL    HW121146   4.521   0.561   0.174
 6749SOL    HW221147   4.445   0.544   0.031
 6750SOL     OW21148   2.334   2.389   5.032
 6750SOL    HW121149   2.257   2.385   5.096
 6750SOL    HW221150   2.400   2.457   5.064
 6751SOL     OW21151   2.727   2.101   5.099
 6751SOL    HW121152   2.648   2.161   5.105
 6751SOL    HW221153   2.801   2.137   5.156
 6752SOL     OW21154   5.762   2.868   0.862
 6752SOL    HW121155   5.716   2.802   0.804
 6752SOL    HW221156   5.842   2.825   0.904
 6753SOL     OW21157   4.524   2.541   6.564
 6753SOL    HW121158   4.588   2.613   6.538
 6753SOL    HW221159   4.431   2.569   6.542
 6754SOL     OW21160   6.243   1.084   6.184
 6754SOL    HW121161   6.208   1.028   6.109
 6754SOL    HW221162   6.198   1.173   6.182
 6755SOL     OW21163   4.762   1.849   4.222
 6755SOL    HW121164   4.668   1.819   4.239
 6755SOL    HW221165   4.767   1.949   4.230
 6756SOL     OW21166   5.021   5.313   4.263
 6756SOL    HW121167   5.054   5.244   4.328
 6756SOL    HW221168   5.057   5.293   4.172
 6757SOL     OW21169   6.076   5.808   1.781
 6757SOL    HW121170   6.053   5.729   1.838
 6757SOL    HW221171   6.047   5.892   1.826
 6758SOL     OW21172   5.113   2.480   2.075
 6758SOL    HW121173   5.182   2.414   2.044
 6758SOL    HW221174   5.077   2.530   1.997
 6759SOL     OW21175   0.565   5.428   3.315
 6759SOL    HW121176   0.512   5.372   3.251
 6759SOL    HW221177   0.626   5.488   3.265
 6760SOL     OW21178   6.611   3.932   3.971
 6760SOL    HW121179   6.705   3.959   3.954
 6760SOL    HW221180   6.554   4.014   3.982
 6761SOL     OW21181   4.719   2.534   5.611
 6761SOL    HW121182   4.637   2.582   5.579
 6761SOL    HW221183   4.753   2.577   5.695
 6762SOL     OW21184   6.494   4.488   4.005
 6762SOL    HW121185   6.407   4.495   4.054
 6762SOL    HW221186   6.518   4.392   3.993
 6763SOL     OW21187   6.367   6.807   5.918
 6763SOL    HW121188   6.270   6.813   5.896
 6763SOL    HW221189   6.408   6.728   5.873
 6764SOL     OW21190   2.736   4.230   6.702
 6764SOL    HW121191   2.686   4.231   6.789
 6764SOL    HW221192   2.817   4.288   6.709
 6765SOL     OW21193   5.678   4.133   2.085
 6765SOL    HW121194   5.711   4.140   1.991
 6765SOL    HW221195   5.730   4.196   2.144
 6766SOL     OW21196   1.699   0.647   5.972
 6766SOL    HW121197   1.714   0.614   5.878
 6766SOL    HW221198   1.726   0.743   5.977
 6767SOL     OW21199   6.606   3.154   6.777
 6767SOL    HW121200   6.567   3.223   6.716
 6767SOL    HW221201   6.532   3.099   6.816
 6768SOL     OW21202   6.605   0.389   3.894
 6768SOL    HW121203   6.619   0.487   3.911
 6768SOL    HW221204   6.694   0.344   3.885
 6769SOL     OW21205   1.908   2.895   5.687
 6769SOL    HW121206   1.982   2.958   5.664
 6769SOL    HW221207   1.902   2.823   5.618
 6770SOL     OW21208   0.410   1.259   3.499
 6770SOL    HW121209   0.325   1.278   3.449
 6770SOL    HW221210   0.459   1.184   3.453
 6771SOL     OW21211   3.789   1.824   3.165
 6771SOL    HW121212   3.848   1.902   3.146
 6771SOL    HW221213   3.840   1.757   3.219
 6772SOL     OW21214   6.874   1.271   1.742
 6772SOL    HW121215   6.899   1.230   1.654
 6772SOL    HW221216   6.782   1.310   1.735
 6773SOL     OW21217   1.389   6.545   1.265
 6773SOL    HW121218   1.381   6.621   1.200
 6773SOL    HW221219   1.320   6.477   1.244
 6774SOL     OW21220   2.190   2.273   4.827
 6774SOL    HW121221   2.188   2.173   4.835
 6774SOL    HW221222   2.253   2.310   4.896
 6775SOL     OW21223   0.938   1.951   4.335
 6775SOL    HW121224   0.895   2.037   4.305
 6775SOL    HW221225   1.026   1.972   4.379
 6776SOL     OW21226   3.432   4.067   2.647
 6776SOL    HW121227   3.457   4.070   2.550
 6776SOL    HW221228   3.333   4.061   2.655
 6777SOL     OW21229   6.475   5.661   0.114
 6777SOL    HW121230   6.396   5.600   0.123
 6777SOL    HW221231   6.545   5.616   0.060
 6778SOL     OW21232   6.189   4.549   2.687
 6778SOL    HW121233   6.278   4.508   2.702
 6778SOL    HW221234   6.198   4.649   2.685
 6779SOL     OW21235   5.204   3.558   5.890
 6779SOL    HW121236   5.288   3.575   5.941
 6779SOL    HW221237   5.126   3.558   5.953
 6780SOL     OW21238   3.121   2.169   3.157
 6780SOL    HW121239   3.220   2.158   3.160
 6780SOL    HW221240   3.093   2.199   3.066
 6781SOL     OW21241   0.028   1.585   3.418
 6781SOL    HW121242   7.011   1.655   3.358
 6781SOL    HW221243   0.101   1.626   3.473
 6782SOL     OW21244   6.744   1.386   2.402
 6782SOL    HW121245   6.651   1.401   2.368
 6782SOL    HW221246   6.764   1.288   2.400
 6783SOL     OW21247   1.609   4.526   5.487
 6783SOL    HW121248   1.582   4.548   5.393
 6783SOL    HW221249   1.669   4.597   5.522
 6784SOL     OW21250   2.205   3.728   1.794
 6784SOL    HW121251   2.175   3.655   1.856
 6784SOL    HW221252   2.127   3.758   1.738
 6785SOL     OW21253   5.674   6.407   4.866
 6785SOL    HW121254   5.713   6.317   4.847
 6785SOL    HW221255   5.719   6.476   4.809
 6786SOL     OW21256   5.762   1.813   6.258
 6786SOL    HW121257   5.737   1.838   6.164
 6786SOL    HW221258   5.686   1.834   6.319
 6787SOL     OW21259   3.861   1.584   6.930
 6787SOL    HW121260   3.874   1.646   6.852
 6787SOL    HW221261   3.812   1.502   6.899
 6788SOL     OW21262   6.937   4.439   2.780
 6788SOL    HW121263   6.880   4.360   2.802
 6788SOL    HW221264   7.018   4.439   2.839
 6789SOL     OW21265   5.549   4.327   3.571
 6789SOL    HW121266   5.531   4.410   3.623
 6789SOL    HW221267   5.559   4.249   3.633
 6790SOL     OW21268   0.451   4.845   5.962
 6790SOL    HW121269   0.490   4.924   6.010
 6790SOL    HW221270   0.467   4.762   6.015
 6791SOL     OW21271   3.203   0.915   3.002
 6791SOL    HW121272   3.281   0.959   3.048
 6791SOL    HW221273   3.213   0.924   2.903
 6792SOL     OW21274   3.783   0.058   5.459
 6792SOL    HW121275   3.774   7.022   5.538
 6792SOL    HW221276   3.762   0.006   5.376
 6793SOL     OW21277   2.039   3.286   6.336
 6793SOL    HW121278   2.079   3.360   6.282
 6793SOL    HW221279   1.968   3.322   6.396
 6794SOL     OW21280   5.009   1.964   5.572
 6794SOL    HW121281   4.962   2.051   5.555
 6794SOL    HW221282   4.941   1.892   5.586
 6795SOL     OW21283   0.818   0.400   1.253
 6795SOL    HW121284   0.859   0.491   1.251
 6795SOL    HW221285   0.833   0.359   1.343
 6796SOL     OW21286   6.242   1.366   2.655
 6796SOL    HW121287   6.284   1.315   2.580
 6796SOL    HW221288   6.301   1.362   2.735
 6797SOL     OW21289   0.883   2.469   1.412
 6797SOL    HW121290   0.864   2.492   1.508
 6797SOL    HW221291   0.856   2.374   1.395
 6798SOL     OW21292   5.605   6.859   1.512
 6798SOL    HW121293   5.611   6.850   1.413
 6798SOL    HW221294   5.552   6.941   1.535
 6799SOL     OW21295   6.476   0.985   3.291
 6799SOL    HW121296   6.450   0.888   3.301
 6799SOL    HW221297   6.479   1.028   3.382
 6800SOL     OW21298   6.786   2.110   1.570
 6800SOL    HW121299   6.803   2.093   1.667
 6800SOL    HW221300   6.779   2.209   1.555
 6801SOL     OW21301   1.109   6.144   6.427
 6801SOL    HW121302   1.041   6.214   6.450
 6801SOL    HW221303   1.193   6.188   6.395
 6802SOL     OW21304   3.306   4.928   2.271
 6802SOL    HW121305   3.294   4.846   2.215
 6802SOL    HW221306   3.271   5.008   2.222
 6803SOL     OW21307   5.526   5.103   6.030
 6803SOL    HW121308   5.431   5.072   6.023
 6803SOL    HW221309   5.559   5.133   5.941
 6804SOL     OW21310   3.785   4.978   3.152
 6804SOL    HW121311   3.783   5.064   3.102
 6804SOL    HW221312   3.693   4.939   3.156
 6805SOL     OW21313   0.009   4.651   4.635
 6805SOL    HW121314   0.001   4.699   4.722
 6805SOL    HW221315   6.947   4.661   4.583
 6806SOL     OW21316   6.709   2.116   2.187
 6806SOL    HW121317   6.715   2.016   2.189
 6806SOL    HW221318   6.801   2.155   2.183
 6807SOL     OW21319   3.184   3.922   2.068
 6807SOL    HW121320   3.178   3.964   2.158
 6807SOL    HW221321   3.280   3.903   2.046
 6808SOL     OW21322   3.326   1.323   4.242
 6808SOL    HW121323   3.249   1.380   4.212
 6808SOL    HW221324   3.343   1.253   4.173
 6809SOL     OW21325   5.557   3.223   0.390
 6809SOL    HW121326   5.529   3.200   0.484
 6809SOL    HW221327   5.639   3.171   0.366
 6810SOL     OW21328   2.761   0.483   4.666
 6810SOL    HW121329   2.719   0.434   4.590
 6810SOL    HW221330   2.756   0.582   4.649
 6811SOL     OW21331   6.499   1.332   0.556
 6811SOL    HW121332   6.521   1.238   0.581
 6811SOL    HW221333   6.432   1.369   0.620
 6812SOL     OW21334   4.078   4.138   5.175
 6812SOL    HW121335   4.079   4.093   5.086
 6812SOL    HW221336   4.129   4.084   5.241
 6813SOL     OW21337   6.618   3.610   1.896
 6813SOL    HW121338   6.705   3.617   1.944
 6813SOL    HW221339   6.571   3.698   1.897
 6814SOL     OW21340   5.458   0.990   6.632
 6814SOL    HW121341   5.393   1.020   6.702
 6814SOL    HW221342   5.518   1.066   6.608
 6815SOL     OW21343   1.113   4.733   6.084
 6815SOL    HW121344   1.121   4.667   6.008
 6815SOL    HW221345   1.201   4.778   6.097
 6816SOL     OW21346   6.854   0.800   3.360
 6816SOL    HW121347   6.939   0.751   3.376
 6816SOL    HW221348   6.845   0.822   3.263
 6817SOL     OW21349   4.341   2.070   1.536
 6817SOL    HW121350   4.301   1.998   1.593
 6817SOL    HW221351   4.437   2.083   1.561
 6818SOL     OW21352   1.552   0.060   5.403
 6818SOL    HW121353   1.527   0.116   5.482
 6818SOL    HW221354   1.637   0.095   5.363
 6819SOL     OW21355   4.664   4.435   1.795
 6819SOL    HW121356   4.614   4.414   1.711
 6819SOL    HW221357   4.624   4.385   1.872
 6820SOL     OW21358   2.879   5.130   2.080
 6820SOL    HW121359   2.904   5.033   2.089
 6820SOL    HW221360   2.932   5.184   2.145
 6821SOL     OW21361   3.984   2.726   5.293
 6821SOL    HW121362   4.019   2.645   5.244
 6821SOL    HW221363   3.954   2.699   5.384
 6822SOL     OW21364   6.128   2.593   6.263
 6822SOL    HW121365   6.187   2.673   6.266
 6822SOL    HW221366   6.138   2.547   6.174
 6823SOL     OW21367   6.119   2.504   4.909
 6823SOL    HW121368   6.119   2.477   4.813
 6823SOL    HW221369   6.196   2.566   4.926
 6824SOL     OW21370   1.051   0.196   6.032
 6824SOL    HW121371   1.019   0.251   5.954
 6824SOL    HW221372   1.128   0.139   6.004
 6825SOL     OW21373   5.174   4.817   0.787
 6825SOL    HW121374   5.241   4.811   0.713
 6825SOL    HW221375   5.217   4.790   0.873
 6826SOL     OW21376   6.462   5.518   4.374
 6826SOL    HW121377   6.465   5.496   4.276
 6826SOL    HW221378   6.368   5.508   4.407
 6827SOL     OW21379   4.621   5.987   4.350
 6827SOL    HW121380   4.537   6.041   4.360
 6827SOL    HW221381   4.643   5.944   4.437
 6828SOL     OW21382   2.683   2.379   2.510
 6828SOL    HW121383   2.769   2.339   2.479
 6828SOL    HW221384   2.683   2.384   2.610
 6829SOL     OW21385   3.866   6.901   3.661
 6829SOL    HW121386   3.927   6.846   3.718
 6829SOL    HW221387   3.919   6.943   3.587
 6830SOL     OW21388   4.912   6.347   3.046
 6830SOL    HW121389   4.860   6.277   2.998
 6830SOL    HW221390   4.849   6.412   3.089
 6831SOL     OW21391   1.622   2.246   5.944
 6831SOL    HW121392   1.528   2.260   5.975
 6831SOL    HW221393   1.669   2.335   5.943
 6832SOL     OW21394   3.252   2.862   6.864
 6832SOL    HW121395   3.234   2.829   6.771
 6832SOL    HW221396   3.296   2.790   6.917
 6833SOL     OW21397   3.467   5.321   5.766
 6833SOL    HW121398   3.438   5.229   5.793
 6833SOL    HW221399   3.409   5.355   5.692
 6834SOL     OW21400   5.911   6.505   0.574
 6834SOL    HW121401   5.961   6.570   0.517
 6834SOL    HW221402   5.825   6.546   0.603
 6835SOL     OW21403   2.987   1.650   5.332
 6835SOL    HW121404   2.893   1.642   5.301
 6835SOL    HW221405   3.000   1.740   5.375
 6836SOL     OW21406   2.529   4.394   6.466
 6836SOL    HW121407   2.557   4.442   6.383
 6836SOL    HW221408   2.558   4.446   6.546
 6837SOL     OW21409   0.824   0.994   2.075
 6837SOL    HW121410   0.828   0.972   2.173
 6837SOL    HW221411   0.741   1.046   2.056
 6838SOL     OW21412   3.091   3.894   5.085
 6838SOL    HW121413   3.024   3.826   5.114
 6838SOL    HW221414   3.053   3.950   5.011
 6839SOL     OW21415   6.202   3.298   4.692
 6839SOL    HW121416   6.240   3.374   4.639
 6839SOL    HW221417   6.111   3.274   4.656
 6840SOL     OW21418   2.409   6.827   4.591
 6840SOL    HW121419   2.349   6.871   4.658
 6840SOL    HW221420   2.368   6.741   4.562
 6841SOL     OW21421   4.691   6.288   0.749
 6841SOL    HW121422   4.669   6.260   0.655
 6841SOL    HW221423   4.776   6.244   0.777
 6842SOL     OW21424   0.567   3.659   5.254
 6842SOL    HW121425   0.504   3.668   5.330
 6842SOL    HW221426   0.601   3.750   5.228
 6843SOL     OW21427   3.924   2.163   1.932
 6843SOL    HW121428   3.920   2.086   1.868
 6843SOL    HW221429   3.834   2.177   1.974
 6844SOL     OW21430   4.428   5.234   3.786
 6844SOL    HW121431   4.456   5.235   3.690
 6844SOL    HW221432   4.473   5.158   3.833
 6845SOL     OW21433   4.330   4.715   1.308
 6845SOL    HW121434   4.285   4.789   1.358
 6845SOL    HW221435   4.263   4.643   1.288
 6846SOL     OW21436   3.198   2.998   3.245
 6846SOL    HW121437   3.280   3.023   3.193
 6846SOL    HW221438   3.199   3.044   3.334
 6847SOL     OW21439   5.908   3.767   2.244
 6847SOL    HW121440   5.951   3.727   2.324
 6847SOL    HW221441   5.877   3.694   2.182
 6848SOL     OW21442   0.454   6.422   3.220
 6848SOL    HW121443   0.543   6.382   3.198
 6848SOL    HW221444   0.404   6.359   3.281
 6849SOL     OW21445   3.216   6.747   3.725
 6849SOL    HW121446   3.128   6.703   3.742
 6849SOL    HW221447   3.262   6.701   3.649
 6850SOL     OW21448   5.339   2.636   2.705
 6850SOL    HW121449   5.385   2.548   2.718
 6850SOL    HW221450   5.326   2.653   2.608
 6851SOL     OW21451   0.943   5.606   5.787
 6851SOL    HW121452   1.013   5.660   5.835
 6851SOL    HW221453   0.961   5.509   5.801
 6852SOL     OW21454   7.010   4.575   1.978
 6852SOL    HW121455   7.008   4.674   1.965
 6852SOL    HW221456   0.082   4.544   1.977
 6853SOL     OW21457   0.741   3.336   5.835
 6853SOL    HW121458   0.724   3.309   5.929
 6853SOL    HW221459   0.741   3.255   5.776
 6854SOL     OW21460   6.559   1.704   6.336
 6854SOL    HW121461   6.475   1.699   6.389
 6854SOL    HW221462   6.585   1.800   6.323
 6855SOL     OW21463   2.944   6.111   1.625
 6855SOL    HW121464   3.012   6.169   1.580
 6855SOL    HW221465   2.949   6.019   1.586
 6856SOL     OW21466   6.915   3.506   4.907
 6856SOL    HW121467   6.989   3.569   4.932
 6856SOL    HW221468   6.932   3.416   4.946
 6857SOL     OW21469   4.341   1.813   5.517
 6857SOL    HW121470   4.309   1.824   5.423
 6857SOL    HW221471   4.420   1.872   5.533
 6858SOL     OW21472   4.189   3.519   4.310
 6858SOL    HW121473   4.261   3.529   4.379
 6858SOL    HW221474   4.144   3.607   4.296
 6859SOL     OW21475   4.249   6.885   1.067
 6859SOL    HW121476   4.320   6.823   1.034
 6859SOL    HW221477   4.250   6.969   1.013
 6860SOL     OW21478   5.107   3.654   6.797
 6860SOL    HW121479   5.116   3.597   6.715
 6860SOL    HW221480   5.067   3.599   6.871
 6861SOL     OW21481   6.326   4.651   0.191
 6861SOL    HW121482   6.374   4.729   0.151
 6861SOL    HW221483   6.393   4.591   0.235
 6862SOL     OW21484   3.950   5.774   4.095
 6862SOL    HW121485   3.982   5.791   4.189
 6862SOL    HW221486   3.972   5.853   4.038
 6863SOL     OW21487   5.943   2.553   4.123
 6863SOL    HW121488   5.926   2.651   4.113
 6863SOL    HW221489   5.915   2.505   4.040
 6864SOL     OW21490   4.317   6.212   5.168
 6864SOL    HW121491   4.299   6.120   5.134
 6864SOL    HW221492   4.415   6.225   5.181
 6865SOL     OW21493   6.597   5.015   4.131
 6865SOL    HW121494   6.564   4.981   4.219
 6865SOL    HW221495   6.574   4.951   4.059
 6866SOL     OW21496   6.935   2.951   2.269
 6866SOL    HW121497   6.854   2.995   2.229
 6866SOL    HW221498   6.969   2.880   2.208
 6867SOL     OW21499   1.825   4.080   2.940
 6867SOL    HW121500   1.868   4.001   2.896
 6867SOL    HW221501   1.766   4.050   3.015
 6868SOL     OW21502   1.566   5.281   5.227
 6868SOL    HW121503   1.628   5.265   5.304
 6868SOL    HW221504   1.473   5.255   5.254
 6869SOL     OW21505   6.180   3.532   5.838
 6869SOL    HW121506   6.099   3.480   5.862
 6869SOL    HW221507   6.238   3.478   5.777
 6870SOL     OW21508   5.615   3.809   2.856
 6870SOL    HW121509   5.658   3.869   2.923
 6870SOL    HW221510   5.687   3.764   2.802
 6871SOL     OW21511   5.317   5.796   1.286
 6871SOL    HW121512   5.406   5.817   1.245
 6871SOL    HW221513   5.304   5.697   1.289
 6872SOL     OW21514   2.436   3.376   6.306
 6872SOL    HW121515   2.529   3.354   6.336
 6872SOL    HW221516   2.439   3.449   6.238
 6873SOL     OW21517   5.499   3.165   5.636
 6873SOL    HW121518   5.546   3.242   5.593
 6873SOL    HW221519   5.439   3.198   5.708
 6874SOL     OW21520   0.657   2.492   5.872
 6874SOL    HW121521   0.621   2.506   5.779
 6874SOL    HW221522   0.701   2.576   5.903
 6875SOL     OW21523   2.965   1.843   3.460
 6875SOL    HW121524   2.889   1.907   3.471
 6875SOL    HW221525   3.039   1.887   3.409
 6876SOL     OW21526   3.912   6.204   6.819
 6876SOL    HW121527   3.976   6.169   6.750
 6876SOL    HW221528   3.903   6.303   6.808
 6877SOL     OW21529   2.447   4.280   0.177
 6877SOL    HW121530   2.374   4.316   0.236
 6877SOL    HW221531   2.527   4.340   0.183
 6878SOL     OW21532   2.039   1.437   5.456
 6878SOL    HW121533   2.100   1.515   5.466
 6878SOL    HW221534   1.957   1.465   5.406
 6879SOL     OW21535   1.415   2.417   6.475
 6879SOL    HW121536   1.471   2.416   6.392
 6879SOL    HW221537   1.341   2.484   6.464
 6880SOL     OW21538   1.990   4.198   5.029
 6880SOL    HW121539   2.053   4.267   4.994
 6880SOL    HW221540   2.038   4.110   5.037
 6881SOL     OW21541   6.830   4.338   1.913
 6881SOL    HW121542   6.849   4.242   1.892
 6881SOL    HW221543   6.913   4.392   1.900
 6882SOL     OW21544   1.552   0.287   5.545
 6882SOL    HW121545   1.630   0.349   5.545
 6882SOL    HW221546   1.496   0.303   5.626
 6883SOL     OW21547   3.812   6.418   1.409
 6883SOL    HW121548   3.868   6.482   1.461
 6883SOL    HW221549   3.771   6.465   1.331
 6884SOL     OW21550   2.375   4.859   3.727
 6884SOL    HW121551   2.319   4.807   3.791
 6884SOL    HW221552   2.454   4.898   3.775
 6885SOL     OW21553   2.885   5.647   4.688
 6885SOL    HW121554   2.906   5.661   4.785
 6885SOL    HW221555   2.870   5.736   4.645
 6886SOL     OW21556   5.783   1.427   2.759
 6886SOL    HW121557   5.694   1.384   2.773
 6886SOL    HW221558   5.787   1.467   2.668
 6887SOL     OW21559   5.998   0.939   4.603
 6887SOL    HW121560   6.016   0.950   4.700
 6887SOL    HW221561   5.910   0.982   4.580
 6888SOL     OW21562   5.249   7.003   4.501
 6888SOL    HW121563   5.298   6.937   4.444
 6888SOL    HW221564   5.239   0.065   4.451
 6889SOL     OW21565   1.440   4.634   5.940
 6889SOL    HW121566   1.403   4.578   6.014
 6889SOL    HW221567   1.416   4.593   5.852
 6890SOL     OW21568   1.980   0.380   1.283
 6890SOL    HW121569   1.926   0.463   1.288
 6890SOL    HW221570   1.995   0.355   1.187
 6891SOL     OW21571   1.769   4.627   4.669
 6891SOL    HW121572   1.811   4.542   4.639
 6891SOL    HW221573   1.826   4.670   4.739
 6892SOL     OW21574   3.418   0.863   3.995
 6892SOL    HW121575   3.403   0.891   3.900
 6892SOL    HW221576   3.375   0.930   4.057
 6893SOL     OW21577   4.742   5.478   2.572
 6893SOL    HW121578   4.829   5.461   2.526
 6893SOL    HW221579   4.666   5.451   2.512
 6894SOL     OW21580   6.602   4.864   6.117
 6894SOL    HW121581   6.653   4.835   6.036
 6894SOL    HW221582   6.532   4.796   6.138
 6895SOL     OW21583   3.730   5.561   6.775
 6895SOL    HW121584   3.730   5.590   6.679
 6895SOL    HW221585   3.663   5.615   6.826
 6896SOL     OW21586   3.668   0.445   3.002
 6896SOL    HW121587   3.697   0.374   3.066
 6896SOL    HW221588   3.747   0.502   2.977
 6897SOL     OW21589   3.216   3.235   0.464
 6897SOL    HW121590   3.283   3.264   0.395
 6897SOL    HW221591   3.200   3.136   0.455
 6898SOL     OW21592   4.100   2.241   2.123
 6898SOL    HW121593   4.048   2.186   2.058
 6898SOL    HW221594   4.164   2.300   2.074
 6899SOL     OW21595   4.796   6.115   6.538
 6899SOL    HW121596   4.779   6.066   6.623
 6899SOL    HW221597   4.894   6.131   6.528
 6900SOL     OW21598   4.655   0.719   6.186
 6900SOL    HW121599   4.664   0.631   6.141
 6900SOL    HW221600   4.561   0.730   6.219
 6901SOL     OW21601   1.521   0.800   6.259
 6901SOL    HW121602   1.473   0.816   6.173
 6901SOL    HW221603   1.491   0.866   6.328
 6902SOL     OW21604   6.644   5.452   0.778
 6902SOL    HW121605   6.643   5.525   0.710
 6902SOL    HW221606   6.551   5.419   0.793
 6903SOL     OW21607   4.527   3.989   0.812
 6903SOL    HW121608   4.449   4.050   0.828
 6903SOL    HW221609   4.611   4.033   0.843
 6904SOL     OW21610   6.989   1.269   3.070
 6904SOL    HW121611   0.041   1.203   3.065
 6904SOL    HW221612   6.913   1.230   3.123
 6905SOL     OW21613   5.711   6.307   1.011
 6905SOL    HW121614   5.723   6.306   0.912
 6905SOL    HW221615   5.621   6.270   1.034
 6906SOL     OW21616   4.147   0.980   3.260
 6906SOL    HW121617   4.117   1.026   3.344
 6906SOL    HW221618   4.141   1.043   3.183
 6907SOL     OW21619   3.995   1.694   1.622
 6907SOL    HW121620   3.909   1.684   1.573
 6907SOL    HW221621   3.979   1.741   1.710
 6908SOL     OW21622   1.228   6.696   5.981
 6908SOL    HW121623   1.301   6.744   6.028
 6908SOL    HW221624   1.148   6.689   6.042
 6909SOL     OW21625   4.079   3.806   6.655
 6909SOL    HW121626   4.112   3.803   6.561
 6909SOL    HW221627   4.113   3.727   6.706
 6910SOL     OW21628   6.357   1.540   1.596
 6910SOL    HW121629   6.394   1.595   1.671
 6910SOL    HW221630   6.369   1.442   1.617
 6911SOL     OW21631   3.984   1.275   4.829
 6911SOL    HW121632   3.927   1.353   4.801
 6911SOL    HW221633   3.949   1.192   4.786
 6912SOL     OW21634   4.820   4.875   0.201
 6912SOL    HW121635   4.913   4.907   0.220
 6912SOL    HW221636   4.755   4.924   0.261
 6913SOL     OW21637   5.232   5.145   5.019
 6913SOL    HW121638   5.242   5.046   5.024
 6913SOL    HW221639   5.179   5.169   4.938
 6914SOL     OW21640   6.420   4.822   0.513
 6914SOL    HW121641   6.348   4.759   0.542
 6914SOL    HW221642   6.387   4.916   0.519
 6915SOL     OW21643   0.514   5.191   2.695
 6915SOL    HW121644   0.528   5.193   2.794
 6915SOL    HW221645   0.427   5.234   2.672
 6916SOL     OW21646   6.194   2.056   0.031
 6916SOL    HW121647   6.256   2.021   0.100
 6916SOL    HW221648   6.118   2.105   0.075
 6917SOL     OW21649   4.449   5.772   6.623
 6917SOL    HW121650   4.391   5.693   6.602
 6917SOL    HW221651   4.508   5.791   6.545
 6918SOL     OW21652   0.842   3.443   4.189
 6918SOL    HW121653   0.910   3.479   4.125
 6918SOL    HW221654   0.835   3.504   4.268
 6919SOL     OW21655   2.120   6.110   3.090
 6919SOL    HW121656   2.071   6.193   3.117
 6919SOL    HW221657   2.216   6.119   3.116
 6920SOL     OW21658   4.928   6.646   4.349
 6920SOL    HW121659   4.902   6.565   4.297
 6920SOL    HW221660   5.023   6.670   4.327
 6921SOL     OW21661   0.678   1.009   3.689
 6921SOL    HW121662   0.579   1.022   3.684
 6921SOL    HW221663   0.698   0.922   3.734
 6922SOL     OW21664   2.451   6.312   0.711
 6922SOL    HW121665   2.394   6.268   0.780
 6922SOL    HW221666   2.403   6.391   0.673
 6923SOL     OW21667   4.846   0.733   3.974
 6923SOL    HW121668   4.907   0.792   4.026
 6923SOL    HW221669   4.783   0.686   4.036
 6924SOL     OW21670   0.262   5.477   1.229
 6924SOL    HW121671   0.250   5.399   1.168
 6924SOL    HW221672   0.358   5.504   1.230
 6925SOL     OW21673   4.562   5.490   2.961
 6925SOL    HW121674   4.517   5.564   2.911
 6925SOL    HW221675   4.628   5.444   2.901
 6926SOL     OW21676   3.336   3.451   4.609
 6926SOL    HW121677   3.277   3.460   4.689
 6926SOL    HW221678   3.296   3.501   4.532
 6927SOL     OW21679   4.602   4.139   5.746
 6927SOL    HW121680   4.688   4.132   5.797
 6927SOL    HW221681   4.547   4.057   5.762
 6928SOL     OW21682   5.640   0.580   6.416
 6928SOL    HW121683   5.601   0.501   6.367
 6928SOL    HW221684   5.646   0.559   6.514
 6929SOL     OW21685   4.100   5.371   0.255
 6929SOL    HW121686   4.154   5.317   0.190
 6929SOL    HW221687   4.143   5.367   0.345
 6930SOL     OW21688   0.918   0.224   3.685
 6930SOL    HW121689   0.857   0.177   3.749
 6930SOL    HW221690   0.907   0.323   3.695
 6931SOL     OW21691   1.607   1.687   1.048
 6931SOL    HW121692   1.543   1.639   1.110
 6931SOL    HW221693   1.641   1.769   1.093
 6932SOL     OW21694   2.854   1.982   1.021
 6932SOL    HW121695   2.944   1.940   1.031
 6932SOL    HW221696   2.844   2.055   1.089
 6933SOL     OW21697   4.336   5.842   5.897
 6933SOL    HW121698   4.313   5.878   5.806
 6933SOL    HW221699   4.252   5.830   5.950
 6934SOL     OW21700   5.094   3.439   0.218
 6934SOL    HW121701   5.032   3.458   0.294
 6934SOL    HW221702   5.181   3.406   0.255
 6935SOL     OW21703   4.175   5.742   3.647
 6935SOL    HW121704   4.153   5.661   3.592
 6935SOL    HW221705   4.268   5.734   3.682
 6936SOL     OW21706   1.000   4.019   1.710
 6936SOL    HW121707   1.020   4.082   1.784
 6936SOL    HW221708   0.907   3.983   1.720
 6937SOL     OW21709   4.512   6.685   5.321
 6937SOL    HW121710   4.579   6.669   5.392
 6937SOL    HW221711   4.422   6.703   5.362
 6938SOL     OW21712   4.793   2.393   5.124
 6938SOL    HW121713   4.820   2.361   5.215
 6938SOL    HW221714   4.710   2.448   5.131
 6939SOL     OW21715   0.535   4.409   2.831
 6939SOL    HW121716   0.588   4.361   2.761
 6939SOL    HW221717   0.572   4.388   2.922
 6940SOL     OW21718   5.197   0.632   5.433
 6940SOL    HW121719   5.112   0.676   5.464
 6940SOL    HW221720   5.181   0.589   5.344
 6941SOL     OW21721   4.026   3.789   3.661
 6941SOL    HW121722   4.054   3.695   3.680
 6941SOL    HW221723   4.041   3.845   3.743
 6942SOL     OW21724   6.846   2.406   6.970
 6942SOL    HW121725   6.843   2.474   0.020
 6942SOL    HW221726   6.938   2.370   6.962
 6943SOL     OW21727   5.313   5.339   6.813
 6943SOL    HW121728   5.267   5.362   6.727
 6943SOL    HW221729   5.322   5.421   6.869
 6944SOL     OW21730   1.294   5.512   6.228
 6944SOL    HW121731   1.203   5.533   6.192
 6944SOL    HW221732   1.289   5.504   6.328
 6945SOL     OW21733   6.086   2.635   5.826
 6945SOL    HW121734   6.096   2.581   5.909
 6945SOL    HW221735   6.165   2.695   5.815
 6946SOL     OW21736   5.399   3.967   2.794
 6946SOL    HW121737   5.458   4.048   2.798
 6946SOL    HW221738   5.454   3.885   2.813
 6947SOL     OW21739   3.691   6.440   3.272
 6947SOL    HW121740   3.732   6.527   3.297
 6947SOL    HW221741   3.636   6.405   3.348
 6948SOL     OW21742   4.694   0.686   5.348
 6948SOL    HW121743   4.720   0.783   5.348
 6948SOL    HW221744   4.622   0.670   5.415
 6949SOL     OW21745   5.477   0.131   3.023
 6949SOL    HW121746   5.463   0.149   3.120
 6949SOL    HW221747   5.391   0.145   2.973
 6950SOL     OW21748   2.223   0.538   3.226
 6950SOL    HW121749   2.271   0.626   3.220
 6950SOL    HW221750   2.266   0.480   3.295
 6951SOL     OW21751   6.490   5.461   5.904
 6951SOL    HW121752   6.503   5.482   5.807
 6951SOL    HW221753   6.411   5.400   5.914
 6952SOL     OW21754   0.632   4.782   5.401
 6952SOL    HW121755   0.669   4.853   5.461
 6952SOL    HW221756   0.682   4.697   5.416
 6953SOL     OW21757   4.626   1.356   5.352
 6953SOL    HW121758   4.669   1.335   5.439
 6953SOL    HW221759   4.597   1.271   5.307
 6954SOL     OW21760   6.588   3.704   3.546
 6954SOL    HW121761   6.551   3.739   3.632
 6954SOL    HW221762   6.543   3.749   3.469
 6955SOL     OW21763   6.705   5.871   1.609
 6955SOL    HW121764   6.772   5.799   1.592
 6955SOL    HW221765   6.616   5.829   1.630
 6956SOL     OW21766   4.263   5.273   1.172
 6956SOL    HW121767   4.273   5.357   1.119
 6956SOL    HW221768   4.166   5.256   1.189
 6957SOL     OW21769   0.329   4.383   1.684
 6957SOL    HW121770   0.422   4.357   1.707
 6957SOL    HW221771   0.330   4.469   1.632
 6958SOL     OW21772   2.912   3.159   6.679
 6958SOL    HW121773   2.910   3.192   6.774
 6958SOL    HW221774   3.006   3.138   6.654
 6959SOL     OW21775   3.235   1.246   4.487
 6959SOL    HW121776   3.262   1.280   4.397
 6959SOL    HW221777   3.138   1.265   4.502
 6960SOL     OW21778   0.773   4.576   6.708
 6960SOL    HW121779   0.699   4.512   6.689
 6960SOL    HW221780   0.858   4.543   6.668
 6961SOL     OW21781   0.858   0.593   2.676
 6961SOL    HW121782   0.955   0.601   2.652
 6961SOL    HW221783   0.808   0.672   2.641
 6962SOL     OW21784   4.980   4.189   1.145
 6962SOL    HW121785   4.986   4.128   1.225
 6962SOL    HW221786   4.901   4.249   1.156
 6963SOL     OW21787   6.929   5.072   1.520
 6963SOL    HW121788   6.916   4.997   1.584
 6963SOL    HW221789   6.948   5.035   1.429
 6964SOL     OW21790   4.480   5.515   5.225
 6964SOL    HW121791   4.452   5.587   5.161
 6964SOL    HW221792   4.580   5.511   5.227
 6965SOL     OW21793   0.020   3.152   5.698
 6965SOL    HW121794   0.029   3.212   5.619
 6965SOL    HW221795   6.975   3.189   5.761
 6966SOL     OW21796   4.523   2.126   3.584
 6966SOL    HW121797   4.520   2.201   3.650
 6966SOL    HW221798   4.435   2.121   3.535
 6967SOL     OW21799   1.308   1.285   5.903
 6967SOL    HW121800   1.276   1.278   5.997
 6967SOL    HW221801   1.382   1.351   5.898
 6968SOL     OW21802   4.860   5.966   1.987
 6968SOL    HW121803   4.917   5.979   2.068
 6968SOL    HW221804   4.916   5.978   1.905
 6969SOL     OW21805   3.268   2.285   0.571
 6969SOL    HW121806   3.362   2.302   0.602
 6969SOL    HW221807   3.264   2.292   0.471
 6970SOL     OW21808   5.218   4.239   0.045
 6970SOL    HW121809   5.202   4.177   0.122
 6970SOL    HW221810   5.144   4.228   7.001
 6971SOL     OW21811   5.406   1.273   1.288
 6971SOL    HW121812   5.375   1.365   1.311
 6971SOL    HW221813   5.409   1.218   1.371
 6972SOL     OW21814   5.359   4.868   4.259
 6972SOL    HW121815   5.364   4.863   4.159
 6972SOL    HW221816   5.452   4.862   4.297
 6973SOL     OW21817   1.932   4.477   3.344
 6973SOL    HW121818   1.879   4.517   3.418
 6973SOL    HW221819   2.021   4.522   3.337
 6974SOL     OW21820   3.221   3.736   4.554
 6974SOL    HW121821   3.134   3.783   4.544
 6974SOL    HW221822   3.257   3.751   4.646
 6975SOL     OW21823   4.390   0.867   5.866
 6975SOL    HW121824   4.388   0.949   5.922
 6975SOL    HW221825   4.461   0.805   5.899
 6976SOL     OW21826   2.269   4.856   6.822
 6976SOL    HW121827   2.197   4.925   6.830
 6976SOL    HW221828   2.347   4.883   6.878
 6977SOL     OW21829   3.328   1.791   2.583
 6977SOL    HW121830   3.239   1.824   2.551
 6977SOL    HW221831   3.315   1.740   2.668
 6978SOL     OW21832   0.188   0.498   1.995
 6978SOL    HW121833   0.266   0.490   2.058
 6978SOL    HW221834   0.105   0.517   2.048
 6979SOL     OW21835   0.546   5.187   2.293
 6979SOL    HW121836   0.531   5.284   2.315
 6979SOL    HW221837   0.624   5.179   2.230
 6980SOL     OW21838   2.996   0.880   4.455
 6980SOL    HW121839   2.996   0.948   4.382
 6980SOL    HW221840   3.058   0.909   4.527
 6981SOL     OW21841   1.792   5.390   0.569
 6981SOL    HW121842   1.705   5.381   0.521
 6981SOL    HW221843   1.848   5.459   0.523
 6982SOL     OW21844   0.398   6.864   4.914
 6982SOL    HW121845   0.425   6.956   4.887
 6982SOL    HW221846   0.366   6.814   4.833
 6983SOL     OW21847   6.394   0.178   4.231
 6983SOL    HW121848   6.445   0.218   4.307
 6983SOL    HW221849   6.398   0.239   4.152
 6984SOL     OW21850   1.864   1.250   6.186
 6984SOL    HW121851   1.880   1.175   6.249
 6984SOL    HW221852   1.789   1.226   6.124
 6985SOL     OW21853   4.635   5.935   2.158
 6985SOL    HW121854   4.621   5.900   2.250
 6985SOL    HW221855   4.732   5.951   2.142
 6986SOL     OW21856   2.232   6.464   5.984
 6986SOL    HW121857   2.144   6.490   6.023
 6986SOL    HW221858   2.292   6.429   6.056
 6987SOL     OW21859   0.667   3.495   6.631
 6987SOL    HW121860   0.621   3.547   6.559
 6987SOL    HW221861   0.760   3.473   6.600
 6988SOL     OW21862   5.241   1.485   3.710
 6988SOL    HW121863   5.181   1.513   3.634
 6988SOL    HW221864   5.328   1.454   3.673
 6989SOL     OW21865   1.214   1.951   3.632
 6989SOL    HW121866   1.291   1.888   3.635
 6989SOL    HW221867   1.248   2.045   3.633
 6990SOL     OW21868   3.487   3.115   0.098
 6990SOL    HW121869   3.451   3.054   0.169
 6990SOL    HW221870   3.568   3.162   0.133
 6991SOL     OW21871   2.724   4.401   6.023
 6991SOL    HW121872   2.700   4.371   5.931
 6991SOL    HW221873   2.776   4.328   6.068
 6992SOL     OW21874   5.752   6.798   3.872
 6992SOL    HW121875   5.664   6.751   3.865
 6992SOL    HW221876   5.752   6.877   3.811
 6993SOL     OW21877   0.388   0.193   2.825
 6993SOL    HW121878   0.372   0.128   2.750
 6993SOL    HW221879   0.330   0.274   2.812
 6994SOL     OW21880   1.859   2.981   6.822
 6994SOL    HW121881   1.922   3.000   6.747
 6994SOL    HW221882   1.848   3.064   6.878
 6995SOL     OW21883   5.907   5.518   3.287
 6995SOL    HW121884   5.920   5.602   3.234
 6995SOL    HW221885   5.809   5.507   3.306
 6996SOL     OW21886   2.518   0.435   5.676
 6996SOL    HW121887   2.588   0.483   5.623
 6996SOL    HW221888   2.433   0.434   5.624
 6997SOL     OW21889   4.708   6.903   4.936
 6997SOL    HW121890   4.703   7.001   4.954
 6997SOL    HW221891   4.653   6.854   5.004
 6998SOL     OW21892   1.000   3.739   2.888
 6998SOL    HW121893   1.039   3.715   2.799
 6998SOL    HW221894   0.955   3.659   2.928
 6999SOL     OW21895   3.457   1.661   5.553
 6999SOL    HW121896   3.467   1.664   5.453
 6999SOL    HW221897   3.361   1.678   5.578
 7000SOL     OW21898   0.677   6.228   2.326
 7000SOL    HW121899   0.695   6.150   2.265
 7000SOL    HW221900   0.615   6.292   2.280
 7001SOL     OW21901   2.566   3.118   5.779
 7001SOL    HW121902   2.556   3.102   5.681
 7001SOL    HW221903   2.560   3.216   5.798
 7002SOL     OW21904   1.179   4.961   3.111
 7002SOL    HW121905   1.175   5.042   3.169
 7002SOL    HW221906   1.258   4.905   3.138
 7003SOL     OW21907   3.050   6.433   1.126
 7003SOL    HW121908   3.116   6.484   1.070
 7003SOL    HW221909   2.994   6.375   1.067
 7004SOL     OW21910   1.526   3.933   1.189
 7004SOL    HW121911   1.617   3.913   1.223
 7004SOL    HW221912   1.492   4.017   1.230
 7005SOL     OW21913   5.224   5.974   6.294
 7005SOL    HW121914   5.302   5.976   6.355
 7005SOL    HW221915   5.251   6.007   6.203
 7006SOL     OW21916   4.573   4.569   5.013
 7006SOL    HW121917   4.616   4.560   4.923
 7006SOL    HW221918   4.474   4.577   5.002
 7007SOL     OW21919   4.452   5.968   3.173
 7007SOL    HW121920   4.357   5.948   3.150
 7007SOL    HW221921   4.465   6.068   3.174
 7008SOL     OW21922   1.489   4.868   3.843
 7008SOL    HW121923   1.389   4.872   3.839
 7008SOL    HW221924   1.528   4.935   3.779
 7009SOL     OW21925   0.440   4.685   2.345
 7009SOL    HW121926   0.508   4.731   2.288
 7009SOL    HW221927   0.463   4.698   2.441
 7010SOL     OW21928   3.679   4.950   6.251
 7010SOL    HW121929   3.750   4.879   6.243
 7010SOL    HW221930   3.610   4.936   6.180
 7011SOL     OW21931   2.842   0.117   6.023
 7011SOL    HW121932   2.812   0.207   5.990
 7011SOL    HW221933   2.940   0.106   6.005
 7012SOL     OW21934   1.576   0.577   1.732
 7012SOL    HW121935   1.490   0.547   1.691
 7012SOL    HW221936   1.639   0.499   1.738
 7013SOL     OW21937   1.033   6.839   1.369
 7013SOL    HW121938   1.004   6.878   1.457
 7013SOL    HW221939   1.116   6.784   1.382
 7014SOL     OW21940   2.883   4.451   1.188
 7014SOL    HW121941   2.832   4.390   1.127
 7014SOL    HW221942   2.894   4.540   1.145
 7015SOL     OW21943   4.896   2.348   2.723
 7015SOL    HW121944   4.869   2.314   2.633
 7015SOL    HW221945   4.821   2.334   2.788
 7016SOL     OW21946   4.441   4.970   1.126
 7016SOL    HW121947   4.375   4.995   1.197
 7016SOL    HW221948   4.394   4.924   1.050
 7017SOL     OW21949   3.175   1.892   3.276
 7017SOL    HW121950   3.138   1.977   3.238
 7017SOL    HW221951   3.224   1.912   3.360
 7018SOL     OW21952   0.676   4.789   5.126
 7018SOL    HW121953   0.739   4.712   5.120
 7018SOL    HW221954   0.657   4.809   5.223
 7019SOL     OW21955   2.530   5.700   0.033
 7019SOL    HW121956   2.450   5.742   0.075
 7019SOL    HW221957   2.602   5.690   0.102
 7020SOL     OW21958   6.236   6.476   6.558
 7020SOL    HW121959   6.189   6.439   6.478
 7020SOL    HW221960   6.335   6.469   6.545
 7021SOL     OW21961   2.233   1.243   6.304
 7021SOL    HW121962   2.202   1.148   6.314
 7021SOL    HW221963   2.319   1.244   6.253
 7022SOL     OW21964   5.475   4.210   6.942
 7022SOL    HW121965   5.390   4.238   6.987
 7022SOL    HW221966   5.552   4.222   7.006
 7023SOL     OW21967   6.377   3.718   2.208
 7023SOL    HW121968   6.457   3.755   2.161
 7023SOL    HW221969   6.313   3.792   2.228
 7024SOL     OW21970   1.630   5.825   0.503
 7024SOL    HW121971   1.565   5.894   0.473
 7024SOL    HW221972   1.634   5.751   0.436
 7025SOL     OW21973   3.090   2.209   6.524
 7025SOL    HW121974   3.026   2.142   6.486
 7025SOL    HW221975   3.064   2.229   6.618
 7026SOL     OW21976   3.812   1.636   1.013
 7026SOL    HW121977   3.823   1.676   1.104
 7026SOL    HW221978   3.751   1.556   1.020
 7027SOL     OW21979   3.976   6.361   4.536
 7027SOL    HW121980   4.000   6.271   4.572
 7027SOL    HW221981   4.053   6.398   4.483
 7028SOL     OW21982   4.274   6.594   4.183
 7028SOL    HW121983   4.241   6.688   4.190
 7028SOL    HW221984   4.305   6.576   4.089
 7029SOL     OW21985   3.408   0.377   6.832
 7029SOL    HW121986   3.373   0.314   6.763
 7029SOL    HW221987   3.360   0.464   6.824
 7030SOL     OW21988   0.809   3.731   4.880
 7030SOL    HW121989   0.756   3.674   4.944
 7030SOL    HW221990   0.765   3.728   4.790
 7031SOL     OW21991   1.662   5.864   4.288
 7031SOL    HW121992   1.676   5.824   4.197
 7031SOL    HW221993   1.700   5.802   4.357
 7032SOL     OW21994   6.121   0.911   2.482
 7032SOL    HW121995   6.188   0.940   2.550
 7032SOL    HW221996   6.028   0.921   2.519
 7033SOL     OW21997   6.934   1.055   3.630
 7033SOL    HW121998   7.023   1.012   3.649
 7033SOL    HW221999   6.918   1.055   3.531
 7034SOL     OW22000   6.429   6.774   2.570
 7034SOL    HW122001   6.416   6.791   2.667
 7034SOL    HW222002   6.460   6.857   2.525
 7035SOL     OW22003   6.660   5.647   2.529
 7035SOL    HW122004   6.643   5.745   2.520
 7035SOL    HW222005   6.634   5.616   2.620
 7036SOL     OW22006   0.080   5.072   2.164
 7036SOL    HW122007   0.014   5.043   2.234
 7036SOL    HW222008   0.135   5.148   2.199
 7037SOL     OW22009   1.018   6.391   6.046
 7037SOL    HW122010   1.052   6.339   5.968
 7037SOL    HW222011   0.954   6.461   6.014
 7038SOL     OW22012   0.757   4.323   4.548
 7038SOL    HW122013   0.707   4.356   4.468
 7038SOL    HW222014   0.694   4.272   4.607
 7039SOL     OW22015   3.703   0.997   6.039
 7039SOL    HW122016   3.691   1.059   5.961
 7039SOL    HW222017   3.618   0.948   6.057
 7040SOL     OW22018   5.346   2.079   6.236
 7040SOL    HW122019   5.293   2.162   6.217
 7040SOL    HW222020   5.349   2.021   6.155
 7041SOL     OW22021   1.783   1.996   2.771
 7041SOL    HW122022   1.727   2.015   2.851
 7041SOL    HW222023   1.869   2.046   2.777
 7042SOL     OW22024   3.549   6.391   6.346
 7042SOL    HW122025   3.574   6.373   6.251
 7042SOL    HW222026   3.582   6.317   6.404
 7043SOL     OW22027   2.480   1.898   3.016
 7043SOL    HW122028   2.469   1.800   2.998
 7043SOL    HW222029   2.573   1.915   3.050
 7044SOL     OW22030   4.632   4.823   2.910
 7044SOL    HW122031   4.672   4.895   2.966
 7044SOL    HW222032   4.655   4.839   2.814
 7045SOL     OW22033   5.636   5.455   1.235
 7045SOL    HW122034   5.716   5.488   1.285
 7045SOL    HW222035   5.659   5.371   1.187
 7046SOL     OW22036   3.658   0.755   4.594
 7046SOL    HW122037   3.588   0.720   4.656
 7046SOL    HW222038   3.724   0.683   4.573
 7047SOL     OW22039   1.123   0.937   4.453
 7047SOL    HW122040   1.092   0.852   4.496
 7047SOL    HW222041   1.069   0.953   4.370
 7048SOL     OW22042   6.701   5.842   0.392
 7048SOL    HW122043   6.659   5.819   0.305
 7048SOL    HW222044   6.771   5.913   0.379
 7049SOL     OW22045   2.396   1.234   0.751
 7049SOL    HW122046   2.443   1.303   0.695
 7049SOL    HW222047   2.328   1.278   0.809
 7050SOL     OW22048   3.527   4.200   4.417
 7050SOL    HW122049   3.528   4.126   4.484
 7050SOL    HW222050   3.473   4.173   4.337
 7051SOL     OW22051   0.133   0.091   1.737
 7051SOL    HW122052   0.146   0.016   1.801
 7051SOL    HW222053   0.053   0.073   1.680
 7052SOL     OW22054   0.169   2.074   3.825
 7052SOL    HW122055   0.175   2.172   3.806
 7052SOL    HW222056   0.261   2.037   3.840
 7053SOL     OW22057   0.709   4.266   6.897
 7053SOL    HW122058   0.634   4.275   6.831
 7053SOL    HW222059   0.696   4.181   6.949
 7054SOL     OW22060   6.513   6.453   1.841
 7054SOL    HW122061   6.445   6.444   1.768
 7054SOL    HW222062   6.541   6.362   1.871
 7055SOL     OW22063   4.612   0.584   4.051
 7055SOL    HW122064   4.607   0.486   4.031
 7055SOL    HW222065   4.558   0.634   3.984
 7056SOL     OW22066   5.358   4.880   3.963
 7056SOL    HW122067   5.268   4.857   3.926
 7056SOL    HW222068   5.393   4.961   3.917
 7057SOL     OW22069   6.990   5.765   3.658
 7057SOL    HW122070   6.973   5.696   3.587
 7057SOL    HW222071   0.046   5.737   3.713
 7058SOL     OW22072   1.008   5.327   5.854
 7058SOL    HW122073   1.087   5.270   5.829
 7058SOL    HW222074   0.926   5.270   5.852
 7059SOL     OW22075   1.045   0.257   2.127
 7059SOL    HW122076   0.970   0.210   2.080
 7059SOL    HW222077   1.126   0.255   2.070
 7060SOL     OW22078   3.651   6.160   1.822
 7060SOL    HW122079   3.647   6.066   1.857
 7060SOL    HW222080   3.707   6.162   1.739
 7061SOL     OW22081   0.568   0.540   2.962
 7061SOL    HW122082   0.624   0.621   2.979
 7061SOL    HW222083   0.475   0.568   2.936
 7062SOL     OW22084   5.351   1.975   5.160
 7062SOL    HW122085   5.306   1.973   5.249
 7062SOL    HW222086   5.445   2.007   5.172
 7063SOL     OW22087   2.522   6.574   1.497
 7063SOL    HW122088   2.521   6.534   1.589
 7063SOL    HW222089   2.474   6.661   1.498
 7064SOL     OW22090   3.649   2.304   1.468
 7064SOL    HW122091   3.736   2.313   1.517
 7064SOL    HW222092   3.583   2.256   1.526
 7065SOL     OW22093   4.755   3.609   1.802
 7065SOL    HW122094   4.807   3.546   1.859
 7065SOL    HW222095   4.795   3.613   1.711
 7066SOL     OW22096   4.056   6.806   0.194
 7066SOL    HW122097   4.007   6.891   0.175
 7066SOL    HW222098   4.128   6.792   0.126
 7067SOL     OW22099   0.551   3.724   5.822
 7067SOL    HW122100   0.638   3.772   5.815
 7067SOL    HW222101   0.476   3.789   5.813
 7068SOL     OW22102   1.448   1.129   3.633
 7068SOL    HW122103   1.456   1.182   3.548
 7068SOL    HW222104   1.352   1.105   3.648
 7069SOL     OW22105   0.478   4.141   5.351
 7069SOL    HW122106   0.412   4.099   5.288
 7069SOL    HW222107   0.459   4.110   5.444
 7070SOL     OW22108   6.197   4.718   5.029
 7070SOL    HW122109   6.111   4.717   5.080
 7070SOL    HW222110   6.219   4.626   4.999
 7071SOL     OW22111   1.547   5.654   5.286
 7071SOL    HW122112   1.467   5.597   5.299
 7071SOL    HW222113   1.529   5.720   5.213
 7072SOL     OW22114   7.013   6.499   6.483
 7072SOL    HW122115   0.042   6.552   6.550
 7072SOL    HW222116   0.053   6.457   6.418
 7073SOL     OW22117   0.586   0.833   5.311
 7073SOL    HW122118   0.496   0.872   5.293
 7073SOL    HW222119   0.594   0.811   5.408
 7074SOL     OW22120   3.254   1.761   1.789
 7074SOL    HW122121   3.228   1.857   1.781
 7074SOL    HW222122   3.293   1.744   1.880
 7075SOL     OW22123   1.739   5.644   4.446
 7075SOL    HW122124   1.742   5.577   4.521
 7075SOL    HW222125   1.706   5.600   4.363
 7076SOL     OW22126   3.443   1.752   6.149
 7076SOL    HW122127   3.501   1.813   6.203
 7076SOL    HW222128   3.494   1.721   6.069
 7077SOL     OW22129   2.267   5.431   5.631
 7077SOL    HW122130   2.343   5.439   5.696
 7077SOL    HW222131   2.268   5.341   5.589
 7078SOL     OW22132   5.514   0.765   3.390
 7078SOL    HW122133   5.607   0.789   3.420
 7078SOL    HW222134   5.451   0.839   3.415
 7079SOL     OW22135   6.300   6.423   5.852
 7079SOL    HW122136   6.245   6.357   5.903
 7079SOL    HW222137   6.363   6.469   5.914
 7080SOL     OW22138   4.276   1.955   3.790
 7080SOL    HW122139   4.318   1.973   3.879
 7080SOL    HW222140   4.249   2.042   3.748
 7081SOL     OW22141   3.223   1.339   5.684
 7081SOL    HW122142   3.148   1.353   5.749
 7081SOL    HW222143   3.308   1.374   5.724
 7082SOL     OW22144   6.134   1.253   6.506
 7082SOL    HW122145   6.107   1.344   6.537
 7082SOL    HW222146   6.197   1.213   6.571
 7083SOL     OW22147   3.386   0.169   5.771
 7083SOL    HW122148   3.435   0.255   5.753
 7083SOL    HW222149   3.313   0.158   5.704
 7084SOL     OW22150   6.879   6.469   5.991
 7084SOL    HW122151   6.902   6.380   6.031
 7084SOL    HW222152   6.962   6.524   5.982
 7085SOL     OW22153   2.066   2.285   2.406
 7085SOL    HW122154   2.157   2.326   2.400
 7085SOL    HW222155   2.011   2.314   2.328
 7086SOL     OW22156   5.569   0.863   6.356
 7086SOL    HW122157   5.541   0.899   6.445
 7086SOL    HW222158   5.604   0.771   6.367
 7087SOL     OW22159   1.082   3.144   4.708
 7087SOL    HW122160   1.074   3.140   4.807
 7087SOL    HW222161   1.160   3.202   4.683
 7088SOL     OW22162   5.549   3.412   4.230
 7088SOL    HW122163   5.496   3.360   4.297
 7088SOL    HW222164   5.576   3.351   4.155
 7089SOL     OW22165   3.855   1.811   6.773
 7089SOL    HW122166   3.923   1.880   6.751
 7089SOL    HW222167   3.765   1.854   6.778
 7090SOL     OW22168   2.146   2.049   4.972
 7090SOL    HW122169   2.078   1.989   4.931
 7090SOL    HW222170   2.189   2.002   5.050
 7091SOL     OW22171   6.900   0.903   0.572
 7091SOL    HW122172   6.905   0.845   0.654
 7091SOL    HW222173   6.905   0.845   0.490
 7092SOL     OW22174   3.561   4.056   1.144
 7092SOL    HW122175   3.511   4.104   1.216
 7092SOL    HW222176   3.496   4.028   1.073
 7093SOL     OW22177   3.676   3.781   4.745
 7093SOL    HW122178   3.630   3.826   4.821
 7093SOL    HW222179   3.680   3.683   4.762
 7094SOL     OW22180   0.975   6.520   5.595
 7094SOL    HW122181   1.016   6.568   5.672
 7094SOL    HW222182   0.918   6.584   5.543
 7095SOL     OW22183   0.959   3.008   6.420
 7095SOL    HW122184   0.993   3.001   6.514
 7095SOL    HW222185   1.031   2.981   6.356
 7096SOL     OW22186   4.272   2.331   4.037
 7096SOL    HW122187   4.323   2.246   4.020
 7096SOL    HW222188   4.323   2.408   4.001
 7097SOL     OW22189   0.207   0.978   1.727
 7097SOL    HW122190   0.126   0.948   1.677
 7097SOL    HW222191   0.209   0.936   1.818
 7098SOL     OW22192   1.825   5.806   6.434
 7098SOL    HW122193   1.826   5.901   6.404
 7098SOL    HW222194   1.784   5.749   6.363
 7099SOL     OW22195   1.099   1.199   5.366
 7099SOL    HW122196   1.143   1.129   5.309
 7099SOL    HW222197   1.165   1.271   5.388
 7100SOL     OW22198   4.857   3.817   1.150
 7100SOL    HW122199   4.821   3.725   1.167
 7100SOL    HW222200   4.793   3.867   1.092
 7101SOL     OW22201   2.846   0.365   5.071
 7101SOL    HW122202   2.875   0.279   5.112
 7101SOL    HW222203   2.775   0.407   5.127
 7102SOL     OW22204   3.736   1.064   0.700
 7102SOL    HW122205   3.691   1.151   0.677
 7102SOL    HW222206   3.820   1.056   0.647
 7103SOL     OW22207   3.475   6.499   0.473
 7103SOL    HW122208   3.487   6.410   0.517
 7103SOL    HW222209   3.550   6.515   0.409
 7104SOL     OW22210   1.547   2.131   3.446
 7104SOL    HW122211   1.552   2.041   3.402
 7104SOL    HW222212   1.473   2.131   3.513
 7105SOL     OW22213   3.560   3.321   4.412
 7105SOL    HW122214   3.480   3.372   4.378
 7105SOL    HW222215   3.559   3.228   4.374
 7106SOL     OW22216   3.864   3.153   4.500
 7106SOL    HW122217   3.814   3.238   4.515
 7106SOL    HW222218   3.817   3.098   4.431
 7107SOL     OW22219   2.733   1.055   0.398
 7107SOL    HW122220   2.637   1.031   0.408
 7107SOL    HW222221   2.760   1.114   0.474
 7108SOL     OW22222   4.957   6.208   0.924
 7108SOL    HW122223   5.032   6.242   0.981
 7108SOL    HW222224   4.897   6.150   0.979
 7109SOL     OW22225   3.519   0.115   6.004
 7109SOL    HW122226   3.534   0.180   6.078
 7109SOL    HW222227   3.462   0.158   5.934
 7110SOL     OW22228   4.587   5.104   4.365
 7110SOL    HW122229   4.501   5.110   4.315
 7110SOL    HW222230   4.645   5.182   4.341
 7111SOL     OW22231   2.116   3.302   4.372
 7111SOL    HW122232   2.092   3.319   4.277
 7111SOL    HW222233   2.152   3.210   4.382
 7112SOL     OW22234   1.267   6.293   3.895
 7112SOL    HW122235   1.323   6.226   3.846
 7112SOL    HW222236   1.319   6.330   3.972
 7113SOL     OW22237   3.523   3.845   4.283
 7113SOL    HW122238   3.595   3.809   4.223
 7113SOL    HW222239   3.486   3.929   4.243
 7114SOL     OW22240   4.413   1.428   1.701
 7114SOL    HW122241   4.477   1.497   1.732
 7114SOL    HW222242   4.344   1.470   1.642
 7115SOL     OW22243   4.736   1.366   1.389
 7115SOL    HW122244   4.701   1.390   1.299
 7115SOL    HW222245   4.825   1.321   1.380
 7116SOL     OW22246   5.537   3.772   3.569
 7116SOL    HW122247   5.475   3.700   3.601
 7116SOL    HW222248   5.575   3.746   3.480
 7117SOL     OW22249   6.236   6.104   2.468
 7117SOL    HW122250   6.257   6.007   2.483
 7117SOL    HW222251   6.299   6.160   2.521
 7118SOL     OW22252   5.558   3.791   0.760
 7118SOL    HW122253   5.480   3.803   0.699
 7118SOL    HW222254   5.605   3.878   0.772
 7119SOL     OW22255   6.359   1.333   2.895
 7119SOL    HW122256   6.328   1.259   2.955
 7119SOL    HW222257   6.433   1.383   2.941
 7120SOL     OW22258   4.937   1.571   4.184
 7120SOL    HW122259   4.992   1.590   4.265
 7120SOL    HW222260   4.898   1.656   4.149
 7121SOL     OW22261   2.490   6.618   3.732
 7121SOL    HW122262   2.440   6.550   3.678
 7121SOL    HW222263   2.442   6.632   3.819
 7122SOL     OW22264   6.656   1.080   6.811
 7122SOL    HW122265   6.676   1.176   6.835
 7122SOL    HW222266   6.620   1.033   6.892
 7123SOL     OW22267   3.289   5.586   1.349
 7123SOL    HW122268   3.382   5.616   1.374
 7123SOL    HW222269   3.244   5.547   1.429
 7124SOL     OW22270   0.286   5.196   6.746
 7124SOL    HW122271   0.370   5.157   6.784
 7124SOL    HW222272   0.309   5.253   6.667
 7125SOL     OW22273   6.433   6.506   2.453
 7125SOL    HW122274   6.360   6.508   2.385
 7125SOL    HW222275   6.445   6.597   2.493
 7126SOL     OW22276   1.932   4.465   0.242
 7126SOL    HW122277   1.902   4.389   0.185
 7126SOL    HW222278   1.894   4.455   0.334
 7127SOL     OW22279   3.239   6.046   4.470
 7127SOL    HW122280   3.333   6.078   4.481
 7127SOL    HW222281   3.206   6.071   4.379
 7128SOL     OW22282   3.490   4.306   0.996
 7128SOL    HW122283   3.404   4.272   1.032
 7128SOL    HW222284   3.533   4.367   1.062
 7129SOL     OW22285   2.988   0.417   1.522
 7129SOL    HW122286   2.930   0.337   1.528
 7129SOL    HW222287   2.977   0.460   1.432
 7130SOL     OW22288   2.771   5.081   3.653
 7130SOL    HW122289   2.691   5.077   3.713
 7130SOL    HW222290   2.854   5.067   3.706
 7131SOL     OW22291   2.468   1.425   2.528
 7131SOL    HW122292   2.474   1.506   2.587
 7131SOL    HW222293   2.546   1.365   2.547
 7132SOL     OW22294   3.649   4.098   2.837
 7132SOL    HW122295   3.562   4.108   2.789
 7132SOL    HW222296   3.724   4.118   2.773
 7133SOL     OW22297   4.752   5.244   3.299
 7133SOL    HW122298   4.685   5.185   3.345
 7133SOL    HW222299   4.711   5.334   3.283
 7134SOL     OW22300   6.128   5.493   4.009
 7134SOL    HW122301   6.138   5.395   4.027
 7134SOL    HW222302   6.044   5.526   4.053
 7135SOL     OW22303   1.461   0.999   4.141
 7135SOL    HW122304   1.488   1.091   4.112
 7135SOL    HW222305   1.484   0.933   4.069
 7136SOL     OW22306   1.434   1.201   0.527
 7136SOL    HW122307   1.483   1.173   0.609
 7136SOL    HW222308   1.474   1.155   0.447
 7137SOL     OW22309   4.578   0.754   4.268
 7137SOL    HW122310   4.590   0.681   4.201
 7137SOL    HW222311   4.633   0.833   4.243
 7138SOL     OW22312   2.781   3.703   1.137
 7138SOL    HW122313   2.794   3.768   1.062
 7138SOL    HW222314   2.824   3.739   1.220
 7139SOL     OW22315   4.472   3.088   1.644
 7139SOL    HW122316   4.395   3.088   1.708
 7139SOL    HW222317   4.556   3.063   1.693
 7140SOL     OW22318   6.488   4.441   5.175
 7140SOL    HW122319   6.417   4.449   5.104
 7140SOL    HW222320   6.446   4.452   5.265
 7141SOL     OW22321   2.570   0.416   0.989
 7141SOL    HW122322   2.502   0.414   0.915
 7141SOL    HW222323   2.598   0.323   1.011
 7142SOL     OW22324   4.224   6.156   3.809
 7142SOL    HW122325   4.136   6.129   3.847
 7142SOL    HW222326   4.210   6.204   3.722
 7143SOL     OW22327   1.496   3.879   6.300
 7143SOL    HW122328   1.575   3.818   6.301
 7143SOL    HW222329   1.526   3.972   6.279
 7144SOL     OW22330   1.063   1.676   3.126
 7144SOL    HW122331   1.066   1.687   3.226
 7144SOL    HW222332   0.968   1.678   3.096
 7145SOL     OW22333   4.631   0.057   6.668
 7145SOL    HW122334   4.641   0.118   6.746
 7145SOL    HW222335   4.538   0.062   6.633
 7146SOL     OW22336   2.629   6.310   0.228
 7146SOL    HW122337   2.601   6.355   0.313
 7146SOL    HW222338   2.617   6.211   0.237
 7147SOL     OW22339   6.895   0.870   3.061
 7147SOL    HW122340   6.977   0.823   3.029
 7147SOL    HW222341   6.879   0.952   3.006
 7148SOL     OW22342   1.285   6.744   1.685
 7148SOL    HW122343   1.233   6.828   1.698
 7148SOL    HW222344   1.252   6.697   1.603
 7149SOL     OW22345   6.368   1.520   3.365
 7149SOL    HW122346   6.324   1.479   3.445
 7149SOL    HW222347   6.432   1.590   3.396
 7150SOL     OW22348   5.237   2.360   0.457
 7150SOL    HW122349   5.291   2.421   0.400
 7150SOL    HW222350   5.292   2.332   0.536
 7151SOL     OW22351   2.014   5.595   1.920
 7151SOL    HW122352   1.968   5.606   1.832
 7151SOL    HW222353   2.100   5.546   1.907
 7152SOL     OW22354   1.045   2.830   4.313
 7152SOL    HW122355   1.099   2.894   4.369
 7152SOL    HW222356   0.967   2.877   4.274
 7153SOL     OW22357   4.691   1.028   4.503
 7153SOL    HW122358   4.702   0.995   4.410
 7153SOL    HW222359   4.629   0.968   4.553
 7154SOL     OW22360   4.248   5.980   4.011
 7154SOL    HW122361   4.277   6.043   3.939
 7154SOL    HW222362   4.217   6.033   4.091
 7155SOL     OW22363   1.464   6.735   1.916
 7155SOL    HW122364   1.399   6.762   1.845
 7155SOL    HW222365   1.537   6.804   1.922
 7156SOL     OW22366   6.706   5.436   5.308
 7156SOL    HW122367   6.805   5.433   5.312
 7156SOL    HW222368   6.676   5.466   5.218
 7157SOL     OW22369   5.325   5.341   0.577
 7157SOL    HW122370   5.240   5.317   0.624
 7157SOL    HW222371   5.383   5.394   0.640
 7158SOL     OW22372   0.300   6.811   3.311
 7158SOL    HW122373   0.377   6.784   3.253
 7158SOL    HW222374   0.303   6.760   3.396
 7159SOL     OW22375   0.596   5.018   0.264
 7159SOL    HW122376   0.533   5.000   0.339
 7159SOL    HW222377   0.546   5.025   0.178
 7160SOL     OW22378   6.225   0.399   2.185
 7160SOL    HW122379   6.233   0.299   2.184
 7160SOL    HW222380   6.193   0.430   2.095
 7161SOL     OW22381   3.426   2.847   3.923
 7161SOL    HW122382   3.518   2.853   3.961
 7161SOL    HW222383   3.365   2.802   3.988
 7162SOL     OW22384   3.748   4.868   3.960
 7162SOL    HW122385   3.712   4.803   4.027
 7162SOL    HW222386   3.830   4.912   3.996
 7163SOL     OW22387   3.253   0.546   3.478
 7163SOL    HW122388   3.339   0.593   3.499
 7163SOL    HW222389   3.240   0.471   3.543
 7164SOL     OW22390   2.243   1.216   3.555
 7164SOL    HW122391   2.281   1.127   3.532
 7164SOL    HW222392   2.223   1.267   3.471
 7165SOL     OW22393   5.219   0.932   0.854
 7165SOL    HW122394   5.220   0.957   0.951
 7165SOL    HW222395   5.258   0.840   0.843
 7166SOL     OW22396   4.886   4.869   1.050
 7166SOL    HW122397   4.886   4.828   0.959
 7166SOL    HW222398   4.956   4.941   1.054
 7167SOL     OW22399   4.861   3.353   5.145
 7167SOL    HW122400   4.805   3.434   5.129
 7167SOL    HW222401   4.836   3.312   5.233
 7168SOL     OW22402   1.362   0.684   3.844
 7168SOL    HW122403   1.307   0.767   3.845
 7168SOL    HW222404   1.416   0.680   3.760
 7169SOL     OW22405   1.534   2.968   6.219
 7169SOL    HW122406   1.612   2.942   6.276
 7169SOL    HW222407   1.535   3.066   6.203
 7170SOL     OW22408   5.560   4.958   3.597
 7170SOL    HW122409   5.547   4.859   3.592
 7170SOL    HW222410   5.511   5.002   3.522
 7171SOL     OW22411   4.382   2.880   5.324
 7171SOL    HW122412   4.337   2.793   5.340
 7171SOL    HW222413   4.426   2.912   5.409
 7172SOL     OW22414   1.854   6.842   0.688
 7172SOL    HW122415   1.815   6.821   0.778
 7172SOL    HW222416   1.850   6.941   0.672
 7173SOL     OW22417   6.984   6.220   5.102
 7173SOL    HW122418   0.021   6.300   5.102
 7173SOL    HW222419   0.009   6.142   5.061
 7174SOL     OW22420   2.014   5.405   0.277
 7174SOL    HW122421   1.987   5.315   0.243
 7174SOL    HW222422   2.109   5.401   0.309
 7175SOL     OW22423   4.989   4.090   0.153
 7175SOL    HW122424   4.994   4.075   0.054
 7175SOL    HW222425   5.008   4.005   0.201
 7176SOL     OW22426   6.492   4.287   1.452
 7176SOL    HW122427   6.562   4.343   1.497
 7176SOL    HW222428   6.404   4.335   1.456
 7177SOL     OW22429   1.014   5.971   3.303
 7177SOL    HW122430   0.936   5.926   3.346
 7177SOL    HW222431   1.091   5.908   3.301
 7178SOL     OW22432   1.149   2.874   4.611
 7178SOL    HW122433   1.063   2.841   4.650
 7178SOL    HW222434   1.139   2.970   4.587
 7179SOL     OW22435   2.999   3.855   5.456
 7179SOL    HW122436   3.015   3.763   5.492
 7179SOL    HW222437   2.966   3.848   5.361
 7180SOL     OW22438   0.556   6.465   1.195
 7180SOL    HW122439   0.602   6.456   1.107
 7180SOL    HW222440   0.607   6.415   1.265
 7181SOL     OW22441   4.844   0.485   1.206
 7181SOL    HW122442   4.773   0.526   1.263
 7181SOL    HW222443   4.817   0.490   1.110
 7182SOL     OW22444   2.533   4.487   5.541
 7182SOL    HW122445   2.598   4.479   5.465
 7182SOL    HW222446   2.441   4.469   5.507
 7183SOL     OW22447   1.784   4.845   3.405
 7183SOL    HW122448   1.819   4.791   3.328
 7183SOL    HW222449   1.684   4.840   3.406
 7184SOL     OW22450   1.944   6.461   3.885
 7184SOL    HW122451   1.984   6.398   3.818
 7184SOL    HW222452   2.013   6.482   3.955
 7185SOL     OW22453   4.538   2.806   6.779
 7185SOL    HW122454   4.600   2.763   6.845
 7185SOL    HW222455   4.591   2.837   6.700
 7186SOL     OW22456   6.680   5.972   5.236
 7186SOL    HW122457   6.683   6.072   5.229
 7186SOL    HW222458   6.591   5.939   5.206
 7187SOL     OW22459   1.722   4.287   2.039
 7187SOL    HW122460   1.703   4.362   2.102
 7187SOL    HW222461   1.796   4.313   1.977
 7188SOL     OW22462   4.995   0.559   1.991
 7188SOL    HW122463   4.975   0.506   1.909
 7188SOL    HW222464   5.024   0.651   1.966
 7189SOL     OW22465   0.221   1.121   5.320
 7189SOL    HW122466   0.197   1.061   5.396
 7189SOL    HW222467   0.200   1.215   5.344
 7190SOL     OW22468   6.096   4.090   3.117
 7190SOL    HW122469   6.083   4.120   3.212
 7190SOL    HW222470   6.047   4.151   3.055
 7191SOL     OW22471   1.287   3.670   2.405
 7191SOL    HW122472   1.303   3.571   2.398
 7191SOL    HW222473   1.374   3.718   2.400
 7192SOL     OW22474   2.852   4.668   6.615
 7192SOL    HW122475   2.947   4.652   6.590
 7192SOL    HW222476   2.804   4.710   6.538
 7193SOL     OW22477   3.969   1.829   4.079
 7193SOL    HW122478   3.891   1.767   4.081
 7193SOL    HW222479   3.998   1.844   3.985
 7194SOL     OW22480   2.541   2.336   1.619
 7194SOL    HW122481   2.483   2.415   1.599
 7194SOL    HW222482   2.573   2.341   1.713
 7195SOL     OW22483   0.645   5.414   0.849
 7195SOL    HW122484   0.567   5.474   0.863
 7195SOL    HW222485   0.722   5.445   0.905
 7196SOL     OW22486   3.019   3.374   2.693
 7196SOL    HW122487   2.979   3.307   2.754
 7196SOL    HW222488   3.006   3.345   2.598
 7197SOL     OW22489   7.010   1.803   5.117
 7197SOL    HW122490   0.022   1.882   5.166
 7197SOL    HW222491   0.052   1.776   5.046
 7198SOL     OW22492   1.422   6.719   6.241
 7198SOL    HW122493   1.368   6.776   6.303
 7198SOL    HW222494   1.476   6.653   6.294
 7199SOL     OW22495   6.900   0.203   2.852
 7199SOL    HW122496   6.904   0.111   2.892
 7199SOL    HW222497   6.809   0.218   2.814
 7200SOL     OW22498   2.291   1.144   1.622
 7200SOL    HW122499   2.335   1.215   1.567
 7200SOL    HW222500   2.236   1.187   1.694
 7201SOL     OW22501   1.550   4.532   4.167
 7201SOL    HW122502   1.493   4.554   4.246
 7201SOL    HW222503   1.498   4.546   4.083
 7202SOL     OW22504   3.857   0.727   6.312
 7202SOL    HW122505   3.865   0.787   6.232
 7202SOL    HW222506   3.826   0.780   6.391
 7203SOL     OW22507   5.785   0.836   6.785
 7203SOL    HW122508   5.848   0.778   6.837
 7203SOL    HW222509   5.692   0.804   6.797
 7204SOL     OW22510   5.906   0.856   3.000
 7204SOL    HW122511   5.903   0.954   3.021
 7204SOL    HW222512   5.965   0.810   3.066
 7205SOL     OW22513   1.707   5.102   3.322
 7205SOL    HW122514   1.743   5.195   3.330
 7205SOL    HW222515   1.737   5.048   3.401
 7206SOL     OW22516   6.529   1.482   0.951
 7206SOL    HW122517   6.531   1.582   0.949
 7206SOL    HW222518   6.524   1.448   0.857
 7207SOL     OW22519   3.088   6.553   1.415
 7207SOL    HW122520   3.066   6.557   1.318
 7207SOL    HW222521   3.008   6.521   1.466
 7208SOL     OW22522   3.195   0.157   5.567
 7208SOL    HW122523   3.262   0.134   5.497
 7208SOL    HW222524   3.136   0.231   5.535
 7209SOL     OW22525   3.947   3.243   3.936
 7209SOL    HW122526   3.920   3.156   3.894
 7209SOL    HW222527   3.869   3.282   3.985
 7210SOL     OW22528   4.818   1.077   3.691
 7210SOL    HW122529   4.780   0.989   3.665
 7210SOL    HW222530   4.915   1.066   3.713
 7211SOL     OW22531   1.488   5.684   4.086
 7211SOL    HW122532   1.508   5.781   4.095
 7211SOL    HW222533   1.416   5.671   4.018
 7212SOL     OW22534   6.071   6.238   4.248
 7212SOL    HW122535   6.072   6.327   4.292
 7212SOL    HW222536   6.103   6.247   4.153
 7213SOL     OW22537   5.962   0.892   5.718
 7213SOL    HW122538   5.869   0.921   5.696
 7213SOL    HW222539   5.959   0.831   5.798
 7214SOL     OW22540   1.775   4.931   5.470
 7214SOL    HW122541   1.809   4.921   5.564
 7214SOL    HW222542   1.727   5.019   5.462
 7215SOL     OW22543   0.530   3.924   4.369
 7215SOL    HW122544   0.499   3.834   4.399
 7215SOL    HW222545   0.511   3.991   4.442
 7216SOL     OW22546   2.447   0.325   0.109
 7216SOL    HW122547   2.495   0.266   0.044
 7216SOL    HW222548   2.448   0.419   0.077
 7217SOL     OW22549   0.940   3.133   2.697
 7217SOL    HW122550   0.910   3.066   2.629
 7217SOL    HW222551   0.861   3.181   2.735
 7218SOL     OW22552   4.570   2.183   5.691
 7218SOL    HW122553   4.651   2.232   5.661
 7218SOL    HW222554   4.490   2.241   5.681
 7219SOL     OW22555   4.119   6.621   2.917
 7219SOL    HW122556   4.166   6.582   2.996
 7219SOL    HW222557   4.024   6.640   2.941
 7220SOL     OW22558   6.748   1.121   2.395
 7220SOL    HW122559   6.786   1.068   2.319
 7220SOL    HW222560   6.676   1.067   2.440
 7221SOL     OW22561   5.318   3.785   5.963
 7221SOL    HW122562   5.251   3.772   5.890
 7221SOL    HW222563   5.401   3.825   5.926
 7222SOL     OW22564   0.387   5.788   1.121
 7222SOL    HW122565   0.430   5.700   1.102
 7222SOL    HW222566   0.293   5.773   1.153
 7223SOL     OW22567   3.267   1.818   5.983
 7223SOL    HW122568   3.332   1.792   6.054
 7223SOL    HW222569   3.174   1.810   6.019
 7224SOL     OW22570   5.575   0.087   4.832
 7224SOL    HW122571   5.633   0.145   4.774
 7224SOL    HW222572   5.488   0.070   4.786
 7225SOL     OW22573   2.174   6.111   0.060
 7225SOL    HW122574   2.136   6.192   0.106
 7225SOL    HW222575   2.250   6.140   0.002
 7226SOL     OW22576   0.253   6.701   0.384
 7226SOL    HW122577   0.262   6.776   0.449
 7226SOL    HW222578   0.345   6.671   0.356
 7227SOL     OW22579   7.021   2.805   6.783
 7227SOL    HW122580   0.041   2.874   6.725
 7227SOL    HW222581   0.054   2.791   6.865
 7228SOL     OW22582   0.506   0.339   1.882
 7228SOL    HW122583   0.508   0.434   1.852
 7228SOL    HW222584   0.452   0.284   1.818
 7229SOL     OW22585   0.899   0.002   4.100
 7229SOL    HW122586   0.875   7.013   4.004
 7229SOL    HW222587   0.913   6.936   4.143
 7230SOL     OW22588   5.146   4.714   3.628
 7230SOL    HW122589   5.130   4.778   3.703
 7230SOL    HW222590   5.082   4.638   3.635
 7231SOL     OW22591   5.945   1.309   5.685
 7231SOL    HW122592   5.974   1.283   5.593
 7231SOL    HW222593   5.972   1.238   5.751
 7232SOL     OW22594   4.008   4.788   2.430
 7232SOL    HW122595   3.931   4.812   2.488
 7232SOL    HW222596   4.023   4.860   2.362
 7233SOL     OW22597   0.428   2.834   5.776
 7233SOL    HW122598   0.355   2.795   5.832
 7233SOL    HW222599   0.404   2.928   5.751
 7234SOL     OW22600   6.190   1.920   1.750
 7234SOL    HW122601   6.130   1.868   1.689
 7234SOL    HW222602   6.285   1.898   1.731
 7235SOL     OW22603   5.449   3.585   5.432
 7235SOL    HW122604   5.476   3.648   5.359
 7235SOL    HW222605   5.379   3.522   5.397
 7236SOL     OW22606   3.555   0.850   2.898
 7236SOL    HW122607   3.643   0.807   2.917
 7236SOL    HW222608   3.485   0.779   2.889
 7237SOL     OW22609   5.913   5.950   5.908
 7237SOL    HW122610   5.895   5.853   5.928
 7237SOL    HW222611   5.992   5.980   5.961
 7238SOL     OW22612   2.494   2.193   2.331
 7238SOL    HW122613   2.541   2.268   2.377
 7238SOL    HW222614   2.539   2.176   2.243
 7239SOL     OW22615   2.901   1.554   2.049
 7239SOL    HW122616   2.906   1.487   1.976
 7239SOL    HW222617   2.886   1.645   2.010
 7240SOL     OW22618   2.583   4.656   0.488
 7240SOL    HW122619   2.543   4.636   0.578
 7240SOL    HW222620   2.678   4.626   0.487
 7241SOL     OW22621   3.142   6.858   5.112
 7241SOL    HW122622   3.225   6.898   5.151
 7241SOL    HW222623   3.155   6.846   5.013
 7242SOL     OW22624   5.914   4.168   6.604
 7242SOL    HW122625   5.865   4.203   6.684
 7242SOL    HW222626   5.854   4.108   6.551
 7243SOL     OW22627   0.696   5.665   0.293
 7243SOL    HW122628   0.637   5.586   0.312
 7243SOL    HW222629   0.786   5.651   0.335
 7244SOL     OW22630   5.721   1.743   1.152
 7244SOL    HW122631   5.645   1.767   1.213
 7244SOL    HW222632   5.708   1.650   1.117
 7245SOL     OW22633   0.452   2.030   4.337
 7245SOL    HW122634   0.503   2.116   4.341
 7245SOL    HW222635   0.513   1.955   4.365
 7246SOL     OW22636   6.817   6.790   5.552
 7246SOL    HW122637   6.775   6.716   5.605
 7246SOL    HW222638   6.759   6.812   5.474
 7247SOL     OW22639   3.017   5.922   2.393
 7247SOL    HW122640   3.116   5.917   2.410
 7247SOL    HW222641   2.979   5.830   2.393
 7248SOL     OW22642   4.080   1.096   4.362
 7248SOL    HW122643   4.022   1.172   4.393
 7248SOL    HW222644   4.023   1.019   4.335
 7249SOL     OW22645   5.978   5.129   0.074
 7249SOL    HW122646   5.894   5.124   0.129
 7249SOL    HW222647   5.967   5.199   0.004
 7250SOL     OW22648   3.137   4.538   6.380
 7250SOL    HW122649   3.133   4.627   6.424
 7250SOL    HW222650   3.224   4.494   6.403
 7251SOL     OW22651   5.900   0.223   5.321
 7251SOL    HW122652   5.976   0.254   5.378
 7251SOL    HW222653   5.918   0.131   5.287
 7252SOL     OW22654   3.732   3.039   4.729
 7252SOL    HW122655   3.688   3.120   4.770
 7252SOL    HW222656   3.794   3.069   4.656
 7253SOL     OW22657   4.214   6.044   1.108
 7253SOL    HW122658   4.283   5.983   1.147
 7253SOL    HW222659   4.132   6.042   1.166
 7254SOL     OW22660   4.289   6.587   4.645
 7254SOL    HW122661   4.304   6.681   4.616
 7254SOL    HW222662   4.375   6.536   4.637
 7255SOL     OW22663   2.978   3.895   2.499
 7255SOL    HW122664   2.957   3.798   2.514
 7255SOL    HW222665   2.900   3.940   2.456
 7256SOL     OW22666   4.236   5.056   3.876
 7256SOL    HW122667   4.317   5.108   3.849
 7256SOL    HW222668   4.167   5.061   3.804
 7257SOL     OW22669   6.229   3.037   3.462
 7257SOL    HW122670   6.173   3.105   3.508
 7257SOL    HW222671   6.300   3.083   3.408
 7258SOL     OW22672   3.520   7.005   4.505
 7258SOL    HW122673   3.458   0.054   4.476
 7258SOL    HW222674   3.610   7.018   4.463
 7259SOL     OW22675   2.328   4.540   6.715
 7259SOL    HW122676   2.424   4.518   6.732
 7259SOL    HW222677   2.309   4.634   6.744
 7260SOL     OW22678   3.404   2.021   2.453
 7260SOL    HW122679   3.495   2.054   2.480
 7260SOL    HW222680   3.377   1.947   2.514
 7261SOL     OW22681   1.996   3.929   1.724
 7261SOL    HW122682   1.942   3.946   1.641
 7261SOL    HW222683   1.936   3.933   1.804
 7262SOL     OW22684   5.953   1.709   4.697
 7262SOL    HW122685   6.033   1.704   4.638
 7262SOL    HW222686   5.932   1.805   4.716
 7263SOL     OW22687   2.914   5.762   1.948
 7263SOL    HW122688   2.895   5.859   1.940
 7263SOL    HW222689   2.991   5.748   2.010
 7264SOL     OW22690   0.808   0.025   5.529
 7264SOL    HW122691   0.821   6.993   5.611
 7264SOL    HW222692   0.883   0.007   5.465
 7265SOL     OW22693   4.160   4.887   5.782
 7265SOL    HW122694   4.115   4.976   5.779
 7265SOL    HW222695   4.158   4.853   5.876
 7266SOL     OW22696   4.916   0.900   1.919
 7266SOL    HW122697   4.830   0.951   1.918
 7266SOL    HW222698   4.971   0.928   1.998
 7267SOL     OW22699   6.924   4.202   4.043
 7267SOL    HW122700   7.017   4.167   4.055
 7267SOL    HW222701   6.927   4.302   4.038
 7268SOL     OW22702   3.093   0.017   1.440
 7268SOL    HW122703   2.998   0.006   1.411
 7268SOL    HW222704   3.148   6.967   1.401
 7269SOL     OW22705   1.539   5.905   2.217
 7269SOL    HW122706   1.510   5.896   2.313
 7269SOL    HW222707   1.629   5.948   2.214
 7270SOL     OW22708   2.990   1.418   2.502
 7270SOL    HW122709   2.974   1.376   2.592
 7270SOL    HW222710   3.078   1.385   2.466
 7271SOL     OW22711   6.715   3.462   3.607
 7271SOL    HW122712   6.814   3.461   3.594
 7271SOL    HW222713   6.680   3.554   3.586
 7272SOL     OW22714   5.936   2.408   2.213
 7272SOL    HW122715   5.959   2.505   2.200
 7272SOL    HW222716   5.966   2.379   2.304
 7273SOL     OW22717   5.263   4.835   0.134
 7273SOL    HW122718   5.236   4.776   0.058
 7273SOL    HW222719   5.209   4.919   0.131
 7274SOL     OW22720   6.264   4.986   5.467
 7274SOL    HW122721   6.350   5.008   5.514
 7274SOL    HW222722   6.259   4.887   5.454
 7275SOL     OW22723   6.846   6.766   0.377
 7275SOL    HW122724   6.805   6.766   0.469
 7275SOL    HW222725   6.779   6.734   0.311
 7276SOL     OW22726   2.471   2.279   4.009
 7276SOL    HW122727   2.401   2.275   3.938
 7276SOL    HW222728   2.467   2.368   4.055
 7277SOL     OW22729   5.274   1.925   4.918
 7277SOL    HW122730   5.271   2.014   4.872
 7277SOL    HW222731   5.314   1.936   5.009
 7278SOL     OW22732   2.718   1.629   2.675
 7278SOL    HW122733   2.728   1.547   2.732
 7278SOL    HW222734   2.761   1.614   2.587
 7279SOL     OW22735   5.706   4.976   1.268
 7279SOL    HW122736   5.770   4.990   1.343
 7279SOL    HW222737   5.622   4.935   1.304
 7280SOL     OW22738   6.432   2.455   5.621
 7280SOL    HW122739   6.520   2.493   5.651
 7280SOL    HW222740   6.411   2.491   5.530
 7281SOL     OW22741   4.135   5.966   2.536
 7281SOL    HW122742   4.218   5.943   2.587
 7281SOL    HW222743   4.091   5.882   2.505
 7282SOL     OW22744   6.845   4.638   2.599
 7282SOL    HW122745   6.892   4.571   2.658
 7282SOL    HW222746   6.861   4.615   2.503
 7283SOL     OW22747   4.317   4.622   3.213
 7283SOL    HW122748   4.231   4.671   3.199
 7283SOL    HW222749   4.337   4.618   3.311
 7284SOL     OW22750   6.684   1.638   3.139
 7284SOL    HW122751   6.644   1.603   3.224
 7284SOL    HW222752   6.773   1.679   3.159
 7285SOL     OW22753   4.879   2.897   1.815
 7285SOL    HW122754   4.805   2.925   1.876
 7285SOL    HW222755   4.900   2.972   1.752
 7286SOL     OW22756   0.379   1.691   1.846
 7286SOL    HW122757   0.292   1.740   1.848
 7286SOL    HW222758   0.373   1.614   1.783
 7287SOL     OW22759   1.508   2.507   3.824
 7287SOL    HW122760   1.587   2.512   3.885
 7287SOL    HW222761   1.526   2.560   3.741
 7288SOL     OW22762   2.657   2.347   2.792
 7288SOL    HW122763   2.629   2.401   2.871
 7288SOL    HW222764   2.714   2.271   2.822
 7289SOL     OW22765   5.888   1.869   1.323
 7289SOL    HW122766   5.966   1.879   1.262
 7289SOL    HW222767   5.817   1.815   1.279
 7290SOL     OW22768   3.697   1.522   5.370
 7290SOL    HW122769   3.756   1.602   5.371
 7290SOL    HW222770   3.621   1.538   5.307
 7291SOL     OW22771   4.239   1.131   0.531
 7291SOL    HW122772   4.197   1.215   0.565
 7291SOL    HW222773   4.251   1.067   0.606
 7292SOL     OW22774   2.614   0.631   2.417
 7292SOL    HW122775   2.678   0.699   2.380
 7292SOL    HW222776   2.644   0.539   2.391
 7293SOL     OW22777   1.159   0.470   4.902
 7293SOL    HW122778   1.152   0.378   4.941
 7293SOL    HW222779   1.073   0.495   4.859
 7294SOL     OW22780   2.541   6.262   2.763
 7294SOL    HW122781   2.459   6.207   2.776
 7294SOL    HW222782   2.574   6.252   2.669
 7295SOL     OW22783   5.973   5.597   1.933
 7295SOL    HW122784   5.912   5.538   1.880
 7295SOL    HW222785   5.943   5.598   2.029
 7296SOL     OW22786   4.952   4.909   2.256
 7296SOL    HW122787   5.002   4.874   2.177
 7296SOL    HW222788   4.855   4.887   2.247
 7297SOL     OW22789   4.521   6.207   1.389
 7297SOL    HW122790   4.486   6.191   1.297
 7297SOL    HW222791   4.487   6.295   1.423
 7298SOL     OW22792   4.408   5.426   0.019
 7298SOL    HW122793   4.497   5.418   6.998
 7298SOL    HW222794   4.419   5.471   0.108
 7299SOL     OW22795   1.167   2.523   6.457
 7299SOL    HW122796   1.120   2.475   6.383
 7299SOL    HW222797   1.108   2.597   6.492
 7300SOL     OW22798   0.458   5.253   1.983
 7300SOL    HW122799   0.453   5.328   1.917
 7300SOL    HW222800   0.550   5.247   2.020
 7301SOL     OW22801   4.719   0.958   5.390
 7301SOL    HW122802   4.735   1.023   5.463
 7301SOL    HW222803   4.653   0.997   5.325
 7302SOL     OW22804   5.260   1.419   5.852
 7302SOL    HW122805   5.285   1.516   5.849
 7302SOL    HW222806   5.167   1.410   5.887
 7303SOL     OW22807   1.841   1.413   1.678
 7303SOL    HW122808   1.744   1.400   1.661
 7303SOL    HW222809   1.860   1.510   1.694
 7304SOL     OW22810   3.058   5.612   1.742
 7304SOL    HW122811   3.034   5.655   1.828
 7304SOL    HW222812   3.001   5.531   1.728
 7305SOL     OW22813   6.411   1.583   0.321
 7305SOL    HW122814   6.507   1.608   0.311
 7305SOL    HW222815   6.400   1.485   0.308
 7306SOL     OW22816   1.590   2.380   1.905
 7306SOL    HW122817   1.605   2.460   1.963
 7306SOL    HW222818   1.638   2.392   1.818
 7307SOL     OW22819   2.331   0.339   1.618
 7307SOL    HW122820   2.393   0.407   1.578
 7307SOL    HW222821   2.360   0.247   1.591
 7308SOL     OW22822   5.112   1.019   3.290
 7308SOL    HW122823   5.101   1.063   3.379
 7308SOL    HW222824   5.081   1.081   3.218
 7309SOL     OW22825   1.956   5.253   3.362
 7309SOL    HW122826   2.050   5.223   3.345
 7309SOL    HW222827   1.941   5.260   3.460
 7310SOL     OW22828   2.889   2.457   6.183
 7310SOL    HW122829   2.842   2.384   6.232
 7310SOL    HW222830   2.971   2.421   6.138
 7311SOL     OW22831   7.012   6.459   6.964
 7311SOL    HW122832   6.962   6.538   6.930
 7311SOL    HW222833   6.959   6.376   6.948
 7312SOL     OW22834   6.868   2.141   4.153
 7312SOL    HW122835   6.965   2.118   4.142
 7312SOL    HW222836   6.813   2.059   4.143
 7313SOL     OW22837   2.686   0.364   2.325
 7313SOL    HW122838   2.770   0.312   2.316
 7313SOL    HW222839   2.616   0.307   2.368
 7314SOL     OW22840   0.795   4.273   6.587
 7314SOL    HW122841   0.798   4.245   6.683
 7314SOL    HW222842   0.704   4.310   6.566
 7315SOL     OW22843   1.503   4.277   2.262
 7315SOL    HW122844   1.595   4.253   2.291
 7315SOL    HW222845   1.488   4.375   2.275
 7316SOL     OW22846   3.225   2.149   0.813
 7316SOL    HW122847   3.245   2.051   0.805
 7316SOL    HW222848   3.212   2.188   0.722
 7317SOL     OW22849   3.893   1.117   0.935
 7317SOL    HW122850   3.827   1.084   0.868
 7317SOL    HW222851   3.914   1.213   0.918
 7318SOL     OW22852   3.894   6.665   0.356
 7318SOL    HW122853   3.942   6.723   0.291
 7318SOL    HW222854   3.899   6.569   0.327
 7319SOL     OW22855   5.520   4.666   6.740
 7319SOL    HW122856   5.451   4.734   6.764
 7319SOL    HW222857   5.489   4.612   6.662
 7320SOL     OW22858   0.267   2.665   1.593
 7320SOL    HW122859   0.294   2.692   1.501
 7320SOL    HW222860   0.327   2.708   1.660
 7321SOL     OW22861   1.964   0.332   6.741
 7321SOL    HW122862   2.046   0.281   6.770
 7321SOL    HW222863   1.960   0.419   6.789
 7322SOL     OW22864   0.836   2.590   2.864
 7322SOL    HW122865   0.763   2.650   2.897
 7322SOL    HW222866   0.806   2.546   2.779
 7323SOL     OW22867   1.263   2.626   1.378
 7323SOL    HW122868   1.213   2.629   1.292
 7323SOL    HW222869   1.325   2.704   1.384
 7324SOL     OW22870   5.576   5.006   3.010
 7324SOL    HW122871   5.501   4.981   3.071
 7324SOL    HW222872   5.550   5.086   2.956
 7325SOL     OW22873   4.398   1.362   5.917
 7325SOL    HW122874   4.439   1.453   5.917
 7325SOL    HW222875   4.301   1.369   5.890
 7326SOL     OW22876   3.602   6.950   0.510
 7326SOL    HW122877   3.503   6.940   0.497
 7326SOL    HW222878   3.631   0.016   0.474
 7327SOL     OW22879   0.873   3.851   3.658
 7327SOL    HW122880   0.939   3.794   3.707
 7327SOL    HW222881   0.895   3.851   3.560
 7328SOL     OW22882   4.200   4.819   4.560
 7328SOL    HW122883   4.121   4.880   4.550
 7328SOL    HW222884   4.201   4.754   4.484
 7329SOL     OW22885   3.343   3.483   1.476
 7329SOL    HW122886   3.335   3.400   1.420
 7329SOL    HW222887   3.257   3.499   1.525
 7330SOL     OW22888   2.870   2.841   1.682
 7330SOL    HW122889   2.911   2.900   1.752
 7330SOL    HW222890   2.870   2.888   1.594
 7331SOL     OW22891   5.144   0.695   3.014
 7331SOL    HW122892   5.204   0.629   2.969
 7331SOL    HW222893   5.182   0.717   3.104
 7332SOL     OW22894   3.456   5.490   6.020
 7332SOL    HW122895   3.537   5.483   6.078
 7332SOL    HW222896   3.448   5.408   5.963
 7333SOL     OW22897   0.197   2.052   0.997
 7333SOL    HW122898   0.293   2.024   0.998
 7333SOL    HW222899   0.170   2.071   0.902
 7334SOL     OW22900   2.579   0.039   4.126
 7334SOL    HW122901   2.664   0.045   4.178
 7334SOL    HW222902   2.538   6.972   4.140
 7335SOL     OW22903   6.438   3.258   2.133
 7335SOL    HW122904   6.415   3.161   2.137
 7335SOL    HW222905   6.420   3.293   2.041
 7336SOL     OW22906   1.794   6.664   2.347
 7336SOL    HW122907   1.801   6.678   2.446
 7336SOL    HW222908   1.860   6.723   2.300
 7337SOL     OW22909   2.132   2.059   3.429
 7337SOL    HW122910   2.047   2.097   3.394
 7337SOL    HW222911   2.112   1.980   3.488
 7338SOL     OW22912   5.836   2.798   1.605
 7338SOL    HW122913   5.756   2.792   1.665
 7338SOL    HW222914   5.898   2.868   1.639
 7339SOL     OW22915   6.271   5.205   4.375
 7339SOL    HW122916   6.251   5.181   4.470
 7339SOL    HW222917   6.255   5.303   4.361
 7340SOL     OW22918   2.529   0.105   0.744
 7340SOL    HW122919   2.626   0.097   0.763
 7340SOL    HW222920   2.480   0.027   0.784
 7341SOL     OW22921   5.893   5.049   4.496
 7341SOL    HW122922   5.913   5.075   4.402
 7341SOL    HW222923   5.908   4.951   4.508
 7342SOL     OW22924   0.572   5.763   0.614
 7342SOL    HW122925   0.476   5.774   0.592
 7342SOL    HW222926   0.625   5.754   0.529
 7343SOL     OW22927   5.631   3.637   2.457
 7343SOL    HW122928   5.665   3.548   2.428
 7343SOL    HW222929   5.567   3.672   2.387
 7344SOL     OW22930   1.527   6.931   0.143
 7344SOL    HW122931   1.540   6.934   0.043
 7344SOL    HW222932   1.470   7.009   0.171
 7345SOL     OW22933   3.981   5.809   6.859
 7345SOL    HW122934   3.948   5.725   6.902
 7345SOL    HW222935   3.906   5.876   6.855
 7346SOL     OW22936   3.864   4.733   1.654
 7346SOL    HW122937   3.947   4.682   1.677
 7346SOL    HW222938   3.839   4.793   1.730
 7347SOL     OW22939   6.108   1.674   3.474
 7347SOL    HW122940   6.010   1.652   3.473
 7347SOL    HW222941   6.158   1.602   3.523
 7348SOL     OW22942   1.300   1.731   3.315
 7348SOL    HW122943   1.213   1.744   3.363
 7348SOL    HW222944   1.301   1.640   3.274
 7349SOL     OW22945   3.195   1.262   0.565
 7349SOL    HW122946   3.124   1.232   0.629
 7349SOL    HW222947   3.200   1.197   0.489
 7350SOL     OW22948   2.392   1.650   2.958
 7350SOL    HW122949   2.341   1.580   2.909
 7350SOL    HW222950   2.425   1.612   3.045
 7351SOL     OW22951   4.067   4.348   6.416
 7351SOL    HW122952   3.987   4.317   6.467
 7351SOL    HW222953   4.060   4.446   6.398
 7352SOL     OW22954   0.444   1.494   2.104
 7352SOL    HW122955   0.401   1.519   2.017
 7352SOL    HW222956   0.378   1.445   2.160
 7353SOL     OW22957   5.183   2.436   5.424
 7353SOL    HW122958   5.281   2.441   5.409
 7353SOL    HW222959   5.143   2.368   5.363
 7354SOL     OW22960   5.742   4.528   5.955
 7354SOL    HW122961   5.825   4.564   5.912
 7354SOL    HW222962   5.767   4.463   6.027
 7355SOL     OW22963   1.600   5.214   2.101
 7355SOL    HW122964   1.551   5.164   2.029
 7355SOL    HW222965   1.698   5.202   2.089
 7356SOL     OW22966   6.135   1.713   5.650
 7356SOL    HW122967   6.193   1.783   5.690
 7356SOL    HW222968   6.134   1.723   5.550
 7357SOL     OW22969   6.592   1.822   6.952
 7357SOL    HW122970   6.669   1.758   6.953
 7357SOL    HW222971   6.621   1.909   6.993
 7358SOL     OW22972   3.439   1.040   3.745
 7358SOL    HW122973   3.430   0.959   3.687
 7358SOL    HW222974   3.349   1.081   3.760
 7359SOL     OW22975   3.879   3.172   3.582
 7359SOL    HW122976   3.979   3.173   3.580
 7359SOL    HW222977   3.847   3.079   3.565
 7360SOL     OW22978   0.683   2.766   5.254
 7360SOL    HW122979   0.752   2.830   5.220
 7360SOL    HW222980   0.612   2.755   5.184
 7361SOL     OW22981   5.244   6.144   2.274
 7361SOL    HW122982   5.172   6.130   2.343
 7361SOL    HW222983   5.275   6.239   2.279
 7362SOL     OW22984   1.926   5.861   6.091
 7362SOL    HW122985   2.017   5.821   6.106
 7362SOL    HW222986   1.858   5.789   6.085
 7363SOL     OW22987   4.884   2.964   6.416
 7363SOL    HW122988   4.816   2.923   6.356
 7363SOL    HW222989   4.873   3.064   6.416
 7364SOL     OW22990   4.249   6.487   1.689
 7364SOL    HW122991   4.180   6.545   1.645
 7364SOL    HW222992   4.333   6.538   1.702
 7365SOL     OW22993   3.441   0.441   2.542
 7365SOL    HW122994   3.360   0.437   2.484
 7365SOL    HW222995   3.462   0.536   2.564
 7366SOL     OW22996   1.153   5.290   6.699
 7366SOL    HW122997   1.191   5.206   6.738
 7366SOL    HW222998   1.055   5.279   6.687
 7367SOL     OW22999   4.714   3.679   0.953
 7367SOL    HW123000   4.715   3.592   1.002
 7367SOL    HW223001   4.620   3.708   0.939
 7368SOL     OW23002   2.979   4.019   4.880
 7368SOL    HW123003   3.042   4.091   4.852
 7368SOL    HW223004   2.890   4.059   4.903
 7369SOL     OW23005   4.006   3.504   0.292
 7369SOL    HW123006   4.045   3.560   0.365
 7369SOL    HW223007   4.072   3.435   0.264
 7370SOL     OW23008   2.187   6.397   1.190
 7370SOL    HW123009   2.106   6.343   1.170
 7370SOL    HW223010   2.266   6.336   1.201
 7371SOL     OW23011   2.205   5.033   4.796
 7371SOL    HW123012   2.111   5.012   4.770
 7371SOL    HW223013   2.240   4.961   4.856
 7372SOL     OW23014   3.465   0.409   5.649
 7372SOL    HW123015   3.521   0.417   5.732
 7372SOL    HW223016   3.509   0.347   5.585
 7373SOL     OW23017   3.959   0.943   1.684
 7373SOL    HW123018   4.023   0.873   1.717
 7373SOL    HW223019   3.940   0.927   1.587
 7374SOL     OW23020   1.734   2.908   6.382
 7374SOL    HW123021   1.828   2.941   6.378
 7374SOL    HW223022   1.703   2.906   6.477
 7375SOL     OW23023   1.695   0.522   3.800
 7375SOL    HW123024   1.621   0.553   3.860
 7375SOL    HW223025   1.720   0.429   3.824
 7376SOL     OW23026   2.174   3.706   6.644
 7376SOL    HW123027   2.234   3.644   6.594
 7376SOL    HW223028   2.205   3.713   6.739
 7377SOL     OW23029   4.249   4.484   1.171
 7377SOL    HW123030   4.283   4.391   1.187
 7377SOL    HW223031   4.215   4.491   1.078
 7378SOL     OW23032   6.846   1.032   5.085
 7378SOL    HW123033   6.887   1.121   5.108
 7378SOL    HW223034   6.789   1.001   5.160
 7379SOL     OW23035   3.813   1.378   1.695
 7379SOL    HW123036   3.733   1.377   1.755
 7379SOL    HW223037   3.802   1.451   1.627
 7380SOL     OW23038   0.241   3.508   6.489
 7380SOL    HW123039   0.187   3.524   6.406
 7380SOL    HW223040   0.337   3.530   6.472
 7381SOL     OW23041   5.077   1.745   1.309
 7381SOL    HW123042   5.114   1.714   1.222
 7381SOL    HW223043   5.039   1.837   1.298
 7382SOL     OW23044   0.123   5.703   4.332
 7382SOL    HW123045   0.128   5.802   4.343
 7382SOL    HW223046   0.141   5.679   4.237
 7383SOL     OW23047   6.988   6.030   3.115
 7383SOL    HW123048   6.925   6.105   3.094
 7383SOL    HW223049   0.059   6.061   3.097
 7384SOL     OW23050   5.377   0.027   2.388
 7384SOL    HW123051   5.459   0.032   2.444
 7384SOL    HW223052   5.298   0.057   2.442
 7385SOL     OW23053   4.960   6.066   1.546
 7385SOL    HW123054   5.044   6.020   1.519
 7385SOL    HW223055   4.949   6.063   1.645
 7386SOL     OW23056   0.922   2.028   5.248
 7386SOL    HW123057   0.963   2.006   5.159
 7386SOL    HW223058   0.943   2.123   5.271
 7387SOL     OW23059   4.064   6.023   3.178
 7387SOL    HW123060   4.067   6.116   3.215
 7387SOL    HW223061   4.102   5.959   3.245
 7388SOL     OW23062   6.325   5.121   3.615
 7388SOL    HW123063   6.291   5.167   3.533
 7388SOL    HW223064   6.343   5.025   3.594
 7389SOL     OW23065   1.385   3.999   5.967
 7389SOL    HW123066   1.334   3.918   5.941
 7389SOL    HW223067   1.481   3.976   5.979
 7390SOL     OW23068   1.453   6.768   5.088
 7390SOL    HW123069   1.536   6.807   5.048
 7390SOL    HW223070   1.376   6.828   5.070
 7391SOL     OW23071   5.859   3.237   6.685
 7391SOL    HW123072   5.933   3.271   6.742
 7391SOL    HW223073   5.830   3.148   6.717
 7392SOL     OW23074   1.363   4.573   4.369
 7392SOL    HW123075   1.418   4.508   4.420
 7392SOL    HW223076   1.375   4.665   4.408
 7393SOL     OW23077   0.259   3.864   2.620
 7393SOL    HW123078   0.170   3.901   2.645
 7393SOL    HW223079   0.330   3.904   2.678
 7394SOL     OW23080   3.675   3.906   6.592
 7394SOL    HW123081   3.637   3.941   6.678
 7394SOL    HW223082   3.611   3.841   6.551
 7395SOL     OW23083   0.803   0.056   0.645
 7395SOL    HW123084   0.893   0.014   0.650
 7395SOL    HW223085   0.770   0.077   0.737
 7396SOL     OW23086   0.788   0.228   6.608
 7396SOL    HW123087   0.887   0.223   6.594
 7396SOL    HW223088   0.756   0.320   6.587
 7397SOL     OW23089   5.787   4.957   5.148
 7397SOL    HW123090   5.692   4.985   5.162
 7397SOL    HW223091   5.825   5.003   5.068
 7398SOL     OW23092   4.455   4.578   3.856
 7398SOL    HW123093   4.462   4.551   3.952
 7398SOL    HW223094   4.533   4.541   3.806
 7399SOL     OW23095   5.105   3.921   5.750
 7399SOL    HW123096   5.111   3.844   5.687
 7399SOL    HW223097   5.046   3.897   5.827
 7400SOL     OW23098   2.378   5.522   6.576
 7400SOL    HW123099   2.464   5.547   6.533
 7400SOL    HW223100   2.365   5.578   6.658
 7401SOL     OW23101   6.953   1.951   3.856
 7401SOL    HW123102   0.006   2.014   3.844
 7401SOL    HW223103   6.925   1.949   3.952
 7402SOL     OW23104   2.838   0.550   3.755
 7402SOL    HW123105   2.843   0.466   3.809
 7402SOL    HW223106   2.811   0.528   3.661
 7403SOL     OW23107   1.906   3.843   2.779
 7403SOL    HW123108   1.988   3.786   2.770
 7403SOL    HW223109   1.837   3.812   2.714
 7404SOL     OW23110   1.656   0.103   1.762
 7404SOL    HW123111   1.654   0.194   1.805
 7404SOL    HW223112   1.580   0.096   1.697
 7405SOL     OW23113   2.926   4.833   5.936
 7405SOL    HW123114   2.922   4.834   6.036
 7405SOL    HW223115   3.021   4.824   5.906
 7406SOL     OW23116   0.655   4.822   1.549
 7406SOL    HW123117   0.596   4.747   1.519
 7406SOL    HW223118   0.685   4.875   1.469
 7407SOL     OW23119   1.509   6.372   6.330
 7407SOL    HW123120   1.421   6.359   6.284
 7407SOL    HW223121   1.507   6.325   6.418
 7408SOL     OW23122   1.823   4.393   5.964
 7408SOL    HW123123   1.753   4.461   5.985
 7408SOL    HW223124   1.836   4.388   5.865
 7409SOL     OW23125   2.108   5.378   5.208
 7409SOL    HW123126   2.094   5.435   5.290
 7409SOL    HW223127   2.204   5.382   5.181
 7410SOL     OW23128   6.886   4.831   0.913
 7410SOL    HW123129   6.862   4.833   1.011
 7410SOL    HW223130   6.923   4.919   0.886
 7411SOL     OW23131   3.939   6.035   5.036
 7411SOL    HW123132   3.889   6.073   4.959
 7411SOL    HW223133   3.953   6.105   5.105
 7412SOL     OW23134   1.037   1.714   0.213
 7412SOL    HW123135   0.947   1.691   0.249
 7412SOL    HW223136   1.028   1.760   0.125
 7413SOL     OW23137   6.312   3.935   4.944
 7413SOL    HW123138   6.227   3.925   4.892
 7413SOL    HW223139   6.369   3.853   4.931
 7414SOL     OW23140   6.819   0.040   2.305
 7414SOL    HW123141   6.814   0.101   2.225
 7414SOL    HW223142   6.913   0.032   2.335
 7415SOL     OW23143   2.036   2.618   3.492
 7415SOL    HW123144   1.991   2.564   3.563
 7415SOL    HW223145   1.969   2.675   3.446
 7416SOL     OW23146   3.663   0.794   4.150
 7416SOL    HW123147   3.663   0.695   4.136
 7416SOL    HW223148   3.582   0.834   4.106
 7417SOL     OW23149   1.280   6.359   0.071
 7417SOL    HW123150   1.319   6.448   0.095
 7417SOL    HW223151   1.327   6.323   7.014
 7418SOL     OW23152   1.832   3.600   0.884
 7418SOL    HW123153   1.870   3.549   0.806
 7418SOL    HW223154   1.895   3.673   0.909
 7419SOL     OW23155   6.442   0.936   4.847
 7419SOL    HW123156   6.371   0.866   4.856
 7419SOL    HW223157   6.418   0.998   4.772
 7420SOL     OW23158   6.859   6.309   1.673
 7420SOL    HW123159   6.836   6.404   1.655
 7420SOL    HW223160   6.812   6.250   1.607
 7421SOL     OW23161   4.131   3.621   1.301
 7421SOL    HW123162   4.201   3.599   1.233
 7421SOL    HW223163   4.063   3.682   1.261
 7422SOL     OW23164   0.178   3.248   0.323
 7422SOL    HW123165   0.165   3.160   0.367
 7422SOL    HW223166   0.246   3.302   0.373
 7423SOL     OW23167   1.658   5.167   6.680
 7423SOL    HW123168   1.669   5.266   6.690
 7423SOL    HW223169   1.744   5.127   6.648
 7424SOL     OW23170   5.448   0.840   4.552
 7424SOL    HW123171   5.509   0.789   4.613
 7424SOL    HW223172   5.502   0.900   4.494
 7425SOL     OW23173   3.623   5.892   5.817
 7425SOL    HW123174   3.616   5.990   5.799
 7425SOL    HW223175   3.533   5.856   5.841
 7426SOL     OW23176   1.050   1.307   6.602
 7426SOL    HW123177   1.021   1.355   6.518
 7426SOL    HW223178   1.047   1.208   6.586
 7427SOL     OW23179   4.280   5.217   4.583
 7427SOL    HW123180   4.210   5.207   4.653
 7427SOL    HW223181   4.254   5.165   4.502
 7428SOL     OW23182   3.662   1.945   6.009
 7428SOL    HW123183   3.699   2.009   5.942
 7428SOL    HW223184   3.578   1.982   6.048
 7429SOL     OW23185   0.291   0.465   2.825
 7429SOL    HW123186   0.266   0.453   2.921
 7429SOL    HW223187   0.208   0.461   2.768
 7430SOL     OW23188   6.282   3.934   5.218
 7430SOL    HW123189   6.304   3.948   5.121
 7430SOL    HW223190   6.187   3.902   5.226
 7431SOL     OW23191   0.799   4.545   2.167
 7431SOL    HW123192   0.894   4.566   2.191
 7431SOL    HW223193   0.742   4.551   2.249
 7432SOL     OW23194   0.725   6.483   5.225
 7432SOL    HW123195   0.806   6.426   5.238
 7432SOL    HW223196   0.712   6.503   5.128
 7433SOL     OW23197   6.320   5.431   0.558
 7433SOL    HW123198   6.242   5.383   0.519
 7433SOL    HW223199   6.396   5.367   0.571
 7434SOL     OW23200   4.142   1.434   6.059
 7434SOL    HW123201   4.058   1.408   6.106
 7434SOL    HW223202   4.141   1.532   6.039
 7435SOL     OW23203   2.359   6.568   0.129
 7435SOL    HW123204   2.272   6.576   0.081
 7435SOL    HW223205   2.349   6.606   0.221
 7436SOL     OW23206   4.890   3.183   0.484
 7436SOL    HW123207   4.987   3.161   0.485
 7436SOL    HW223208   4.844   3.136   0.560
 7437SOL     OW23209   0.920   6.058   5.794
 7437SOL    HW123210   0.846   6.090   5.736
 7437SOL    HW223211   0.984   6.134   5.810
 7438SOL     OW23212   6.902   4.877   1.692
 7438SOL    HW123213   6.853   4.897   1.777
 7438SOL    HW223214   6.959   4.796   1.705
 7439SOL     OW23215   2.349   0.301   3.765
 7439SOL    HW123216   2.399   0.229   3.813
 7439SOL    HW223217   2.291   0.261   3.694
 7440SOL     OW23218   1.565   2.647   4.422
 7440SOL    HW123219   1.505   2.576   4.384
 7440SOL    HW223220   1.643   2.661   4.360
 7441SOL     OW23221   5.429   1.123   4.119
 7441SOL    HW123222   5.512   1.072   4.096
 7441SOL    HW223223   5.387   1.157   4.034
 7442SOL     OW23224   1.147   0.913   6.563
 7442SOL    HW123225   1.120   0.990   6.505
 7442SOL    HW223226   1.095   0.916   6.649
 7443SOL     OW23227   0.494   1.389   6.836
 7443SOL    HW123228   0.564   1.381   6.907
 7443SOL    HW223229   0.533   1.436   6.756
 7444SOL     OW23230   0.709   2.931   6.593
 7444SOL    HW123231   0.700   2.832   6.598
 7444SOL    HW223232   0.738   2.958   6.501
 7445SOL     OW23233   5.353   1.781   1.973
 7445SOL    HW123234   5.334   1.685   1.951
 7445SOL    HW223235   5.351   1.836   1.890
 7446SOL     OW23236   6.584   4.013   0.682
 7446SOL    HW123237   6.600   3.959   0.764
 7446SOL    HW223238   6.647   4.091   0.679
 7447SOL     OW23239   1.146   3.828   6.141
 7447SOL    HW123240   1.124   3.924   6.160
 7447SOL    HW223241   1.090   3.796   6.065
 7448SOL     OW23242   6.775   0.176   5.860
 7448SOL    HW123243   6.736   0.098   5.909
 7448SOL    HW223244   6.849   0.216   5.914
 7449SOL     OW23245   5.601   2.035   2.212
 7449SOL    HW123246   5.591   1.950   2.160
 7449SOL    HW223247   5.644   2.015   2.300
 7450SOL     OW23248   4.523   1.888   3.205
 7450SOL    HW123249   4.609   1.865   3.250
 7450SOL    HW223250   4.535   1.971   3.150
 7451SOL     OW23251   2.193   0.622   4.150
 7451SOL    HW123252   2.185   0.524   4.132
 7451SOL    HW223253   2.263   0.638   4.220
 7452SOL     OW23254   1.952   6.380   4.870
 7452SOL    HW123255   1.997   6.296   4.838
 7452SOL    HW223256   1.992   6.408   4.957
 7453SOL     OW23257   5.312   6.428   4.378
 7453SOL    HW123258   5.329   6.450   4.474
 7453SOL    HW223259   5.235   6.364   4.371
 7454SOL     OW23260   0.974   4.012   1.405
 7454SOL    HW123261   0.971   4.047   1.499
 7454SOL    HW223262   1.020   3.923   1.405
 7455SOL     OW23263   4.633   2.561   0.335
 7455SOL    HW123264   4.708   2.540   0.397
 7455SOL    HW223265   4.546   2.538   0.378
 7456SOL     OW23266   1.727   3.589   4.922
 7456SOL    HW123267   1.682   3.637   4.847
 7456SOL    HW223268   1.743   3.494   4.896
 7457SOL     OW23269   6.321   0.943   5.343
 7457SOL    HW123270   6.327   0.872   5.273
 7457SOL    HW223271   6.258   0.914   5.415
 7458SOL     OW23272   2.658   1.189   0.859
 7458SOL    HW123273   2.710   1.169   0.943
 7458SOL    HW223274   2.561   1.198   0.882
 7459SOL     OW23275   4.504   0.636   4.830
 7459SOL    HW123276   4.518   0.538   4.818
 7459SOL    HW223277   4.527   0.662   4.924
 7460SOL     OW23278   0.698   4.350   0.467
 7460SOL    HW123279   0.779   4.303   0.432
 7460SOL    HW223280   0.669   4.307   0.552
 7461SOL     OW23281   5.196   0.924   4.702
 7461SOL    HW123282   5.228   1.018   4.691
 7461SOL    HW223283   5.268   0.861   4.674
 7462SOL     OW23284   2.007   1.912   2.531
 7462SOL    HW123285   2.095   1.878   2.499
 7462SOL    HW223286   2.021   1.973   2.610
 7463SOL     OW23287   3.966   3.877   2.221
 7463SOL    HW123288   3.982   3.896   2.124
 7463SOL    HW223289   4.033   3.810   2.254
 7464SOL     OW23290   4.991   6.267   0.662
 7464SOL    HW123291   4.978   6.259   0.761
 7464SOL    HW223292   4.941   6.193   0.617
 7465SOL     OW23293   2.793   0.220   1.433
 7465SOL    HW123294   2.764   0.303   1.385
 7465SOL    HW223295   2.759   0.222   1.527
 7466SOL     OW23296   0.469   0.481   0.253
 7466SOL    HW123297   0.558   0.447   0.286
 7466SOL    HW223298   0.433   0.418   0.185
 7467SOL     OW23299   0.149   1.666   1.074
 7467SOL    HW123300   0.171   1.693   0.981
 7467SOL    HW223301   0.133   1.567   1.078
 7468SOL     OW23302   6.090   1.527   2.831
 7468SOL    HW123303   6.126   1.481   2.750
 7468SOL    HW223304   5.990   1.536   2.823
 7469SOL     OW23305   1.217   0.797   0.962
 7469SOL    HW123306   1.264   0.717   0.926
 7469SOL    HW223307   1.118   0.783   0.958
 7470SOL     OW23308   6.990   2.354   2.593
 7470SOL    HW123309   0.029   2.432   2.604
 7470SOL    HW223310   0.020   2.272   2.572
 7471SOL     OW23311   6.170   6.746   5.678
 7471SOL    HW123312   6.155   6.669   5.615
 7471SOL    HW223313   6.092   6.756   5.738
 7472SOL     OW23314   3.526   0.341   3.741
 7472SOL    HW123315   3.445   0.288   3.765
 7472SOL    HW223316   3.544   0.410   3.811
 7473SOL     OW23317   6.852   3.760   4.141
 7473SOL    HW123318   6.755   3.749   4.120
 7473SOL    HW223319   6.862   3.790   4.236
 7474SOL     OW23320   3.813   0.916   3.043
 7474SOL    HW123321   3.801   0.995   3.103
 7474SOL    HW223322   3.789   0.832   3.092
 7475SOL     OW23323   3.612   0.987   1.038
 7475SOL    HW123324   3.698   1.038   1.039
 7475SOL    HW223325   3.570   0.993   0.947
 7476SOL     OW23326   3.417   6.707   4.166
 7476SOL    HW123327   3.516   6.717   4.176
 7476SOL    HW223328   3.395   6.613   4.142
 7477SOL     OW23329   4.047   1.373   3.895
 7477SOL    HW123330   4.013   1.399   3.985
 7477SOL    HW223331   4.098   1.449   3.855
 7478SOL     OW23332   1.843   4.422   0.502
 7478SOL    HW123333   1.886   4.511   0.519
 7478SOL    HW223334   1.744   4.433   0.495
 7479SOL     OW23335   4.605   0.922   6.720
 7479SOL    HW123336   4.678   0.863   6.755
 7479SOL    HW223337   4.635   1.017   6.720
 7480SOL     OW23338   6.691   5.265   1.149
 7480SOL    HW123339   6.619   5.283   1.215
 7480SOL    HW223340   6.780   5.271   1.195
 7481SOL     OW23341   5.511   5.175   0.781
 7481SOL    HW123342   5.460   5.182   0.696
 7481SOL    HW223343   5.600   5.220   0.770
 7482SOL     OW23344   4.913   0.584   2.915
 7482SOL    HW123345   4.851   0.647   2.962
 7482SOL    HW223346   5.008   0.607   2.938
 7483SOL     OW23347   3.694   1.018   4.959
 7483SOL    HW123348   3.759   1.083   4.920
 7483SOL    HW223349   3.648   1.060   5.038
 7484SOL     OW23350   1.705   6.404   2.397
 7484SOL    HW123351   1.738   6.499   2.393
 7484SOL    HW223352   1.605   6.404   2.386
 7485SOL     OW23353   2.990   5.928   6.302
 7485SOL    HW123354   3.034   5.847   6.341
 7485SOL    HW223355   3.021   5.941   6.208
 7486SOL     OW23356   3.037   6.456   5.778
 7486SOL    HW123357   2.977   6.511   5.720
 7486SOL    HW223358   3.010   6.360   5.773
 7487SOL     OW23359   3.342   6.388   4.359
 7487SOL    HW123360   3.299   6.321   4.299
 7487SOL    HW223361   3.278   6.414   4.432
 7488SOL     OW23362   4.097   0.314   6.229
 7488SOL    HW123363   4.022   0.294   6.165
 7488SOL    HW223364   4.157   0.234   6.236
 7489SOL     OW23365   5.146   3.087   3.908
 7489SOL    HW123366   5.177   3.155   3.974
 7489SOL    HW223367   5.050   3.065   3.925
 7490SOL     OW23368   5.224   0.778   1.237
 7490SOL    HW123369   5.299   0.837   1.211
 7490SOL    HW223370   5.188   0.806   1.326
 7491SOL     OW23371   6.436   5.970   6.337
 7491SOL    HW123372   6.483   5.883   6.327
 7491SOL    HW223373   6.450   6.005   6.430
 7492SOL     OW23374   1.792   2.515   5.070
 7492SOL    HW123375   1.798   2.613   5.089
 7492SOL    HW223376   1.871   2.486   5.015
 7493SOL     OW23377   5.544   3.582   6.419
 7493SOL    HW123378   5.635   3.558   6.453
 7493SOL    HW223379   5.536   3.555   6.323
 7494SOL     OW23380   5.418   6.961   2.099
 7494SOL    HW123381   5.338   7.004   2.056
 7494SOL    HW223382   5.420   6.984   2.196
 7495SOL     OW23383   1.762   2.116   0.824
 7495SOL    HW123384   1.766   2.040   0.759
 7495SOL    HW223385   1.832   2.183   0.802
 7496SOL     OW23386   1.125   4.533   5.880
 7496SOL    HW123387   1.164   4.503   5.794
 7496SOL    HW223388   1.051   4.471   5.907
 7497SOL     OW23389   1.749   4.260   2.373
 7497SOL    HW123390   1.789   4.170   2.391
 7497SOL    HW223391   1.821   4.322   2.341
 7498SOL     OW23392   3.690   1.813   4.706
 7498SOL    HW123393   3.777   1.793   4.660
 7498SOL    HW223394   3.664   1.736   4.764
 7499SOL     OW23395   5.453   6.835   4.340
 7499SOL    HW123396   5.486   6.929   4.345
 7499SOL    HW223397   5.456   6.804   4.246
 7500SOL     OW23398   4.673   5.883   1.649
 7500SOL    HW123399   4.674   5.977   1.683
 7500SOL    HW223400   4.580   5.847   1.651
 7501SOL     OW23401   0.254   4.107   3.951
 7501SOL    HW123402   0.214   4.023   3.987
 7501SOL    HW223403   0.348   4.090   3.921
 7502SOL     OW23404   2.784   1.034   5.275
 7502SOL    HW123405   2.768   1.133   5.277
 7502SOL    HW223406   2.845   1.008   5.350
 7503SOL     OW23407   2.976   1.318   0.304
 7503SOL    HW123408   3.057   1.355   0.259
 7503SOL    HW223409   2.899   1.379   0.290
 7504SOL     OW23410   3.772   6.701   3.341
 7504SOL    HW123411   3.687   6.753   3.351
 7504SOL    HW223412   3.848   6.756   3.374
 7505SOL     OW23413   1.757   1.442   4.765
 7505SOL    HW123414   1.810   1.523   4.739
 7505SOL    HW223415   1.757   1.377   4.689
 7506SOL     OW23416   3.544   0.789   2.369
 7506SOL    HW123417   3.619   0.856   2.372
 7506SOL    HW223418   3.581   0.698   2.350
 7507SOL     OW23419   0.627   6.067   6.222
 7507SOL    HW123420   0.583   6.076   6.312
 7507SOL    HW223421   0.696   6.139   6.212
 7508SOL     OW23422   6.033   6.939   2.662
 7508SOL    HW123423   5.933   6.934   2.665
 7508SOL    HW223424   6.068   6.869   2.599
 7509SOL     OW23425   4.945   3.464   5.996
 7509SOL    HW123426   4.870   3.505   5.944
 7509SOL    HW223427   4.994   3.399   5.938
 7510SOL     OW23428   3.712   4.182   4.773
 7510SOL    HW123429   3.760   4.211   4.856
 7510SOL    HW223430   3.619   4.154   4.797
 7511SOL     OW23431   1.652   0.336   1.912
 7511SOL    HW123432   1.740   0.288   1.905
 7511SOL    HW223433   1.661   0.413   1.975
 7512SOL     OW23434   2.368   2.844   1.772
 7512SOL    HW123435   2.271   2.846   1.795
 7512SOL    HW223436   2.396   2.934   1.737
 7513SOL     OW23437   1.429   1.987   6.797
 7513SOL    HW123438   1.453   1.924   6.871
 7513SOL    HW223439   1.446   2.081   6.828
 7514SOL     OW23440   2.890   5.392   2.463
 7514SOL    HW123441   2.795   5.365   2.447
 7514SOL    HW223442   2.918   5.359   2.553
 7515SOL     OW23443   6.947   6.506   2.447
 7515SOL    HW123444   6.923   6.438   2.378
 7515SOL    HW223445   0.007   6.554   2.418
 7516SOL     OW23446   0.723   0.624   3.533
 7516SOL    HW123447   0.639   0.618   3.479
 7516SOL    HW223448   0.704   0.669   3.620
 7517SOL     OW23449   0.176   3.639   0.876
 7517SOL    HW123450   0.077   3.638   0.867
 7517SOL    HW223451   0.214   3.716   0.825
 7518SOL     OW23452   4.678   5.284   4.094
 7518SOL    HW123453   4.616   5.350   4.051
 7518SOL    HW223454   4.755   5.333   4.136
 7519SOL     OW23455   1.717   6.114   4.132
 7519SOL    HW123456   1.618   6.107   4.141
 7519SOL    HW223457   1.751   6.038   4.077
 7520SOL     OW23458   1.679   6.478   3.707
 7520SOL    HW123459   1.677   6.547   3.634
 7520SOL    HW223460   1.770   6.477   3.749
 7521SOL     OW23461   4.701   4.217   5.217
 7521SOL    HW123462   4.714   4.214   5.118
 7521SOL    HW223463   4.665   4.306   5.243
 7522SOL     OW23464   2.236   1.239   1.257
 7522SOL    HW123465   2.265   1.312   1.318
 7522SOL    HW223466   2.218   1.276   1.166
 7523SOL     OW23467   5.956   0.281   6.267
 7523SOL    HW123468   5.903   0.256   6.186
 7523SOL    HW223469   6.042   0.323   6.239
 7524SOL     OW23470   0.693   1.615   5.362
 7524SOL    HW123471   0.754   1.594   5.286
 7524SOL    HW223472   0.747   1.653   5.438
 7525SOL     OW23473   1.180   0.971   0.539
 7525SOL    HW123474   1.259   0.992   0.482
 7525SOL    HW223475   1.163   1.047   0.602
 7526SOL     OW23476   3.509   2.899   4.665
 7526SOL    HW123477   3.438   2.883   4.734
 7526SOL    HW223478   3.583   2.953   4.704
 7527SOL     OW23479   5.433   4.650   3.290
 7527SOL    HW123480   5.491   4.602   3.355
 7527SOL    HW223481   5.399   4.734   3.331
 7528SOL     OW23482   4.952   2.679   0.120
 7528SOL    HW123483   4.929   2.774   0.099
 7528SOL    HW223484   5.015   2.676   0.197
 7529SOL     OW23485   3.696   1.028   5.275
 7529SOL    HW123486   3.788   0.993   5.292
 7529SOL    HW223487   3.697   1.128   5.280
 7530SOL     OW23488   0.463   4.197   2.228
 7530SOL    HW123489   0.403   4.157   2.297
 7530SOL    HW223490   0.410   4.215   2.145
 7531SOL     OW23491   4.257   1.767   3.555
 7531SOL    HW123492   4.271   1.841   3.621
 7531SOL    HW223493   4.186   1.794   3.490
 7532SOL     OW23494   5.043   5.680   2.511
 7532SOL    HW123495   4.981   5.663   2.435
 7532SOL    HW223496   5.107   5.753   2.487
 7533SOL     OW23497   3.369   1.430   4.659
 7533SOL    HW123498   3.454   1.437   4.607
 7533SOL    HW223499   3.306   1.369   4.610
 7534SOL     OW23500   4.443   6.483   4.909
 7534SOL    HW123501   4.371   6.415   4.925
 7534SOL    HW223502   4.457   6.495   4.810
 7535SOL     OW23503   2.875   2.651   5.996
 7535SOL    HW123504   2.960   2.703   6.003
 7535SOL    HW223505   2.869   2.586   6.071
 7536SOL     OW23506   4.304   5.514   4.856
 7536SOL    HW123507   4.279   5.423   4.889
 7536SOL    HW223508   4.337   5.507   4.762
 7537SOL     OW23509   2.424   4.703   5.705
 7537SOL    HW123510   2.458   4.629   5.647
 7537SOL    HW223511   2.410   4.668   5.798
 7538SOL     OW23512   2.948   3.260   2.944
 7538SOL    HW123513   2.893   3.185   2.980
 7538SOL    HW223514   3.001   3.301   3.018
 7539SOL     OW23515   2.107   2.847   5.214
 7539SOL    HW123516   2.178   2.856   5.284
 7539SOL    HW223517   2.142   2.880   5.127
 7540SOL     OW23518   2.854   1.138   6.939
 7540SOL    HW123519   2.851   1.167   0.012
 7540SOL    HW223520   2.888   1.213   6.883
 7541SOL     OW23521   6.403   2.198   5.073
 7541SOL    HW123522   6.307   2.169   5.074
 7541SOL    HW223523   6.447   2.172   5.159
 7542SOL     OW23524   1.277   6.699   5.519
 7542SOL    HW123525   1.364   6.657   5.492
 7542SOL    HW223526   1.222   6.718   5.437
 7543SOL     OW23527   3.928   3.272   0.860
 7543SOL    HW123528   3.879   3.243   0.778
 7543SOL    HW223529   3.863   3.285   0.935
 7544SOL     OW23530   2.120   2.281   3.005
 7544SOL    HW123531   2.138   2.278   2.906
 7544SOL    HW223532   2.094   2.374   3.031
 7545SOL     OW23533   5.412   0.013   3.749
 7545SOL    HW123534   5.358   6.992   3.820
 7545SOL    HW223535   5.368   7.022   3.660
 7546SOL     OW23536   5.016   0.941   6.715
 7546SOL    HW123537   5.097   0.882   6.703
 7546SOL    HW223538   5.041   1.020   6.770
 7547SOL     OW23539   3.662   0.158   0.389
 7547SOL    HW123540   3.629   0.161   0.295
 7547SOL    HW223541   3.693   0.249   0.416
 7548SOL     OW23542   2.682   2.598   1.202
 7548SOL    HW123543   2.710   2.606   1.106
 7548SOL    HW223544   2.590   2.635   1.213
 7549SOL     OW23545   5.308   2.438   3.311
 7549SOL    HW123546   5.230   2.390   3.352
 7549SOL    HW223547   5.275   2.518   3.261
 7550SOL     OW23548   2.328   5.892   2.825
 7550SOL    HW123549   2.387   5.928   2.752
 7550SOL    HW223550   2.383   5.838   2.889
 7551SOL     OW23551   5.088   2.988   6.579
 7551SOL    HW123552   5.008   2.961   6.525
 7551SOL    HW223553   5.118   3.079   6.550
 7552SOL     OW23554   2.996   5.334   4.060
 7552SOL    HW123555   3.026   5.370   4.149
 7552SOL    HW223556   2.922   5.390   4.025
 7553SOL     OW23557   4.067   5.810   6.005
 7553SOL    HW123558   3.996   5.748   6.039
 7553SOL    HW223559   4.031   5.903   6.003
 7554SOL     OW23560   5.797   1.377   0.325
 7554SOL    HW123561   5.773   1.342   0.235
 7554SOL    HW223562   5.805   1.477   0.322
 7555SOL     OW23563   0.398   6.243   5.459
 7555SOL    HW123564   0.345   6.165   5.425
 7555SOL    HW223565   0.474   6.209   5.515
 7556SOL     OW23566   0.158   2.582   4.365
 7556SOL    HW123567   0.111   2.665   4.396
 7556SOL    HW223568   0.212   2.544   4.440
 7557SOL     OW23569   4.993   4.184   6.112
 7557SOL    HW123570   5.054   4.187   6.191
 7557SOL    HW223571   4.982   4.089   6.082
 7558SOL     OW23572   1.767   3.542   3.359
 7558SOL    HW123573   1.749   3.445   3.341
 7558SOL    HW223574   1.730   3.566   3.449
 7559SOL     OW23575   0.253   4.454   0.938
 7559SOL    HW123576   0.165   4.490   0.911
 7559SOL    HW223577   0.326   4.517   0.911
 7560SOL     OW23578   5.153   6.903   0.506
 7560SOL    HW123579   5.083   6.861   0.449
 7560SOL    HW223580   5.243   6.890   0.463
 7561SOL     OW23581   5.987   3.301   0.658
 7561SOL    HW123582   6.086   3.288   0.667
 7561SOL    HW223583   5.940   3.216   0.683
 7562SOL     OW23584   4.882   6.778   5.390
 7562SOL    HW123585   4.804   6.841   5.387
 7562SOL    HW223586   4.947   6.801   5.318
 7563SOL     OW23587   2.838   1.107   2.434
 7563SOL    HW123588   2.790   1.041   2.376
 7563SOL    HW223589   2.916   1.063   2.478
 7564SOL     OW23590   5.199   7.001   2.994
 7564SOL    HW123591   5.218   0.014   3.086
 7564SOL    HW223592   5.229   6.906   2.989
 7565SOL     OW23593   4.507   4.833   0.135
 7565SOL    HW123594   4.525   4.744   0.177
 7565SOL    HW223595   4.411   4.838   0.106
 7566SOL     OW23596   1.058   5.947   4.394
 7566SOL    HW123597   0.965   5.915   4.377
 7566SOL    HW223598   1.102   5.885   4.459
 7567SOL     OW23599   3.028   4.937   7.012
 7567SOL    HW123600   2.930   4.954   0.002
 7567SOL    HW223601   3.066   5.008   6.952
 7568SOL     OW23602   4.964   5.517   3.691
 7568SOL    HW123603   4.981   5.550   3.784
 7568SOL    HW223604   5.048   5.476   3.655
 7569SOL     OW23605   4.021   5.851   0.263
 7569SOL    HW123606   3.950   5.790   0.227
 7569SOL    HW223607   4.077   5.802   0.329
 7570SOL     OW23608   5.774   5.786   4.025
 7570SOL    HW123609   5.833   5.741   4.091
 7570SOL    HW223610   5.696   5.826   4.072
 7571SOL     OW23611   5.780   4.211   1.353
 7571SOL    HW123612   5.748   4.118   1.338
 7571SOL    HW223613   5.711   4.263   1.404
 7572SOL     OW23614   3.127   0.710   4.635
 7572SOL    HW123615   3.030   0.720   4.660
 7572SOL    HW223616   3.133   0.660   4.548
 7573SOL     OW23617   0.638   6.166   4.296
 7573SOL    HW123618   0.680   6.095   4.240
 7573SOL    HW223619   0.661   6.150   4.392
 7574SOL     OW23620   5.342   6.491   3.446
 7574SOL    HW123621   5.275   6.511   3.518
 7574SOL    HW223622   5.384   6.576   3.416
 7575SOL     OW23623   3.916   1.175   5.505
 7575SOL    HW123624   3.885   1.258   5.550
 7575SOL    HW223625   3.972   1.198   5.426
 7576SOL     OW23626   5.874   2.946   0.349
 7576SOL    HW123627   5.971   2.943   0.373
 7576SOL    HW223628   5.855   3.031   0.299
 7577SOL     OW23629   6.452   1.264   4.853
 7577SOL    HW123630   6.530   1.251   4.791
 7577SOL    HW223631   6.467   1.346   4.908
 7578SOL     OW23632   2.170   5.311   4.769
 7578SOL    HW123633   2.123   5.326   4.682
 7578SOL    HW223634   2.200   5.216   4.774
 7579SOL     OW23635   3.650   1.520   2.503
 7579SOL    HW123636   3.562   1.478   2.523
 7579SOL    HW223637   3.667   1.518   2.405
 7580SOL     OW23638   2.002   4.560   2.744
 7580SOL    HW123639   1.966   4.584   2.654
 7580SOL    HW223640   2.004   4.460   2.753
 7581SOL     OW23641   4.889   1.172   0.957
 7581SOL    HW123642   4.893   1.079   0.995
 7581SOL    HW223643   4.891   1.167   0.857
 7582SOL     OW23644   3.255   1.174   0.879
 7582SOL    HW123645   3.305   1.254   0.843
 7582SOL    HW223646   3.167   1.168   0.833
 7583SOL     OW23647   5.645   3.327   2.197
 7583SOL    HW123648   5.703   3.350   2.275
 7583SOL    HW223649   5.658   3.231   2.172
 7584SOL     OW23650   2.818   6.697   1.433
 7584SOL    HW123651   2.801   6.758   1.511
 7584SOL    HW223652   2.829   6.603   1.466
 7585SOL     OW23653   1.308   4.536   6.626
 7585SOL    HW123654   1.385   4.572   6.678
 7585SOL    HW223655   1.251   4.612   6.594
 7586SOL     OW23656   2.999   0.558   2.874
 7586SOL    HW123657   3.020   0.632   2.810
 7586SOL    HW223658   3.074   0.546   2.939
 7587SOL     OW23659   1.049   1.749   6.341
 7587SOL    HW123660   0.987   1.824   6.364
 7587SOL    HW223661   1.143   1.778   6.354
 7588SOL     OW23662   0.654   4.841   2.948
 7588SOL    HW123663   0.727   4.867   3.011
 7588SOL    HW223664   0.692   4.821   2.858
 7589SOL     OW23665   5.812   5.999   0.633
 7589SOL    HW123666   5.839   5.986   0.728
 7589SOL    HW223667   5.876   5.950   0.573
 7590SOL     OW23668   2.625   1.388   6.049
 7590SOL    HW123669   2.695   1.459   6.050
 7590SOL    HW223670   2.637   1.331   5.968
 7591SOL     OW23671   6.756   4.869   6.642
 7591SOL    HW123672   6.809   4.937   6.692
 7591SOL    HW223673   6.781   4.872   6.545
 7592SOL     OW23674   6.362   5.085   6.729
 7592SOL    HW123675   6.324   4.995   6.709
 7592SOL    HW223676   6.458   5.088   6.700
 7593SOL     OW23677   4.980   2.260   0.332
 7593SOL    HW123678   4.968   2.172   0.287
 7593SOL    HW223679   5.060   2.256   0.392
 7594SOL     OW23680   0.990   6.127   4.107
 7594SOL    HW123681   1.011   6.031   4.090
 7594SOL    HW223682   1.073   6.176   4.131
 7595SOL     OW23683   6.938   3.271   6.620
 7595SOL    HW123684   0.006   3.278   6.578
 7595SOL    HW223685   6.877   3.220   6.559
 7596SOL     OW23686   5.187   4.314   1.833
 7596SOL    HW123687   5.127   4.271   1.900
 7596SOL    HW223688   5.176   4.269   1.744
 7597SOL     OW23689   4.005   5.137   1.668
 7597SOL    HW123690   4.094   5.183   1.668
 7597SOL    HW223691   3.975   5.123   1.573
 7598SOL     OW23692   0.130   0.484   3.096
 7598SOL    HW123693   0.107   0.561   3.037
 7598SOL    HW223694   0.070   0.407   3.074
 7599SOL     OW23695   6.433   1.973   3.199
 7599SOL    HW123696   6.439   1.934   3.108
 7599SOL    HW223697   6.524   1.972   3.242
 7600SOL     OW23698   1.723   1.241   1.964
 7600SOL    HW123699   1.649   1.244   2.031
 7600SOL    HW223700   1.802   1.291   1.999
 7601SOL     OW23701   1.501   6.048   4.405
 7601SOL    HW123702   1.570   5.997   4.353
 7601SOL    HW223703   1.546   6.121   4.456
 7602SOL     OW23704   1.665   4.293   4.735
 7602SOL    HW123705   1.621   4.205   4.751
 7602SOL    HW223706   1.764   4.284   4.745
 7603SOL     OW23707   1.075   6.048   1.235
 7603SOL    HW123708   1.061   6.093   1.324
 7603SOL    HW223709   1.168   6.065   1.203
 7604SOL     OW23710   4.150   5.727   4.796
 7604SOL    HW123711   4.224   5.794   4.806
 7604SOL    HW223712   4.183   5.636   4.817
 7605SOL     OW23713   0.101   4.203   0.175
 7605SOL    HW123714   0.192   4.216   0.137
 7605SOL    HW223715   0.108   4.187   0.273
 7606SOL     OW23716   6.529   2.725   2.409
 7606SOL    HW123717   6.625   2.726   2.435
 7606SOL    HW223718   6.492   2.633   2.424
 7607SOL     OW23719   5.023   0.225   6.400
 7607SOL    HW123720   4.970   0.144   6.376
 7607SOL    HW223721   5.114   0.219   6.358
 7608SOL     OW23722   2.878   3.521   4.260
 7608SOL    HW123723   2.862   3.612   4.222
 7608SOL    HW223724   2.825   3.509   4.344
 7609SOL     OW23725   1.114   3.737   3.707
 7609SOL    HW123726   1.125   3.792   3.624
 7609SOL    HW223727   1.203   3.698   3.732
 7610SOL     OW23728   5.539   0.554   0.584
 7610SOL    HW123729   5.566   0.503   0.666
 7610SOL    HW223730   5.584   0.514   0.504
 7611SOL     OW23731   1.303   1.553   0.171
 7611SOL    HW123732   1.302   1.497   0.255
 7611SOL    HW223733   1.228   1.619   0.175
 7612SOL     OW23734   3.943   2.187   3.845
 7612SOL    HW123735   3.902   2.124   3.779
 7612SOL    HW223736   4.032   2.217   3.811
 7613SOL     OW23737   5.089   0.885   1.457
 7613SOL    HW123738   5.015   0.937   1.413
 7613SOL    HW223739   5.053   0.796   1.487
 7614SOL     OW23740   3.890   1.980   1.104
 7614SOL    HW123741   3.909   1.888   1.139
 7614SOL    HW223742   3.815   2.021   1.157
 7615SOL     OW23743   3.866   5.470   6.007
 7615SOL    HW123744   3.810   5.443   5.928
 7615SOL    HW223745   3.872   5.570   6.011
 7616SOL     OW23746   6.457   4.061   3.558
 7616SOL    HW123747   6.372   4.045   3.508
 7616SOL    HW223748   6.458   4.004   3.640
 7617SOL     OW23749   3.103   5.130   3.414
 7617SOL    HW123750   3.040   5.170   3.348
 7617SOL    HW223751   3.159   5.202   3.454
 7618SOL     OW23752   1.814   2.334   6.568
 7618SOL    HW123753   1.834   2.431   6.557
 7618SOL    HW223754   1.774   2.318   6.658
 7619SOL     OW23755   6.286   3.390   5.641
 7619SOL    HW123756   6.201   3.427   5.604
 7619SOL    HW223757   6.321   3.318   5.582
 7620SOL     OW23758   4.085   0.020   0.441
 7620SOL    HW123759   4.016   7.008   0.378
 7620SOL    HW223760   4.042   0.048   0.527
 7621SOL     OW23761   1.906   1.064   1.147
 7621SOL    HW123762   1.962   1.102   1.073
 7621SOL    HW223763   1.964   1.044   1.226
 7622SOL     OW23764   3.819   3.460   1.087
 7622SOL    HW123765   3.782   3.373   1.118
 7622SOL    HW223766   3.840   3.518   1.165
 7623SOL     OW23767   4.602   6.411   5.978
 7623SOL    HW123768   4.539   6.341   6.012
 7623SOL    HW223769   4.669   6.369   5.917
 7624SOL     OW23770   1.084   1.197   2.802
 7624SOL    HW123771   1.066   1.239   2.890
 7624SOL    HW223772   1.178   1.217   2.774
 7625SOL     OW23773   5.092   0.524   1.309
 7625SOL    HW123774   5.140   0.605   1.276
 7625SOL    HW223775   5.004   0.517   1.263
 7626SOL     OW23776   1.415   6.522   4.342
 7626SOL    HW123777   1.495   6.472   4.310
 7626SOL    HW223778   1.441   6.615   4.364
 7627SOL     OW23779   6.831   2.953   0.939
 7627SOL    HW123780   6.807   2.867   0.983
 7627SOL    HW223781   6.899   3.001   0.994
 7628SOL     OW23782   2.793   1.484   0.629
 7628SOL    HW123783   2.748   1.560   0.677
 7628SOL    HW223784   2.886   1.510   0.604
 7629SOL     OW23785   6.885   5.450   2.947
 7629SOL    HW123786   6.803   5.493   2.983
 7629SOL    HW223787   6.940   5.519   2.899
 7630SOL     OW23788   6.669   0.254   2.083
 7630SOL    HW123789   6.717   0.279   1.999
 7630SOL    HW223790   6.580   0.214   2.060
 7631SOL     OW23791   0.855   1.491   4.287
 7631SOL    HW123792   0.800   1.565   4.327
 7631SOL    HW223793   0.794   1.422   4.247
 7632SOL     OW23794   4.621   2.042   1.272
 7632SOL    HW123795   4.674   2.094   1.205
 7632SOL    HW223796   4.661   2.054   1.363
 7633SOL     OW23797   5.554   3.236   6.607
 7633SOL    HW123798   5.571   3.229   6.705
 7633SOL    HW223799   5.620   3.299   6.566
 7634SOL     OW23800   2.207   0.499   2.111
 7634SOL    HW123801   2.263   0.581   2.115
 7634SOL    HW223802   2.125   0.511   2.166
 7635SOL     OW23803   2.630   5.239   5.983
 7635SOL    HW123804   2.696   5.185   5.932
 7635SOL    HW223805   2.562   5.179   6.026
 7636SOL     OW23806   0.738   0.609   4.088
 7636SOL    HW123807   0.678   0.536   4.121
 7636SOL    HW223808   0.823   0.609   4.142
 7637SOL     OW23809   1.224   6.396   4.196
 7637SOL    HW123810   1.275   6.464   4.250
 7637SOL    HW223811   1.252   6.304   4.224
 7638SOL     OW23812   5.172   5.548   1.988
 7638SOL    HW123813   5.184   5.599   1.903
 7638SOL    HW223814   5.244   5.480   1.997
 7639SOL     OW23815   1.133   1.515   5.110
 7639SOL    HW123816   1.079   1.439   5.146
 7639SOL    HW223817   1.177   1.487   5.025
 7640SOL     OW23818   2.422   1.788   0.322
 7640SOL    HW123819   2.409   1.887   0.331
 7640SOL    HW223820   2.381   1.757   0.236
 7641SOL     OW23821   6.145   4.022   2.459
 7641SOL    HW123822   6.052   4.042   2.428
 7641SOL    HW223823   6.145   3.937   2.512
 7642SOL     OW23824   2.276   2.056   2.401
 7642SOL    HW123825   2.365   2.083   2.365
 7642SOL    HW223826   2.216   2.136   2.402
 7643SOL     OW23827   4.641   2.664   3.080
 7643SOL    HW123828   4.559   2.615   3.051
 7643SOL    HW223829   4.642   2.756   3.039
 7644SOL     OW23830   0.166   2.735   3.230
 7644SOL    HW123831   0.247   2.780   3.194
 7644SOL    HW223832   0.153   2.761   3.326
 7645SOL     OW23833   4.483   4.569   0.200
 7645SOL    HW123834   4.427   4.523   0.131
 7645SOL    HW223835   4.452   4.543   0.291
 7646SOL     OW23836   2.160   2.332   2.075
 7646SOL    HW123837   2.178   2.234   2.069
 7646SOL    HW223838   2.091   2.349   2.146
 7647SOL     OW23839   1.762   4.008   1.596
 7647SOL    HW123840   1.755   4.040   1.501
 7647SOL    HW223841   1.681   4.039   1.647
 7648SOL     OW23842   4.323   1.374   3.599
 7648SOL    HW123843   4.229   1.401   3.577
 7648SOL    HW223844   4.346   1.405   3.692
 7649SOL     OW23845   2.754   0.907   2.215
 7649SOL    HW123846   2.665   0.884   2.255
 7649SOL    HW223847   2.755   0.881   2.118
 7650SOL     OW23848   6.550   3.914   1.794
 7650SOL    HW123849   6.469   3.947   1.842
 7650SOL    HW223850   6.535   3.921   1.695
 7651SOL     OW23851   3.145   0.430   6.542
 7651SOL    HW123852   3.083   0.358   6.573
 7651SOL    HW223853   3.113   0.519   6.575
 7652SOL     OW23854   0.273   3.801   3.476
 7652SOL    HW123855   0.317   3.886   3.504
 7652SOL    HW223856   0.296   3.729   3.541
 7653SOL     OW23857   2.397   1.725   1.633
 7653SOL    HW123858   2.484   1.716   1.680
 7653SOL    HW223859   2.323   1.732   1.701
 7654SOL     OW23860   5.233   3.288   4.061
 7654SOL    HW123861   5.250   3.316   4.155
 7654SOL    HW223862   5.305   3.325   4.002
 7655SOL     OW23863   2.754   6.657   4.827
 7655SOL    HW123864   2.723   6.714   4.904
 7655SOL    HW223865   2.850   6.633   4.841
 7656SOL     OW23866   6.950   6.144   5.388
 7656SOL    HW123867   6.979   6.169   5.295
 7656SOL    HW223868   7.008   6.070   5.422
 7657SOL     OW23869   3.184   1.636   3.544
 7657SOL    HW123870   3.150   1.542   3.545
 7657SOL    HW223871   3.108   1.699   3.558
 7658SOL     OW23872   4.116   1.294   5.717
 7658SOL    HW123873   4.037   1.317   5.661
 7658SOL    HW223874   4.110   1.198   5.746
 7659SOL     OW23875   6.187   6.697   0.781
 7659SOL    HW123876   6.212   6.627   0.715
 7659SOL    HW223877   6.088   6.695   0.796
 7660SOL     OW23878   5.366   5.810   2.887
 7660SOL    HW123879   5.404   5.792   2.978
 7660SOL    HW223880   5.437   5.851   2.830
 7661SOL     OW23881   6.197   2.827   3.670
 7661SOL    HW123882   6.223   2.914   3.629
 7661SOL    HW223883   6.279   2.773   3.689
 7662SOL     OW23884   0.985   3.940   2.120
 7662SOL    HW123885   0.936   4.024   2.101
 7662SOL    HW223886   1.083   3.959   2.132
 7663SOL     OW23887   0.655   4.465   6.289
 7663SOL    HW123888   0.745   4.509   6.286
 7663SOL    HW223889   0.594   4.520   6.347
 7664SOL     OW23890   3.194   5.892   3.516
 7664SOL    HW123891   3.106   5.908   3.561
 7664SOL    HW223892   3.225   5.976   3.472
 7665SOL     OW23893   2.779   0.740   4.562
 7665SOL    HW123894   2.863   0.779   4.523
 7665SOL    HW223895   2.702   0.799   4.542
 7666SOL     OW23896   1.407   0.297   1.392
 7666SOL    HW123897   1.455   0.308   1.305
 7666SOL    HW223898   1.330   0.234   1.381
 7667SOL     OW23899   4.931   0.090   6.682
 7667SOL    HW123900   4.986   0.103   6.599
 7667SOL    HW223901   4.835   0.078   6.657
 7668SOL     OW23902   3.842   4.185   1.143
 7668SOL    HW123903   3.863   4.238   1.061
 7668SOL    HW223904   3.763   4.127   1.126
 7669SOL     OW23905   4.539   0.372   3.897
 7669SOL    HW123906   4.583   0.283   3.904
 7669SOL    HW223907   4.581   0.424   3.823
 7670SOL     OW23908   1.557   5.423   0.454
 7670SOL    HW123909   1.590   5.478   0.378
 7670SOL    HW223910   1.550   5.480   0.536
 7671SOL     OW23911   6.166   1.634   4.121
 7671SOL    HW123912   6.087   1.650   4.180
 7671SOL    HW223913   6.208   1.722   4.097
 7672SOL     OW23914   5.381   0.771   3.866
 7672SOL    HW123915   5.386   0.846   3.800
 7672SOL    HW223916   5.362   0.808   3.957
 7673SOL     OW23917   0.458   4.625   0.801
 7673SOL    HW123918   0.415   4.710   0.832
 7673SOL    HW223919   0.445   4.615   0.702
 7674SOL     OW23920   6.628   1.859   4.987
 7674SOL    HW123921   6.574   1.807   5.053
 7674SOL    HW223922   6.571   1.932   4.947
 7675SOL     OW23923   4.410   0.061   2.225
 7675SOL    HW123924   4.488   0.115   2.256
 7675SOL    HW223925   4.418   0.046   2.126
 7676SOL     OW23926   1.375   0.814   6.703
 7676SOL    HW123927   1.335   0.800   6.794
 7676SOL    HW223928   1.315   0.873   6.649
 7677SOL     OW23929   1.707   3.756   2.632
 7677SOL    HW123930   1.622   3.809   2.630
 7677SOL    HW223931   1.697   3.675   2.574
 7678SOL     OW23932   0.328   0.624   0.989
 7678SOL    HW123933   0.346   0.714   1.030
 7678SOL    HW223934   0.390   0.610   0.912
 7679SOL     OW23935   0.829   5.298   5.093
 7679SOL    HW123936   0.865   5.279   5.002
 7679SOL    HW223937   0.785   5.217   5.130
 7680SOL     OW23938   2.978   3.789   0.021
 7680SOL    HW123939   2.979   3.694   0.051
 7680SOL    HW223940   3.072   3.819   0.001
 7681SOL     OW23941   2.741   1.839   0.140
 7681SOL    HW123942   2.798   1.919   0.126
 7681SOL    HW223943   2.797   1.763   0.175
 7682SOL     OW23944   3.116   6.999   1.727
 7682SOL    HW123945   3.092   6.997   1.630
 7682SOL    HW223946   3.140   0.069   1.754
 7683SOL     OW23947   6.068   1.948   3.044
 7683SOL    HW123948   6.102   1.855   3.050
 7683SOL    HW223949   6.126   2.009   3.099
 7684SOL     OW23950   4.348   1.823   6.448
 7684SOL    HW123951   4.417   1.849   6.515
 7684SOL    HW223952   4.266   1.879   6.461
 7685SOL     OW23953   3.744   2.940   0.663
 7685SOL    HW123954   3.761   3.027   0.616
 7685SOL    HW223955   3.818   2.923   0.728
 7686SOL     OW23956   4.410   6.923   4.027
 7686SOL    HW123957   4.327   6.907   4.080
 7686SOL    HW223958   4.389   6.980   3.948
 7687SOL     OW23959   5.091   5.632   5.703
 7687SOL    HW123960   4.992   5.632   5.715
 7687SOL    HW223961   5.135   5.589   5.781
 7688SOL     OW23962   6.899   6.643   4.652
 7688SOL    HW123963   6.878   6.636   4.750
 7688SOL    HW223964   6.950   6.727   4.634
 7689SOL     OW23965   4.690   6.966   4.669
 7689SOL    HW123966   4.704   6.953   4.767
 7689SOL    HW223967   4.719   6.885   4.620
 7690SOL     OW23968   5.879   4.514   3.139
 7690SOL    HW123969   5.897   4.581   3.211
 7690SOL    HW223970   5.787   4.477   3.149
 7691SOL     OW23971   5.298   2.930   4.100
 7691SOL    HW123972   5.229   2.882   4.154
 7691SOL    HW223973   5.266   2.941   4.006
 7692SOL     OW23974   1.839   6.468   2.104
 7692SOL    HW123975   1.764   6.518   2.059
 7692SOL    HW223976   1.818   6.459   2.201
 7693SOL     OW23977   4.367   1.345   6.243
 7693SOL    HW123978   4.363   1.439   6.275
 7693SOL    HW223979   4.333   1.341   6.149
 7694SOL     OW23980   6.729   4.663   4.158
 7694SOL    HW123981   6.745   4.603   4.080
 7694SOL    HW223982   6.813   4.710   4.183
 7695SOL     OW23983   4.395   6.661   0.880
 7695SOL    HW123984   4.476   6.611   0.851
 7695SOL    HW223985   4.358   6.712   0.803
 7696SOL     OW23986   0.111   2.776   4.705
 7696SOL    HW123987   0.156   2.864   4.687
 7696SOL    HW223988   0.091   2.768   4.803
 7697SOL     OW23989   2.159   1.648   3.180
 7697SOL    HW123990   2.125   1.568   3.131
 7697SOL    HW223991   2.161   1.727   3.117
 7698SOL     OW23992   6.746   2.940   5.033
 7698SOL    HW123993   6.726   2.978   4.942
 7698SOL    HW223994   6.759   2.841   5.025
 7699SOL     OW23995   2.699   5.777   0.912
 7699SOL    HW123996   2.663   5.863   0.876
 7699SOL    HW223997   2.761   5.795   0.989
 7700SOL     OW23998   4.758   6.221   5.163
 7700SOL    HW123999   4.809   6.202   5.079
 7700SOL    HW224000   4.698   6.300   5.148
 7701SOL     OW24001   0.491   1.716   4.964
 7701SOL    HW124002   0.573   1.752   4.920
 7701SOL    HW224003   0.463   1.631   4.919
 7702SOL     OW24004   3.355   5.786   5.932
 7702SOL    HW124005   3.256   5.780   5.919
 7702SOL    HW224006   3.391   5.697   5.960
 7703SOL     OW24007   0.482   1.496   5.484
 7703SOL    HW124008   0.477   1.398   5.468
 7703SOL    HW224009   0.555   1.536   5.428
 7704SOL     OW24010   4.273   4.044   6.539
 7704SOL    HW124011   4.247   4.003   6.627
 7704SOL    HW224012   4.291   4.142   6.552
 7705SOL     OW24013   3.482   5.613   5.199
 7705SOL    HW124014   3.527   5.525   5.183
 7705SOL    HW224015   3.451   5.618   5.294
 7706SOL     OW24016   6.055   0.928   5.125
 7706SOL    HW124017   6.034   0.986   5.204
 7706SOL    HW224018   6.096   0.843   5.157
 7707SOL     OW24019   6.874   5.353   6.455
 7707SOL    HW124020   6.839   5.259   6.446
 7707SOL    HW224021   6.894   5.372   6.551
 7708SOL     OW24022   4.567   6.381   4.157
 7708SOL    HW124023   4.542   6.472   4.123
 7708SOL    HW224024   4.518   6.311   4.105
 7709SOL     OW24025   4.688   2.348   1.715
 7709SOL    HW124026   4.785   2.329   1.700
 7709SOL    HW224027   4.652   2.400   1.638
 7710SOL     OW24028   2.874   0.437   0.578
 7710SOL    HW124029   2.778   0.418   0.598
 7710SOL    HW224030   2.920   0.470   0.660
 7711SOL     OW24031   5.664   6.445   5.465
 7711SOL    HW124032   5.634   6.532   5.425
 7711SOL    HW224033   5.663   6.374   5.394
 7712SOL     OW24034   5.967   4.970   1.096
 7712SOL    HW124035   5.912   5.037   1.046
 7712SOL    HW224036   6.022   4.918   1.031
 7713SOL     OW24037   1.479   4.195   6.684
 7713SOL    HW124038   1.398   4.253   6.690
 7713SOL    HW224039   1.453   4.104   6.654
 7714SOL     OW24040   6.121   4.342   4.152
 7714SOL    HW124041   6.147   4.410   4.083
 7714SOL    HW224042   6.091   4.389   4.235
 7715SOL     OW24043   4.940   0.325   1.478
 7715SOL    HW124044   4.950   0.346   1.381
 7715SOL    HW224045   4.990   0.240   1.499
 7716SOL     OW24046   4.709   2.324   2.928
 7716SOL    HW124047   4.619   2.363   2.951
 7716SOL    HW224048   4.709   2.227   2.951
 7717SOL     OW24049   3.177   1.691   5.575
 7717SOL    HW124050   3.128   1.612   5.538
 7717SOL    HW224051   3.114   1.745   5.632
 7718SOL     OW24052   2.757   1.024   3.303
 7718SOL    HW124053   2.809   0.987   3.381
 7718SOL    HW224054   2.816   1.027   3.223
 7719SOL     OW24055   0.239   2.244   4.334
 7719SOL    HW124056   0.181   2.237   4.253
 7719SOL    HW224057   0.299   2.164   4.339
 7720SOL     OW24058   6.203   6.572   1.069
 7720SOL    HW124059   6.148   6.496   1.034
 7720SOL    HW224060   6.227   6.633   0.993
 7721SOL     OW24061   2.324   4.337   3.798
 7721SOL    HW124062   2.311   4.351   3.700
 7721SOL    HW224063   2.363   4.247   3.814
 7722SOL     OW24064   6.488   4.236   3.874
 7722SOL    HW124065   6.423   4.216   3.801
 7722SOL    HW224066   6.571   4.276   3.836
 7723SOL     OW24067   6.709   3.298   0.553
 7723SOL    HW124068   6.692   3.221   0.615
 7723SOL    HW224069   6.766   3.268   0.476
 7724SOL     OW24070   1.409   4.765   1.154
 7724SOL    HW124071   1.449   4.730   1.069
 7724SOL    HW224072   1.397   4.689   1.219
 7725SOL     OW24073   5.888   2.898   3.442
 7725SOL    HW124074   5.805   2.948   3.417
 7725SOL    HW224075   5.951   2.897   3.364
 7726SOL     OW24076   0.585   4.273   3.066
 7726SOL    HW124077   0.618   4.283   3.160
 7726SOL    HW224078   0.640   4.204   3.019
 7727SOL     OW24079   6.536   2.996   3.166
 7727SOL    HW124080   6.526   3.072   3.102
 7727SOL    HW224081   6.578   2.919   3.119
 7728SOL     OW24082   1.742   3.269   3.315
 7728SOL    HW124083   1.661   3.234   3.268
 7728SOL    HW224084   1.816   3.282   3.249
 7729SOL     OW24085   5.144   2.544   1.140
 7729SOL    HW124086   5.197   2.617   1.184
 7729SOL    HW224087   5.084   2.583   1.071
 7730SOL     OW24088   5.080   6.824   2.699
 7730SOL    HW124089   5.048   6.756   2.766
 7730SOL    HW224090   5.173   6.801   2.671
 7731SOL     OW24091   6.083   1.296   6.869
 7731SOL    HW124092   6.095   1.336   6.778
 7731SOL    HW224093   6.051   1.367   6.932
 7732SOL     OW24094   4.504   6.151   0.306
 7732SOL    HW124095   4.425   6.203   0.341
 7732SOL    HW224096   4.484   6.117   0.214
 7733SOL     OW24097   3.648   0.611   1.332
 7733SOL    HW124098   3.614   0.517   1.330
 7733SOL    HW224099   3.603   0.661   1.407
 7734SOL     OW24100   1.395   2.625   4.040
 7734SOL    HW124101   1.411   2.569   4.121
 7734SOL    HW224102   1.438   2.582   3.961
 7735SOL     OW24103   5.387   4.238   6.420
 7735SOL    HW124104   5.307   4.298   6.418
 7735SOL    HW224105   5.363   4.151   6.462
 7736SOL     OW24106   5.475   4.581   0.105
 7736SOL    HW124107   5.561   4.585   0.054
 7736SOL    HW224108   5.409   4.644   0.064
 7737SOL     OW24109   4.765   1.985   0.793
 7737SOL    HW124110   4.771   1.888   0.816
 7737SOL    HW224111   4.673   2.018   0.811
 7738SOL     OW24112   2.755   5.702   0.201
 7738SOL    HW124113   2.835   5.759   0.217
 7738SOL    HW224114   2.774   5.609   0.231
 7739SOL     OW24115   0.539   2.382   1.362
 7739SOL    HW124116   0.495   2.396   1.273
 7739SOL    HW224117   0.507   2.297   1.402
 7740SOL     OW24118   0.327   6.942   2.663
 7740SOL    HW124119   0.259   6.936   2.590
 7740SOL    HW224120   0.418   6.919   2.626
 7741SOL     OW24121   1.260   6.133   4.315
 7741SOL    HW124122   1.197   6.064   4.352
 7741SOL    HW224123   1.341   6.140   4.373
 7742SOL     OW24124   6.032   2.054   3.389
 7742SOL    HW124125   6.117   2.001   3.388
 7742SOL    HW224126   6.053   2.151   3.396
 7743SOL     OW24127   4.635   2.627   4.743
 7743SOL    HW124128   4.694   2.548   4.728
 7743SOL    HW224129   4.554   2.599   4.794
 7744SOL     OW24130   6.505   0.037   3.306
 7744SOL    HW124131   6.442   0.009   3.233
 7744SOL    HW224132   6.467   0.013   3.395
 7745SOL     OW24133   3.894   3.036   6.034
 7745SOL    HW124134   3.865   3.129   6.057
 7745SOL    HW224135   3.832   2.971   6.078
 7746SOL     OW24136   1.467   0.549   0.174
 7746SOL    HW124137   1.565   0.539   0.156
 7746SOL    HW224138   1.434   0.470   0.224
 7747SOL     OW24139   5.186   6.406   1.050
 7747SOL    HW124140   5.117   6.454   1.102
 7747SOL    HW224141   5.193   6.446   0.958
 7748SOL     OW24142   2.604   4.523   6.252
 7748SOL    HW124143   2.526   4.550   6.196
 7748SOL    HW224144   2.661   4.458   6.200
 7749SOL     OW24145   5.372   2.656   5.606
 7749SOL    HW124146   5.459   2.634   5.561
 7749SOL    HW224147   5.303   2.677   5.537
 7750SOL     OW24148   0.005   5.761   1.609
 7750SOL    HW124149   0.043   5.852   1.622
 7750SOL    HW224150   0.071   5.693   1.639
 7751SOL     OW24151   0.734   2.807   1.993
 7751SOL    HW124152   0.811   2.745   1.976
 7751SOL    HW224153   0.761   2.900   1.970
 7752SOL     OW24154   4.487   1.272   4.224
 7752SOL    HW124155   4.572   1.313   4.193
 7752SOL    HW224156   4.495   1.172   4.220
 7753SOL     OW24157   2.744   1.294   5.297
 7753SOL    HW124158   2.836   1.320   5.327
 7753SOL    HW224159   2.677   1.358   5.335
 7754SOL     OW24160   4.625   6.901   1.897
 7754SOL    HW124161   4.675   6.905   1.810
 7754SOL    HW224162   4.674   6.954   1.966
 7755SOL     OW24163   1.431   4.275   5.779
 7755SOL    HW124164   1.428   4.369   5.744
 7755SOL    HW224165   1.379   4.269   5.864
 7756SOL     OW24166   3.318   5.899   1.557
 7756SOL    HW124167   3.378   5.961   1.506
 7756SOL    HW224168   3.370   5.854   1.629
 7757SOL     OW24169   0.254   4.405   2.715
 7757SOL    HW124170   0.172   4.361   2.750
 7757SOL    HW224171   0.335   4.364   2.758
 7758SOL     OW24172   1.734   0.503   5.559
 7758SOL    HW124173   1.767   0.531   5.469
 7758SOL    HW224174   1.673   0.573   5.596
 7759SOL     OW24175   2.647   2.013   6.495
 7759SOL    HW124176   2.591   2.094   6.477
 7759SOL    HW224177   2.683   1.978   6.409
 7760SOL     OW24178   4.510   3.127   1.234
 7760SOL    HW124179   4.458   3.157   1.314
 7760SOL    HW224180   4.473   3.040   1.201
 7761SOL     OW24181   4.999   5.929   4.603
 7761SOL    HW124182   4.918   5.958   4.654
 7761SOL    HW224183   4.995   5.966   4.510
 7762SOL     OW24184   6.692   0.680   2.781
 7762SOL    HW124185   6.682   0.630   2.867
 7762SOL    HW224186   6.668   0.776   2.795
 7763SOL     OW24187   2.777   0.022   4.581
 7763SOL    HW124188   2.717   6.965   4.587
 7763SOL    HW224189   2.768   0.077   4.664
 7764SOL     OW24190   3.097   4.107   5.380
 7764SOL    HW124191   3.001   4.094   5.407
 7764SOL    HW224192   3.150   4.028   5.410
 7765SOL     OW24193   6.774   3.046   4.317
 7765SOL    HW124194   6.716   3.077   4.241
 7765SOL    HW224195   6.771   3.114   4.390
 7766SOL     OW24196   6.477   3.900   6.583
 7766SOL    HW124197   6.448   3.819   6.633
 7766SOL    HW224198   6.571   3.888   6.551
 7767SOL     OW24199   2.526   0.899   2.829
 7767SOL    HW124200   2.470   0.873   2.750
 7767SOL    HW224201   2.472   0.958   2.889
 7768SOL     OW24202   4.605   5.477   3.238
 7768SOL    HW124203   4.644   5.562   3.273
 7768SOL    HW224204   4.616   5.474   3.139
 7769SOL     OW24205   3.317   2.602   5.273
 7769SOL    HW124206   3.252   2.532   5.244
 7769SOL    HW224207   3.292   2.637   5.363
 7770SOL     OW24208   2.147   3.385   4.702
 7770SOL    HW124209   2.216   3.313   4.696
 7770SOL    HW224210   2.056   3.344   4.697
 7771SOL     OW24211   2.548   2.211   6.103
 7771SOL    HW124212   2.494   2.149   6.047
 7771SOL    HW224213   2.507   2.302   6.102
 7772SOL     OW24214   4.889   0.165   1.860
 7772SOL    HW124215   4.950   0.109   1.806
 7772SOL    HW224216   4.911   0.262   1.847
 7773SOL     OW24217   3.464   6.449   0.028
 7773SOL    HW124218   3.510   6.361   0.042
 7773SOL    HW224219   3.367   6.432   0.006
 7774SOL     OW24220   4.348   1.911   2.675
 7774SOL    HW124221   4.290   1.842   2.633
 7774SOL    HW224222   4.326   2.001   2.637
 7775SOL     OW24223   3.239   0.581   6.892
 7775SOL    HW124224   3.181   0.641   6.838
 7775SOL    HW224225   3.253   0.621   6.983
 7776SOL     OW24226   1.597   1.084   4.968
 7776SOL    HW124227   1.514   1.134   4.942
 7776SOL    HW224228   1.641   1.131   5.044
 7777SOL     OW24229   5.740   5.161   3.579
 7777SOL    HW124230   5.794   5.142   3.497
 7777SOL    HW224231   5.679   5.084   3.597
 7778SOL     OW24232   6.372   5.049   2.775
 7778SOL    HW124233   6.358   4.961   2.729
 7778SOL    HW224234   6.470   5.064   2.790
 7779SOL     OW24235   3.708   5.857   2.556
 7779SOL    HW124236   3.742   5.942   2.516
 7779SOL    HW224237   3.718   5.861   2.656
 7780SOL     OW24238   6.385   6.009   4.426
 7780SOL    HW124239   6.319   5.974   4.360
 7780SOL    HW224240   6.467   5.952   4.426
 7781SOL     OW24241   1.757   2.482   0.590
 7781SOL    HW124242   1.770   2.450   0.496
 7781SOL    HW224243   1.817   2.430   0.651
 7782SOL     OW24244   5.620   4.152   4.256
 7782SOL    HW124245   5.635   4.057   4.285
 7782SOL    HW224246   5.700   4.185   4.205
 7783SOL     OW24247   0.961   0.200   5.234
 7783SOL    HW124248   0.956   0.274   5.301
 7783SOL    HW224249   1.032   0.222   5.166
 7784SOL     OW24250   2.198   2.742   2.669
 7784SOL    HW124251   2.220   2.836   2.643
 7784SOL    HW224252   2.106   2.739   2.707
 7785SOL     OW24253   0.540   6.670   2.401
 7785SOL    HW124254   0.552   6.730   2.322
 7785SOL    HW224255   0.624   6.618   2.416
 7786SOL     OW24256   4.116   0.657   6.260
 7786SOL    HW124257   4.139   0.636   6.355
 7786SOL    HW224258   4.023   0.693   6.255
 7787SOL     OW24259   2.256   2.475   1.154
 7787SOL    HW124260   2.263   2.376   1.159
 7787SOL    HW224261   2.175   2.505   1.204
 7788SOL     OW24262   6.938   4.409   1.605
 7788SOL    HW124263   7.016   4.346   1.608
 7788SOL    HW224264   6.967   4.501   1.630
 7789SOL     OW24265   3.495   1.486   6.291
 7789SOL    HW124266   3.571   1.524   6.344
 7789SOL    HW224267   3.464   1.553   6.224
 7790SOL     OW24268   4.822   4.639   1.846
 7790SOL    HW124269   4.764   4.558   1.832
 7790SOL    HW224270   4.913   4.610   1.873
 7791SOL     OW24271   2.669   4.874   2.321
 7791SOL    HW124272   2.664   4.865   2.221
 7791SOL    HW224273   2.759   4.908   2.347
 7792SOL     OW24274   1.082   1.834   2.342
 7792SOL    HW124275   1.150   1.879   2.284
 7792SOL    HW224276   1.013   1.790   2.284
 7793SOL     OW24277   4.582   1.164   6.303
 7793SOL    HW124278   4.541   1.085   6.348
 7793SOL    HW224279   4.513   1.236   6.294
 7794SOL     OW24280   0.605   6.450   3.578
 7794SOL    HW124281   0.512   6.483   3.565
 7794SOL    HW224282   0.659   6.470   3.496
 7795SOL     OW24283   3.056   6.157   6.435
 7795SOL    HW124284   3.021   6.080   6.382
 7795SOL    HW224285   2.982   6.194   6.492
 7796SOL     OW24286   4.000   3.638   6.161
 7796SOL    HW124287   3.965   3.688   6.082
 7796SOL    HW224288   4.003   3.700   6.240
 7797SOL     OW24289   0.790   6.550   2.671
 7797SOL    HW124290   0.699   6.516   2.649
 7797SOL    HW224291   0.820   6.613   2.599
 7798SOL     OW24292   1.160   3.210   0.579
 7798SOL    HW124293   1.226   3.254   0.518
 7798SOL    HW224294   1.156   3.112   0.559
 7799SOL     OW24295   2.422   5.737   3.624
 7799SOL    HW124296   2.503   5.697   3.580
 7799SOL    HW224297   2.430   5.726   3.723
 7800SOL     OW24298   0.365   6.679   1.590
 7800SOL    HW124299   0.290   6.633   1.542
 7800SOL    HW224300   0.339   6.697   1.684
 7801SOL     OW24301   1.762   2.436   2.527
 7801SOL    HW124302   1.785   2.340   2.515
 7801SOL    HW224303   1.831   2.493   2.483
 7802SOL     OW24304   0.272   3.912   4.633
 7802SOL    HW124305   0.343   3.842   4.638
 7802SOL    HW224306   0.193   3.884   4.687
 7803SOL     OW24307   4.124   2.536   5.631
 7803SOL    HW124308   4.040   2.485   5.619
 7803SOL    HW224309   4.122   2.583   5.720
 7804SOL     OW24310   3.014   1.929   5.402
 7804SOL    HW124311   3.026   1.995   5.477
 7804SOL    HW224312   3.082   1.948   5.331
 7805SOL     OW24313   5.763   2.764   0.585
 7805SOL    HW124314   5.822   2.684   0.575
 7805SOL    HW224315   5.760   2.815   0.499
 7806SOL     OW24316   6.826   2.559   5.273
 7806SOL    HW124317   6.888   2.637   5.269
 7806SOL    HW224318   6.777   2.550   5.186
 7807SOL     OW24319   2.695   4.746   6.394
 7807SOL    HW124320   2.654   4.666   6.350
 7807SOL    HW224321   2.638   4.827   6.376
 7808SOL     OW24322   4.888   3.799   2.995
 7808SOL    HW124323   4.871   3.855   2.914
 7808SOL    HW224324   4.893   3.857   3.076
 7809SOL     OW24325   4.984   5.052   3.502
 7809SOL    HW124326   4.913   5.119   3.522
 7809SOL    HW224327   5.068   5.078   3.549
 7810SOL     OW24328   3.676   6.773   5.472
 7810SOL    HW124329   3.736   6.801   5.547
 7810SOL    HW224330   3.729   6.761   5.388
 7811SOL     OW24331   1.529   5.620   3.061
 7811SOL    HW124332   1.438   5.632   3.021
 7811SOL    HW224333   1.599   5.629   2.989
 7812SOL     OW24334   2.762   1.828   5.991
 7812SOL    HW124335   2.726   1.807   5.901
 7812SOL    HW224336   2.820   1.753   6.022
 7813SOL     OW24337   5.495   0.815   0.668
 7813SOL    HW124338   5.580   0.857   0.698
 7813SOL    HW224339   5.513   0.721   0.638
 7814SOL     OW24340   6.824   3.330   1.930
 7814SOL    HW124341   6.775   3.388   1.994
 7814SOL    HW224342   6.766   3.252   1.905
 7815SOL     OW24343   5.904   3.740   5.227
 7815SOL    HW124344   5.992   3.713   5.187
 7815SOL    HW224345   5.915   3.751   5.326
 7816SOL     OW24346   0.795   1.124   5.073
 7816SOL    HW124347   0.856   1.065   5.127
 7816SOL    HW224348   0.704   1.123   5.112
 7817SOL     OW24349   2.989   3.069   6.315
 7817SOL    HW124350   3.016   3.153   6.361
 7817SOL    HW224351   2.904   3.034   6.355
 7818SOL     OW24352   5.834   0.983   2.314
 7818SOL    HW124353   5.881   0.919   2.376
 7818SOL    HW224354   5.851   1.076   2.345
 7819SOL     OW24355   1.535   3.771   4.018
 7819SOL    HW124356   1.542   3.858   4.067
 7819SOL    HW224357   1.484   3.784   3.933
 7820SOL     OW24358   1.740   6.924   6.230
 7820SOL    HW124359   1.800   6.854   6.191
 7820SOL    HW224360   1.747   7.008   6.176
 7821SOL     OW24361   5.249   5.519   6.616
 7821SOL    HW124362   5.345   5.535   6.597
 7821SOL    HW224363   5.200   5.607   6.618
 7822SOL     OW24364   1.191   0.872   5.253
 7822SOL    HW124365   1.260   0.923   5.202
 7822SOL    HW224366   1.221   0.778   5.266
 7823SOL     OW24367   1.996   3.160   6.034
 7823SOL    HW124368   1.904   3.189   6.061
 7823SOL    HW224369   2.059   3.238   6.043
 7824SOL     OW24370   4.935   2.492   3.344
 7824SOL    HW124371   4.892   2.531   3.426
 7824SOL    HW224372   4.875   2.421   3.306
 7825SOL     OW24373   3.467   3.459   2.367
 7825SOL    HW124374   3.424   3.548   2.382
 7825SOL    HW224375   3.432   3.418   2.283
 7826SOL     OW24376   6.879   0.403   0.640
 7826SOL    HW124377   6.804   0.338   0.654
 7826SOL    HW224378   6.877   0.436   0.546
 7827SOL     OW24379   5.390   4.559   1.481
 7827SOL    HW124380   5.419   4.547   1.576
 7827SOL    HW224381   5.342   4.477   1.450
 7828SOL     OW24382   0.287   6.205   0.736
 7828SOL    HW124383   0.292   6.289   0.789
 7828SOL    HW224384   0.363   6.201   0.672
 7829SOL     OW24385   3.833   2.854   1.718
 7829SOL    HW124386   3.745   2.898   1.738
 7829SOL    HW224387   3.818   2.759   1.692
 7830SOL     OW24388   6.094   2.653   6.890
 7830SOL    HW124389   6.088   2.627   6.794
 7830SOL    HW224390   6.078   2.572   6.947
 7831SOL     OW24391   1.836   2.825   0.016
 7831SOL    HW124392   1.873   2.891   0.081
 7831SOL    HW224393   1.853   2.857   6.946
 7832SOL     OW24394   2.652   2.569   5.410
 7832SOL    HW124395   2.675   2.657   5.368
 7832SOL    HW224396   2.630   2.503   5.338
 7833SOL     OW24397   0.500   6.901   0.134
 7833SOL    HW124398   0.431   6.957   0.179
 7833SOL    HW224399   0.581   6.957   0.114
 7834SOL     OW24400   0.913   0.638   1.216
 7834SOL    HW124401   0.965   0.688   1.285
 7834SOL    HW224402   0.949   0.660   1.125
 7835SOL     OW24403   2.172   2.532   5.226
 7835SOL    HW124404   2.136   2.625   5.220
 7835SOL    HW224405   2.239   2.527   5.300
 7836SOL     OW24406   2.025   6.572   0.310
 7836SOL    HW124407   1.990   6.658   0.275
 7836SOL    HW224408   2.115   6.586   0.351
 7837SOL     OW24409   6.168   0.054   2.899
 7837SOL    HW124410   6.241   0.053   2.832
 7837SOL    HW224411   6.095   7.015   2.870
 7838SOL     OW24412   3.639   0.294   4.013
 7838SOL    HW124413   3.655   0.387   4.048
 7838SOL    HW224414   3.668   0.227   4.082
 7839SOL     OW24415   6.370   4.594   4.694
 7839SOL    HW124416   6.337   4.688   4.687
 7839SOL    HW224417   6.470   4.594   4.692
 7840SOL     OW24418   5.931   3.154   4.996
 7840SOL    HW124419   6.013   3.106   4.965
 7840SOL    HW224420   5.875   3.179   4.917
 7841SOL     OW24421   0.880   1.911   6.513
 7841SOL    HW124422   0.795   1.958   6.490
 7841SOL    HW224423   0.948   1.978   6.542
 7842SOL     OW24424   2.841   1.012   2.800
 7842SOL    HW124425   2.768   0.943   2.800
 7842SOL    HW224426   2.849   1.052   2.891
 7843SOL     OW24427   5.130   3.287   0.862
 7843SOL    HW124428   5.105   3.191   0.852
 7843SOL    HW224429   5.217   3.304   0.815
 7844SOL     OW24430   4.427   1.220   3.388
 7844SOL    HW124431   4.523   1.209   3.414
 7844SOL    HW224432   4.381   1.279   3.454
 7845SOL     OW24433   6.955   1.152   4.088
 7845SOL    HW124434   0.031   1.155   4.075
 7845SOL    HW224435   6.926   1.234   4.138
 7846SOL     OW24436   3.078   6.991   2.411
 7846SOL    HW124437   3.133   6.911   2.388
 7846SOL    HW224438   3.137   0.048   2.421
 7847SOL     OW24439   6.678   0.619   0.230
 7847SOL    HW124440   6.720   0.548   0.287
 7847SOL    HW224441   6.742   0.646   0.158
 7848SOL     OW24442   4.975   4.137   1.551
 7848SOL    HW124443   4.975   4.062   1.485
 7848SOL    HW224444   4.931   4.108   1.635
 7849SOL     OW24445   6.435   3.705   5.238
 7849SOL    HW124446   6.475   3.670   5.323
 7849SOL    HW224447   6.381   3.786   5.258
 7850SOL     OW24448   1.322   0.654   4.752
 7850SOL    HW124449   1.390   0.583   4.771
 7850SOL    HW224450   1.244   0.643   4.814
 7851SOL     OW24451   5.498   6.409   6.830
 7851SOL    HW124452   5.543   6.496   6.850
 7851SOL    HW224453   5.567   6.341   6.807
 7852SOL     OW24454   2.565   6.056   0.234
 7852SOL    HW124455   2.484   5.999   0.246
 7852SOL    HW224456   2.615   6.027   0.152
 7853SOL     OW24457   2.799   3.216   0.542
 7853SOL    HW124458   2.706   3.239   0.514
 7853SOL    HW224459   2.799   3.128   0.589
 7854SOL     OW24460   3.237   3.961   2.342
 7854SOL    HW124461   3.192   3.960   2.431
 7854SOL    HW224462   3.304   4.035   2.339
 7855SOL     OW24463   4.615   6.159   5.682
 7855SOL    HW124464   4.657   6.249   5.668
 7855SOL    HW224465   4.598   6.145   5.779
 7856SOL     OW24466   5.029   3.405   6.418
 7856SOL    HW124467   5.037   3.397   6.517
 7856SOL    HW224468   4.935   3.430   6.394
 7857SOL     OW24469   6.905   1.352   5.633
 7857SOL    HW124470   6.967   1.389   5.563
 7857SOL    HW224471   6.820   1.322   5.589
 7858SOL     OW24472   6.172   3.917   2.914
 7858SOL    HW124473   6.159   3.989   2.982
 7858SOL    HW224474   6.090   3.860   2.909
 7859SOL     OW24475   1.136   5.511   6.872
 7859SOL    HW124476   1.154   5.421   6.833
 7859SOL    HW224477   1.181   5.519   6.961
 7860SOL     OW24478   4.180   6.702   1.935
 7860SOL    HW124479   4.136   6.710   2.024
 7860SOL    HW224480   4.256   6.638   1.941
 7861SOL     OW24481   4.717   4.633   0.336
 7861SOL    HW124482   4.649   4.564   0.312
 7861SOL    HW224483   4.751   4.676   0.252
 7862SOL     OW24484   2.967   4.910   1.813
 7862SOL    HW124485   2.994   4.902   1.909
 7862SOL    HW224486   2.974   4.820   1.770
 7863SOL     OW24487   6.574   5.784   2.068
 7863SOL    HW124488   6.619   5.873   2.068
 7863SOL    HW224489   6.642   5.712   2.061
 7864SOL     OW24490   0.612   5.534   4.886
 7864SOL    HW124491   0.545   5.506   4.955
 7864SOL    HW224492   0.572   5.606   4.829
 7865SOL     OW24493   3.342   0.172   3.160
 7865SOL    HW124494   3.286   0.253   3.174
 7865SOL    HW224495   3.361   0.129   3.248
 7866SOL     OW24496   2.594   2.399   4.369
 7866SOL    HW124497   2.674   2.361   4.324
 7866SOL    HW224498   2.572   2.346   4.451
 7867SOL     OW24499   5.844   4.190   1.783
 7867SOL    HW124500   5.875   4.239   1.702
 7867SOL    HW224501   5.908   4.206   1.858
 7868SOL     OW24502   5.436   6.816   0.480
 7868SOL    HW124503   5.465   6.868   0.400
 7868SOL    HW224504   5.452   6.869   0.562
 7869SOL     OW24505   0.565   3.350   2.009
 7869SOL    HW124506   0.629   3.399   2.068
 7869SOL    HW224507   0.481   3.331   2.060
 7870SOL     OW24508   0.132   5.917   3.857
 7870SOL    HW124509   0.111   5.961   3.944
 7870SOL    HW224510   0.051   5.921   3.798
 7871SOL     OW24511   5.095   2.935   3.193
 7871SOL    HW124512   5.082   2.964   3.098
 7871SOL    HW224513   5.046   2.849   3.208
 7872SOL     OW24514   6.843   3.371   3.105
 7872SOL    HW124515   6.832   3.419   3.019
 7872SOL    HW224516   6.780   3.408   3.173
 7873SOL     OW24517   0.376   4.809   5.334
 7873SOL    HW124518   0.330   4.796   5.422
 7873SOL    HW224519   0.475   4.805   5.347
 7874SOL     OW24520   5.850   1.452   0.725
 7874SOL    HW124521   5.903   1.428   0.806
 7874SOL    HW224522   5.855   1.377   0.659
 7875SOL     OW24523   4.142   3.113   6.878
 7875SOL    HW124524   4.124   3.034   6.937
 7875SOL    HW224525   4.237   3.109   6.845
 7876SOL     OW24526   5.951   0.484   3.511
 7876SOL    HW124527   5.930   0.454   3.418
 7876SOL    HW224528   5.888   0.557   3.538
 7877SOL     OW24529   6.749   2.202   2.648
 7877SOL    HW124530   6.690   2.216   2.728
 7877SOL    HW224531   6.813   2.278   2.640
 7878SOL     OW24532   4.881   3.847   1.835
 7878SOL    HW124533   4.835   3.758   1.830
 7878SOL    HW224534   4.980   3.833   1.834
 7879SOL     OW24535   5.113   0.462   4.146
 7879SOL    HW124536   5.196   0.513   4.169
 7879SOL    HW224537   5.056   0.452   4.228
 7880SOL     OW24538   0.255   6.922   6.543
 7880SOL    HW124539   0.175   6.904   6.601
 7880SOL    HW224540   0.292   6.835   6.511
 7881SOL     OW24541   0.150   4.979   4.311
 7881SOL    HW124542   0.179   5.072   4.335
 7881SOL    HW224543   0.145   4.924   4.394
 7882SOL     OW24544   6.829   4.047   2.659
 7882SOL    HW124545   6.790   4.131   2.696
 7882SOL    HW224546   6.757   3.991   2.620
 7883SOL     OW24547   3.521   1.623   4.190
 7883SOL    HW124548   3.497   1.533   4.227
 7883SOL    HW224549   3.441   1.683   4.196
 7884SOL     OW24550   0.511   4.122   4.572
 7884SOL    HW124551   0.600   4.105   4.615
 7884SOL    HW224552   0.438   4.101   4.637
 7885SOL     OW24553   6.005   5.298   3.128
 7885SOL    HW124554   5.994   5.392   3.161
 7885SOL    HW224555   5.918   5.265   3.091
 7886SOL     OW24556   4.843   2.876   2.606
 7886SOL    HW124557   4.876   2.783   2.623
 7886SOL    HW224558   4.794   2.879   2.519
 7887SOL     OW24559   2.932   3.386   0.704
 7887SOL    HW124560   2.942   3.317   0.776
 7887SOL    HW224561   2.853   3.363   0.647
 7888SOL     OW24562   5.201   2.507   4.150
 7888SOL    HW124563   5.138   2.443   4.194
 7888SOL    HW224564   5.182   2.510   4.052
 7889SOL     OW24565   5.764   4.968   0.803
 7889SOL    HW124566   5.750   5.067   0.806
 7889SOL    HW224567   5.720   4.927   0.883
 7890SOL     OW24568   1.286   3.346   4.727
 7890SOL    HW124569   1.355   3.277   4.748
 7890SOL    HW224570   1.302   3.427   4.784
 7891SOL     OW24571   0.671   1.871   4.412
 7891SOL    HW124572   0.764   1.905   4.395
 7891SOL    HW224573   0.666   1.775   4.385
 7892SOL     OW24574   1.099   2.730   5.699
 7892SOL    HW124575   1.032   2.695   5.633
 7892SOL    HW224576   1.188   2.738   5.655
 7893SOL     OW24577   6.251   0.873   0.575
 7893SOL    HW124578   6.207   0.911   0.493
 7893SOL    HW224579   6.215   0.919   0.656
 7894SOL     OW24580   3.162   1.195   6.502
 7894SOL    HW124581   3.202   1.127   6.442
 7894SOL    HW224582   3.192   1.286   6.474
 7895SOL     OW24583   4.117   6.660   3.754
 7895SOL    HW124584   4.036   6.610   3.785
 7895SOL    HW224585   4.200   6.613   3.786
 7896SOL     OW24586   3.276   1.986   1.050
 7896SOL    HW124587   3.332   2.028   1.121
 7896SOL    HW224588   3.223   2.057   1.003
 7897SOL     OW24589   3.791   3.959   6.910
 7897SOL    HW124590   3.800   3.860   6.921
 7897SOL    HW224591   3.775   4.001   6.999
 7898SOL     OW24592   5.371   0.326   4.245
 7898SOL    HW124593   5.468   0.322   4.269
 7898SOL    HW224594   5.357   0.277   4.158
 7899SOL     OW24595   4.976   4.277   2.097
 7899SOL    HW124596   4.964   4.376   2.108
 7899SOL    HW224597   4.889   4.237   2.067
 7900SOL     OW24598   0.462   3.916   0.759
 7900SOL    HW124599   0.431   3.923   0.854
 7900SOL    HW224600   0.542   3.855   0.755
 7901SOL     OW24601   6.490   1.372   6.057
 7901SOL    HW124602   6.541   1.371   5.971
 7901SOL    HW224603   6.398   1.336   6.042
 7902SOL     OW24604   0.311   6.379   2.999
 7902SOL    HW124605   0.305   6.462   2.943
 7902SOL    HW224606   0.358   6.401   3.085
 7903SOL     OW24607   2.464   2.598   5.156
 7903SOL    HW124608   2.465   2.698   5.151
 7903SOL    HW224609   2.557   2.563   5.143
 7904SOL     OW24610   5.222   0.448   2.159
 7904SOL    HW124611   5.293   0.482   2.097
 7904SOL    HW224612   5.142   0.509   2.155
 7905SOL     OW24613   5.428   0.370   0.228
 7905SOL    HW124614   5.444   0.385   0.131
 7905SOL    HW224615   5.430   0.457   0.277
 7906SOL     OW24616   1.706   5.567   0.854
 7906SOL    HW124617   1.737   5.660   0.877
 7906SOL    HW224618   1.770   5.500   0.892
 7907SOL     OW24619   6.287   0.325   2.888
 7907SOL    HW124620   6.289   0.401   2.952
 7907SOL    HW224621   6.218   0.259   2.916
 7908SOL     OW24622   0.199   0.455   6.760
 7908SOL    HW124623   0.137   0.417   6.829
 7908SOL    HW224624   0.289   0.414   6.771
 7909SOL     OW24625   5.426   4.306   2.113
 7909SOL    HW124626   5.361   4.262   2.175
 7909SOL    HW224627   5.507   4.248   2.102
 7910SOL     OW24628   2.039   3.853   0.496
 7910SOL    HW124629   2.086   3.935   0.463
 7910SOL    HW224630   1.941   3.871   0.504
 7911SOL     OW24631   0.639   4.064   1.160
 7911SOL    HW124632   0.633   4.162   1.142
 7911SOL    HW224633   0.561   4.018   1.118
 7912SOL     OW24634   5.449   5.685   0.618
 7912SOL    HW124635   5.361   5.666   0.575
 7912SOL    HW224636   5.481   5.776   0.590
 7913SOL     OW24637   0.734   3.829   1.042
 7913SOL    HW124638   0.704   3.890   1.115
 7913SOL    HW224639   0.669   3.754   1.032
 7914SOL     OW24640   6.352   5.531   4.980
 7914SOL    HW124641   6.448   5.506   4.993
 7914SOL    HW224642   6.319   5.495   4.893
 7915SOL     OW24643   3.696   6.530   2.829
 7915SOL    HW124644   3.663   6.491   2.914
 7915SOL    HW224645   3.684   6.464   2.755
 7916SOL     OW24646   1.817   0.638   4.328
 7916SOL    HW124647   1.784   0.581   4.252
 7916SOL    HW224648   1.759   0.719   4.336
 7917SOL     OW24649   4.185   3.231   0.851
 7917SOL    HW124650   4.206   3.291   0.774
 7917SOL    HW224651   4.093   3.252   0.885
 7918SOL     OW24652   2.410   1.405   4.664
 7918SOL    HW124653   2.318   1.388   4.698
 7918SOL    HW224654   2.476   1.394   4.739
 7919SOL     OW24655   1.679   5.939   2.717
 7919SOL    HW124656   1.594   5.888   2.733
 7919SOL    HW224657   1.657   6.032   2.688
 7920SOL     OW24658   4.809   6.729   0.827
 7920SOL    HW124659   4.882   6.789   0.795
 7920SOL    HW224660   4.827   6.635   0.796
 7921SOL     OW24661   4.896   1.580   1.863
 7921SOL    HW124662   4.890   1.526   1.779
 7921SOL    HW224663   4.811   1.632   1.876
 7922SOL     OW24664   0.750   5.882   1.092
 7922SOL    HW124665   0.723   5.933   1.173
 7922SOL    HW224666   0.684   5.898   1.018
 7923SOL     OW24667   3.855   1.605   0.481
 7923SOL    HW124668   3.884   1.528   0.425
 7923SOL    HW224669   3.755   1.611   0.478
 7924SOL     OW24670   6.125   6.930   0.536
 7924SOL    HW124671   6.071   7.014   0.540
 7924SOL    HW224672   6.193   6.930   0.609
 7925SOL     OW24673   2.264   6.566   0.722
 7925SOL    HW124674   2.239   6.531   0.812
 7925SOL    HW224675   2.349   6.619   0.729
 7926SOL     OW24676   4.293   5.799   6.851
 7926SOL    HW124677   4.238   5.880   6.831
 7926SOL    HW224678   4.333   5.764   6.766
 7927SOL     OW24679   4.357   6.942   1.972
 7927SOL    HW124680   4.319   6.853   1.948
 7927SOL    HW224681   4.454   6.944   1.949
 7928SOL     OW24682   6.504   1.419   3.157
 7928SOL    HW124683   6.455   1.476   3.223
 7928SOL    HW224684   6.575   1.474   3.112
 7929SOL     OW24685   3.544   4.525   5.598
 7929SOL    HW124686   3.595   4.444   5.628
 7929SOL    HW224687   3.533   4.522   5.499
 7930SOL     OW24688   4.353   5.899   5.359
 7930SOL    HW124689   4.437   5.949   5.379
 7930SOL    HW224690   4.320   5.926   5.268
 7931SOL     OW24691   3.634   2.292   0.334
 7931SOL    HW124692   3.712   2.290   0.272
 7931SOL    HW224693   3.550   2.274   0.283
 7932SOL     OW24694   1.041   5.534   2.073
 7932SOL    HW124695   1.053   5.436   2.059
 7932SOL    HW224696   1.068   5.559   2.166
 7933SOL     OW24697   0.534   0.842   6.235
 7933SOL    HW124698   0.435   0.838   6.221
 7933SOL    HW224699   0.557   0.806   6.325
 7934SOL     OW24700   1.060   4.449   0.865
 7934SOL    HW124701   1.106   4.382   0.924
 7934SOL    HW224702   1.123   4.479   0.794
 7935SOL     OW24703   5.532   3.261   2.839
 7935SOL    HW124704   5.464   3.230   2.905
 7935SOL    HW224705   5.566   3.183   2.787
 7936SOL     OW24706   3.120   6.192   4.223
 7936SOL    HW124707   3.076   6.280   4.211
 7936SOL    HW224708   3.108   6.137   4.140
 7937SOL     OW24709   3.013   6.737   6.975
 7937SOL    HW124710   3.110   6.740   7.000
 7937SOL    HW224711   2.959   6.705   0.029
 7938SOL     OW24712   3.546   6.634   4.673
 7938SOL    HW124713   3.502   6.695   4.607
 7938SOL    HW224714   3.588   6.688   4.746
 7939SOL     OW24715   0.497   1.526   4.550
 7939SOL    HW124716   0.592   1.556   4.539
 7939SOL    HW224717   0.443   1.555   4.470
 7940SOL     OW24718   4.793   0.948   3.242
 7940SOL    HW124719   4.858   0.908   3.307
 7940SOL    HW224720   4.818   1.044   3.226
 7941SOL     OW24721   4.009   6.580   1.583
 7941SOL    HW124722   3.952   6.565   1.664
 7941SOL    HW224723   4.013   6.678   1.564
 7942SOL     OW24724   1.723   4.712   1.495
 7942SOL    HW124725   1.714   4.765   1.580
 7942SOL    HW224726   1.662   4.632   1.500
 7943SOL     OW24727   1.409   5.940   6.248
 7943SOL    HW124728   1.455   5.874   6.188
 7943SOL    HW224729   1.434   5.920   6.343
 7944SOL     OW24730   1.888   2.798   0.741
 7944SOL    HW124731   1.848   2.864   0.804
 7944SOL    HW224732   1.826   2.783   0.664
 7945SOL     OW24733   5.534   4.790   2.877
 7945SOL    HW124734   5.466   4.732   2.924
 7945SOL    HW224735   5.555   4.869   2.935
 7946SOL     OW24736   3.850   1.435   5.600
 7946SOL    HW124737   3.844   1.465   5.696
 7946SOL    HW224738   3.775   1.476   5.548
 7947SOL     OW24739   1.277   3.557   5.344
 7947SOL    HW124740   1.367   3.579   5.307
 7947SOL    HW224741   1.215   3.633   5.328
 7948SOL     OW24742   1.056   4.597   2.240
 7948SOL    HW124743   1.054   4.603   2.339
 7948SOL    HW224744   1.091   4.507   2.213
 7949SOL     OW24745   3.187   5.531   6.794
 7949SOL    HW124746   3.207   5.621   6.756
 7949SOL    HW224747   3.253   5.464   6.758
 7950SOL     OW24748   5.824   5.320   5.431
 7950SOL    HW124749   5.889   5.253   5.395
 7950SOL    HW224750   5.770   5.357   5.355
 7951SOL     OW24751   2.846   5.509   2.974
 7951SOL    HW124752   2.799   5.421   2.986
 7951SOL    HW224753   2.900   5.529   3.056
 7952SOL     OW24754   5.002   3.133   0.048
 7952SOL    HW124755   5.067   3.207   0.031
 7952SOL    HW224756   4.988   3.082   6.986
 7953SOL     OW24757   2.781   1.088   1.098
 7953SOL    HW124758   2.818   1.042   1.179
 7953SOL    HW224759   2.683   1.067   1.090
 7954SOL     OW24760   3.505   2.968   6.887
 7954SOL    HW124761   3.418   2.917   6.887
 7954SOL    HW224762   3.509   3.026   6.968
 7955SOL     OW24763   1.654   0.759   6.712
 7955SOL    HW124764   1.659   0.672   6.761
 7955SOL    HW224765   1.559   0.775   6.683
 7956SOL     OW24766   6.332   6.019   1.076
 7956SOL    HW124767   6.414   6.035   1.021
 7956SOL    HW224768   6.311   6.101   1.129
 7957SOL     OW24769   4.490   0.737   5.558
 7957SOL    HW124770   4.490   0.648   5.604
 7957SOL    HW224771   4.400   0.780   5.567
 7958SOL     OW24772   5.868   2.255   0.498
 7958SOL    HW124773   5.953   2.226   0.454
 7958SOL    HW224774   5.803   2.179   0.498
 7959SOL     OW24775   5.539   1.474   6.059
 7959SOL    HW124776   5.612   1.525   6.014
 7959SOL    HW224777   5.535   1.382   6.021
 7960SOL     OW24778   0.312   0.570   5.304
 7960SOL    HW124779   0.233   0.610   5.259
 7960SOL    HW224780   0.318   0.604   5.398
 7961SOL     OW24781   6.983   0.549   0.414
 7961SOL    HW124782   7.003   0.462   0.370
 7961SOL    HW224783   0.040   0.579   0.467
 7962SOL     OW24784   5.954   0.061   5.788
 7962SOL    HW124785   6.025   0.022   5.729
 7962SOL    HW224786   5.916   0.143   5.745
 7963SOL     OW24787   0.211   4.911   5.153
 7963SOL    HW124788   0.255   4.899   5.064
 7963SOL    HW224789   0.264   4.862   5.223
 7964SOL     OW24790   6.112   3.776   2.584
 7964SOL    HW124791   6.061   3.775   2.670
 7964SOL    HW224792   6.205   3.743   2.599
 7965SOL     OW24793   3.658   1.706   6.441
 7965SOL    HW124794   3.634   1.681   6.535
 7965SOL    HW224795   3.684   1.803   6.439
 7966SOL     OW24796   4.885   3.879   5.091
 7966SOL    HW124797   4.798   3.908   5.132
 7966SOL    HW224798   4.878   3.784   5.062
 7967SOL     OW24799   1.236   4.693   2.672
 7967SOL    HW124800   1.230   4.766   2.739
 7967SOL    HW224801   1.253   4.732   2.581
 7968SOL     OW24802   6.558   2.105   4.136
 7968SOL    HW124803   6.543   2.197   4.098
 7968SOL    HW224804   6.552   2.109   4.235
 7969SOL     OW24805   4.630   5.368   6.898
 7969SOL    HW124806   4.583   5.330   6.818
 7969SOL    HW224807   4.712   5.314   6.918
 7970SOL     OW24808   5.806   2.737   2.495
 7970SOL    HW124809   5.798   2.735   2.395
 7970SOL    HW224810   5.860   2.817   2.521
 7971SOL     OW24811   2.741   0.786   0.291
 7971SOL    HW124812   2.698   0.743   0.371
 7971SOL    HW224813   2.769   0.879   0.315
 7972SOL     OW24814   3.670   3.781   3.107
 7972SOL    HW124815   3.712   3.872   3.113
 7972SOL    HW224816   3.615   3.776   3.024
 7973SOL     OW24817   6.663   4.000   2.997
 7973SOL    HW124818   6.725   3.922   3.002
 7973SOL    HW224819   6.716   4.084   2.982
 7974SOL     OW24820   6.549   2.123   5.300
 7974SOL    HW124821   6.629   2.088   5.251
 7974SOL    HW224822   6.520   2.057   5.369
 7975SOL     OW24823   5.075   0.582   0.799
 7975SOL    HW124824   5.067   0.601   0.701
 7975SOL    HW224825   5.067   0.483   0.814
 7976SOL     OW24826   0.302   0.200   6.580
 7976SOL    HW124827   0.287   0.103   6.595
 7976SOL    HW224828   0.218   0.251   6.597
 7977SOL     OW24829   5.609   5.895   2.787
 7977SOL    HW124830   5.678   5.839   2.742
 7977SOL    HW224831   5.581   5.969   2.726
 7978SOL     OW24832   0.098   4.452   0.642
 7978SOL    HW124833   0.062   4.376   0.696
 7978SOL    HW224834   0.178   4.421   0.590
 7979SOL     OW24835   1.515   3.185   4.722
 7979SOL    HW124836   1.562   3.270   4.745
 7979SOL    HW224837   1.531   3.164   4.625
 7980SOL     OW24838   4.200   5.135   6.786
 7980SOL    HW124839   4.153   5.077   6.719
 7980SOL    HW224840   4.233   5.218   6.742
 7981SOL     OW24841   1.407   4.506   3.050
 7981SOL    HW124842   1.402   4.442   2.973
 7981SOL    HW224843   1.482   4.480   3.111
 7982SOL     OW24844   0.381   1.767   5.800
 7982SOL    HW124845   0.287   1.775   5.834
 7982SOL    HW224846   0.416   1.858   5.779
 7983SOL     OW24847   4.662   1.016   1.973
 7983SOL    HW124848   4.581   0.957   1.969
 7983SOL    HW224849   4.638   1.109   1.944
 7984SOL     OW24850   1.225   1.896   2.086
 7984SOL    HW124851   1.281   1.837   2.029
 7984SOL    HW224852   1.141   1.921   2.036
 7985SOL     OW24853   2.153   1.915   5.405
 7985SOL    HW124854   2.062   1.877   5.418
 7985SOL    HW224855   2.188   1.949   5.492
 7986SOL     OW24856   2.595   1.534   3.713
 7986SOL    HW124857   2.582   1.630   3.738
 7986SOL    HW224858   2.567   1.476   3.789
 7987SOL     OW24859   1.641   3.263   1.006
 7987SOL    HW124860   1.608   3.274   0.912
 7987SOL    HW224861   1.641   3.351   1.052
 7988SOL     OW24862   0.297   1.750   0.765
 7988SOL    HW124863   0.350   1.673   0.732
 7988SOL    HW224864   0.214   1.761   0.708
 7989SOL     OW24865   1.305   4.762   0.307
 7989SOL    HW124866   1.364   4.813   0.245
 7989SOL    HW224867   1.307   4.804   0.397
 7990SOL     OW24868   3.019   5.123   5.450
 7990SOL    HW124869   2.965   5.100   5.369
 7990SOL    HW224870   2.985   5.071   5.528
 7991SOL     OW24871   6.087   2.010   4.679
 7991SOL    HW124872   6.078   1.977   4.585
 7991SOL    HW224873   5.996   2.017   4.720
 7992SOL     OW24874   2.868   0.524   0.863
 7992SOL    HW124875   2.854   0.620   0.838
 7992SOL    HW224876   2.823   0.505   0.950
 7993SOL     OW24877   6.631   5.767   1.049
 7993SOL    HW124878   6.663   5.843   1.106
 7993SOL    HW224879   6.648   5.681   1.095
 7994SOL     OW24880   5.341   0.473   3.202
 7994SOL    HW124881   5.431   0.515   3.193
 7994SOL    HW224882   5.290   0.518   3.276
 7995SOL     OW24883   0.060   4.650   1.674
 7995SOL    HW124884   0.145   4.646   1.623
 7995SOL    HW224885   0.078   4.684   1.766
 7996SOL     OW24886   3.448   0.700   2.610
 7996SOL    HW124887   3.466   0.749   2.524
 7996SOL    HW224888   3.533   0.691   2.662
 7997SOL     OW24889   0.660   2.390   0.278
 7997SOL    HW124890   0.590   2.429   0.219
 7997SOL    HW224891   0.637   2.408   0.374
 7998SOL     OW24892   2.420   0.741   0.407
 7998SOL    HW124893   2.498   0.688   0.440
 7998SOL    HW224894   2.341   0.681   0.394
 7999SOL     OW24895   0.939   0.980   5.240
 7999SOL    HW124896   1.024   0.938   5.270
 7999SOL    HW224897   0.885   1.008   5.320
 8000SOL     OW24898   5.728   5.580   0.032
 8000SOL    HW124899   5.659   5.512   0.008
 8000SOL    HW224900   5.819   5.545   0.012
 8001SOL     OW24901   4.828   6.822   1.096
 8001SOL    HW124902   4.835   6.782   1.004
 8001SOL    HW224903   4.732   6.830   1.122
 8002SOL     OW24904   1.114   6.696   5.278
 8002SOL    HW124905   1.027   6.720   5.322
 8002SOL    HW224906   1.122   6.746   5.192
 8003SOL     OW24907   2.554   6.622   3.123
 8003SOL    HW124908   2.597   6.532   3.111
 8003SOL    HW224909   2.600   6.688   3.064
 8004SOL     OW24910   1.283   3.270   3.773
 8004SOL    HW124911   1.365   3.220   3.800
 8004SOL    HW224912   1.212   3.205   3.745
 8005SOL     OW24913   2.455   0.703   3.669
 8005SOL    HW124914   2.501   0.688   3.582
 8005SOL    HW224915   2.379   0.639   3.679
 8006SOL     OW24916   3.554   4.554   5.304
 8006SOL    HW124917   3.527   4.645   5.272
 8006SOL    HW224918   3.652   4.541   5.289
 8007SOL     OW24919   6.202   1.084   6.968
 8007SOL    HW124920   6.140   1.147   6.922
 8007SOL    HW224921   6.291   1.128   6.981
 8008SOL     OW24922   4.957   6.651   6.029
 8008SOL    HW124923   5.029   6.614   6.086
 8008SOL    HW224924   4.883   6.584   6.021
 8009SOL     OW24925   5.290   1.067   6.855
 8009SOL    HW124926   5.213   1.119   6.891
 8009SOL    HW224927   5.354   1.046   6.929
 8010SOL     OW24928   2.340   2.494   5.434
 8010SOL    HW124929   2.328   2.472   5.531
 8010SOL    HW224930   2.416   2.441   5.397
 8011SOL     OW24931   4.003   1.826   1.856
 8011SOL    HW124932   4.076   1.823   1.924
 8011SOL    HW224933   3.914   1.832   1.902
 8012SOL     OW24934   1.114   2.890   5.232
 8012SOL    HW124935   1.061   2.888   5.317
 8012SOL    HW224936   1.143   2.983   5.213
 8013SOL     OW24937   2.138   2.860   3.082
 8013SOL    HW124938   2.189   2.774   3.076
 8013SOL    HW224939   2.168   2.911   3.162
 8014SOL     OW24940   1.776   0.765   2.811
 8014SOL    HW124941   1.820   0.790   2.725
 8014SOL    HW224942   1.823   0.810   2.887
 8015SOL     OW24943   1.831   0.056   5.318
 8015SOL    HW124944   1.884   6.996   5.335
 8015SOL    HW224945   1.823   0.071   5.219
 8016SOL     OW24946   4.607   1.527   5.082
 8016SOL    HW124947   4.539   1.467   5.041
 8016SOL    HW224948   4.697   1.507   5.044
 8017SOL     OW24949   6.473   6.728   0.616
 8017SOL    HW124950   6.426   6.767   0.695
 8017SOL    HW224951   6.572   6.740   0.626
 8018SOL     OW24952   4.558   2.087   7.014
 8018SOL    HW124953   4.613   2.140   0.054
 8018SOL    HW224954   4.539   1.997   0.030
 8019SOL     OW24955   3.138   3.220   0.993
 8019SOL    HW124956   3.166   3.222   0.897
 8019SOL    HW224957   3.075   3.144   1.007
 8020SOL     OW24958   0.204   0.256   5.219
 8020SOL    HW124959   0.163   0.307   5.144
 8020SOL    HW224960   0.302   0.242   5.202
 8021SOL     OW24961   1.390   2.283   2.610
 8021SOL    HW124962   1.412   2.277   2.513
 8021SOL    HW224963   1.468   2.320   2.661
 8022SOL     OW24964   4.730   1.382   1.652
 8022SOL    HW124965   4.680   1.464   1.679
 8022SOL    HW224966   4.724   1.371   1.552
 8023SOL     OW24967   4.551   6.312   3.489
 8023SOL    HW124968   4.476   6.261   3.448
 8023SOL    HW224969   4.638   6.280   3.451
 8024SOL     OW24970   2.112   6.631   6.358
 8024SOL    HW124971   2.050   6.698   6.318
 8024SOL    HW224972   2.206   6.656   6.337
 8025SOL     OW24973   1.856   5.273   1.560
 8025SOL    HW124974   1.912   5.218   1.499
 8025SOL    HW224975   1.842   5.225   1.647
 8026SOL     OW24976   0.915   5.655   6.738
 8026SOL    HW124977   0.972   5.597   6.795
 8026SOL    HW224978   0.820   5.650   6.769
 8027SOL     OW24979   3.308   6.931   6.781
 8027SOL    HW124980   3.295   6.874   6.862
 8027SOL    HW224981   3.386   6.898   6.729
 8028SOL     OW24982   2.580   5.589   5.202
 8028SOL    HW124983   2.679   5.577   5.192
 8028SOL    HW224984   2.535   5.501   5.192
 8029SOL     OW24985   6.383   0.394   0.338
 8029SOL    HW124986   6.293   0.394   0.382
 8029SOL    HW224987   6.387   0.469   0.272
 8030SOL     OW24988   0.104   4.125   0.431
 8030SOL    HW124989   0.021   4.154   0.479
 8030SOL    HW224990   0.176   4.107   0.498
 8031SOL     OW24991   7.006   0.968   2.286
 8031SOL    HW124992   0.048   1.007   2.351
 8031SOL    HW224993   0.001   1.005   2.195
 8032SOL     OW24994   5.395   2.749   1.441
 8032SOL    HW124995   5.405   2.668   1.498
 8032SOL    HW224996   5.469   2.813   1.460
 8033SOL     OW24997   4.333   3.588   1.117
 8033SOL    HW124998   4.376   3.656   1.059
 8033SOL    HW224999   4.351   3.496   1.080
 8034SOL     OW25000   5.630   0.629   5.421
 8034SOL    HW125001   5.637   0.615   5.519
 8034SOL    HW225002   5.663   0.548   5.373
 8035SOL     OW25003   5.619   1.620   2.894
 8035SOL    HW125004   5.701   1.625   2.837
 8035SOL    HW225005   5.602   1.525   2.919
 8036SOL     OW25006   6.522   2.830   3.453
 8036SOL    HW125007   6.543   2.764   3.381
 8036SOL    HW225008   6.537   2.789   3.542
 8037SOL     OW25009   0.800   2.602   6.141
 8037SOL    HW125010   0.792   2.502   6.135
 8037SOL    HW225011   0.845   2.637   6.059
 8038SOL     OW25012   6.665   5.915   2.535
 8038SOL    HW125013   6.587   5.976   2.520
 8038SOL    HW225014   6.697   5.923   2.629
 8039SOL     OW25015   1.248   2.033   5.143
 8039SOL    HW125016   1.340   2.043   5.179
 8039SOL    HW225017   1.206   1.950   5.178
 8040SOL     OW25018   1.952   5.275   6.345
 8040SOL    HW125019   1.959   5.354   6.405
 8040SOL    HW225020   2.043   5.234   6.332
 8041SOL     OW25021   3.478   1.575   2.956
 8041SOL    HW125022   3.515   1.487   2.987
 8041SOL    HW225023   3.447   1.628   3.035
 8042SOL     OW25024   4.060   4.170   5.522
 8042SOL    HW125025   4.056   4.256   5.472
 8042SOL    HW225026   3.967   4.140   5.545
 8043SOL     OW25027   5.428   5.052   0.105
 8043SOL    HW125028   5.367   4.974   0.116
 8043SOL    HW225029   5.521   5.019   0.084
 8044SOL     OW25030   3.160   3.919   1.454
 8044SOL    HW125031   3.242   3.880   1.498
 8044SOL    HW225032   3.095   3.946   1.525
 8045SOL     OW25033   0.792   1.187   2.852
 8045SOL    HW125034   0.693   1.197   2.866
 8045SOL    HW225035   0.827   1.265   2.801
 8046SOL     OW25036   0.293   5.132   2.401
 8046SOL    HW125037   0.385   5.146   2.365
 8046SOL    HW225038   0.294   5.143   2.501
 8047SOL     OW25039   4.116   6.475   5.692
 8047SOL    HW125040   4.159   6.565   5.682
 8047SOL    HW225041   4.017   6.485   5.689
 8048SOL     OW25042   3.669   3.340   0.175
 8048SOL    HW125043   3.689   3.373   0.083
 8048SOL    HW225044   3.755   3.328   0.225
 8049SOL     OW25045   1.790   0.327   0.858
 8049SOL    HW125046   1.760   0.397   0.923
 8049SOL    HW225047   1.825   0.372   0.776
 8050SOL     OW25048   1.639   4.315   5.308
 8050SOL    HW125049   1.681   4.306   5.217
 8050SOL    HW225050   1.687   4.386   5.360
 8051SOL     OW25051   3.464   5.834   4.200
 8051SOL    HW125052   3.437   5.799   4.289
 8051SOL    HW225053   3.556   5.804   4.178
 8052SOL     OW25054   2.162   2.747   2.203
 8052SOL    HW125055   2.188   2.689   2.280
 8052SOL    HW225056   2.200   2.710   2.119
 8053SOL     OW25057   2.523   2.765   6.087
 8053SOL    HW125058   2.445   2.826   6.103
 8053SOL    HW225059   2.578   2.759   6.171
 8054SOL     OW25060   5.720   4.061   5.386
 8054SOL    HW125061   5.744   4.158   5.398
 8054SOL    HW225062   5.636   4.042   5.438
 8055SOL     OW25063   0.307   0.520   5.003
 8055SOL    HW125064   0.216   0.479   5.007
 8055SOL    HW225065   0.363   0.484   5.077
 8056SOL     OW25066   2.763   0.992   4.824
 8056SOL    HW125067   2.708   0.924   4.777
 8056SOL    HW225068   2.710   1.034   4.898
 8057SOL     OW25069   2.479   2.450   2.122
 8057SOL    HW125070   2.380   2.437   2.126
 8057SOL    HW225071   2.517   2.448   2.214
 8058SOL     OW25072   3.263   6.697   3.194
 8058SOL    HW125073   3.230   6.792   3.194
 8058SOL    HW225074   3.363   6.697   3.193
 8059SOL     OW25075   2.679   3.294   6.493
 8059SOL    HW125076   2.676   3.225   6.421
 8059SOL    HW225077   2.657   3.252   6.581
 8060SOL     OW25078   6.506   0.265   5.452
 8060SOL    HW125079   6.598   0.274   5.414
 8060SOL    HW225080   6.444   0.233   5.381
 8061SOL     OW25081   0.218   1.266   1.825
 8061SOL    HW125082   0.217   1.187   1.765
 8061SOL    HW225083   0.129   1.276   1.869
 8062SOL     OW25084   4.669   5.828   5.209
 8062SOL    HW125085   4.612   5.911   5.212
 8062SOL    HW225086   4.611   5.748   5.219
 8063SOL     OW25087   3.546   6.463   3.048
 8063SOL    HW125088   3.575   6.424   3.135
 8063SOL    HW225089   3.467   6.413   3.014
 8064SOL     OW25090   5.914   2.312   0.149
 8064SOL    HW125091   5.873   2.339   0.236
 8064SOL    HW225092   5.897   2.215   0.133
 8065SOL     OW25093   3.364   6.232   4.968
 8065SOL    HW125094   3.324   6.214   4.878
 8065SOL    HW225095   3.332   6.320   5.002
 8066SOL     OW25096   0.190   0.233   4.338
 8066SOL    HW125097   0.236   0.155   4.295
 8066SOL    HW225098   0.140   0.285   4.269
 8067SOL     OW25099   5.097   3.217   3.359
 8067SOL    HW125100   5.082   3.132   3.309
 8067SOL    HW225101   5.115   3.197   3.455
 8068SOL     OW25102   6.280   4.364   1.198
 8068SOL    HW125103   6.192   4.333   1.233
 8068SOL    HW225104   6.346   4.289   1.204
 8069SOL     OW25105   2.511   4.586   2.511
 8069SOL    HW125106   2.577   4.625   2.447
 8069SOL    HW225107   2.557   4.562   2.596
 8070SOL     OW25108   5.235   4.625   6.966
 8070SOL    HW125109   5.239   4.658   6.871
 8070SOL    HW225110   5.154   4.569   6.978
 8071SOL     OW25111   3.398   6.655   6.062
 8071SOL    HW125112   3.429   6.745   6.029
 8071SOL    HW225113   3.347   6.608   5.990
 8072SOL     OW25114   1.967   2.644   6.269
 8072SOL    HW125115   1.939   2.625   6.363
 8072SOL    HW225116   1.987   2.742   6.259
 8073SOL     OW25117   3.903   0.247   6.082
 8073SOL    HW125118   3.883   0.235   5.985
 8073SOL    HW225119   3.860   0.173   6.134
 8074SOL     OW25120   1.483   1.346   0.032
 8074SOL    HW125121   1.435   1.281   6.996
 8074SOL    HW225122   1.426   1.428   0.044
 8075SOL     OW25123   0.345   6.410   0.188
 8075SOL    HW125124   0.388   6.500   0.190
 8075SOL    HW225125   0.404   6.344   0.234
 8076SOL     OW25126   6.663   6.586   0.257
 8076SOL    HW125127   6.656   6.498   0.305
 8076SOL    HW225128   6.572   6.619   0.234
 8077SOL     OW25129   3.997   5.359   0.746
 8077SOL    HW125130   4.073   5.328   0.688
 8077SOL    HW225131   4.020   5.449   0.783
 8078SOL     OW25132   0.658   0.716   1.494
 8078SOL    HW125133   0.630   0.776   1.569
 8078SOL    HW225134   0.739   0.754   1.449
 8079SOL     OW25135   1.646   2.063   4.771
 8079SOL    HW125136   1.623   2.081   4.675
 8079SOL    HW225137   1.723   2.120   4.798
 8080SOL     OW25138   1.115   3.629   2.649
 8080SOL    HW125139   1.197   3.647   2.595
 8080SOL    HW225140   1.067   3.549   2.612
 8081SOL     OW25141   5.967   5.433   4.827
 8081SOL    HW125142   6.054   5.389   4.803
 8081SOL    HW225143   5.946   5.415   4.923
 8082SOL     OW25144   3.261   2.074   2.237
 8082SOL    HW125145   3.248   1.979   2.208
 8082SOL    HW225146   3.324   2.077   2.314
 8083SOL     OW25147   5.581   2.081   5.267
 8083SOL    HW125148   5.590   2.130   5.181
 8083SOL    HW225149   5.641   2.122   5.336
 8084SOL     OW25150   2.687   0.479   6.465
 8084SOL    HW125151   2.643   0.473   6.555
 8084SOL    HW225152   2.663   0.565   6.422
 8085SOL     OW25153   0.354   6.108   4.579
 8085SOL    HW125154   0.340   6.170   4.502
 8085SOL    HW225155   0.452   6.096   4.594
 8086SOL     OW25156   0.609   1.662   2.247
 8086SOL    HW125157   0.615   1.737   2.181
 8086SOL    HW225158   0.552   1.589   2.209
 8087SOL     OW25159   1.206   0.643   0.338
 8087SOL    HW125160   1.213   0.711   0.265
 8087SOL    HW225161   1.168   0.685   0.420
 8088SOL     OW25162   5.213   0.216   5.638
 8088SOL    HW125163   5.294   0.274   5.624
 8088SOL    HW225164   5.233   0.124   5.603
 8089SOL     OW25165   5.780   2.261   6.011
 8089SOL    HW125166   5.853   2.311   6.057
 8089SOL    HW225167   5.709   2.237   6.078
 8090SOL     OW25168   4.123   1.992   6.430
 8090SOL    HW125169   4.156   2.064   6.492
 8090SOL    HW225170   4.062   2.033   6.362
 8091SOL     OW25171   1.481   4.671   4.952
 8091SOL    HW125172   1.389   4.669   4.992
 8091SOL    HW225173   1.477   4.712   4.861
 8092SOL     OW25174   5.012   2.244   5.941
 8092SOL    HW125175   5.068   2.321   5.908
 8092SOL    HW225176   5.047   2.159   5.902
 8093SOL     OW25177   3.509   6.603   2.278
 8093SOL    HW125178   3.444   6.548   2.226
 8093SOL    HW225179   3.514   6.695   2.239
 8094SOL     OW25180   1.360   4.253   4.053
 8094SOL    HW125181   1.399   4.340   4.081
 8094SOL    HW225182   1.307   4.214   4.128
 8095SOL     OW25183   1.369   4.540   5.691
 8095SOL    HW125184   1.287   4.538   5.633
 8095SOL    HW225185   1.450   4.528   5.634
 8096SOL     OW25186   0.749   6.580   2.240
 8096SOL    HW125187   0.757   6.643   2.163
 8096SOL    HW225188   0.678   6.512   2.220
 8097SOL     OW25189   3.205   5.790   5.336
 8097SOL    HW125190   3.218   5.828   5.244
 8097SOL    HW225191   3.283   5.813   5.393
 8098SOL     OW25192   0.982   5.186   4.540
 8098SOL    HW125193   0.922   5.248   4.490
 8098SOL    HW225194   0.934   5.151   4.621
 8099SOL     OW25195   2.872   5.886   4.534
 8099SOL    HW125196   2.839   5.860   4.443
 8099SOL    HW225197   2.811   5.956   4.572
 8100SOL     OW25198   6.709   0.669   6.165
 8100SOL    HW125199   6.685   0.730   6.241
 8100SOL    HW225200   6.807   0.653   6.165
 8101SOL     OW25201   2.183   6.259   1.651
 8101SOL    HW125202   2.210   6.344   1.606
 8101SOL    HW225203   2.176   6.274   1.749
 8102SOL     OW25204   0.799   2.911   4.243
 8102SOL    HW125205   0.781   2.956   4.156
 8102SOL    HW225206   0.716   2.912   4.299
 8103SOL     OW25207   3.436   1.502   2.153
 8103SOL    HW125208   3.517   1.448   2.178
 8103SOL    HW225209   3.408   1.558   2.231
 8104SOL     OW25210   2.420   6.503   6.547
 8104SOL    HW125211   2.373   6.483   6.632
 8104SOL    HW225212   2.505   6.451   6.543
 8105SOL     OW25213   6.759   1.876   2.436
 8105SOL    HW125214   6.826   1.876   2.510
 8105SOL    HW225215   6.681   1.932   2.462
 8106SOL     OW25216   2.036   5.741   4.810
 8106SOL    HW125217   1.953   5.773   4.855
 8106SOL    HW225218   2.079   5.669   4.864
 8107SOL     OW25219   1.542   5.472   5.031
 8107SOL    HW125220   1.529   5.414   5.110
 8107SOL    HW225221   1.634   5.456   4.993
 8108SOL     OW25222   0.047   0.771   6.949
 8108SOL    HW125223   0.092   0.766   0.016
 8108SOL    HW225224   0.028   0.867   6.927
 8109SOL     OW25225   6.495   3.386   0.050
 8109SOL    HW125226   6.486   3.446   0.129
 8109SOL    HW225227   6.416   3.324   0.046
 8110SOL     OW25228   4.648   5.372   0.594
 8110SOL    HW125229   4.616   5.448   0.651
 8110SOL    HW225230   4.590   5.292   0.608
 8111SOL     OW25231   5.690   0.706   2.948
 8111SOL    HW125232   5.768   0.761   2.979
 8111SOL    HW225233   5.722   0.613   2.927
 8112SOL     OW25234   0.976   2.516   5.528
 8112SOL    HW125235   0.904   2.531   5.460
 8112SOL    HW225236   1.038   2.445   5.496
 8113SOL     OW25237   6.064   2.595   0.916
 8113SOL    HW125238   6.072   2.614   0.818
 8113SOL    HW225239   6.102   2.672   0.967
 8114SOL     OW25240   1.911   4.352   1.846
 8114SOL    HW125241   1.832   4.354   1.785
 8114SOL    HW225242   1.986   4.303   1.801
 8115SOL     OW25243   2.520   6.953   0.131
 8115SOL    HW125244   2.560   6.869   0.095
 8115SOL    HW225245   2.514   6.948   0.231
 8116SOL     OW25246   3.221   5.160   1.358
 8116SOL    HW125247   3.126   5.187   1.347
 8116SOL    HW225248   3.226   5.077   1.414
 8117SOL     OW25249   2.941   0.095   3.141
 8117SOL    HW125250   2.938   0.195   3.146
 8117SOL    HW225251   2.859   0.057   3.183
 8118SOL     OW25252   6.170   3.445   0.215
 8118SOL    HW125253   6.104   3.402   0.276
 8118SOL    HW225254   6.262   3.436   0.254
 8119SOL     OW25255   6.202   5.831   6.273
 8119SOL    HW125256   6.280   5.894   6.274
 8119SOL    HW225257   6.228   5.747   6.226
 8120SOL     OW25258   2.048   6.193   1.034
 8120SOL    HW125259   1.951   6.206   1.016
 8120SOL    HW225260   2.062   6.106   1.081
 8121SOL     OW25261   1.297   3.842   2.862
 8121SOL    HW125262   1.227   3.828   2.932
 8121SOL    HW225263   1.254   3.876   2.778
 8122SOL     OW25264   0.965   4.220   2.450
 8122SOL    HW125265   0.916   4.207   2.364
 8122SOL    HW225266   0.967   4.133   2.501
 8123SOL     OW25267   0.307   2.130   6.308
 8123SOL    HW125268   0.256   2.180   6.238
 8123SOL    HW225269   0.381   2.078   6.264
 8124SOL     OW25270   5.440   5.123   3.805
 8124SOL    HW125271   5.464   5.076   3.720
 8124SOL    HW225272   5.523   5.160   3.846
 8125SOL     OW25273   0.917   0.303   3.058
 8125SOL    HW125274   0.862   0.223   3.032
 8125SOL    HW225275   0.902   0.324   3.155
 8126SOL     OW25276   3.916   5.281   3.965
 8126SOL    HW125277   3.960   5.354   4.019
 8126SOL    HW225278   3.818   5.297   3.963
 8127SOL     OW25279   2.826   2.827   0.403
 8127SOL    HW125280   2.840   2.869   0.493
 8127SOL    HW225281   2.738   2.779   0.401
 8128SOL     OW25282   3.204   3.100   2.357
 8128SOL    HW125283   3.245   3.160   2.425
 8128SOL    HW225284   3.231   3.005   2.375
 8129SOL     OW25285   1.389   2.720   0.674
 8129SOL    HW125286   1.363   2.742   0.580
 8129SOL    HW225287   1.321   2.658   0.714
 8130SOL     OW25288   1.419   5.458   6.698
 8130SOL    HW125289   1.358   5.441   6.620
 8130SOL    HW225290   1.372   5.434   6.783
 8131SOL     OW25291   1.981   2.968   1.102
 8131SOL    HW125292   1.903   2.980   1.040
 8131SOL    HW225293   2.048   2.908   1.058
 8132SOL     OW25294   6.415   0.046   3.824
 8132SOL    HW125295   6.465   0.077   3.905
 8132SOL    HW225296   6.470   0.063   3.742
 8133SOL     OW25297   3.507   4.985   1.430
 8133SOL    HW125298   3.412   4.963   1.411
 8133SOL    HW225299   3.566   4.913   1.394
 8134SOL     OW25300   6.203   0.672   5.271
 8134SOL    HW125301   6.125   0.628   5.315
 8134SOL    HW225302   6.278   0.606   5.263
 8135SOL     OW25303   2.660   7.019   2.018
 8135SOL    HW125304   2.698   6.945   1.963
 8135SOL    HW225305   2.715   0.007   2.101
 8136SOL     OW25306   4.677   4.811   2.231
 8136SOL    HW125307   4.666   4.735   2.295
 8136SOL    HW225308   4.648   4.782   2.140
 8137SOL     OW25309   3.996   1.741   4.662
 8137SOL    HW125310   4.017   1.764   4.757
 8137SOL    HW225311   4.071   1.772   4.603
 8138SOL     OW25312   5.628   0.690   1.994
 8138SOL    HW125313   5.625   0.785   2.026
 8138SOL    HW225314   5.638   0.689   1.894
 8139SOL     OW25315   1.269   1.235   2.558
 8139SOL    HW125316   1.261   1.283   2.471
 8139SOL    HW225317   1.362   1.199   2.569
 8140SOL     OW25318   4.036   0.826   3.961
 8140SOL    HW125319   4.028   0.732   3.925
 8140SOL    HW225320   3.948   0.856   3.996
 8141SOL     OW25321   4.062   5.496   5.441
 8141SOL    HW125322   4.010   5.412   5.457
 8141SOL    HW225323   4.017   5.549   5.369
 8142SOL     OW25324   5.606   4.830   0.475
 8142SOL    HW125325   5.569   4.757   0.533
 8142SOL    HW225326   5.703   4.815   0.460
 8143SOL     OW25327   5.859   4.016   6.081
 8143SOL    HW125328   5.886   4.112   6.083
 8143SOL    HW225329   5.776   4.003   6.135
 8144SOL     OW25330   5.497   6.843   6.820
 8144SOL    HW125331   5.511   6.915   6.752
 8144SOL    HW225332   5.563   6.769   6.803
 8145SOL     OW25333   6.240   5.547   2.634
 8145SOL    HW125334   6.194   5.636   2.629
 8145SOL    HW225335   6.208   5.497   2.714
 8146SOL     OW25336   3.421   1.089   5.949
 8146SOL    HW125337   3.329   1.072   5.985
 8146SOL    HW225338   3.470   1.151   6.010
 8147SOL     OW25339   4.694   2.284   4.300
 8147SOL    HW125340   4.770   2.220   4.312
 8147SOL    HW225341   4.728   2.369   4.260
 8148SOL     OW25342   5.357   2.741   3.219
 8148SOL    HW125343   5.264   2.775   3.232
 8148SOL    HW225344   5.370   2.719   3.122
 8149SOL     OW25345   4.175   5.042   2.705
 8149SOL    HW125346   4.214   5.024   2.795
 8149SOL    HW225347   4.171   4.958   2.652
 8150SOL     OW25348   0.824   5.237   6.899
 8150SOL    HW125349   0.818   5.337   6.899
 8150SOL    HW225350   0.838   5.205   6.806
 8151SOL     OW25351   1.236   1.962   4.812
 8151SOL    HW125352   1.262   1.879   4.861
 8151SOL    HW225353   1.303   2.034   4.830
 8152SOL     OW25354   2.029   0.676   3.468
 8152SOL    HW125355   2.083   0.716   3.395
 8152SOL    HW225356   1.932   0.683   3.446
 8153SOL     OW25357   2.536   6.856   1.235
 8153SOL    HW125358   2.464   6.836   1.301
 8153SOL    HW225359   2.595   6.776   1.226
 8154SOL     OW25360   2.005   6.267   3.699
 8154SOL    HW125361   1.934   6.260   3.628
 8154SOL    HW225362   2.088   6.222   3.667
 8155SOL     OW25363   3.382   2.983   2.677
 8155SOL    HW125364   3.375   3.082   2.665
 8155SOL    HW225365   3.407   2.941   2.589
 8156SOL     OW25366   5.775   0.797   5.224
 8156SOL    HW125367   5.705   0.749   5.278
 8156SOL    HW225368   5.845   0.833   5.286
 8157SOL     OW25369   5.743   3.913   6.862
 8157SOL    HW125370   5.643   3.904   6.861
 8157SOL    HW225371   5.780   3.873   6.779
 8158SOL     OW25372   1.472   5.755   1.578
 8158SOL    HW125373   1.428   5.696   1.510
 8158SOL    HW225374   1.524   5.698   1.642
 8159SOL     OW25375   1.864   5.108   2.055
 8159SOL    HW125376   1.926   5.186   2.063
 8159SOL    HW225377   1.917   5.023   2.057
 8160SOL     OW25378   4.226   1.868   1.677
 8160SOL    HW125379   4.140   1.869   1.728
 8160SOL    HW225380   4.235   1.781   1.629
 8161SOL     OW25381   5.044   0.922   0.140
 8161SOL    HW125382   4.981   0.847   0.124
 8161SOL    HW225383   4.992   1.004   0.165
 8162SOL     OW25384   5.471   6.996   1.181
 8162SOL    HW125385   5.408   6.922   1.156
 8162SOL    HW225386   5.438   0.059   1.142
 8163SOL     OW25387   2.379   4.377   5.065
 8163SOL    HW125388   2.450   4.447   5.063
 8163SOL    HW225389   2.362   4.351   5.160
 8164SOL     OW25390   4.075   2.465   1.525
 8164SOL    HW125391   4.125   2.417   1.454
 8164SOL    HW225392   4.074   2.563   1.505
 8165SOL     OW25393   2.080   4.099   1.435
 8165SOL    HW125394   2.074   4.136   1.527
 8165SOL    HW225395   2.086   3.999   1.439
 8166SOL     OW25396   2.813   0.726   1.965
 8166SOL    HW125397   2.741   0.659   1.981
 8166SOL    HW225398   2.853   0.711   1.874
 8167SOL     OW25399   5.853   2.405   3.921
 8167SOL    HW125400   5.833   2.381   3.826
 8167SOL    HW225401   5.838   2.325   3.979
 8168SOL     OW25402   3.619   1.098   2.852
 8168SOL    HW125403   3.646   1.086   2.757
 8168SOL    HW225404   3.596   1.009   2.892
 8169SOL     OW25405   4.371   3.718   6.687
 8169SOL    HW125406   4.414   3.771   6.761
 8169SOL    HW225407   4.298   3.662   6.724
 8170SOL     OW25408   1.064   5.844   4.059
 8170SOL    HW125409   1.139   5.783   4.033
 8170SOL    HW225410   1.018   5.808   4.140
 8171SOL     OW25411   0.866   2.048   5.951
 8171SOL    HW125412   0.938   2.099   5.998
 8171SOL    HW225413   0.900   2.015   5.863
 8172SOL     OW25414   0.527   6.501   0.610
 8172SOL    HW125415   0.459   6.568   0.639
 8172SOL    HW225416   0.596   6.546   0.553
 8173SOL     OW25417   3.849   2.837   0.094
 8173SOL    HW125418   3.897   2.827   0.007
 8173SOL    HW225419   3.815   2.748   0.125
 8174SOL     OW25420   5.388   0.548   1.965
 8174SOL    HW125421   5.339   0.573   1.882
 8174SOL    HW225422   5.478   0.593   1.965
 8175SOL     OW25423   0.644   2.093   6.558
 8175SOL    HW125424   0.666   2.178   6.510
 8175SOL    HW225425   0.614   2.114   6.651
 8176SOL     OW25426   2.709   5.657   1.801
 8176SOL    HW125427   2.720   5.700   1.711
 8176SOL    HW225428   2.783   5.687   1.861
 8177SOL     OW25429   0.157   6.483   4.646
 8177SOL    HW125430   0.066   6.475   4.687
 8177SOL    HW225431   0.215   6.410   4.681
 8178SOL     OW25432   1.591   6.151   6.560
 8178SOL    HW125433   1.582   6.052   6.571
 8178SOL    HW225434   1.681   6.180   6.590
 8179SOL     OW25435   3.398   2.698   7.020
 8179SOL    HW125436   3.482   2.682   6.969
 8179SOL    HW225437   3.417   2.696   0.095
 8180SOL     OW25438   6.862   6.700   4.944
 8180SOL    HW125439   6.931   6.741   5.003
 8180SOL    HW225440   6.823   6.619   4.989
 8181SOL     OW25441   2.352   1.979   3.253
 8181SOL    HW125442   2.353   2.078   3.240
 8181SOL    HW225443   2.409   1.935   3.183
 8182SOL     OW25444   4.369   2.139   5.172
 8182SOL    HW125445   4.326   2.195   5.242
 8182SOL    HW225446   4.466   2.127   5.195
 8183SOL     OW25447   1.814   3.782   4.555
 8183SOL    HW125448   1.887   3.842   4.587
 8183SOL    HW225449   1.780   3.815   4.467
 8184SOL     OW25450   7.013   6.812   5.127
 8184SOL    HW125451   0.028   6.904   5.122
 8184SOL    HW225452   6.999   6.786   5.223
 8185SOL     OW25453   3.212   1.292   2.155
 8185SOL    HW125454   3.116   1.320   2.162
 8185SOL    HW225455   3.270   1.373   2.159
 8186SOL     OW25456   3.836   6.239   5.883
 8186SOL    HW125457   3.872   6.164   5.828
 8186SOL    HW225458   3.886   6.245   5.969
 8187SOL     OW25459   1.858   1.496   5.060
 8187SOL    HW125460   1.795   1.487   4.983
 8187SOL    HW225461   1.939   1.440   5.045
 8188SOL     OW25462   6.298   2.575   3.089
 8188SOL    HW125463   6.209   2.531   3.075
 8188SOL    HW225464   6.286   2.674   3.089
 8189SOL     OW25465   6.324   4.327   2.942
 8189SOL    HW125466   6.421   4.343   2.956
 8189SOL    HW225467   6.310   4.273   2.859
 8190SOL     OW25468   5.150   3.612   3.953
 8190SOL    HW125469   5.227   3.606   3.889
 8190SOL    HW225470   5.070   3.648   3.906
 8191SOL     OW25471   0.926   5.126   3.782
 8191SOL    HW125472   1.006   5.185   3.778
 8191SOL    HW225473   0.929   5.071   3.866
 8192SOL     OW25474   2.225   4.982   2.215
 8192SOL    HW125475   2.164   4.909   2.182
 8192SOL    HW225476   2.308   4.983   2.159
 8193SOL     OW25477   3.855   6.758   5.242
 8193SOL    HW125478   3.830   6.833   5.180
 8193SOL    HW225479   3.949   6.729   5.224
 8194SOL     OW25480   6.840   0.653   0.024
 8194SOL    HW125481   6.924   0.683   7.002
 8194SOL    HW225482   6.766   0.648   6.980
 8195SOL     OW25483   6.565   6.358   0.389
 8195SOL    HW125484   6.558   6.259   0.388
 8195SOL    HW225485   6.551   6.392   0.482
 8196SOL     OW25486   2.750   6.750   6.021
 8196SOL    HW125487   2.690   6.821   5.983
 8196SOL    HW225488   2.709   6.715   6.106
 8197SOL     OW25489   0.707   0.469   6.208
 8197SOL    HW125490   0.665   0.416   6.281
 8197SOL    HW225491   0.666   0.443   6.120
 8198SOL     OW25492   3.158   6.949   3.163
 8198SOL    HW125493   3.225   7.000   3.108
 8198SOL    HW225494   3.077   7.006   3.177
 8199SOL     OW25495   6.776   3.448   0.170
 8199SOL    HW125496   6.748   3.355   0.148
 8199SOL    HW225497   6.870   3.449   0.204
 8200SOL     OW25498   5.571   4.168   0.834
 8200SOL    HW125499   5.477   4.191   0.806
 8200SOL    HW225500   5.615   4.116   0.761
 8201SOL     OW25501   5.896   0.051   3.275
 8201SOL    HW125502   5.826   0.070   3.344
 8201SOL    HW225503   5.901   0.128   3.210
 8202SOL     OW25504   1.396   3.983   3.823
 8202SOL    HW125505   1.297   3.996   3.825
 8202SOL    HW225506   1.436   4.039   3.751
 8203SOL     OW25507   5.841   3.578   1.443
 8203SOL    HW125508   5.849   3.507   1.373
 8203SOL    HW225509   5.768   3.553   1.507
 8204SOL     OW25510   3.575   0.213   1.498
 8204SOL    HW125511   3.651   0.196   1.561
 8204SOL    HW225512   3.489   0.182   1.540
 8205SOL     OW25513   5.757   5.384   2.143
 8205SOL    HW125514   5.822   5.347   2.077
 8205SOL    HW225515   5.666   5.344   2.127
 8206SOL     OW25516   4.498   1.956   4.698
 8206SOL    HW125517   4.452   1.892   4.636
 8206SOL    HW225518   4.583   1.914   4.730
 8207SOL     OW25519   2.660   6.019   6.749
 8207SOL    HW125520   2.599   5.950   6.711
 8207SOL    HW225521   2.720   6.054   6.677
 8208SOL     OW25522   1.630   4.410   1.208
 8208SOL    HW125523   1.536   4.401   1.176
 8208SOL    HW225524   1.686   4.337   1.168
 8209SOL     OW25525   0.487   0.149   5.090
 8209SOL    HW125526   0.545   0.220   5.131
 8209SOL    HW225527   0.533   0.061   5.096
 8210SOL     OW25528   2.576   1.481   0.158
 8210SOL    HW125529   2.589   1.440   0.068
 8210SOL    HW225530   2.638   1.559   0.169
 8211SOL     OW25531   3.317   3.110   4.497
 8211SOL    HW125532   3.386   3.048   4.536
 8211SOL    HW225533   3.342   3.204   4.519
 8212SOL     OW25534   3.258   0.122   1.172
 8212SOL    HW125535   3.295   0.135   1.265
 8212SOL    HW225536   3.305   0.183   1.109
 8213SOL     OW25537   4.565   4.203   1.607
 8213SOL    HW125538   4.656   4.172   1.636
 8213SOL    HW225539   4.503   4.197   1.685
 8214SOL     OW25540   3.956   5.602   4.630
 8214SOL    HW125541   3.921   5.530   4.690
 8214SOL    HW225542   3.997   5.674   4.685
 8215SOL     OW25543   4.236   6.782   7.020
 8215SOL    HW125544   4.271   6.843   6.948
 8215SOL    HW225545   4.300   6.707   0.010
 8216SOL     OW25546   5.418   5.099   1.502
 8216SOL    HW125547   5.403   5.198   1.502
 8216SOL    HW225548   5.508   5.079   1.540
 8217SOL     OW25549   2.274   6.157   3.723
 8217SOL    HW125550   2.367   6.122   3.706
 8217SOL    HW225551   2.270   6.197   3.815
 8218SOL     OW25552   1.948   6.871   4.934
 8218SOL    HW125553   1.897   6.954   4.953
 8218SOL    HW225554   1.977   6.829   5.020
 8219SOL     OW25555   3.677   3.843   0.961
 8219SOL    HW125556   3.625   3.907   1.019
 8219SOL    HW225557   3.628   3.828   0.875
 8220SOL     OW25558   4.063   3.300   4.174
 8220SOL    HW125559   4.040   3.296   4.077
 8220SOL    HW225560   4.133   3.369   4.189
 8221SOL     OW25561   5.593   3.706   3.303
 8221SOL    HW125562   5.572   3.786   3.246
 8221SOL    HW225563   5.679   3.666   3.272
 8222SOL     OW25564   5.925   3.457   0.410
 8222SOL    HW125565   5.930   3.394   0.488
 8222SOL    HW225566   5.978   3.540   0.431
 8223SOL     OW25567   0.954   5.837   5.604
 8223SOL    HW125568   0.924   5.752   5.647
 8223SOL    HW225569   0.937   5.913   5.666
 8224SOL     OW25570   5.587   1.668   0.513
 8224SOL    HW125571   5.566   1.621   0.427
 8224SOL    HW225572   5.534   1.753   0.519
 8225SOL     OW25573   5.352   1.165   0.757
 8225SOL    HW125574   5.367   1.192   0.662
 8225SOL    HW225575   5.317   1.072   0.761
 8226SOL     OW25576   4.124   0.391   0.427
 8226SOL    HW125577   4.204   0.386   0.367
 8226SOL    HW225578   4.130   0.472   0.485
 8227SOL     OW25579   4.755   2.313   3.233
 8227SOL    HW125580   4.683   2.375   3.263
 8227SOL    HW225581   4.772   2.326   3.135
 8228SOL     OW25582   2.097   0.461   4.702
 8228SOL    HW125583   2.026   0.472   4.632
 8228SOL    HW225584   2.172   0.525   4.684
 8229SOL     OW25585   4.833   4.070   0.769
 8229SOL    HW125586   4.786   4.049   0.855
 8229SOL    HW225587   4.932   4.068   0.783
 8230SOL     OW25588   5.902   0.643   6.290
 8230SOL    HW125589   5.808   0.619   6.317
 8230SOL    HW225590   5.908   0.741   6.276
 8231SOL     OW25591   2.278   1.511   2.335
 8231SOL    HW125592   2.314   1.590   2.285
 8231SOL    HW225593   2.347   1.479   2.400
 8232SOL     OW25594   3.690   5.905   2.834
 8232SOL    HW125595   3.759   5.976   2.822
 8232SOL    HW225596   3.674   5.890   2.932
 8233SOL     OW25597   0.698   1.130   6.056
 8233SOL    HW125598   0.784   1.080   6.057
 8233SOL    HW225599   0.713   1.223   6.022
 8234SOL     OW25600   1.017   2.197   0.658
 8234SOL    HW125601   0.989   2.148   0.576
 8234SOL    HW225602   1.094   2.150   0.700
 8235SOL     OW25603   0.777   6.013   1.345
 8235SOL    HW125604   0.820   6.103   1.345
 8235SOL    HW225605   0.844   5.944   1.373
 8236SOL     OW25606   0.507   6.455   0.907
 8236SOL    HW125607   0.412   6.483   0.918
 8236SOL    HW225608   0.541   6.488   0.819
 8237SOL     OW25609   4.052   5.068   0.229
 8237SOL    HW125610   4.099   5.121   0.159
 8237SOL    HW225611   3.953   5.069   0.211
 8238SOL     OW25612   1.179   4.002   0.312
 8238SOL    HW125613   1.271   3.966   0.325
 8238SOL    HW225614   1.173   4.093   0.353
 8239SOL     OW25615   1.621   1.247   5.206
 8239SOL    HW125616   1.651   1.256   5.301
 8239SOL    HW225617   1.588   1.335   5.173
 8240SOL     OW25618   3.505   3.612   4.415
 8240SOL    HW125619   3.426   3.559   4.386
 8240SOL    HW225620   3.510   3.697   4.363
 8241SOL     OW25621   1.821   3.838   6.155
 8241SOL    HW125622   1.757   3.779   6.204
 8241SOL    HW225623   1.770   3.896   6.091
 8242SOL     OW25624   0.921   3.320   3.594
 8242SOL    HW125625   1.009   3.332   3.548
 8242SOL    HW225626   0.889   3.226   3.582
 8243SOL     OW25627   0.225   5.491   4.494
 8243SOL    HW125628   0.318   5.508   4.463
 8243SOL    HW225629   0.164   5.560   4.454
 8244SOL     OW25630   0.823   0.595   4.455
 8244SOL    HW125631   0.771   0.526   4.505
 8244SOL    HW225632   0.907   0.554   4.420
 8245SOL     OW25633   5.286   2.017   3.573
 8245SOL    HW125634   5.320   2.110   3.589
 8245SOL    HW225635   5.190   2.012   3.598
 8246SOL     OW25636   2.267   5.237   6.913
 8246SOL    HW125637   2.171   5.252   6.890
 8246SOL    HW225638   2.291   5.289   6.995
 8247SOL     OW25639   2.956   5.158   2.939
 8247SOL    HW125640   3.041   5.156   2.992
 8247SOL    HW225641   2.978   5.175   2.843
 8248SOL     OW25642   0.370   5.100   3.060
 8248SOL    HW125643   0.316   5.155   3.124
 8248SOL    HW225644   0.442   5.157   3.019
 8249SOL     OW25645   3.007   1.335   6.726
 8249SOL    HW125646   2.942   1.408   6.744
 8249SOL    HW225647   3.025   1.329   6.628
 8250SOL     OW25648   1.115   1.303   0.315
 8250SOL    HW125649   1.029   1.298   0.366
 8250SOL    HW225650   1.184   1.348   0.371
 8251SOL     OW25651   0.435   2.388   4.779
 8251SOL    HW125652   0.508   2.378   4.711
 8251SOL    HW225653   0.434   2.308   4.839
 8252SOL     OW25654   1.490   2.064   6.253
 8252SOL    HW125655   1.542   2.127   6.195
 8252SOL    HW225656   1.505   2.087   6.349
 8253SOL     OW25657   4.876   6.026   0.607
 8253SOL    HW125658   4.806   5.955   0.599
 8253SOL    HW225659   4.961   5.986   0.641
 8254SOL     OW25660   5.425   5.020   6.323
 8254SOL    HW125661   5.483   5.086   6.276
 8254SOL    HW225662   5.432   4.931   6.277
 8255SOL     OW25663   1.217   6.926   6.368
 8255SOL    HW125664   1.243   6.897   6.460
 8255SOL    HW225665   1.263   7.013   6.347
 8256SOL     OW25666   1.224   4.885   3.856
 8256SOL    HW125667   1.144   4.825   3.847
 8256SOL    HW225668   1.197   4.968   3.905
 8257SOL     OW25669   4.974   3.505   3.176
 8257SOL    HW125670   4.937   3.563   3.103
 8257SOL    HW225671   5.062   3.468   3.146
 8258SOL     OW25672   6.819   3.867   1.833
 8258SOL    HW125673   6.850   3.803   1.762
 8258SOL    HW225674   6.720   3.859   1.843
 8259SOL     OW25675   5.313   1.631   4.593
 8259SOL    HW125676   5.391   1.595   4.541
 8259SOL    HW225677   5.267   1.556   4.640
 8260SOL     OW25678   4.105   1.475   1.216
 8260SOL    HW125679   4.128   1.404   1.282
 8260SOL    HW225680   4.050   1.434   1.142
 8261SOL     OW25681   5.980   0.486   2.711
 8261SOL    HW125682   6.034   0.409   2.678
 8261SOL    HW225683   6.040   0.560   2.740
 8262SOL     OW25684   5.794   3.762   1.833
 8262SOL    HW125685   5.735   3.840   1.812
 8262SOL    HW225686   5.755   3.710   1.909
 8263SOL     OW25687   6.860   2.613   5.638
 8263SOL    HW125688   6.865   2.560   5.554
 8263SOL    HW225689   6.933   2.681   5.639
 8264SOL     OW25690   2.932   0.355   3.144
 8264SOL    HW125691   2.883   0.439   3.124
 8264SOL    HW225692   3.022   0.377   3.182
 8265SOL     OW25693   5.328   0.061   0.030
 8265SOL    HW125694   5.282   0.117   0.099
 8265SOL    HW225695   5.317   6.987   0.054
 8266SOL     OW25696   2.504   0.979   3.904
 8266SOL    HW125697   2.429   1.041   3.878
 8266SOL    HW225698   2.579   1.033   3.942
 8267SOL     OW25699   1.725   4.650   2.824
 8267SOL    HW125700   1.814   4.645   2.779
 8267SOL    HW225701   1.653   4.627   2.758
 8268SOL     OW25702   3.335   5.374   6.654
 8268SOL    HW125703   3.390   5.293   6.675
 8268SOL    HW225704   3.337   5.391   6.555
 8269SOL     OW25705   5.969   2.673   3.600
 8269SOL    HW125706   6.047   2.726   3.636
 8269SOL    HW225707   5.929   2.722   3.522
 8270SOL     OW25708   3.824   0.061   6.287
 8270SOL    HW125709   3.818   0.132   6.356
 8270SOL    HW225710   3.739   0.008   6.285
 8271SOL     OW25711   3.834   6.048   6.142
 8271SOL    HW125712   3.769   6.093   6.203
 8271SOL    HW225713   3.809   5.952   6.131
 8272SOL     OW25714   0.811   0.291   1.502
 8272SOL    HW125715   0.740   0.359   1.524
 8272SOL    HW225716   0.890   0.305   1.562
 8273SOL     OW25717   3.675   0.704   6.592
 8273SOL    HW125718   3.576   0.715   6.582
 8273SOL    HW225719   3.703   0.616   6.553
 8274SOL     OW25720   5.389   6.473   5.607
 8274SOL    HW125721   5.489   6.470   5.610
 8274SOL    HW225722   5.360   6.536   5.536
 8275SOL     OW25723   5.649   0.266   3.447
 8275SOL    HW125724   5.606   0.344   3.492
 8275SOL    HW225725   5.711   0.300   3.376
 8276SOL     OW25726   0.430   2.385   6.417
 8276SOL    HW125727   0.390   2.308   6.366
 8276SOL    HW225728   0.529   2.373   6.422
 8277SOL     OW25729   1.242   6.672   6.529
 8277SOL    HW125730   1.232   6.599   6.597
 8277SOL    HW225731   1.174   6.661   6.457
 8278SOL     OW25732   3.206   1.310   6.952
 8278SOL    HW125733   3.265   1.391   6.949
 8278SOL    HW225734   3.155   1.302   6.867
 8279SOL     OW25735   4.659   4.503   5.261
 8279SOL    HW125736   4.617   4.523   5.173
 8279SOL    HW225737   4.757   4.523   5.258
 8280SOL     OW25738   5.236   3.275   6.956
 8280SOL    HW125739   5.315   3.220   6.985
 8280SOL    HW225740   5.257   3.372   6.967
 8281SOL     OW25741   3.101   5.232   0.202
 8281SOL    HW125742   3.199   5.212   0.207
 8281SOL    HW225743   3.073   5.238   0.107
 8282SOL     OW25744   3.214   2.773   0.938
 8282SOL    HW125745   3.190   2.833   1.015
 8282SOL    HW225746   3.313   2.770   0.928
 8283SOL     OW25747   0.105   5.641   3.271
 8283SOL    HW125748   0.109   5.707   3.347
 8283SOL    HW225749   0.153   5.679   3.192
 8284SOL     OW25750   2.590   2.015   1.812
 8284SOL    HW125751   2.643   1.938   1.848
 8284SOL    HW225752   2.616   2.031   1.716
 8285SOL     OW25753   2.856   4.208   6.154
 8285SOL    HW125754   2.925   4.274   6.182
 8285SOL    HW225755   2.842   4.142   6.227
 8286SOL     OW25756   5.542   1.844   5.425
 8286SOL    HW125757   5.447   1.812   5.421
 8286SOL    HW225758   5.549   1.933   5.380
 8287SOL     OW25759   2.218   0.534   3.626
 8287SOL    HW125760   2.144   0.587   3.584
 8287SOL    HW225761   2.187   0.495   3.712
 8288SOL     OW25762   2.331   1.186   2.861
 8288SOL    HW125763   2.372   1.170   2.772
 8288SOL    HW225764   2.243   1.138   2.867
 8289SOL     OW25765   6.739   0.931   5.760
 8289SOL    HW125766   6.721   0.863   5.831
 8289SOL    HW225767   6.772   1.015   5.802
 8290SOL     OW25768   4.543   2.775   1.775
 8290SOL    HW125769   4.582   2.849   1.829
 8290SOL    HW225770   4.614   2.737   1.715
 8291SOL     OW25771   4.094   5.113   6.503
 8291SOL    HW125772   4.076   5.116   6.405
 8291SOL    HW225773   4.136   5.199   6.532
 8292SOL     OW25774   0.722   3.759   4.618
 8292SOL    HW125775   0.755   3.730   4.528
 8292SOL    HW225776   0.622   3.757   4.619
 8293SOL     OW25777   2.843   4.980   3.941
 8293SOL    HW125778   2.807   5.040   4.012
 8293SOL    HW225779   2.936   4.951   3.965
 8294SOL     OW25780   4.657   3.561   5.572
 8294SOL    HW125781   4.715   3.613   5.510
 8294SOL    HW225782   4.687   3.466   5.574
 8295SOL     OW25783   4.896   4.538   2.121
 8295SOL    HW125784   4.926   4.633   2.128
 8295SOL    HW225785   4.798   4.536   2.102
 8296SOL     OW25786   4.034   6.416   1.974
 8296SOL    HW125787   3.949   6.378   2.011
 8296SOL    HW225788   4.016   6.508   1.941
 8297SOL     OW25789   5.647   4.198   3.344
 8297SOL    HW125790   5.735   4.168   3.381
 8297SOL    HW225791   5.609   4.271   3.401
 8298SOL     OW25792   6.577   6.985   5.822
 8298SOL    HW125793   6.645   6.913   5.835
 8298SOL    HW225794   6.489   6.956   5.860
 8299SOL     OW25795   0.432   3.516   0.876
 8299SOL    HW125796   0.336   3.534   0.857
 8299SOL    HW225797   0.477   3.484   0.792
 8300SOL     OW25798   5.070   4.968   2.922
 8300SOL    HW125799   5.070   4.868   2.933
 8300SOL    HW225800   5.058   5.011   3.012
 8301SOL     OW25801   4.912   6.605   0.168
 8301SOL    HW125802   4.997   6.639   0.128
 8301SOL    HW225803   4.880   6.668   0.239
 8302SOL     OW25804   3.339   6.844   5.426
 8302SOL    HW125805   3.358   6.916   5.359
 8302SOL    HW225806   3.355   6.879   5.518
 8303SOL     OW25807   0.341   5.922   2.766
 8303SOL    HW125808   0.273   5.995   2.768
 8303SOL    HW225809   0.320   5.855   2.838
 8304SOL     OW25810   5.510   4.288   3.105
 8304SOL    HW125811   5.564   4.360   3.063
 8304SOL    HW225812   5.554   4.256   3.189
 8305SOL     OW25813   4.772   6.219   4.772
 8305SOL    HW125814   4.871   6.212   4.760
 8305SOL    HW225815   4.743   6.312   4.750
 8306SOL     OW25816   6.486   1.221   2.058
 8306SOL    HW125817   6.393   1.187   2.072
 8306SOL    HW225818   6.549   1.144   2.050
 8307SOL     OW25819   1.484   3.683   2.997
 8307SOL    HW125820   1.465   3.766   2.944
 8307SOL    HW225821   1.473   3.603   2.938
 8308SOL     OW25822   1.183   5.385   0.708
 8308SOL    HW125823   1.201   5.378   0.610
 8308SOL    HW225824   1.237   5.459   0.747
 8309SOL     OW25825   6.141   4.885   4.827
 8309SOL    HW125826   6.176   4.814   4.888
 8309SOL    HW225827   6.194   4.886   4.742
 8310SOL     OW25828   1.351   6.297   0.896
 8310SOL    HW125829   1.276   6.275   0.833
 8310SOL    HW225830   1.438   6.273   0.854
 8311SOL     OW25831   5.483   6.706   3.565
 8311SOL    HW125832   5.565   6.658   3.535
 8311SOL    HW225833   5.480   6.796   3.522
 8312SOL     OW25834   5.413   1.908   0.554
 8312SOL    HW125835   5.341   1.956   0.503
 8312SOL    HW225836   5.370   1.839   0.613
 8313SOL     OW25837   5.450   2.414   5.365
 8313SOL    HW125838   5.466   2.374   5.274
 8313SOL    HW225839   5.519   2.484   5.383
 8314SOL     OW25840   5.096   6.275   4.310
 8314SOL    HW125841   5.101   6.188   4.261
 8314SOL    HW225842   5.002   6.308   4.310
 8315SOL     OW25843   3.787   4.151   5.047
 8315SOL    HW125844   3.797   4.052   5.059
 8315SOL    HW225845   3.805   4.197   5.134
 8316SOL     OW25846   2.066   2.257   6.482
 8316SOL    HW125847   1.980   2.265   6.533
 8316SOL    HW225848   2.143   2.271   6.545
 8317SOL     OW25849   1.827   1.642   3.798
 8317SOL    HW125850   1.793   1.685   3.715
 8317SOL    HW225851   1.752   1.632   3.864
 8318SOL     OW25852   4.662   0.246   0.113
 8318SOL    HW125853   4.670   0.161   0.163
 8318SOL    HW225854   4.639   0.321   0.176
 8319SOL     OW25855   1.248   6.472   6.714
 8319SOL    HW125856   1.310   6.531   6.766
 8319SOL    HW225857   1.260   6.377   6.745
 8320SOL     OW25858   2.996   3.239   4.859
 8320SOL    HW125859   2.954   3.188   4.934
 8320SOL    HW225860   3.013   3.177   4.782
 8321SOL     OW25861   0.311   6.605   1.131
 8321SOL    HW125862   0.229   6.557   1.161
 8321SOL    HW225863   0.392   6.550   1.153
 8322SOL     OW25864   0.755   7.021   0.033
 8322SOL    HW125865   0.770   0.053   0.116
 8322SOL    HW225866   0.754   0.058   6.976
 8323SOL     OW25867   6.097   4.302   0.659
 8323SOL    HW125868   6.163   4.257   0.599
 8323SOL    HW225869   6.013   4.321   0.608
 8324SOL     OW25870   4.743   5.568   6.605
 8324SOL    HW125871   4.700   5.648   6.649
 8324SOL    HW225872   4.793   5.515   6.674
 8325SOL     OW25873   1.195   5.493   6.519
 8325SOL    HW125874   1.111   5.541   6.496
 8325SOL    HW225875   1.174   5.415   6.578
 8326SOL     OW25876   1.390   3.462   0.445
 8326SOL    HW125877   1.327   3.412   0.385
 8326SOL    HW225878   1.472   3.488   0.393
 8327SOL     OW25879   0.564   6.742   4.540
 8327SOL    HW125880   0.645   6.784   4.497
 8327SOL    HW225881   0.482   6.793   4.514
 8328SOL     OW25882   1.097   0.423   0.261
 8328SOL    HW125883   1.151   0.501   0.294
 8328SOL    HW225884   1.106   0.347   0.325
 8329SOL     OW25885   2.003   2.679   4.726
 8329SOL    HW125886   2.028   2.639   4.814
 8329SOL    HW225887   1.910   2.716   4.731
 8330SOL     OW25888   4.069   1.178   6.501
 8330SOL    HW125889   4.015   1.095   6.486
 8330SOL    HW225890   4.140   1.160   6.569
 8331SOL     OW25891   1.734   2.479   5.978
 8331SOL    HW125892   1.715   2.564   6.029
 8331SOL    HW225893   1.832   2.466   5.970
 8332SOL     OW25894   6.046   5.115   1.308
 8332SOL    HW125895   6.003   5.062   1.234
 8332SOL    HW225896   6.107   5.183   1.268
 8333SOL     OW25897   2.288   4.880   0.169
 8333SOL    HW125898   2.360   4.819   0.203
 8333SOL    HW225899   2.214   4.826   0.128
 8334SOL     OW25900   3.686   2.261   6.491
 8334SOL    HW125901   3.784   2.277   6.503
 8334SOL    HW225902   3.663   2.270   6.394
 8335SOL     OW25903   5.260   3.847   6.238
 8335SOL    HW125904   5.241   3.798   6.154
 8335SOL    HW225905   5.251   3.946   6.222
 8336SOL     OW25906   0.951   4.287   4.100
 8336SOL    HW125907   1.040   4.258   4.136
 8336SOL    HW225908   0.898   4.207   4.074
 8337SOL     OW25909   0.648   0.930   4.655
 8337SOL    HW125910   0.684   0.916   4.563
 8337SOL    HW225911   0.708   0.993   4.705
 8338SOL     OW25912   4.204   6.042   1.907
 8338SOL    HW125913   4.166   6.043   1.815
 8338SOL    HW225914   4.301   6.020   1.903
 8339SOL     OW25915   5.843   6.918   0.733
 8339SOL    HW125916   5.804   6.926   0.641
 8339SOL    HW225917   5.880   6.826   0.746
 8340SOL     OW25918   6.450   2.127   6.750
 8340SOL    HW125919   6.418   2.145   6.657
 8340SOL    HW225920   6.393   2.056   6.792
 8341SOL     OW25921   3.841   0.607   0.538
 8341SOL    HW125922   3.802   0.652   0.618
 8341SOL    HW225923   3.923   0.657   0.508
 8342SOL     OW25924   4.524   0.819   0.292
 8342SOL    HW125925   4.515   0.872   0.377
 8342SOL    HW225926   4.547   0.881   0.217
 8343SOL     OW25927   5.437   4.278   4.101
 8343SOL    HW125928   5.404   4.224   4.024
 8343SOL    HW225929   5.495   4.221   4.160
 8344SOL     OW25930   1.318   5.225   5.306
 8344SOL    HW125931   1.313   5.173   5.391
 8344SOL    HW225932   1.232   5.216   5.256
 8345SOL     OW25933   4.459   1.078   3.155
 8345SOL    HW125934   4.516   1.145   3.106
 8345SOL    HW225935   4.429   1.117   3.242
 8346SOL     OW25936   6.031   3.699   4.930
 8346SOL    HW125937   6.108   3.659   4.880
 8346SOL    HW225938   5.974   3.625   4.967
 8347SOL     OW25939   2.684   0.620   0.114
 8347SOL    HW125940   2.713   0.699   0.168
 8347SOL    HW225941   2.591   0.594   0.140
 8348SOL     OW25942   3.432   6.269   1.958
 8348SOL    HW125943   3.352   6.272   1.898
 8348SOL    HW225944   3.512   6.239   1.906
 8349SOL     OW25945   0.236   6.477   1.930
 8349SOL    HW125946   0.250   6.539   2.007
 8349SOL    HW225947   0.321   6.467   1.879
 8350SOL     OW25948   2.368   0.502   0.781
 8350SOL    HW125949   2.421   0.579   0.818
 8350SOL    HW225950   2.271   0.525   0.786
 8351SOL     OW25951   6.671   3.419   3.329
 8351SOL    HW125952   6.679   3.319   3.331
 8351SOL    HW225953   6.680   3.455   3.422
 8352SOL     OW25954   2.498   6.214   1.816
 8352SOL    HW125955   2.523   6.185   1.908
 8352SOL    HW225956   2.451   6.140   1.769
 8353SOL     OW25957   1.399   4.976   2.248
 8353SOL    HW125958   1.310   5.010   2.217
 8353SOL    HW225959   1.440   5.041   2.311
 8354SOL     OW25960   3.232   0.637   3.009
 8354SOL    HW125961   3.230   0.737   3.003
 8354SOL    HW225962   3.303   0.602   2.948
 8355SOL     OW25963   2.265   6.194   6.577
 8355SOL    HW125964   2.278   6.180   6.479
 8355SOL    HW225965   2.222   6.282   6.593
 8356SOL     OW25966   2.208   5.384   0.735
 8356SOL    HW125967   2.205   5.443   0.654
 8356SOL    HW225968   2.127   5.325   0.735
 8357SOL     OW25969   4.570   6.075   5.305
 8357SOL    HW125970   4.526   6.146   5.361
 8357SOL    HW225971   4.647   6.115   5.256
 8358SOL     OW25972   0.907   1.385   4.695
 8358SOL    HW125973   0.996   1.415   4.728
 8358SOL    HW225974   0.916   1.351   4.601
 8359SOL     OW25975   3.470   2.221   5.459
 8359SOL    HW125976   3.528   2.205   5.380
 8359SOL    HW225977   3.375   2.200   5.435
 8360SOL     OW25978   4.357   7.003   1.573
 8360SOL    HW125979   4.350   6.933   1.502
 8360SOL    HW225980   4.453   7.018   1.596
 8361SOL     OW25981   4.058   0.645   6.934
 8361SOL    HW125982   4.055   0.669   6.837
 8361SOL    HW225983   4.115   0.564   6.947
 8362SOL     OW25984   6.889   4.237   1.348
 8362SOL    HW125985   6.870   4.154   1.400
 8362SOL    HW225986   6.968   4.283   1.387
 8363SOL     OW25987   2.690   3.291   6.998
 8363SOL    HW125988   2.688   3.390   6.989
 8363SOL    HW225989   2.782   3.257   6.977
 8364SOL     OW25990   0.376   3.607   4.749
 8364SOL    HW125991   0.441   3.533   4.763
 8364SOL    HW225992   0.400   3.684   4.809
 8365SOL     OW25993   1.910   2.613   2.379
 8365SOL    HW125994   2.005   2.607   2.349
 8365SOL    HW225995   1.903   2.674   2.458
 8366SOL     OW25996   5.237   5.142   1.807
 8366SOL    HW125997   5.230   5.225   1.753
 8366SOL    HW225998   5.333   5.119   1.821
 8367SOL     OW25999   3.539   5.446   4.171
 8367SOL    HW126000   3.590   5.531   4.177
 8367SOL    HW226001   3.527   5.407   4.262
 8368SOL     OW26002   6.552   6.106   0.311
 8368SOL    HW126003   6.501   6.030   0.271
 8368SOL    HW226004   6.602   6.154   0.239
 8369SOL     OW26005   2.101   6.718   1.484
 8369SOL    HW126006   2.127   6.622   1.467
 8369SOL    HW226007   2.120   6.741   1.579
 8370SOL     OW26008   2.402   3.504   0.186
 8370SOL    HW126009   2.370   3.557   0.265
 8370SOL    HW226010   2.437   3.567   0.117
 8371SOL     OW26011   1.731   4.062   6.544
 8371SOL    HW126012   1.643   4.098   6.576
 8371SOL    HW226013   1.756   4.107   6.458
 8372SOL     OW26014   2.510   5.683   2.577
 8372SOL    HW126015   2.593   5.668   2.630
 8372SOL    HW226016   2.524   5.761   2.516
 8373SOL     OW26017   0.239   1.648   4.323
 8373SOL    HW126018   0.201   1.740   4.313
 8373SOL    HW226019   0.194   1.601   4.400
 8374SOL     OW26020   1.267   0.505   4.341
 8374SOL    HW126021   1.259   0.413   4.302
 8374SOL    HW226022   1.285   0.571   4.268
 8375SOL     OW26023   3.322   0.634   4.841
 8375SOL    HW126024   3.253   0.691   4.797
 8375SOL    HW226025   3.394   0.692   4.881
 8376SOL     OW26026   2.098   0.570   2.973
 8376SOL    HW126027   2.025   0.522   3.021
 8376SOL    HW226028   2.183   0.561   3.024
 8377SOL     OW26029   4.197   5.239   7.023
 8377SOL    HW126030   4.180   5.200   6.932
 8377SOL    HW226031   4.289   5.277   0.003
 8378SOL     OW26032   5.550   6.025   4.392
 8378SOL    HW126033   5.637   6.031   4.343
 8378SOL    HW226034   5.554   6.084   4.473
 8379SOL     OW26035   5.856   1.041   1.784
 8379SOL    HW126036   5.892   1.115   1.841
 8379SOL    HW226037   5.758   1.053   1.772
 8380SOL     OW26038   6.593   5.687   0.600
 8380SOL    HW126039   6.495   5.705   0.590
 8380SOL    HW226040   6.642   5.725   0.521
 8381SOL     OW26041   0.258   2.058   2.353
 8381SOL    HW126042   0.345   2.012   2.339
 8381SOL    HW226043   0.217   2.080   2.265
 8382SOL     OW26044   1.850   0.640   1.226
 8382SOL    HW126045   1.875   0.689   1.142
 8382SOL    HW226046   1.840   0.704   1.301
 8383SOL     OW26047   2.889   6.433   6.252
 8383SOL    HW126048   2.828   6.442   6.173
 8383SOL    HW226049   2.959   6.505   6.247
 8384SOL     OW26050   0.710   3.109   2.111
 8384SOL    HW126051   0.644   3.049   2.064
 8384SOL    HW226052   0.691   3.204   2.087
 8385SOL     OW26053   3.648   3.450   1.319
 8385SOL    HW126054   3.734   3.469   1.367
 8385SOL    HW226055   3.595   3.383   1.369
 8386SOL     OW26056   2.145   6.103   1.939
 8386SOL    HW126057   2.144   6.010   1.902
 8386SOL    HW226058   2.054   6.144   1.927
 8387SOL     OW26059   1.558   1.236   2.554
 8387SOL    HW126060   1.619   1.216   2.631
 8387SOL    HW226061   1.532   1.333   2.557
 8388SOL     OW26062   4.004   6.275   1.286
 8388SOL    HW126063   3.961   6.335   1.354
 8388SOL    HW226064   4.017   6.325   1.200
 8389SOL     OW26065   0.481   2.495   3.912
 8389SOL    HW126066   0.438   2.464   3.997
 8389SOL    HW226067   0.579   2.476   3.916
 8390SOL     OW26068   3.364   1.221   6.245
 8390SOL    HW126069   3.420   1.301   6.266
 8390SOL    HW226070   3.418   1.138   6.257
 8391SOL     OW26071   5.159   6.005   1.221
 8391SOL    HW126072   5.194   6.093   1.251
 8391SOL    HW226073   5.220   5.932   1.252
 8392SOL     OW26074   5.503   6.052   5.372
 8392SOL    HW126075   5.530   6.137   5.327
 8392SOL    HW226076   5.561   6.037   5.453
 8393SOL     OW26077   6.677   5.589   3.076
 8393SOL    HW126078   6.679   5.688   3.064
 8393SOL    HW226079   6.582   5.558   3.078
 8394SOL     OW26080   0.620   1.952   3.007
 8394SOL    HW126081   0.628   1.930   2.910
 8394SOL    HW226082   0.616   1.867   3.060
 8395SOL     OW26083   6.959   5.970   5.698
 8395SOL    HW126084   0.018   5.922   5.730
 8395SOL    HW226085   6.919   5.921   5.621
 8396SOL     OW26086   4.891   3.290   1.769
 8396SOL    HW126087   4.972   3.346   1.752
 8396SOL    HW226088   4.901   3.203   1.722
 8397SOL     OW26089   2.113   5.702   3.405
 8397SOL    HW126090   2.144   5.783   3.454
 8397SOL    HW226091   2.158   5.696   3.316
 8398SOL     OW26092   4.331   1.831   0.822
 8398SOL    HW126093   4.289   1.821   0.913
 8398SOL    HW226094   4.278   1.779   0.755
 8399SOL     OW26095   5.548   5.937   0.549
 8399SOL    HW126096   5.639   5.959   0.583
 8399SOL    HW226097   5.497   6.021   0.534
 8400SOL     OW26098   6.572   0.930   2.723
 8400SOL    HW126099   6.495   0.866   2.726
 8400SOL    HW226100   6.574   0.975   2.634
 8401SOL     OW26101   3.101   4.778   6.564
 8401SOL    HW126102   3.173   4.761   6.631
 8401SOL    HW226103   3.130   4.851   6.503
 8402SOL     OW26104   4.457   1.864   0.105
 8402SOL    HW126105   4.371   1.846   0.153
 8402SOL    HW226106   4.473   1.791   0.038
 8403SOL     OW26107   2.139   1.569   4.565
 8403SOL    HW126108   2.230   1.574   4.606
 8403SOL    HW226109   2.124   1.477   4.527
 8404SOL     OW26110   4.354   5.205   5.692
 8404SOL    HW126111   4.312   5.294   5.672
 8404SOL    HW226112   4.311   5.166   5.772
 8405SOL     OW26113   0.717   2.534   5.367
 8405SOL    HW126114   0.711   2.626   5.330
 8405SOL    HW226115   0.692   2.468   5.296
 8406SOL     OW26116   5.379   3.171   1.304
 8406SOL    HW126117   5.279   3.168   1.297
 8406SOL    HW226118   5.419   3.118   1.229
 8407SOL     OW26119   4.765   4.158   2.859
 8407SOL    HW126120   4.667   4.176   2.853
 8407SOL    HW226121   4.792   4.092   2.789
 8408SOL     OW26122   4.992   2.465   4.964
 8408SOL    HW126123   4.918   2.411   5.005
 8408SOL    HW226124   5.080   2.425   4.991
 8409SOL     OW26125   0.933   1.935   3.668
 8409SOL    HW126126   0.913   1.856   3.725
 8409SOL    HW226127   1.032   1.951   3.666
 8410SOL     OW26128   4.033   6.856   1.515
 8410SOL    HW126129   4.049   6.901   1.603
 8410SOL    HW226130   4.065   6.915   1.441
 8411SOL     OW26131   1.567   3.622   4.433
 8411SOL    HW126132   1.650   3.606   4.487
 8411SOL    HW226133   1.546   3.539   4.380
 8412SOL     OW26134   5.576   2.452   3.783
 8412SOL    HW126135   5.519   2.466   3.702
 8412SOL    HW226136   5.655   2.395   3.759
 8413SOL     OW26137   3.513   4.546   0.486
 8413SOL    HW126138   3.612   4.535   0.485
 8413SOL    HW226139   3.487   4.613   0.556
 8414SOL     OW26140   3.869   6.667   3.027
 8414SOL    HW126141   3.841   6.652   3.122
 8414SOL    HW226142   3.788   6.669   2.969
 8415SOL     OW26143   6.717   4.271   2.803
 8415SOL    HW126144   6.692   4.292   2.897
 8415SOL    HW226145   6.647   4.306   2.741
 8416SOL     OW26146   5.200   3.951   2.593
 8416SOL    HW126147   5.275   3.966   2.657
 8416SOL    HW226148   5.125   4.013   2.614
 8417SOL     OW26149   3.059   6.021   6.015
 8417SOL    HW126150   3.040   6.100   5.956
 8417SOL    HW226151   3.069   5.939   5.959
 8418SOL     OW26152   6.470   5.147   3.094
 8418SOL    HW126153   6.512   5.093   3.022
 8418SOL    HW226154   6.479   5.099   3.181
 8419SOL     OW26155   4.377   0.608   3.263
 8419SOL    HW126156   4.411   0.685   3.316
 8419SOL    HW226157   4.324   0.547   3.322
 8420SOL     OW26158   3.931   0.960   6.484
 8420SOL    HW126159   3.837   0.968   6.518
 8420SOL    HW226160   3.977   0.885   6.532
 8421SOL     OW26161   2.310   6.774   1.972
 8421SOL    HW126162   2.371   6.812   2.042
 8421SOL    HW226163   2.288   6.679   1.995
 8422SOL     OW26164   4.430   0.103   0.596
 8422SOL    HW126165   4.410   0.007   0.616
 8422SOL    HW226166   4.349   0.159   0.615
 8423SOL     OW26167   3.614   3.825   1.331
 8423SOL    HW126168   3.566   3.742   1.301
 8423SOL    HW226169   3.586   3.902   1.275
 8424SOL     OW26170   3.579   1.152   2.462
 8424SOL    HW126171   3.594   1.224   2.395
 8424SOL    HW226172   3.665   1.134   2.511
 8425SOL     OW26173   6.220   4.539   7.015
 8425SOL    HW126174   6.148   4.480   0.027
 8425SOL    HW226175   6.267   4.583   0.068
 8426SOL     OW26176   4.069   3.786   3.232
 8426SOL    HW126177   4.154   3.835   3.255
 8426SOL    HW226178   4.001   3.804   3.302
 8427SOL     OW26179   2.184   4.076   6.821
 8427SOL    HW126180   2.266   4.115   6.781
 8427SOL    HW226181   2.123   4.043   6.749
 8428SOL     OW26182   6.504   4.244   2.170
 8428SOL    HW126183   6.523   4.342   2.169
 8428SOL    HW226184   6.430   4.225   2.235
 8429SOL     OW26185   2.008   6.335   3.238
 8429SOL    HW126186   2.087   6.394   3.254
 8429SOL    HW226187   1.954   6.328   3.322
 8430SOL     OW26188   4.431   4.602   2.934
 8430SOL    HW126189   4.493   4.677   2.915
 8430SOL    HW226190   4.392   4.612   3.026
 8431SOL     OW26191   3.047   4.767   1.268
 8431SOL    HW126192   2.955   4.788   1.302
 8431SOL    HW226193   3.079   4.843   1.211
 8432SOL     OW26194   3.997   0.043   6.855
 8432SOL    HW126195   3.944   0.021   6.773
 8432SOL    HW226196   3.947   0.109   6.911
 8433SOL     OW26197   1.368   2.304   6.061
 8433SOL    HW126198   1.335   2.280   6.152
 8433SOL    HW226199   1.310   2.262   5.991
 8434SOL     OW26200   5.578   0.278   5.477
 8434SOL    HW126201   5.505   0.336   5.514
 8434SOL    HW226202   5.647   0.335   5.433
 8435SOL     OW26203   4.393   1.468   1.342
 8435SOL    HW126204   4.387   1.515   1.253
 8435SOL    HW226205   4.305   1.471   1.388
 8436SOL     OW26206   4.183   4.335   1.689
 8436SOL    HW126207   4.090   4.300   1.682
 8436SOL    HW226208   4.234   4.282   1.757
 8437SOL     OW26209   0.234   1.207   1.388
 8437SOL    HW126210   0.267   1.301   1.399
 8437SOL    HW226211   0.273   1.150   1.460
 8438SOL     OW26212   1.306   5.880   2.026
 8438SOL    HW126213   1.283   5.972   1.994
 8438SOL    HW226214   1.400   5.878   2.058
 8439SOL     OW26215   6.870   5.298   2.595
 8439SOL    HW126216   6.913   5.308   2.685
 8439SOL    HW226217   6.896   5.210   2.556
 8440SOL     OW26218   0.960   0.704   2.340
 8440SOL    HW126219   0.998   0.612   2.352
 8440SOL    HW226220   0.969   0.731   2.245
 8441SOL     OW26221   4.216   5.333   6.583
 8441SOL    HW126222   4.238   5.331   6.485
 8441SOL    HW226223   4.222   5.427   6.616
 8442SOL     OW26224   2.615   4.597   6.977
 8442SOL    HW126225   2.617   4.694   6.955
 8442SOL    HW226226   2.626   4.585   0.053
 8443SOL     OW26227   1.704   0.257   3.202
 8443SOL    HW126228   1.646   0.332   3.169
 8443SOL    HW226229   1.646   0.184   3.239
 8444SOL     OW26230   3.714   6.207   3.539
 8444SOL    HW126231   3.810   6.179   3.528
 8444SOL    HW226232   3.711   6.295   3.585
 8445SOL     OW26233   4.036   4.750   2.907
 8445SOL    HW126234   3.940   4.756   2.883
 8445SOL    HW226235   4.092   4.750   2.824
 8446SOL     OW26236   5.597   4.411   2.412
 8446SOL    HW126237   5.654   4.452   2.484
 8446SOL    HW226238   5.524   4.357   2.454
 8447SOL     OW26239   4.503   2.399   2.189
 8447SOL    HW126240   4.539   2.456   2.263
 8447SOL    HW226241   4.552   2.420   2.105
 8448SOL     OW26242   0.905   3.499   6.482
 8448SOL    HW126243   0.973   3.436   6.520
 8448SOL    HW226244   0.937   3.593   6.493
 8449SOL     OW26245   1.922   3.056   4.614
 8449SOL    HW126246   1.922   3.085   4.519
 8449SOL    HW226247   1.870   2.972   4.624
 8450SOL     OW26248   2.166   5.207   2.686
 8450SOL    HW126249   2.151   5.116   2.648
 8450SOL    HW226250   2.137   5.209   2.782
 8451SOL     OW26251   3.569   2.474   1.278
 8451SOL    HW126252   3.580   2.396   1.339
 8451SOL    HW226253   3.632   2.547   1.305
 8452SOL     OW26254   6.435   6.052   0.561
 8452SOL    HW126255   6.511   6.024   0.621
 8452SOL    HW226256   6.469   6.063   0.468
 8453SOL     OW26257   6.330   3.992   6.358
 8453SOL    HW126258   6.231   3.979   6.362
 8453SOL    HW226259   6.367   3.992   6.451
 8454SOL     OW26260   1.698   0.014   4.256
 8454SOL    HW126261   1.737   0.095   4.298
 8454SOL    HW226262   1.736   6.955   4.300
 8455SOL     OW26263   5.072   1.355   1.074
 8455SOL    HW126264   5.162   1.363   1.032
 8455SOL    HW226265   5.020   1.282   1.031
 8456SOL     OW26266   5.673   5.600   2.995
 8456SOL    HW126267   5.697   5.541   2.918
 8456SOL    HW226268   5.573   5.602   3.005
 8457SOL     OW26269   6.905   5.698   6.145
 8457SOL    HW126270   6.851   5.626   6.187
 8457SOL    HW226271   6.997   5.699   6.185
 8458SOL     OW26272   1.075   1.615   0.479
 8458SOL    HW126273   0.997   1.562   0.512
 8458SOL    HW226274   1.051   1.660   0.393
 8459SOL     OW26275   3.433   5.714   2.275
 8459SOL    HW126276   3.495   5.791   2.281
 8459SOL    HW226277   3.389   5.699   2.364
 8460SOL     OW26278   4.737   1.455   0.720
 8460SOL    HW126279   4.753   1.511   0.801
 8460SOL    HW226280   4.639   1.447   0.703
 8461SOL     OW26281   6.310   3.876   1.636
 8461SOL    HW126282   6.220   3.851   1.671
 8461SOL    HW226283   6.320   3.975   1.636
 8462SOL     OW26284   3.344   4.838   6.696
 8462SOL    HW126285   3.408   4.816   6.770
 8462SOL    HW226286   3.301   4.926   6.715
 8463SOL     OW26287   6.662   1.705   0.348
 8463SOL    HW126288   6.683   1.760   0.428
 8463SOL    HW226289   6.689   1.755   0.265
 8464SOL     OW26290   0.314   3.553   0.013
 8464SOL    HW126291   0.297   3.506   6.950
 8464SOL    HW226292   0.231   3.599   0.044
 8465SOL     OW26293   4.116   3.085   1.395
 8465SOL    HW126294   4.196   3.135   1.428
 8465SOL    HW226295   4.106   3.000   1.446
 8466SOL     OW26296   5.967   1.107   5.888
 8466SOL    HW126297   6.002   1.041   5.822
 8466SOL    HW226298   5.870   1.089   5.905
 8467SOL     OW26299   3.486   1.016   1.342
 8467SOL    HW126300   3.415   1.037   1.409
 8467SOL    HW226301   3.449   0.955   1.272
 8468SOL     OW26302   6.104   3.241   6.849
 8468SOL    HW126303   6.112   3.337   6.877
 8468SOL    HW226304   6.089   3.184   6.929
 8469SOL     OW26305   3.999   2.963   5.780
 8469SOL    HW126306   3.963   3.039   5.724
 8469SOL    HW226307   3.990   2.987   5.877
 8470SOL     OW26308   1.498   5.095   1.513
 8470SOL    HW126309   1.540   5.163   1.574
 8470SOL    HW226310   1.547   5.093   1.426
 8471SOL     OW26311   3.690   2.201   5.287
 8471SOL    HW126312   3.760   2.269   5.264
 8471SOL    HW226313   3.657   2.158   5.202
 8472SOL     OW26314   5.706   1.691   5.900
 8472SOL    HW126315   5.787   1.669   5.847
 8472SOL    HW226316   5.712   1.786   5.932
 8473SOL     OW26317   4.656   4.609   6.171
 8473SOL    HW126318   4.670   4.673   6.096
 8473SOL    HW226319   4.630   4.520   6.135
 8474SOL     OW26320   3.672   3.830   2.663
 8474SOL    HW126321   3.770   3.850   2.671
 8474SOL    HW226322   3.621   3.891   2.723
 8475SOL     OW26323   6.655   2.790   1.874
 8475SOL    HW126324   6.638   2.771   1.971
 8475SOL    HW226325   6.712   2.871   1.865
 8476SOL     OW26326   6.092   0.038   1.720
 8476SOL    HW126327   6.069   6.988   1.784
 8476SOL    HW226328   6.084   0.004   1.626
 8477SOL     OW26329   5.900   6.559   1.404
 8477SOL    HW126330   5.872   6.634   1.463
 8477SOL    HW226331   5.819   6.510   1.371
 8478SOL     OW26332   6.527   0.125   5.036
 8478SOL    HW126333   6.440   0.109   4.991
 8478SOL    HW226334   6.592   0.052   5.013
 8479SOL     OW26335   0.749   2.600   1.636
 8479SOL    HW126336   0.654   2.567   1.631
 8479SOL    HW226337   0.756   2.688   1.588
 8480SOL     OW26338   4.962   4.424   0.246
 8480SOL    HW126339   4.966   4.393   0.341
 8480SOL    HW226340   5.026   4.370   0.191
 8481SOL     OW26341   3.634   2.006   3.738
 8481SOL    HW126342   3.581   2.084   3.774
 8481SOL    HW226343   3.644   2.016   3.639
 8482SOL     OW26344   4.551   1.301   0.006
 8482SOL    HW126345   4.544   1.364   0.083
 8482SOL    HW226346   4.465   1.250   7.020
 8483SOL     OW26347   2.941   5.528   3.237
 8483SOL    HW126348   3.027   5.539   3.287
 8483SOL    HW226349   2.873   5.484   3.296
 8484SOL     OW26350   5.952   6.204   3.867
 8484SOL    HW126351   6.036   6.246   3.899
 8484SOL    HW226352   5.942   6.219   3.769
 8485SOL     OW26353   2.792   2.356   0.446
 8485SOL    HW126354   2.839   2.415   0.381
 8485SOL    HW226355   2.699   2.391   0.461
 8486SOL     OW26356   1.165   0.915   2.370
 8486SOL    HW126357   1.238   0.915   2.302
 8486SOL    HW226358   1.101   0.841   2.350
 8487SOL     OW26359   6.204   1.821   5.891
 8487SOL    HW126360   6.196   1.746   5.958
 8487SOL    HW226361   6.279   1.881   5.917
 8488SOL     OW26362   5.066   4.550   1.816
 8488SOL    HW126363   5.132   4.625   1.819
 8488SOL    HW226364   5.113   4.464   1.839
 8489SOL     OW26365   4.892   1.024   1.354
 8489SOL    HW126366   4.932   1.114   1.334
 8489SOL    HW226367   4.857   0.983   1.270
 8490SOL     OW26368   2.236   0.518   6.793
 8490SOL    HW126369   2.299   0.582   6.837
 8490SOL    HW226370   2.244   0.527   6.694
 8491SOL     OW26371   3.346   5.683   2.524
 8491SOL    HW126372   3.303   5.744   2.591
 8491SOL    HW226373   3.361   5.593   2.565
 8492SOL     OW26374   5.960   5.863   4.356
 8492SOL    HW126375   5.882   5.838   4.414
 8492SOL    HW226376   5.949   5.957   4.324
 8493SOL     OW26377   3.882   0.386   6.872
 8493SOL    HW126378   3.979   0.388   6.897
 8493SOL    HW226379   3.828   0.432   6.942
 8494SOL     OW26380   6.036   4.959   2.474
 8494SOL    HW126381   6.051   4.975   2.376
 8494SOL    HW226382   5.951   5.003   2.502
 8495SOL     OW26383   6.433   5.916   0.175
 8495SOL    HW126384   6.347   5.949   0.138
 8495SOL    HW226385   6.431   5.816   0.183
 8496SOL     OW26386   5.334   2.324   2.869
 8496SOL    HW126387   5.300   2.392   2.935
 8496SOL    HW226388   5.275   2.325   2.788
 8497SOL     OW26389   6.165   1.128   3.471
 8497SOL    HW126390   6.261   1.131   3.499
 8497SOL    HW226391   6.107   1.121   3.552
 8498SOL     OW26392   4.918   0.377   4.386
 8498SOL    HW126393   4.862   0.437   4.442
 8498SOL    HW226394   4.859   0.311   4.339
 8499SOL     OW26395   6.198   6.670   6.286
 8499SOL    HW126396   6.171   6.576   6.305
 8499SOL    HW226397   6.294   6.672   6.259
 8500SOL     OW26398   1.657   0.846   5.055
 8500SOL    HW126399   1.633   0.832   5.151
 8500SOL    HW226400   1.626   0.937   5.027
 8501SOL     OW26401   0.894   1.789   6.111
 8501SOL    HW126402   0.945   1.772   6.196
 8501SOL    HW226403   0.932   1.869   6.064
 8502SOL     OW26404   0.467   2.943   6.867
 8502SOL    HW126405   0.548   3.000   6.857
 8502SOL    HW226406   0.386   2.994   6.839
 8503SOL     OW26407   5.773   6.712   4.344
 8503SOL    HW126408   5.706   6.642   4.318
 8503SOL    HW226409   5.807   6.693   4.436
 8504SOL     OW26410   1.720   5.002   3.039
 8504SOL    HW126411   1.762   4.913   3.058
 8504SOL    HW226412   1.692   5.044   3.125
 8505SOL     OW26413   5.219   2.743   2.950
 8505SOL    HW126414   5.178   2.834   2.951
 8505SOL    HW226415   5.244   2.718   2.856
 8506SOL     OW26416   2.293   6.952   7.014
 8506SOL    HW126417   2.385   6.951   0.030
 8506SOL    HW226418   2.231   6.999   0.053
 8507SOL     OW26419   4.431   5.767   5.580
 8507SOL    HW126420   4.393   5.676   5.569
 8507SOL    HW226421   4.399   5.826   5.506
 8508SOL     OW26422   3.617   1.871   6.863
 8508SOL    HW126423   3.646   1.831   6.949
 8508SOL    HW226424   3.524   1.907   6.873
 8509SOL     OW26425   5.210   0.598   3.712
 8509SOL    HW126426   5.149   0.568   3.786
 8509SOL    HW226427   5.286   0.651   3.750
 8510SOL     OW26428   6.182   1.853   4.463
 8510SOL    HW126429   6.247   1.927   4.444
 8510SOL    HW226430   6.231   1.774   4.498
 8511SOL     OW26431   6.256   2.766   2.160
 8511SOL    HW126432   6.226   2.687   2.213
 8511SOL    HW226433   6.243   2.748   2.062
 8512SOL     OW26434   1.679   6.719   4.768
 8512SOL    HW126435   1.616   6.681   4.700
 8512SOL    HW226436   1.761   6.752   4.721
 8513SOL     OW26437   5.601   5.963   6.295
 8513SOL    HW126438   5.642   5.876   6.322
 8513SOL    HW226439   5.525   5.985   6.357
 8514SOL     OW26440   2.165   5.894   4.201
 8514SOL    HW126441   2.242   5.945   4.238
 8514SOL    HW226442   2.107   5.862   4.276
 8515SOL     OW26443   4.963   1.961   1.548
 8515SOL    HW126444   4.913   2.010   1.619
 8515SOL    HW226445   4.976   1.866   1.576
 8516SOL     OW26446   6.909   2.258   2.088
 8516SOL    HW126447   6.860   2.342   2.108
 8516SOL    HW226448   6.959   2.268   2.002
 8517SOL     OW26449   2.421   2.195   6.448
 8517SOL    HW126450   2.359   2.211   6.525
 8517SOL    HW226451   2.448   2.282   6.408
 8518SOL     OW26452   3.501   5.753   0.721
 8518SOL    HW126453   3.442   5.701   0.782
 8518SOL    HW226454   3.470   5.848   0.718
 8519SOL     OW26455   0.867   5.716   2.916
 8519SOL    HW126456   0.898   5.811   2.922
 8519SOL    HW226457   0.927   5.665   2.854
 8520SOL     OW26458   3.745   0.979   7.018
 8520SOL    HW126459   3.715   0.920   0.070
 8520SOL    HW226460   3.764   0.923   6.938
 8521SOL     OW26461   1.258   6.327   6.229
 8521SOL    HW126462   1.179   6.356   6.175
 8521SOL    HW226463   1.315   6.265   6.174
 8522SOL     OW26464   1.152   5.985   5.182
 8522SOL    HW126465   1.173   6.046   5.106
 8522SOL    HW226466   1.237   5.956   5.226
 8523SOL     OW26467   1.343   6.975   6.886
 8523SOL    HW126468   1.292   0.002   6.956
 8523SOL    HW226469   1.430   7.022   6.869
 8524SOL     OW26470   1.263   3.068   6.396
 8524SOL    HW126471   1.256   3.144   6.333
 8524SOL    HW226472   1.338   3.084   6.460
 8525SOL     OW26473   6.118   3.405   3.327
 8525SOL    HW126474   6.063   3.429   3.247
 8525SOL    HW226475   6.155   3.489   3.367
 8526SOL     OW26476   2.256   3.022   2.605
 8526SOL    HW126477   2.197   3.102   2.614
 8526SOL    HW226478   2.280   3.009   2.509
 8527SOL     OW26479   4.449   0.543   4.419
 8527SOL    HW126480   4.352   0.538   4.440
 8527SOL    HW226481   4.468   0.625   4.366
 8528SOL     OW26482   4.707   2.739   6.482
 8528SOL    HW126483   4.751   2.819   6.522
 8528SOL    HW226484   4.771   2.691   6.423
 8529SOL     OW26485   0.555   4.322   0.229
 8529SOL    HW126486   0.599   4.328   0.318
 8529SOL    HW226487   0.569   4.408   0.179
 8530SOL     OW26488   1.918   3.510   5.545
 8530SOL    HW126489   1.974   3.592   5.546
 8530SOL    HW226490   1.829   3.530   5.504
 8531SOL     OW26491   4.649   4.632   2.491
 8531SOL    HW126492   4.723   4.574   2.524
 8531SOL    HW226493   4.573   4.576   2.459
 8532SOL     OW26494   2.499   3.877   6.253
 8532SOL    HW126495   2.556   3.885   6.334
 8532SOL    HW226496   2.470   3.782   6.241
 8533SOL     OW26497   3.369   0.617   5.141
 8533SOL    HW126498   3.363   0.622   5.041
 8533SOL    HW226499   3.457   0.652   5.171
 8534SOL     OW26500   1.639   2.906   3.175
 8534SOL    HW126501   1.639   2.881   3.078
 8534SOL    HW226502   1.605   2.999   3.185
 8535SOL     OW26503   0.424   2.164   4.915
 8535SOL    HW126504   0.356   2.094   4.895
 8535SOL    HW226505   0.483   2.132   4.990
 8536SOL     OW26506   0.401   1.518   5.919
 8536SOL    HW126507   0.487   1.480   5.953
 8536SOL    HW226508   0.419   1.602   5.868
 8537SOL     OW26509   5.592   0.230   2.219
 8537SOL    HW126510   5.494   0.218   2.231
 8537SOL    HW226511   5.625   0.170   2.146
 8538SOL     OW26512   5.855   1.193   4.634
 8538SOL    HW126513   5.759   1.165   4.642
 8538SOL    HW226514   5.894   1.205   4.725
 8539SOL     OW26515   0.089   3.205   1.993
 8539SOL    HW126516   0.109   3.170   1.902
 8539SOL    HW226517   0.028   3.284   1.985
 8540SOL     OW26518   4.476   7.009   0.043
 8540SOL    HW126519   4.514   7.014   0.135
 8540SOL    HW226520   4.408   0.059   0.031
 8541SOL     OW26521   3.023   0.556   5.322
 8541SOL    HW126522   3.067   0.644   5.343
 8541SOL    HW226523   3.058   0.522   5.235
 8542SOL     OW26524   1.906   4.276   6.837
 8542SOL    HW126525   1.975   4.300   6.769
 8542SOL    HW226526   1.950   4.263   6.926
 8543SOL     OW26527   2.341   2.005   6.268
 8543SOL    HW126528   2.389   2.051   6.343
 8543SOL    HW226529   2.243   2.008   6.284
 8544SOL     OW26530   5.473   3.999   5.479
 8544SOL    HW126531   5.416   4.016   5.559
 8544SOL    HW226532   5.422   3.943   5.413
 8545SOL     OW26533   3.170   0.978   6.310
 8545SOL    HW126534   3.169   1.034   6.227
 8545SOL    HW226535   3.076   0.962   6.340
 8546SOL     OW26536   5.567   0.257   1.363
 8546SOL    HW126537   5.662   0.254   1.333
 8546SOL    HW226538   5.539   0.352   1.377
 8547SOL     OW26539   5.957   6.416   5.208
 8547SOL    HW126540   5.938   6.349   5.280
 8547SOL    HW226541   6.021   6.484   5.242
 8548SOL     OW26542   0.233   3.061   5.857
 8548SOL    HW126543   0.152   3.074   5.799
 8548SOL    HW226544   0.311   3.108   5.816
 8549SOL     OW26545   1.899   0.396   3.045
 8549SOL    HW126546   1.848   0.337   3.108
 8549SOL    HW226547   1.888   0.362   2.952
 8550SOL     OW26548   6.787   4.193   6.288
 8550SOL    HW126549   6.742   4.280   6.267
 8550SOL    HW226550   6.742   4.150   6.366
 8551SOL     OW26551   1.750   1.102   6.557
 8551SOL    HW126552   1.657   1.096   6.520
 8551SOL    HW226553   1.807   1.032   6.514
 8552SOL     OW26554   2.772   2.136   2.922
 8552SOL    HW126555   2.761   2.060   2.858
 8552SOL    HW226556   2.745   2.106   3.014
 8553SOL     OW26557   5.100   3.366   6.701
 8553SOL    HW126558   5.187   3.339   6.661
 8553SOL    HW226559   5.116   3.403   6.793
 8554SOL     OW26560   1.344   0.595   0.817
 8554SOL    HW126561   1.341   0.499   0.790
 8554SOL    HW226562   1.439   0.625   0.821
 8555SOL     OW26563   4.771   1.374   4.109
 8555SOL    HW126564   4.830   1.448   4.143
 8555SOL    HW226565   4.720   1.407   4.029
 8556SOL     OW26566   1.886   6.164   0.636
 8556SOL    HW126567   1.925   6.254   0.653
 8556SOL    HW226568   1.862   6.156   0.539
 8557SOL     OW26569   0.166   0.634   0.569
 8557SOL    HW126570   0.199   0.727   0.585
 8557SOL    HW226571   0.209   0.572   0.634
 8558SOL     OW26572   2.887   5.604   4.258
 8558SOL    HW126573   2.805   5.659   4.271
 8558SOL    HW226574   2.967   5.665   4.253
 8559SOL     OW26575   1.333   5.386   2.852
 8559SOL    HW126576   1.360   5.290   2.860
 8559SOL    HW226577   1.328   5.427   2.943
 8560SOL     OW26578   3.039   4.337   1.737
 8560SOL    HW126579   3.048   4.249   1.785
 8560SOL    HW226580   2.975   4.395   1.786
 8561SOL     OW26581   4.607   6.782   2.204
 8561SOL    HW126582   4.645   6.841   2.275
 8561SOL    HW226583   4.526   6.826   2.164
 8562SOL     OW26584   4.751   1.846   6.679
 8562SOL    HW126585   4.769   1.749   6.661
 8562SOL    HW226586   4.797   1.902   6.610
 8563SOL     OW26587   2.433   4.819   2.095
 8563SOL    HW126588   2.490   4.768   2.031
 8563SOL    HW226589   2.345   4.772   2.107
 8564SOL     OW26590   4.613   0.264   6.844
 8564SOL    HW126591   4.678   0.333   6.814
 8564SOL    HW226592   4.634   0.237   6.938
 8565SOL     OW26593   2.357   5.180   1.252
 8565SOL    HW126594   2.300   5.218   1.324
 8565SOL    HW226595   2.325   5.212   1.163
 8566SOL     OW26596   3.274   0.868   2.732
 8566SOL    HW126597   3.326   0.952   2.718
 8566SOL    HW226598   3.328   0.790   2.701
 8567SOL     OW26599   2.219   2.631   1.540
 8567SOL    HW126600   2.239   2.729   1.539
 8567SOL    HW226601   2.302   2.581   1.567
 8568SOL     OW26602   6.561   0.597   6.529
 8568SOL    HW126603   6.611   0.671   6.484
 8568SOL    HW226604   6.464   0.621   6.537
 8569SOL     OW26605   4.618   2.428   6.083
 8569SOL    HW126606   4.679   2.351   6.066
 8569SOL    HW226607   4.592   2.470   5.996
 8570SOL     OW26608   1.528   2.580   3.569
 8570SOL    HW126609   1.587   2.501   3.552
 8570SOL    HW226610   1.563   2.660   3.520
 8571SOL     OW26611   1.687   0.515   2.889
 8571SOL    HW126612   1.780   0.490   2.915
 8571SOL    HW226613   1.685   0.609   2.855
 8572SOL     OW26614   2.931   4.170   5.713
 8572SOL    HW126615   2.880   4.108   5.653
 8572SOL    HW226616   2.950   4.256   5.665
 8573SOL     OW26617   3.984   6.079   0.710
 8573SOL    HW126618   4.072   6.040   0.739
 8573SOL    HW226619   3.912   6.009   0.720
 8574SOL     OW26620   5.188   0.730   4.945
 8574SOL    HW126621   5.154   0.694   4.858
 8574SOL    HW226622   5.266   0.791   4.928
 8575SOL     OW26623   2.984   6.448   3.398
 8575SOL    HW126624   3.038   6.387   3.340
 8575SOL    HW226625   2.909   6.396   3.439
 8576SOL     OW26626   0.930   5.078   3.290
 8576SOL    HW126627   0.925   5.037   3.381
 8576SOL    HW226628   1.021   5.118   3.277
 8577SOL     OW26629   1.470   1.643   0.559
 8577SOL    HW126630   1.510   1.730   0.528
 8577SOL    HW226631   1.479   1.636   0.658
 8578SOL     OW26632   0.208   6.885   5.775
 8578SOL    HW126633   0.139   6.927   5.833
 8578SOL    HW226634   0.203   6.924   5.683
 8579SOL     OW26635   3.327   6.330   2.985
 8579SOL    HW126636   3.375   6.244   3.002
 8579SOL    HW226637   3.236   6.311   2.949
 8580SOL     OW26638   2.674   0.880   1.605
 8580SOL    HW126639   2.699   0.784   1.598
 8580SOL    HW226640   2.595   0.891   1.665
 8581SOL     OW26641   2.847   4.999   1.532
 8581SOL    HW126642   2.892   5.081   1.496
 8581SOL    HW226643   2.763   5.025   1.581
 8582SOL     OW26644   4.035   4.376   5.775
 8582SOL    HW126645   4.058   4.411   5.866
 8582SOL    HW226646   3.956   4.314   5.783
 8583SOL     OW26647   4.577   0.565   2.791
 8583SOL    HW126648   4.589   0.474   2.832
 8583SOL    HW226649   4.561   0.632   2.863
 8584SOL     OW26650   6.580   1.402   4.619
 8584SOL    HW126651   6.608   1.444   4.705
 8584SOL    HW226652   6.570   1.473   4.549
 8585SOL     OW26653   5.381   2.173   2.573
 8585SOL    HW126654   5.295   2.210   2.608
 8585SOL    HW226655   5.369   2.149   2.476
 8586SOL     OW26656   5.928   5.499   0.924
 8586SOL    HW126657   5.882   5.465   0.842
 8586SOL    HW226658   5.961   5.592   0.909
 8587SOL     OW26659   1.312   1.590   6.906
 8587SOL    HW126660   1.301   1.601   7.005
 8587SOL    HW226661   1.397   1.635   6.878
 8588SOL     OW26662   2.541   1.355   6.932
 8588SOL    HW126663   2.528   1.441   6.883
 8588SOL    HW226664   2.499   1.280   6.881
 8589SOL     OW26665   6.642   2.936   6.347
 8589SOL    HW126666   6.665   3.013   6.287
 8589SOL    HW226667   6.545   2.940   6.371
 8590SOL     OW26668   1.437   1.255   3.401
 8590SOL    HW126669   1.348   1.300   3.390
 8590SOL    HW226670   1.509   1.314   3.364
 8591SOL     OW26671   6.474   4.277   6.711
 8591SOL    HW126672   6.379   4.252   6.692
 8591SOL    HW226673   6.491   4.270   6.809
 8592SOL     OW26674   1.361   1.511   6.299
 8592SOL    HW126675   1.408   1.584   6.249
 8592SOL    HW226676   1.399   1.423   6.273
 8593SOL     OW26677   3.681   1.367   6.897
 8593SOL    HW126678   3.583   1.352   6.882
 8593SOL    HW226679   3.732   1.288   6.864
 8594SOL     OW26680   6.324   2.774   5.739
 8594SOL    HW126681   6.398   2.727   5.691
 8594SOL    HW226682   6.354   2.866   5.765
 8595SOL     OW26683   6.230   6.172   1.953
 8595SOL    HW126684   6.282   6.149   1.871
 8595SOL    HW226685   6.195   6.089   1.995
 8596SOL     OW26686   1.168   1.150   3.675
 8596SOL    HW126687   1.148   1.232   3.729
 8596SOL    HW226688   1.090   1.128   3.617
 8597SOL     OW26689   5.732   3.104   0.002
 8597SOL    HW126690   5.668   3.160   6.973
 8597SOL    HW226691   5.805   3.072   6.965
 8598SOL     OW26692   6.051   6.869   4.341
 8598SOL    HW126693   6.016   6.959   4.316
 8598SOL    HW226694   6.070   6.817   4.258
 8599SOL     OW26695   0.597   3.390   4.006
 8599SOL    HW126696   0.553   3.303   4.024
 8599SOL    HW226697   0.696   3.381   4.021
 8600SOL     OW26698   4.042   2.152   1.464
 8600SOL    HW126699   4.010   2.214   1.535
 8600SOL    HW226700   4.133   2.117   1.488
 8601SOL     OW26701   1.091   6.632   3.194
 8601SOL    HW126702   1.084   6.677   3.105
 8601SOL    HW226703   1.052   6.540   3.189
 8602SOL     OW26704   2.077   6.676   5.116
 8602SOL    HW126705   2.064   6.578   5.134
 8602SOL    HW226706   2.144   6.687   5.042
 8603SOL     OW26707   6.906   0.716   0.761
 8603SOL    HW126708   6.980   0.686   0.820
 8603SOL    HW226709   6.875   0.640   0.704
 8604SOL     OW26710   0.484   4.178   6.505
 8604SOL    HW126711   0.480   4.215   6.412
 8604SOL    HW226712   0.398   4.132   6.526
 8605SOL     OW26713   6.867   5.532   4.547
 8605SOL    HW126714   6.946   5.494   4.498
 8605SOL    HW226715   6.899   5.579   4.630
 8606SOL     OW26716   1.659   2.533   0.282
 8606SOL    HW126717   1.563   2.509   0.273
 8606SOL    HW226718   1.700   2.538   0.190
 8607SOL     OW26719   2.457   4.279   1.407
 8607SOL    HW126720   2.436   4.311   1.314
 8607SOL    HW226721   2.442   4.353   1.472
 8608SOL     OW26722   2.216   5.148   2.956
 8608SOL    HW126723   2.307   5.106   2.958
 8608SOL    HW226724   2.208   5.213   3.031
 8609SOL     OW26725   4.844   1.360   3.799
 8609SOL    HW126726   4.833   1.304   3.717
 8609SOL    HW226727   4.934   1.343   3.840
 8610SOL     OW26728   0.528   6.423   2.794
 8610SOL    HW126729   0.440   6.467   2.812
 8610SOL    HW226730   0.516   6.347   2.730
 8611SOL     OW26731   2.969   1.344   4.537
 8611SOL    HW126732   2.909   1.284   4.484
 8611SOL    HW226733   2.957   1.324   4.635
 8612SOL     OW26734   3.723   3.829   3.838
 8612SOL    HW126735   3.792   3.901   3.832
 8612SOL    HW226736   3.763   3.742   3.809
 8613SOL     OW26737   3.414   2.660   1.578
 8613SOL    HW126738   3.496   2.607   1.599
 8613SOL    HW226739   3.336   2.621   1.627
 8614SOL     OW26740   1.508   2.467   3.216
 8614SOL    HW126741   1.496   2.419   3.129
 8614SOL    HW226742   1.605   2.475   3.237
 8615SOL     OW26743   4.385   1.453   3.854
 8615SOL    HW126744   4.395   1.372   3.911
 8615SOL    HW226745   4.475   1.484   3.823
 8616SOL     OW26746   4.626   4.431   2.946
 8616SOL    HW126747   4.644   4.392   2.855
 8616SOL    HW226748   4.550   4.495   2.940
 8617SOL     OW26749   3.628   0.091   3.662
 8617SOL    HW126750   3.723   0.093   3.691
 8617SOL    HW226751   3.590   0.183   3.664
 8618SOL     OW26752   5.549   4.574   0.660
 8618SOL    HW126753   5.518   4.559   0.754
 8618SOL    HW226754   5.479   4.541   0.596
 8619SOL     OW26755   5.136   4.512   0.761
 8619SOL    HW126756   5.190   4.534   0.680
 8619SOL    HW226757   5.197   4.489   0.837
 8620SOL     OW26758   2.052   0.001   4.456
 8620SOL    HW126759   1.957   0.030   4.465
 8620SOL    HW226760   2.104   0.032   4.535
 8621SOL     OW26761   5.217   2.705   1.733
 8621SOL    HW126762   5.194   2.738   1.825
 8621SOL    HW226763   5.308   2.662   1.735
 8622SOL     OW26764   6.578   4.672   2.698
 8622SOL    HW126765   6.583   4.676   2.798
 8622SOL    HW226766   6.670   4.672   2.660
 8623SOL     OW26767   0.518   3.536   4.303
 8623SOL    HW126768   0.560   3.446   4.293
 8623SOL    HW226769   0.447   3.548   4.233
 8624SOL     OW26770   2.800   4.065   5.442
 8624SOL    HW126771   2.781   3.967   5.452
 8624SOL    HW226772   2.725   4.109   5.394
 8625SOL     OW26773   3.878   2.397   5.616
 8625SOL    HW126774   3.813   2.469   5.638
 8625SOL    HW226775   3.829   2.310   5.605
 8626SOL     OW26776   4.124   4.154   0.738
 8626SOL    HW126777   4.169   4.123   0.654
 8626SOL    HW226778   4.069   4.079   0.775
 8627SOL     OW26779   1.946   0.481   2.276
 8627SOL    HW126780   1.870   0.526   2.323
 8627SOL    HW226781   1.974   0.400   2.329
 8628SOL     OW26782   1.104   6.240   0.730
 8628SOL    HW126783   1.058   6.273   0.647
 8628SOL    HW226784   1.038   6.238   0.806
 8629SOL     OW26785   6.717   6.950   4.605
 8629SOL    HW126786   6.816   6.937   4.604
 8629SOL    HW226787   6.673   6.880   4.548
 8630SOL     OW26788   5.067   2.987   2.447
 8630SOL    HW126789   4.991   2.953   2.392
 8630SOL    HW226790   5.047   2.974   2.544
 8631SOL     OW26791   3.098   6.892   0.257
 8631SOL    HW126792   3.138   6.802   0.279
 8631SOL    HW226793   3.164   6.964   0.280
 8632SOL     OW26794   5.336   4.832   5.832
 8632SOL    HW126795   5.333   4.932   5.833
 8632SOL    HW226796   5.430   4.801   5.848
 8633SOL     OW26797   5.521   3.857   6.485
 8633SOL    HW126798   5.591   3.869   6.556
 8633SOL    HW226799   5.533   3.767   6.442
 8634SOL     OW26800   4.965   3.831   0.299
 8634SOL    HW126801   4.875   3.789   0.309
 8634SOL    HW226802   5.009   3.838   0.388
 8635SOL     OW26803   5.627   2.434   6.294
 8635SOL    HW126804   5.577   2.476   6.370
 8635SOL    HW226805   5.602   2.480   6.209
 8636SOL     OW26806   5.233   6.261   1.316
 8636SOL    HW126807   5.217   6.349   1.270
 8636SOL    HW226808   5.331   6.245   1.323
 8637SOL     OW26809   1.216   2.004   0.082
 8637SOL    HW126810   1.197   2.100   0.060
 8637SOL    HW226811   1.130   1.952   0.081
 8638SOL     OW26812   4.832   2.435   4.716
 8638SOL    HW126813   4.878   2.447   4.803
 8638SOL    HW226814   4.898   2.448   4.641
 8639SOL     OW26815   3.346   3.991   6.649
 8639SOL    HW126816   3.380   3.934   6.575
 8639SOL    HW226817   3.416   3.998   6.720
 8640SOL     OW26818   2.380   3.467   1.362
 8640SOL    HW126819   2.380   3.558   1.403
 8640SOL    HW226820   2.459   3.415   1.395
 8641SOL     OW26821   4.353   6.101   2.368
 8641SOL    HW126822   4.269   6.088   2.316
 8641SOL    HW226823   4.359   6.031   2.439
 8642SOL     OW26824   0.856   5.806   3.835
 8642SOL    HW126825   0.937   5.796   3.893
 8642SOL    HW226826   0.827   5.716   3.802
 8643SOL     OW26827   4.167   6.438   0.936
 8643SOL    HW126828   4.159   6.484   0.848
 8643SOL    HW226829   4.204   6.502   1.003
 8644SOL     OW26830   6.351   1.670   6.993
 8644SOL    HW126831   6.295   1.667   0.053
 8644SOL    HW226832   6.437   1.717   7.013
 8645SOL     OW26833   5.981   3.537   2.404
 8645SOL    HW126834   6.010   3.549   2.499
 8645SOL    HW226835   6.061   3.526   2.346
 8646SOL     OW26836   0.532   2.121   5.200
 8646SOL    HW126837   0.458   2.109   5.267
 8646SOL    HW226838   0.585   2.037   5.194
 8647SOL     OW26839   2.497   5.100   2.152
 8647SOL    HW126840   2.519   5.082   2.056
 8647SOL    HW226841   2.502   5.015   2.203
 8648SOL     OW26842   5.103   5.447   0.391
 8648SOL    HW126843   5.088   5.409   0.300
 8648SOL    HW226844   5.047   5.397   0.457
 8649SOL     OW26845   4.171   0.238   1.238
 8649SOL    HW126846   4.135   0.320   1.193
 8649SOL    HW226847   4.242   0.263   1.303
 8650SOL     OW26848   1.957   6.803   4.659
 8650SOL    HW126849   1.912   6.875   4.605
 8650SOL    HW226850   1.966   6.833   4.754
 8651SOL     OW26851   3.723   1.936   0.664
 8651SOL    HW126852   3.716   2.034   0.680
 8651SOL    HW226853   3.794   1.897   0.723
 8652SOL     OW26854   1.137   3.323   3.402
 8652SOL    HW126855   1.228   3.286   3.385
 8652SOL    HW226856   1.140   3.423   3.395
 8653SOL     OW26857   0.156   1.487   6.061
 8653SOL    HW126858   0.253   1.513   6.056
 8653SOL    HW226859   0.116   1.488   5.970
 8654SOL     OW26860   0.626   4.617   1.959
 8654SOL    HW126861   0.681   4.665   1.891
 8654SOL    HW226862   0.681   4.598   2.040
 8655SOL     OW26863   0.708   0.294   5.183
 8655SOL    HW126864   0.790   0.246   5.214
 8655SOL    HW226865   0.733   0.358   5.110
 8656SOL     OW26866   4.588   6.897   0.829
 8656SOL    HW126867   4.518   6.889   0.758
 8656SOL    HW226868   4.662   6.833   0.809
 8657SOL     OW26869   4.883   1.731   2.986
 8657SOL    HW126870   4.825   1.776   2.918
 8657SOL    HW226871   4.957   1.682   2.941
 8658SOL     OW26872   6.907   4.657   0.665
 8658SOL    HW126873   6.874   4.687   0.754
 8658SOL    HW226874   6.980   4.589   0.677
 8659SOL     OW26875   4.419   1.038   2.313
 8659SOL    HW126876   4.432   0.972   2.387
 8659SOL    HW226877   4.487   1.110   2.321
 8660SOL     OW26878   6.340   3.675   1.457
 8660SOL    HW126879   6.336   3.746   1.528
 8660SOL    HW226880   6.256   3.621   1.460
 8661SOL     OW26881   6.441   3.630   2.836
 8661SOL    HW126882   6.401   3.720   2.856
 8661SOL    HW226883   6.521   3.615   2.894
 8662SOL     OW26884   2.610   4.847   3.268
 8662SOL    HW126885   2.567   4.756   3.274
 8662SOL    HW226886   2.685   4.852   3.334
 8663SOL     OW26887   3.765   5.581   2.950
 8663SOL    HW126888   3.764   5.636   3.034
 8663SOL    HW226889   3.837   5.614   2.889
 8664SOL     OW26890   3.156   5.779   4.198
 8664SOL    HW126891   3.161   5.728   4.284
 8664SOL    HW226892   3.247   5.785   4.157
 8665SOL     OW26893   5.274   3.238   6.549
 8665SOL    HW126894   5.371   3.228   6.572
 8665SOL    HW226895   5.262   3.223   6.451
 8666SOL     OW26896   4.748   6.445   2.530
 8666SOL    HW126897   4.727   6.475   2.437
 8666SOL    HW226898   4.841   6.408   2.532
 8667SOL     OW26899   5.153   2.123   3.803
 8667SOL    HW126900   5.235   2.146   3.750
 8667SOL    HW226901   5.074   2.117   3.742
 8668SOL     OW26902   4.818   2.818   5.367
 8668SOL    HW126903   4.892   2.751   5.375
 8668SOL    HW226904   4.760   2.794   5.289
 8669SOL     OW26905   5.981   6.405   5.888
 8669SOL    HW126906   6.049   6.475   5.865
 8669SOL    HW226907   6.019   6.314   5.869
 8670SOL     OW26908   6.090   4.117   5.883
 8670SOL    HW126909   6.002   4.148   5.844
 8670SOL    HW226910   6.165   4.166   5.838
 8671SOL     OW26911   6.925   1.978   2.638
 8671SOL    HW126912   6.846   2.039   2.634
 8671SOL    HW226913   7.009   2.032   2.641
 8672SOL     OW26914   0.569   1.064   3.403
 8672SOL    HW126915   0.619   1.070   3.316
 8672SOL    HW226916   0.627   1.022   3.472
 8673SOL     OW26917   0.683   1.155   1.188
 8673SOL    HW126918   0.638   1.176   1.101
 8673SOL    HW226919   0.621   1.102   1.246
 8674SOL     OW26920   6.638   4.771   3.622
 8674SOL    HW126921   6.644   4.838   3.696
 8674SOL    HW226922   6.729   4.757   3.583
 8675SOL     OW26923   3.268   2.041   5.834
 8675SOL    HW126924   3.266   1.949   5.873
 8675SOL    HW226925   3.175   2.071   5.812
 8676SOL     OW26926   5.382   1.241   0.472
 8676SOL    HW126927   5.298   1.221   0.422
 8676SOL    HW226928   5.458   1.191   0.431
 8677SOL     OW26929   1.582   6.482   6.022
 8677SOL    HW126930   1.557   6.492   6.118
 8677SOL    HW226931   1.499   6.480   5.966
 8678SOL     OW26932   1.777   1.300   0.979
 8678SOL    HW126933   1.780   1.221   1.040
 8678SOL    HW226934   1.784   1.384   1.033
 8679SOL     OW26935   2.059   1.320   4.485
 8679SOL    HW126936   2.062   1.221   4.478
 8679SOL    HW226937   1.964   1.350   4.493
 8680SOL     OW26938   6.449   1.864   6.573
 8680SOL    HW126939   6.429   1.771   6.541
 8680SOL    HW226940   6.433   1.869   6.671
 8681SOL     OW26941   5.629   5.941   1.927
 8681SOL    HW126942   5.614   5.869   1.860
 8681SOL    HW226943   5.721   5.979   1.916
 8682SOL     OW26944   1.167   0.909   1.216
 8682SOL    HW126945   1.110   0.979   1.174
 8682SOL    HW226946   1.179   0.833   1.152
 8683SOL     OW26947   2.014   4.295   4.519
 8683SOL    HW126948   2.091   4.259   4.467
 8683SOL    HW226949   2.026   4.393   4.534
 8684SOL     OW26950   1.055   3.934   5.120
 8684SOL    HW126951   0.991   3.999   5.162
 8684SOL    HW226952   1.148   3.954   5.151
 8685SOL     OW26953   4.941   2.603   5.446
 8685SOL    HW126954   5.036   2.575   5.462
 8685SOL    HW226955   4.879   2.540   5.493
 8686SOL     OW26956   0.042   5.278   2.832
 8686SOL    HW126957   6.998   5.329   2.885
 8686SOL    HW226958   0.041   5.182   2.860
 8687SOL     OW26959   5.845   3.182   4.686
 8687SOL    HW126960   5.774   3.180   4.756
 8687SOL    HW226961   5.842   3.269   4.637
 8688SOL     OW26962   0.826   4.275   6.219
 8688SOL    HW126963   0.780   4.338   6.281
 8688SOL    HW226964   0.789   4.183   6.232
 8689SOL     OW26965   4.751   3.888   6.875
 8689SOL    HW126966   4.732   3.885   6.777
 8689SOL    HW226967   4.845   3.919   6.890
 8690SOL     OW26968   1.849   2.495   3.662
 8690SOL    HW126969   1.882   2.457   3.748
 8690SOL    HW226970   1.794   2.427   3.614
 8691SOL     OW26971   3.031   2.592   5.343
 8691SOL    HW126972   3.057   2.505   5.301
 8691SOL    HW226973   2.946   2.580   5.394
 8692SOL     OW26974   4.088   1.737   5.597
 8692SOL    HW126975   4.178   1.769   5.567
 8692SOL    HW226976   4.034   1.815   5.628
 8693SOL     OW26977   6.719   7.021   6.259
 8693SOL    HW126978   6.706   6.972   6.172
 8693SOL    HW226979   6.630   0.015   6.301
 8694SOL     OW26980   5.898   3.379   4.303
 8694SOL    HW126981   5.824   3.311   4.300
 8694SOL    HW226982   5.889   3.441   4.225
 8695SOL     OW26983   3.825   4.226   5.869
 8695SOL    HW126984   3.815   4.126   5.862
 8695SOL    HW226985   3.852   4.250   5.962
 8696SOL     OW26986   3.640   5.745   6.307
 8696SOL    HW126987   3.683   5.691   6.379
 8696SOL    HW226988   3.550   5.777   6.339
 8697SOL     OW26989   1.453   3.490   5.767
 8697SOL    HW126990   1.414   3.430   5.838
 8697SOL    HW226991   1.448   3.585   5.798
 8698SOL     OW26992   5.879   5.921   5.405
 8698SOL    HW126993   5.952   5.961   5.460
 8698SOL    HW226994   5.916   5.847   5.349
 8699SOL     OW26995   1.879   3.206   0.076
 8699SOL    HW126996   1.882   3.209   6.999
 8699SOL    HW226997   1.963   3.245   0.113
 8700SOL     OW26998   0.864   7.016   5.089
 8700SOL    HW126999   0.776   6.981   5.121
 8700SOL    HW227000   0.896   0.065   5.150
 8701SOL     OW27001   0.956   2.689   0.126
 8701SOL    HW127002   1.031   2.649   0.073
 8701SOL    HW227003   0.937   2.632   0.206
 8702SOL     OW27004   5.724   4.519   1.696
 8702SOL    HW127005   5.636   4.484   1.728
 8702SOL    HW227006   5.792   4.445   1.699
 8703SOL     OW27007   2.937   5.206   1.365
 8703SOL    HW127008   2.937   5.172   1.272
 8703SOL    HW227009   2.891   5.295   1.368
 8704SOL     OW27010   0.443   1.393   4.150
 8704SOL    HW127011   0.527   1.340   4.162
 8704SOL    HW227012   0.396   1.362   4.067
 8705SOL     OW27013   4.078   2.848   0.243
 8705SOL    HW127014   4.141   2.796   0.186
 8705SOL    HW227015   3.992   2.861   0.193
 8706SOL     OW27016   4.626   3.520   6.649
 8706SOL    HW127017   4.581   3.431   6.663
 8706SOL    HW227018   4.564   3.593   6.676
 8707SOL     OW27019   2.036   2.070   4.605
 8707SOL    HW127020   1.992   2.004   4.665
 8707SOL    HW227021   2.132   2.046   4.593
 8708SOL     OW27022   6.102   2.337   1.800
 8708SOL    HW127023   6.033   2.296   1.859
 8708SOL    HW227024   6.089   2.305   1.706
 8709SOL     OW27025   6.783   0.264   5.594
 8709SOL    HW127026   6.854   0.202   5.561
 8709SOL    HW227027   6.766   0.246   5.691
 8710SOL     OW27028   2.517   1.097   3.441
 8710SOL    HW127029   2.604   1.072   3.399
 8710SOL    HW227030   2.531   1.122   3.536
 8711SOL     OW27031   1.984   0.460   1.780
 8711SOL    HW127032   2.020   0.489   1.691
 8711SOL    HW227033   1.940   0.539   1.825
 8712SOL     OW27034   1.777   2.979   5.924
 8712SOL    HW127035   1.819   2.956   5.836
 8712SOL    HW227036   1.844   3.025   5.982
 8713SOL     OW27037   0.355   5.002   1.962
 8713SOL    HW127038   0.414   5.082   1.958
 8713SOL    HW227039   0.287   5.014   2.034
 8714SOL     OW27040   0.039   6.171   6.719
 8714SOL    HW127041   6.975   6.207   6.752
 8714SOL    HW227042   0.074   6.231   6.647
 8715SOL     OW27043   2.265   3.276   1.185
 8715SOL    HW127044   2.334   3.234   1.126
 8715SOL    HW227045   2.306   3.353   1.235
 8716SOL     OW27046   6.421   6.717   1.939
 8716SOL    HW127047   6.322   6.731   1.934
 8716SOL    HW227048   6.445   6.631   1.895
 8717SOL     OW27049   2.592   4.567   1.037
 8717SOL    HW127050   2.647   4.488   1.009
 8717SOL    HW227051   2.642   4.620   1.106
 8718SOL     OW27052   2.610   4.542   6.712
 8718SOL    HW127053   2.690   4.583   6.668
 8718SOL    HW227054   2.609   4.565   6.809
 8719SOL     OW27055   3.951   0.282   5.372
 8719SOL    HW127056   4.050   0.291   5.376
 8719SOL    HW227057   3.926   0.185   5.374
 8720SOL     OW27058   6.616   4.819   5.159
 8720SOL    HW127059   6.527   4.863   5.152
 8720SOL    HW227060   6.634   4.769   5.074
 8721SOL     OW27061   0.534   6.876   6.384
 8721SOL    HW127062   0.471   6.804   6.413
 8721SOL    HW227063   0.581   6.914   6.464
 8722SOL     OW27064   4.195   1.185   1.335
 8722SOL    HW127065   4.294   1.173   1.324
 8722SOL    HW227066   4.173   1.194   1.432
 8723SOL     OW27067   4.711   6.901   2.420
 8723SOL    HW127068   4.633   6.870   2.473
 8723SOL    HW227069   4.783   6.934   2.482
 8724SOL     OW27070   4.072   1.122   5.037
 8724SOL    HW127071   4.036   1.183   4.967
 8724SOL    HW227072   4.091   1.032   4.997
 8725SOL     OW27073   0.078   6.252   3.385
 8725SOL    HW127074   0.148   6.238   3.455
 8725SOL    HW227075   0.035   6.165   3.363
 8726SOL     OW27076   0.643   0.880   1.084
 8726SOL    HW127077   0.706   0.845   1.014
 8726SOL    HW227078   0.661   0.978   1.098
 8727SOL     OW27079   4.464   4.917   6.050
 8727SOL    HW127080   4.508   4.870   5.974
 8727SOL    HW227081   4.467   5.016   6.033
 8728SOL     OW27082   6.745   0.489   3.412
 8728SOL    HW127083   6.831   0.495   3.463
 8728SOL    HW227084   6.762   0.503   3.315
 8729SOL     OW27085   3.660   6.312   6.624
 8729SOL    HW127086   3.570   6.324   6.667
 8729SOL    HW227087   3.732   6.334   6.690
 8730SOL     OW27088   4.587   5.180   2.001
 8730SOL    HW127089   4.534   5.123   1.938
 8730SOL    HW227090   4.681   5.148   2.004
 8731SOL     OW27091   0.965   1.370   3.311
 8731SOL    HW127092   0.901   1.387   3.386
 8731SOL    HW227093   0.919   1.385   3.224
 8732SOL     OW27094   5.461   6.477   0.677
 8732SOL    HW127095   5.407   6.395   0.697
 8732SOL    HW227096   5.447   6.505   0.582
 8733SOL     OW27097   6.568   5.158   1.583
 8733SOL    HW127098   6.599   5.063   1.578
 8733SOL    HW227099   6.522   5.173   1.670
 8734SOL     OW27100   0.040   3.722   2.329
 8734SOL    HW127101   0.076   3.690   2.241
 8734SOL    HW227102   0.115   3.726   2.395
 8735SOL     OW27103   1.634   3.841   5.599
 8735SOL    HW127104   1.687   3.799   5.673
 8735SOL    HW227105   1.636   3.782   5.519
 8736SOL     OW27106   1.003   5.930   3.023
 8736SOL    HW127107   1.064   5.963   2.951
 8736SOL    HW227108   1.054   5.920   3.109
 8737SOL     OW27109   1.883   6.155   6.852
 8737SOL    HW127110   1.852   6.200   6.769
 8737SOL    HW227111   1.887   6.221   6.927
 8738SOL     OW27112   1.088   3.079   3.751
 8738SOL    HW127113   1.114   2.992   3.794
 8738SOL    HW227114   1.015   3.063   3.685
 8739SOL     OW27115   5.361   4.453   5.354
 8739SOL    HW127116   5.420   4.464   5.435
 8739SOL    HW227117   5.266   4.468   5.380
 8740SOL     OW27118   3.245   1.008   4.894
 8740SOL    HW127119   3.174   0.939   4.906
 8740SOL    HW227120   3.238   1.076   4.968
 8741SOL     OW27121   0.871   0.163   2.724
 8741SOL    HW127122   0.935   0.226   2.679
 8741SOL    HW227123   0.797   0.215   2.767
 8742SOL     OW27124   3.016   1.822   2.929
 8742SOL    HW127125   2.956   1.860   2.859
 8742SOL    HW227126   3.099   1.878   2.935
 8743SOL     OW27127   0.785   1.860   1.595
 8743SOL    HW127128   0.716   1.869   1.524
 8743SOL    HW227129   0.876   1.876   1.556
 8744SOL     OW27130   3.237   4.499   6.776
 8744SOL    HW127131   3.293   4.443   6.837
 8744SOL    HW227132   3.200   4.577   6.826
 8745SOL     OW27133   5.909   1.581   5.754
 8745SOL    HW127134   5.989   1.639   5.737
 8745SOL    HW227135   5.930   1.486   5.733
 8746SOL     OW27136   4.459   4.863   4.437
 8746SOL    HW127137   4.508   4.949   4.422
 8746SOL    HW227138   4.375   4.881   4.489
 8747SOL     OW27139   0.436   1.030   1.598
 8747SOL    HW127140   0.504   0.965   1.632
 8747SOL    HW227141   0.349   1.015   1.645
 8748SOL     OW27142   0.435   2.028   3.848
 8748SOL    HW127143   0.477   1.944   3.884
 8748SOL    HW227144   0.486   2.059   3.768
 8749SOL     OW27145   2.883   1.256   5.055
 8749SOL    HW127146   2.812   1.321   5.081
 8749SOL    HW227147   2.965   1.272   5.110
 8750SOL     OW27148   3.955   3.083   6.416
 8750SOL    HW127149   3.923   3.063   6.509
 8750SOL    HW227150   3.925   3.174   6.389
 8751SOL     OW27151   1.141   5.834   1.802
 8751SOL    HW127152   1.175   5.823   1.895
 8751SOL    HW227153   1.056   5.886   1.803
 8752SOL     OW27154   5.490   3.772   6.837
 8752SOL    HW127155   5.470   3.704   6.767
 8752SOL    HW227156   5.411   3.832   6.849
 8753SOL     OW27157   2.698   2.604   0.005
 8753SOL    HW127158   2.652   2.692   7.019
 8753SOL    HW227159   2.643   2.532   6.985
 8754SOL     OW27160   2.541   5.467   0.474
 8754SOL    HW127161   2.576   5.530   0.543
 8754SOL    HW227162   2.559   5.373   0.503
 8755SOL     OW27163   6.745   2.527   2.619
 8755SOL    HW127164   6.825   2.585   2.635
 8755SOL    HW227165   6.769   2.451   2.558
 8756SOL     OW27166   1.635   1.748   2.749
 8756SOL    HW127167   1.664   1.701   2.665
 8756SOL    HW227168   1.695   1.826   2.766
 8757SOL     OW27169   5.328   6.684   5.395
 8757SOL    HW127170   5.418   6.657   5.360
 8757SOL    HW227171   5.312   6.781   5.376
 8758SOL     OW27172   3.157   6.433   4.567
 8758SOL    HW127173   3.196   6.430   4.660
 8758SOL    HW227174   3.105   6.349   4.551
 8759SOL     OW27175   5.745   0.893   0.699
 8759SOL    HW127176   5.793   0.884   0.611
 8759SOL    HW227177   5.746   0.988   0.728
 8760SOL     OW27178   2.517   2.529   4.120
 8760SOL    HW127179   2.544   2.625   4.109
 8760SOL    HW227180   2.559   2.492   4.203
 8761SOL     OW27181   4.599   0.604   2.048
 8761SOL    HW127182   4.581   0.526   2.109
 8761SOL    HW227183   4.540   0.680   2.073
 8762SOL     OW27184   1.253   4.927   2.848
 8762SOL    HW127185   1.189   4.960   2.918
 8762SOL    HW227186   1.314   4.859   2.888
 8763SOL     OW27187   0.781   1.032   6.358
 8763SOL    HW127188   0.752   0.938   6.345
 8763SOL    HW227189   0.766   1.084   6.274
 8764SOL     OW27190   3.152   4.809   5.735
 8764SOL    HW127191   3.199   4.721   5.728
 8764SOL    HW227192   3.214   4.877   5.776
 8765SOL     OW27193   4.965   0.706   5.156
 8765SOL    HW127194   5.042   0.719   5.093
 8765SOL    HW227195   4.965   0.611   5.188
 8766SOL     OW27196   4.962   5.345   5.738
 8766SOL    HW127197   4.894   5.408   5.700
 8766SOL    HW227198   5.050   5.360   5.692
 8767SOL     OW27199   3.010   1.015   4.218
 8767SOL    HW127200   2.950   0.940   4.192
 8767SOL    HW227201   3.014   1.083   4.144
 8768SOL     OW27202   6.457   2.296   6.972
 8768SOL    HW127203   6.452   2.242   6.889
 8768SOL    HW227204   6.402   2.379   6.962
 8769SOL     OW27205   6.491   0.793   0.673
 8769SOL    HW127206   6.551   0.770   0.596
 8769SOL    HW227207   6.403   0.826   0.638
 8770SOL     OW27208   4.758   4.035   1.022
 8770SOL    HW127209   4.852   4.056   1.050
 8770SOL    HW227210   4.695   4.077   1.087
 8771SOL     OW27211   0.464   3.628   0.479
 8771SOL    HW127212   0.386   3.672   0.523
 8771SOL    HW227213   0.467   3.655   0.383
 8772SOL     OW27214   5.754   6.900   4.144
 8772SOL    HW127215   5.776   6.846   4.063
 8772SOL    HW227216   5.761   6.842   4.225
 8773SOL     OW27217   0.057   1.448   3.806
 8773SOL    HW127218   0.052   1.547   3.794
 8773SOL    HW227219   0.148   1.416   3.779
 8774SOL     OW27220   1.605   1.276   0.770
 8774SOL    HW127221   1.557   1.188   0.778
 8774SOL    HW227222   1.675   1.281   0.841
 8775SOL     OW27223   5.189   2.094   4.205
 8775SOL    HW127224   5.219   2.028   4.135
 8775SOL    HW227225   5.156   2.177   4.160
 8776SOL     OW27226   4.111   3.180   0.464
 8776SOL    HW127227   4.020   3.147   0.440
 8776SOL    HW227228   4.105   3.247   0.539
 8777SOL     OW27229   0.689   2.412   3.666
 8777SOL    HW127230   0.775   2.408   3.614
 8777SOL    HW227231   0.618   2.453   3.610
 8778SOL     OW27232   3.858   5.246   6.672
 8778SOL    HW127233   3.919   5.194   6.611
 8778SOL    HW227234   3.892   5.240   6.766
 8779SOL     OW27235   4.089   4.744   3.449
 8779SOL    HW127236   4.175   4.747   3.397
 8779SOL    HW227237   4.106   4.705   3.539
 8780SOL     OW27238   5.857   5.231   3.831
 8780SOL    HW127239   5.955   5.245   3.818
 8780SOL    HW227240   5.812   5.226   3.741
 8781SOL     OW27241   3.303   6.835   1.877
 8781SOL    HW127242   3.384   6.820   1.821
 8781SOL    HW227243   3.224   6.849   1.819
 8782SOL     OW27244   5.318   1.524   1.897
 8782SOL    HW127245   5.256   1.471   1.840
 8782SOL    HW227246   5.336   1.474   1.982
 8783SOL     OW27247   4.941   3.247   4.914
 8783SOL    HW127248   4.892   3.271   4.999
 8783SOL    HW227249   4.959   3.330   4.862
 8784SOL     OW27250   5.345   0.273   0.573
 8784SOL    HW127251   5.441   0.249   0.585
 8784SOL    HW227252   5.334   0.372   0.580
 8785SOL     OW27253   0.577   4.893   6.292
 8785SOL    HW127254   0.634   4.815   6.318
 8785SOL    HW227255   0.521   4.921   6.370
 8786SOL     OW27256   4.474   1.981   2.074
 8786SOL    HW127257   4.374   1.982   2.077
 8786SOL    HW227258   4.507   2.053   2.013
 8787SOL     OW27259   3.558   6.676   1.214
 8787SOL    HW127260   3.581   6.718   1.302
 8787SOL    HW227261   3.575   6.743   1.140
 8788SOL     OW27262   0.537   0.442   4.189
 8788SOL    HW127263   0.495   0.421   4.277
 8788SOL    HW227264   0.465   0.457   4.120
 8789SOL     OW27265   6.871   3.253   5.294
 8789SOL    HW127266   6.826   3.317   5.357
 8789SOL    HW227267   6.868   3.161   5.333
 8790SOL     OW27268   5.571   2.999   6.179
 8790SOL    HW127269   5.573   3.018   6.277
 8790SOL    HW227270   5.478   2.976   6.152
 8791SOL     OW27271   3.730   5.402   5.766
 8791SOL    HW127272   3.743   5.428   5.670
 8791SOL    HW227273   3.644   5.352   5.775
 8792SOL     OW27274   5.347   5.013   1.187
 8792SOL    HW127275   5.288   5.011   1.268
 8792SOL    HW227276   5.346   4.923   1.143
 8793SOL     OW27277   6.990   5.270   4.412
 8793SOL    HW127278   0.059   5.264   4.373
 8793SOL    HW227279   6.922   5.259   4.340
 8794SOL     OW27280   0.571   0.682   2.238
 8794SOL    HW127281   0.541   0.772   2.269
 8794SOL    HW227282   0.611   0.690   2.147
 8795SOL     OW27283   1.611   5.434   6.414
 8795SOL    HW127284   1.666   5.448   6.496
 8795SOL    HW227285   1.549   5.357   6.429
 8796SOL     OW27286   6.510   3.879   3.331
 8796SOL    HW127287   6.462   3.966   3.333
 8796SOL    HW227288   6.500   3.838   3.240
 8797SOL     OW27289   4.772   6.828   4.269
 8797SOL    HW127290   4.828   6.754   4.305
 8797SOL    HW227291   4.806   6.916   4.304
 8798SOL     OW27292   3.595   6.182   5.770
 8798SOL    HW127293   3.629   6.170   5.677
 8798SOL    HW227294   3.663   6.230   5.825
 8799SOL     OW27295   1.473   5.434   2.262
 8799SOL    HW127296   1.515   5.373   2.195
 8799SOL    HW227297   1.377   5.408   2.275
 8800SOL     OW27298   6.854   5.445   6.192
 8800SOL    HW127299   6.873   5.407   6.283
 8800SOL    HW227300   6.775   5.399   6.152
 8801SOL     OW27301   6.006   3.089   5.302
 8801SOL    HW127302   6.059   3.028   5.243
 8801SOL    HW227303   5.929   3.126   5.251
 8802SOL     OW27304   1.058   6.483   6.364
 8802SOL    HW127305   1.143   6.431   6.354
 8802SOL    HW227306   1.010   6.454   6.446
 8803SOL     OW27307   6.197   0.120   6.537
 8803SOL    HW127308   6.220   0.189   6.468
 8803SOL    HW227309   6.187   0.031   6.492
 8804SOL     OW27310   1.585   6.171   2.637
 8804SOL    HW127311   1.606   6.246   2.574
 8804SOL    HW227312   1.533   6.206   2.715
 8805SOL     OW27313   5.058   5.023   3.185
 8805SOL    HW127314   4.958   5.017   3.191
 8805SOL    HW227315   5.088   5.114   3.212
 8806SOL     OW27316   1.945   0.689   0.981
 8806SOL    HW127317   1.917   0.755   0.911
 8806SOL    HW227318   1.972   0.603   0.936
 8807SOL     OW27319   5.018   2.408   1.676
 8807SOL    HW127320   5.011   2.465   1.758
 8807SOL    HW227321   5.049   2.464   1.599
 8808SOL     OW27322   2.275   2.504   0.774
 8808SOL    HW127323   2.199   2.534   0.831
 8808SOL    HW227324   2.240   2.477   0.684
 8809SOL     OW27325   0.530   3.817   3.045
 8809SOL    HW127326   0.570   3.735   3.086
 8809SOL    HW227327   0.487   3.792   2.958
 8810SOL     OW27328   0.796   0.728   6.166
 8810SOL    HW127329   0.707   0.767   6.139
 8810SOL    HW227330   0.793   0.628   6.154
 8811SOL     OW27331   3.566   5.483   2.440
 8811SOL    HW127332   3.498   5.449   2.505
 8811SOL    HW227333   3.637   5.535   2.489
 8812SOL     OW27334   5.212   1.495   6.438
 8812SOL    HW127335   5.227   1.535   6.528
 8812SOL    HW227336   5.298   1.497   6.386
 8813SOL     OW27337   2.421   4.613   3.596
 8813SOL    HW127338   2.390   4.705   3.573
 8813SOL    HW227339   2.382   4.586   3.684
 8814SOL     OW27340   5.240   6.593   6.132
 8814SOL    HW127341   5.314   6.626   6.190
 8814SOL    HW227342   5.277   6.538   6.057
 8815SOL     OW27343   5.761   1.571   7.010
 8815SOL    HW127344   5.722   1.518   6.936
 8815SOL    HW227345   5.854   1.539   0.006
 8816SOL     OW27346   0.978   6.480   4.821
 8816SOL    HW127347   0.980   6.460   4.722
 8816SOL    HW227348   0.974   6.579   4.835
 8817SOL     OW27349   1.556   2.986   3.589
 8817SOL    HW127350   1.535   2.937   3.674
 8817SOL    HW227351   1.589   2.921   3.521
 8818SOL     OW27352   1.501   0.053   4.512
 8818SOL    HW127353   1.427   0.025   4.451
 8818SOL    HW227354   1.589   0.042   4.466
 8819SOL     OW27355   5.556   3.951   6.232
 8819SOL    HW127356   5.541   3.856   6.204
 8819SOL    HW227357   5.563   3.956   6.331
 8820SOL     OW27358   3.144   0.290   4.616
 8820SOL    HW127359   3.067   0.289   4.553
 8820SOL    HW227360   3.162   0.385   4.644
 8821SOL     OW27361   0.384   4.374   6.911
 8821SOL    HW127362   0.345   4.465   6.925
 8821SOL    HW227363   0.368   4.318   6.992
 8822SOL     OW27364   6.400   6.913   4.293
 8822SOL    HW127365   6.365   6.861   4.216
 8822SOL    HW227366   6.395   7.011   4.273
 8823SOL     OW27367   4.302   0.955   2.704
 8823SOL    HW127368   4.268   1.041   2.667
 8823SOL    HW227369   4.388   0.931   2.659
 8824SOL     OW27370   2.268   1.175   2.279
 8824SOL    HW127371   2.240   1.087   2.318
 8824SOL    HW227372   2.202   1.245   2.305
 8825SOL     OW27373   0.002   6.137   0.001
 8825SOL    HW127374   0.028   6.205   0.070
 8825SOL    HW227375   0.071   6.133   6.952
 8826SOL     OW27376   1.255   3.553   0.657
 8826SOL    HW127377   1.312   3.534   0.576
 8826SOL    HW227378   1.159   3.560   0.629
 8827SOL     OW27379   4.114   6.364   2.226
 8827SOL    HW127380   4.143   6.271   2.205
 8827SOL    HW227381   4.099   6.414   2.141
 8828SOL     OW27382   3.387   3.396   6.291
 8828SOL    HW127383   3.397   3.307   6.335
 8828SOL    HW227384   3.361   3.465   6.358
 8829SOL     OW27385   0.101   1.561   2.401
 8829SOL    HW127386   0.107   1.654   2.365
 8829SOL    HW227387   0.100   1.563   2.501
 8830SOL     OW27388   2.945   1.126   3.973
 8830SOL    HW127389   3.003   1.061   3.924
 8830SOL    HW227390   2.946   1.214   3.925
 8831SOL     OW27391   0.295   2.326   2.402
 8831SOL    HW127392   0.215   2.367   2.358
 8831SOL    HW227393   0.295   2.227   2.387
 8832SOL     OW27394   5.667   0.980   4.021
 8832SOL    HW127395   5.676   0.881   4.027
 8832SOL    HW227396   5.755   1.023   4.042
 8833SOL     OW27397   3.665   2.789   1.089
 8833SOL    HW127398   3.714   2.716   1.042
 8833SOL    HW227399   3.574   2.757   1.115
 8834SOL     OW27400   5.276   3.390   5.345
 8834SOL    HW127401   5.258   3.379   5.247
 8834SOL    HW227402   5.245   3.308   5.394
 8835SOL     OW27403   6.601   0.734   5.938
 8835SOL    HW127404   6.633   0.658   5.880
 8835SOL    HW227405   6.629   0.717   6.032
 8836SOL     OW27406   4.380   1.573   1.093
 8836SOL    HW127407   4.362   1.539   1.000
 8836SOL    HW227408   4.333   1.660   1.106
 8837SOL     OW27409   5.418   0.045   1.454
 8837SOL    HW127410   5.475   0.128   1.453
 8837SOL    HW227411   5.423   7.023   1.365
 8838SOL     OW27412   0.042   3.960   2.765
 8838SOL    HW127413   0.007   3.884   2.819
 8838SOL    HW227414   6.990   4.005   2.717
 8839SOL     OW27415   4.696   5.814   3.100
 8839SOL    HW127416   4.613   5.864   3.123
 8839SOL    HW227417   4.731   5.768   3.183
 8840SOL     OW27418   6.876   1.120   1.001
 8840SOL    HW127419   6.843   1.043   0.946
 8840SOL    HW227420   6.948   1.168   0.951
 8841SOL     OW27421   2.840   1.457   1.403
 8841SOL    HW127422   2.898   1.520   1.454
 8841SOL    HW227423   2.853   1.364   1.438
 8842SOL     OW27424   3.869   3.499   4.250
 8842SOL    HW127425   3.878   3.522   4.153
 8842SOL    HW227426   3.939   3.431   4.275
 8843SOL     OW27427   3.063   4.685   6.898
 8843SOL    HW127428   3.090   4.779   6.919
 8843SOL    HW227429   2.978   4.685   6.846
 8844SOL     OW27430   4.484   1.761   5.074
 8844SOL    HW127431   4.551   1.834   5.090
 8844SOL    HW227432   4.523   1.673   5.100
 8845SOL     OW27433   0.393   4.732   1.910
 8845SOL    HW127434   0.466   4.669   1.939
 8845SOL    HW227435   0.412   4.823   1.947
 8846SOL     OW27436   5.542   4.663   4.029
 8846SOL    HW127437   5.477   4.726   3.986
 8846SOL    HW227438   5.612   4.715   4.078
 8847SOL     OW27439   2.132   1.926   3.085
 8847SOL    HW127440   2.179   1.965   3.005
 8847SOL    HW227441   2.179   1.956   3.169
 8848SOL     OW27442   3.884   1.856   0.860
 8848SOL    HW127443   3.852   1.770   0.899
 8848SOL    HW227444   3.883   1.927   0.932
 8849SOL     OW27445   2.485   5.123   4.788
 8849SOL    HW127446   2.539   5.145   4.707
 8849SOL    HW227447   2.401   5.076   4.760
 8850SOL     OW27448   3.393   1.344   1.593
 8850SOL    HW127449   3.326   1.418   1.580
 8850SOL    HW227450   3.344   1.258   1.611
 8851SOL     OW27451   0.330   4.918   2.774
 8851SOL    HW127452   0.278   4.834   2.762
 8851SOL    HW227453   0.427   4.902   2.752
 8852SOL     OW27454   5.271   2.842   5.771
 8852SOL    HW127455   5.319   2.778   5.710
 8852SOL    HW227456   5.269   2.933   5.729
 8853SOL     OW27457   4.555   1.217   5.661
 8853SOL    HW127458   4.640   1.165   5.652
 8853SOL    HW227459   4.534   1.230   5.758
 8854SOL     OW27460   1.523   2.150   6.506
 8854SOL    HW127461   1.457   2.222   6.528
 8854SOL    HW227462   1.578   2.130   6.587
 8855SOL     OW27463   6.222   4.886   6.564
 8855SOL    HW127464   6.303   4.835   6.594
 8855SOL    HW227465   6.194   4.854   6.473
 8856SOL     OW27466   5.939   1.228   4.886
 8856SOL    HW127467   6.010   1.172   4.929
 8856SOL    HW227468   5.855   1.223   4.941
 8857SOL     OW27469   6.901   2.273   3.699
 8857SOL    HW127470   6.849   2.263   3.615
 8857SOL    HW227471   6.841   2.264   3.778
 8858SOL     OW27472   0.321   3.410   6.807
 8858SOL    HW127473   0.301   3.313   6.823
 8858SOL    HW227474   0.409   3.419   6.760
 8859SOL     OW27475   1.965   5.623   5.917
 8859SOL    HW127476   1.981   5.719   5.896
 8859SOL    HW227477   1.953   5.571   5.832
 8860SOL     OW27478   1.404   2.010   2.700
 8860SOL    HW127479   1.483   2.005   2.761
 8860SOL    HW227480   1.395   2.102   2.664
 8861SOL     OW27481   3.755   3.446   6.920
 8861SOL    HW127482   3.663   3.416   6.898
 8861SOL    HW227483   3.819   3.413   6.850
 8862SOL     OW27484   5.589   2.032   4.417
 8862SOL    HW127485   5.491   2.048   4.432
 8862SOL    HW227486   5.607   2.024   4.319
 8863SOL     OW27487   2.204   5.574   5.390
 8863SOL    HW127488   2.290   5.617   5.362
 8863SOL    HW227489   2.221   5.514   5.468
 8864SOL     OW27490   1.288   2.543   6.768
 8864SOL    HW127491   1.384   2.524   6.788
 8864SOL    HW227492   1.273   2.539   6.670
 8865SOL     OW27493   3.227   2.417   6.261
 8865SOL    HW127494   3.271   2.434   6.173
 8865SOL    HW227495   3.258   2.329   6.297
 8866SOL     OW27496   3.499   6.347   4.714
 8866SOL    HW127497   3.473   6.346   4.810
 8866SOL    HW227498   3.504   6.441   4.681
 8867SOL     OW27499   0.161   3.040   3.671
 8867SOL    HW127500   0.173   2.943   3.648
 8867SOL    HW227501   0.077   3.051   3.724
 8868SOL     OW27502   3.980   4.045   6.721
 8868SOL    HW127503   3.926   4.049   6.805
 8868SOL    HW227504   3.990   3.950   6.693
 8869SOL     OW27505   5.060   2.776   3.607
 8869SOL    HW127506   5.139   2.715   3.595
 8869SOL    HW227507   5.068   2.853   3.544
 8870SOL     OW27508   3.932   1.041   0.497
 8870SOL    HW127509   3.848   1.068   0.450
 8870SOL    HW227510   4.007   1.036   0.432
 8871SOL     OW27511   2.532   1.948   3.882
 8871SOL    HW127512   2.483   2.034   3.871
 8871SOL    HW227513   2.470   1.879   3.919
 8872SOL     OW27514   1.674   3.854   4.307
 8872SOL    HW127515   1.612   3.923   4.270
 8872SOL    HW227516   1.622   3.771   4.329
 8873SOL     OW27517   0.218   5.341   4.737
 8873SOL    HW127518   0.316   5.359   4.741
 8873SOL    HW227519   0.184   5.359   4.645
 8874SOL     OW27520   3.100   0.619   0.497
 8874SOL    HW127521   3.137   0.589   0.585
 8874SOL    HW227522   3.059   0.541   0.450
 8875SOL     OW27523   2.155   2.538   4.390
 8875SOL    HW127524   2.126   2.484   4.311
 8875SOL    HW227525   2.228   2.490   4.439
 8876SOL     OW27526   0.804   0.470   4.985
 8876SOL    HW127527   0.859   0.487   4.903
 8876SOL    HW227528   0.778   0.557   5.027
 8877SOL     OW27529   2.662   0.038   5.070
 8877SOL    HW127530   2.622   7.001   5.140
 8877SOL    HW227531   2.594   0.105   5.041
 8878SOL     OW27532   6.676   4.170   6.549
 8878SOL    HW127533   6.721   4.115   6.620
 8878SOL    HW227534   6.579   4.183   6.573
 8879SOL     OW27535   5.169   6.306   5.573
 8879SOL    HW127536   5.259   6.342   5.596
 8879SOL    HW227537   5.140   6.343   5.485
 8880SOL     OW27538   6.825   5.182   5.145
 8880SOL    HW127539   6.751   5.248   5.160
 8880SOL    HW227540   6.857   5.188   5.050
 8881SOL     OW27541   6.529   1.164   0.923
 8881SOL    HW127542   6.488   1.141   1.012
 8881SOL    HW227543   6.594   1.239   0.936
 8882SOL     OW27544   5.662   1.792   6.659
 8882SOL    HW127545   5.615   1.835   6.581
 8882SOL    HW227546   5.594   1.762   6.726
 8883SOL     OW27547   6.669   1.008   5.515
 8883SOL    HW127548   6.579   1.049   5.525
 8883SOL    HW227549   6.701   0.975   5.604
 8884SOL     OW27550   6.646   0.385   6.173
 8884SOL    HW127551   6.654   0.472   6.124
 8884SOL    HW227552   6.574   0.330   6.133
 8885SOL     OW27553   5.514   3.632   1.885
 8885SOL    HW127554   5.477   3.684   1.807
 8885SOL    HW227555   5.552   3.696   1.952
 8886SOL     OW27556   2.914   6.998   6.249
 8886SOL    HW127557   3.011   7.001   6.275
 8886SOL    HW227558   2.903   0.015   6.158
 8887SOL     OW27559   2.486   1.441   0.594
 8887SOL    HW127560   2.581   1.442   0.563
 8887SOL    HW227561   2.426   1.408   0.521
 8888SOL     OW27562   3.336   1.622   2.360
 8888SOL    HW127563   3.348   1.680   2.440
 8888SOL    HW227564   3.245   1.636   2.322
 8889SOL     OW27565   3.750   6.507   4.986
 8889SOL    HW127566   3.764   6.477   4.892
 8889SOL    HW227567   3.688   6.586   4.986
 8890SOL     OW27568   1.225   5.083   4.468
 8890SOL    HW127569   1.282   5.109   4.546
 8890SOL    HW227570   1.132   5.117   4.482
 8891SOL     OW27571   4.383   2.973   6.365
 8891SOL    HW127572   4.396   2.896   6.303
 8891SOL    HW227573   4.320   3.039   6.324
 8892SOL     OW27574   1.779   6.643   2.636
 8892SOL    HW127575   1.762   6.723   2.693
 8892SOL    HW227576   1.865   6.600   2.664
 8893SOL     OW27577   0.541   1.504   1.242
 8893SOL    HW127578   0.598   1.474   1.318
 8893SOL    HW227579   0.474   1.571   1.274
 8894SOL     OW27580   4.307   2.629   6.421
 8894SOL    HW127581   4.290   2.603   6.326
 8894SOL    HW227582   4.287   2.727   6.432
 8895SOL     OW27583   0.729   6.893   2.050
 8895SOL    HW127584   0.742   6.982   2.093
 8895SOL    HW227585   0.792   6.882   1.974
 8896SOL     OW27586   1.629   3.765   4.738
 8896SOL    HW127587   1.654   3.823   4.816
 8896SOL    HW227588   1.694   3.780   4.664
 8897SOL     OW27589   1.381   2.569   1.630
 8897SOL    HW127590   1.322   2.591   1.553
 8897SOL    HW227591   1.469   2.536   1.597
 8898SOL     OW27592   5.271   3.573   4.209
 8898SOL    HW127593   5.339   3.502   4.230
 8898SOL    HW227594   5.244   3.567   4.113
 8899SOL     OW27595   1.574   4.554   0.143
 8899SOL    HW127596   1.618   4.464   0.142
 8899SOL    HW227597   1.642   4.624   0.120
 8900SOL     OW27598   5.458   2.046   3.941
 8900SOL    HW127599   5.544   2.050   3.890
 8900SOL    HW227600   5.447   2.129   3.996
 8901SOL     OW27601   1.867   0.232   2.775
 8901SOL    HW127602   1.943   0.281   2.732
 8901SOL    HW227603   1.785   0.239   2.719
 8902SOL     OW27604   1.472   5.189   6.450
 8902SOL    HW127605   1.386   5.142   6.431
 8902SOL    HW227606   1.537   5.124   6.490
 8903SOL     OW27607   2.077   1.579   3.587
 8903SOL    HW127608   2.123   1.526   3.659
 8903SOL    HW227609   1.980   1.555   3.584
 8904SOL     OW27610   1.301   6.216   3.442
 8904SOL    HW127611   1.347   6.305   3.439
 8904SOL    HW227612   1.202   6.230   3.432
 8905SOL     OW27613   2.607   3.812   5.351
 8905SOL    HW127614   2.546   3.876   5.303
 8905SOL    HW227615   2.579   3.718   5.330
 8906SOL     OW27616   6.358   6.346   5.313
 8906SOL    HW127617   6.321   6.437   5.292
 8906SOL    HW227618   6.289   6.292   5.360
 8907SOL     OW27619   3.194   2.865   5.697
 8907SOL    HW127620   3.234   2.806   5.627
 8907SOL    HW227621   3.210   2.960   5.673
 8908SOL     OW27622   0.876   2.853   1.590
 8908SOL    HW127623   0.908   2.947   1.581
 8908SOL    HW227624   0.931   2.806   1.660
 8909SOL     OW27625   2.168   0.757   6.523
 8909SOL    HW127626   2.199   0.662   6.513
 8909SOL    HW227627   2.071   0.757   6.549
 8910SOL     OW27628   3.105   3.794   6.628
 8910SOL    HW127629   3.034   3.864   6.634
 8910SOL    HW227630   3.187   3.833   6.587
 8911SOL     OW27631   4.011   2.219   4.130
 8911SOL    HW127632   4.095   2.271   4.114
 8911SOL    HW227633   3.962   2.207   4.043
 8912SOL     OW27634   4.626   2.869   5.876
 8912SOL    HW127635   4.585   2.949   5.920
 8912SOL    HW227636   4.672   2.896   5.792
 8913SOL     OW27637   5.469   4.237   1.298
 8913SOL    HW127638   5.502   4.330   1.284
 8913SOL    HW227639   5.377   4.228   1.260
 8914SOL     OW27640   3.351   1.692   4.654
 8914SOL    HW127641   3.305   1.625   4.713
 8914SOL    HW227642   3.432   1.651   4.614
 8915SOL     OW27643   1.412   4.603   2.238
 8915SOL    HW127644   1.497   4.639   2.278
 8915SOL    HW227645   1.409   4.627   2.141
 8916SOL     OW27646   6.885   3.314   2.551
 8916SOL    HW127647   6.979   3.348   2.557
 8916SOL    HW227648   6.824   3.377   2.600
 8917SOL     OW27649   6.021   5.788   6.837
 8917SOL    HW127650   6.075   5.741   6.767
 8917SOL    HW227651   6.073   5.865   6.874
 8918SOL     OW27652   5.623   5.269   6.532
 8918SOL    HW127653   5.668   5.194   6.484
 8918SOL    HW227654   5.596   5.339   6.467
 8919SOL     OW27655   3.245   5.290   0.878
 8919SOL    HW127656   3.247   5.294   0.978
 8919SOL    HW227657   3.221   5.380   0.842
 8920SOL     OW27658   6.167   5.953   5.505
 8920SOL    HW127659   6.194   5.966   5.600
 8920SOL    HW227660   6.214   5.872   5.468
 8921SOL     OW27661   1.679   0.004   3.989
 8921SOL    HW127662   1.677   0.005   4.089
 8921SOL    HW227663   1.586   0.010   3.954
 8922SOL     OW27664   0.366   4.187   0.093
 8922SOL    HW127665   0.361   4.089   0.109
 8922SOL    HW227666   0.432   4.228   0.156
 8923SOL     OW27667   1.952   4.191   6.099
 8923SOL    HW127668   1.908   4.240   6.024
 8923SOL    HW227669   2.006   4.115   6.062
 8924SOL     OW27670   2.576   5.334   5.445
 8924SOL    HW127671   2.648   5.268   5.463
 8924SOL    HW227672   2.584   5.411   5.508
 8925SOL     OW27673   7.005   0.178   2.058
 8925SOL    HW127674   7.021   0.273   2.028
 8925SOL    HW227675   0.025   0.115   1.993
 8926SOL     OW27676   5.402   2.262   0.669
 8926SOL    HW127677   5.424   2.180   0.722
 8926SOL    HW227678   5.438   2.343   0.717
 8927SOL     OW27679   2.311   2.380   4.579
 8927SOL    HW127680   2.391   2.321   4.571
 8927SOL    HW227681   2.250   2.344   4.650
 8928SOL     OW27682   1.022   6.432   5.219
 8928SOL    HW127683   1.071   6.406   5.302
 8928SOL    HW227684   1.017   6.531   5.212
 8929SOL     OW27685   5.833   3.954   3.460
 8929SOL    HW127686   5.743   3.925   3.493
 8929SOL    HW227687   5.900   3.946   3.533
 8930SOL     OW27688   1.006   5.229   4.857
 8930SOL    HW127689   1.094   5.277   4.853
 8930SOL    HW227690   1.021   5.132   4.875
 8931SOL     OW27691   4.490   1.347   0.647
 8931SOL    HW127692   4.402   1.358   0.600
 8931SOL    HW227693   4.504   1.250   0.668
 8932SOL     OW27694   7.019   0.154   6.767
 8932SOL    HW127695   6.930   0.190   6.793
 8932SOL    HW227696   0.000   0.143   6.668
 8933SOL     OW27697   1.736   0.658   4.856
 8933SOL    HW127698   1.690   0.719   4.920
 8933SOL    HW227699   1.765   0.710   4.775
 8934SOL     OW27700   3.293   6.012   2.930
 8934SOL    HW127701   3.256   5.936   2.876
 8934SOL    HW227702   3.372   6.051   2.883
 8935SOL     OW27703   4.910   2.354   3.650
 8935SOL    HW127704   4.849   2.293   3.599
 8935SOL    HW227705   4.887   2.449   3.629
 8936SOL     OW27706   1.185   5.302   2.163
 8936SOL    HW127707   1.174   5.204   2.183
 8936SOL    HW227708   1.167   5.355   2.246
 8937SOL     OW27709   4.975   7.006   4.352
 8937SOL    HW127710   5.005   7.015   4.448
 8937SOL    HW227711   5.011   0.060   4.299
 8938SOL     OW27712   6.160   1.203   1.221
 8938SOL    HW127713   6.193   1.185   1.314
 8938SOL    HW227714   6.191   1.293   1.192
 8939SOL     OW27715   0.449   3.138   4.107
 8939SOL    HW127716   0.350   3.153   4.115
 8939SOL    HW227717   0.469   3.040   4.110
 8940SOL     OW27718   6.465   2.921   0.929
 8940SOL    HW127719   6.435   2.900   1.022
 8940SOL    HW227720   6.495   2.837   0.884
 8941SOL     OW27721   4.356   2.695   1.621
 8941SOL    HW127722   4.275   2.753   1.621
 8941SOL    HW227723   4.423   2.730   1.688
 8942SOL     OW27724   5.961   4.792   4.494
 8942SOL    HW127725   6.025   4.725   4.459
 8942SOL    HW227726   5.942   4.774   4.591
 8943SOL     OW27727   4.765   4.105   0.297
 8943SOL    HW127728   4.775   4.027   0.359
 8943SOL    HW227729   4.846   4.112   0.239
 8944SOL     OW27730   5.593   6.093   4.809
 8944SOL    HW127731   5.656   6.088   4.731
 8944SOL    HW227732   5.619   6.026   4.878
 8945SOL     OW27733   5.838   4.158   5.714
 8945SOL    HW127734   5.830   4.059   5.725
 8945SOL    HW227735   5.748   4.200   5.717
 8946SOL     OW27736   5.437   1.261   4.822
 8946SOL    HW127737   5.533   1.254   4.793
 8946SOL    HW227738   5.377   1.251   4.743
 8947SOL     OW27739   1.769   5.449   6.964
 8947SOL    HW127740   1.713   5.413   0.016
 8947SOL    HW227741   1.780   5.548   6.974
 8948SOL     OW27742   6.882   0.604   2.602
 8948SOL    HW127743   6.814   0.549   2.554
 8948SOL    HW227744   6.838   0.652   2.678
 8949SOL     OW27745   3.567   6.322   0.719
 8949SOL    HW127746   3.535   6.411   0.750
 8949SOL    HW227747   3.653   6.332   0.668
 8950SOL     OW27748   4.539   3.890   0.488
 8950SOL    HW127749   4.487   3.894   0.403
 8950SOL    HW227750   4.483   3.924   0.563
 8951SOL     OW27751   2.008   1.787   4.465
 8951SOL    HW127752   2.041   1.694   4.481
 8951SOL    HW227753   2.085   1.850   4.459
 8952SOL     OW27754   1.789   3.762   3.663
 8952SOL    HW127755   1.764   3.673   3.700
 8952SOL    HW227756   1.888   3.771   3.660
 8953SOL     OW27757   1.256   4.935   1.837
 8953SOL    HW127758   1.261   4.915   1.739
 8953SOL    HW227759   1.162   4.961   1.861
 8954SOL     OW27760   1.891   5.039   5.818
 8954SOL    HW127761   1.864   5.128   5.780
 8954SOL    HW227762   1.981   5.014   5.782
 8955SOL     OW27763   5.789   2.931   3.986
 8955SOL    HW127764   5.794   2.835   3.959
 8955SOL    HW227765   5.706   2.947   4.040
 8956SOL     OW27766   0.898   5.399   6.302
 8956SOL    HW127767   0.806   5.371   6.276
 8956SOL    HW227768   0.934   5.464   6.235
 8957SOL     OW27769   1.027   6.228   3.387
 8957SOL    HW127770   0.990   6.280   3.310
 8957SOL    HW227771   0.983   6.138   3.391
 8958SOL     OW27772   1.688   3.658   5.419
 8958SOL    HW127773   1.749   3.678   5.342
 8958SOL    HW227774   1.656   3.563   5.412
 8959SOL     OW27775   6.952   2.746   3.004
 8959SOL    HW127776   7.013   2.813   3.046
 8959SOL    HW227777   7.006   2.672   2.965
 8960SOL     OW27778   5.187   4.481   3.463
 8960SOL    HW127779   5.118   4.523   3.404
 8960SOL    HW227780   5.222   4.549   3.527
 8961SOL     OW27781   2.277   0.404   5.520
 8961SOL    HW127782   2.245   0.357   5.437
 8961SOL    HW227783   2.199   0.424   5.579
 8962SOL     OW27784   0.447   5.766   1.884
 8962SOL    HW127785   0.383   5.833   1.922
 8962SOL    HW227786   0.465   5.789   1.788
 8963SOL     OW27787   4.506   6.448   4.586
 8963SOL    HW127788   4.506   6.393   4.502
 8963SOL    HW227789   4.599   6.458   4.619
 8964SOL     OW27790   0.700   3.259   4.361
 8964SOL    HW127791   0.734   3.276   4.268
 8964SOL    HW227792   0.776   3.230   4.419
 8965SOL     OW27793   3.941   5.569   6.962
 8965SOL    HW127794   4.036   5.555   6.932
 8965SOL    HW227795   3.880   5.517   6.903
 8966SOL     OW27796   5.102   4.992   5.447
 8966SOL    HW127797   5.032   4.953   5.387
 8966SOL    HW227798   5.062   5.066   5.501
 8967SOL     OW27799   2.769   0.229   3.678
 8967SOL    HW127800   2.772   0.291   3.600
 8967SOL    HW227801   2.688   0.170   3.671
 8968SOL     OW27802   4.100   4.972   2.246
 8968SOL    HW127803   4.194   4.950   2.220
 8968SOL    HW227804   4.041   4.969   2.165
 8969SOL     OW27805   0.425   0.881   2.596
 8969SOL    HW127806   0.449   0.936   2.676
 8969SOL    HW227807   0.435   0.784   2.617
 8970SOL     OW27808   1.834   0.765   4.575
 8970SOL    HW127809   1.830   0.682   4.520
 8970SOL    HW227810   1.780   0.837   4.530
 8971SOL     OW27811   4.220   5.418   0.501
 8971SOL    HW127812   4.185   5.506   0.531
 8971SOL    HW227813   4.224   5.355   0.578
 8972SOL     OW27814   6.205   4.574   0.571
 8972SOL    HW127815   6.281   4.509   0.578
 8972SOL    HW227816   6.157   4.561   0.484
 8973SOL     OW27817   1.095   2.974   3.400
 8973SOL    HW127818   1.161   3.048   3.413
 8973SOL    HW227819   1.114   2.928   3.314
 8974SOL     OW27820   2.218   4.191   4.710
 8974SOL    HW127821   2.219   4.097   4.745
 8974SOL    HW227822   2.230   4.189   4.610
 8975SOL     OW27823   6.882   6.228   6.158
 8975SOL    HW127824   6.976   6.221   6.123
 8975SOL    HW227825   6.825   6.161   6.112
 8976SOL     OW27826   6.743   6.555   1.721
 8976SOL    HW127827   6.672   6.502   1.767
 8976SOL    HW227828   6.819   6.571   1.784
 8977SOL     OW27829   6.689   5.308   5.998
 8977SOL    HW127830   6.618   5.373   5.970
 8977SOL    HW227831   6.681   5.225   5.942
 8978SOL     OW27832   5.682   5.727   6.419
 8978SOL    HW127833   5.635   5.642   6.397
 8978SOL    HW227834   5.691   5.735   6.519
 8979SOL     OW27835   1.045   4.906   5.684
 8979SOL    HW127836   1.092   4.961   5.752
 8979SOL    HW227837   1.112   4.856   5.629
 8980SOL     OW27838   3.648   0.596   5.486
 8980SOL    HW127839   3.549   0.600   5.498
 8980SOL    HW227840   3.692   0.654   5.555
 8981SOL     OW27841   4.153   3.304   0.177
 8981SOL    HW127842   4.239   3.259   0.199
 8981SOL    HW227843   4.090   3.238   0.135
 8982SOL     OW27844   0.659   1.614   1.470
 8982SOL    HW127845   0.592   1.595   1.541
 8982SOL    HW227846   0.731   1.544   1.472
 8983SOL     OW27847   0.909   6.877   1.842
 8983SOL    HW127848   0.953   6.964   1.862
 8983SOL    HW227849   0.954   6.804   1.895
 8984SOL     OW27850   6.237   0.657   3.739
 8984SOL    HW127851   6.167   0.664   3.810
 8984SOL    HW227852   6.216   0.719   3.664
 8985SOL     OW27853   4.691   2.620   0.948
 8985SOL    HW127854   4.669   2.687   0.878
 8985SOL    HW227855   4.643   2.643   1.033
 8986SOL     OW27856   0.321   5.577   0.023
 8986SOL    HW127857   0.232   5.617   0.001
 8986SOL    HW227858   0.387   5.600   6.974
 8987SOL     OW27859   2.212   0.753   1.802
 8987SOL    HW127860   2.259   0.665   1.805
 8987SOL    HW227861   2.172   0.773   1.892
 8988SOL     OW27862   1.679   5.632   1.743
 8988SOL    HW127863   1.703   5.662   1.836
 8988SOL    HW227864   1.763   5.626   1.689
 8989SOL     OW27865   5.428   1.322   2.055
 8989SOL    HW127866   5.427   1.227   2.086
 8989SOL    HW227867   5.522   1.355   2.049
 8990SOL     OW27868   3.594   0.481   1.689
 8990SOL    HW127869   3.520   0.494   1.624
 8990SOL    HW227870   3.682   0.486   1.641
 8991SOL     OW27871   2.133   2.436   0.546
 8991SOL    HW127872   2.202   2.378   0.502
 8991SOL    HW227873   2.115   2.516   0.488
 8992SOL     OW27874   0.760   3.930   0.376
 8992SOL    HW127875   0.824   3.959   0.305
 8992SOL    HW227876   0.681   3.885   0.335
 8993SOL     OW27877   6.292   3.745   4.362
 8993SOL    HW127878   6.221   3.751   4.432
 8993SOL    HW227879   6.380   3.774   4.401
 8994SOL     OW27880   1.130   5.243   3.222
 8994SOL    HW127881   1.230   5.241   3.224
 8994SOL    HW227882   1.098   5.282   3.136
 8995SOL     OW27883   2.199   3.925   4.816
 8995SOL    HW127884   2.249   3.942   4.901
 8995SOL    HW227885   2.163   3.832   4.817
 8996SOL     OW27886   1.044   4.192   1.907
 8996SOL    HW127887   0.981   4.240   1.967
 8996SOL    HW227888   1.137   4.223   1.925
 8997SOL     OW27889   4.611   1.819   5.329
 8997SOL    HW127890   4.549   1.741   5.322
 8997SOL    HW227891   4.623   1.843   5.425
 8998SOL     OW27892   1.203   2.810   6.414
 8998SOL    HW127893   1.215   2.910   6.412
 8998SOL    HW227894   1.270   2.768   6.353
 8999SOL     OW27895   6.386   1.212   4.213
 8999SOL    HW127896   6.316   1.145   4.238
 8999SOL    HW227897   6.455   1.216   4.285
 9000SOL     OW27898   3.212   4.214   0.788
 9000SOL    HW127899   3.119   4.233   0.755
 9000SOL    HW227900   3.272   4.290   0.764
 9001SOL     OW27901   1.520   4.635   3.681
 9001SOL    HW127902   1.463   4.554   3.696
 9001SOL    HW227903   1.496   4.706   3.747
 9002SOL     OW27904   4.928   4.614   5.288
 9002SOL    HW127905   5.024   4.630   5.266
 9002SOL    HW227906   4.920   4.583   5.382
 9003SOL     OW27907   5.918   2.764   6.347
 9003SOL    HW127908   5.883   2.804   6.262
 9003SOL    HW227909   5.997   2.707   6.327
 9004SOL     OW27910   4.597   6.292   1.008
 9004SOL    HW127911   4.621   6.313   0.914
 9004SOL    HW227912   4.655   6.218   1.042
 9005SOL     OW27913   4.906   1.675   2.701
 9005SOL    HW127914   4.972   1.694   2.628
 9005SOL    HW227915   4.847   1.599   2.674
 9006SOL     OW27916   1.359   5.837   1.314
 9006SOL    HW127917   1.459   5.838   1.317
 9006SOL    HW227918   1.323   5.879   1.398
 9007SOL     OW27919   2.500   6.413   4.445
 9007SOL    HW127920   2.401   6.415   4.425
 9007SOL    HW227921   2.518   6.465   4.528
 9008SOL     OW27922   6.283   4.583   2.413
 9008SOL    HW127923   6.321   4.531   2.490
 9008SOL    HW227924   6.210   4.531   2.370
 9009SOL     OW27925   3.458   6.559   0.834
 9009SOL    HW127926   3.548   6.549   0.877
 9009SOL    HW227927   3.444   6.654   0.807
 9010SOL     OW27928   1.323   6.298   4.844
 9010SOL    HW127929   1.232   6.307   4.883
 9010SOL    HW227930   1.329   6.352   4.760
 9011SOL     OW27931   4.368   1.937   1.302
 9011SOL    HW127932   4.354   1.967   1.397
 9011SOL    HW227933   4.449   1.982   1.265
 9012SOL     OW27934   6.923   5.796   1.362
 9012SOL    HW127935   6.950   5.891   1.344
 9012SOL    HW227936   6.938   5.775   1.459
 9013SOL     OW27937   5.676   5.655   3.542
 9013SOL    HW127938   5.768   5.695   3.545
 9013SOL    HW227939   5.617   5.711   3.484
 9014SOL     OW27940   2.808   1.201   1.522
 9014SOL    HW127941   2.861   1.160   1.448
 9014SOL    HW227942   2.866   1.213   1.602
 9015SOL     OW27943   0.475   0.979   5.607
 9015SOL    HW127944   0.515   1.061   5.649
 9015SOL    HW227945   0.547   0.928   5.560
 9016SOL     OW27946   6.466   6.089   6.584
 9016SOL    HW127947   6.461   6.185   6.557
 9016SOL    HW227948   6.509   6.082   6.675
 9017SOL     OW27949   6.688   3.137   3.345
 9017SOL    HW127950   6.652   3.099   3.430
 9017SOL    HW227951   6.648   3.090   3.267
 9018SOL     OW27952   3.570   2.543   5.371
 9018SOL    HW127953   3.489   2.590   5.336
 9018SOL    HW227954   3.611   2.488   5.299
 9019SOL     OW27955   2.182   0.079   1.255
 9019SOL    HW127956   2.139   0.081   1.345
 9019SOL    HW227957   2.159   0.162   1.205
 9020SOL     OW27958   0.794   5.062   3.073
 9020SOL    HW127959   0.845   5.060   3.160
 9020SOL    HW227960   0.857   5.083   2.998
 9021SOL     OW27961   6.651   5.447   5.021
 9021SOL    HW127962   6.650   5.376   4.951
 9021SOL    HW227963   6.702   5.526   4.988
 9022SOL     OW27964   3.341   0.409   0.204
 9022SOL    HW127965   3.253   0.454   0.194
 9022SOL    HW227966   3.382   0.396   0.113
 9023SOL     OW27967   3.412   3.277   3.224
 9023SOL    HW127968   3.420   3.180   3.199
 9023SOL    HW227969   3.326   3.313   3.189
 9024SOL     OW27970   2.099   6.764   0.591
 9024SOL    HW127971   2.005   6.783   0.619
 9024SOL    HW227972   2.134   6.687   0.643
 9025SOL     OW27973   6.006   4.940   0.699
 9025SOL    HW127974   6.035   4.847   0.720
 9025SOL    HW227975   5.911   4.952   0.729
 9026SOL     OW27976   3.265   2.893   4.923
 9026SOL    HW127977   3.206   2.897   5.004
 9026SOL    HW227978   3.227   2.828   4.857
 9027SOL     OW27979   1.926   2.972   3.620
 9027SOL    HW127980   1.870   3.050   3.595
 9027SOL    HW227981   2.000   3.002   3.681
 9028SOL     OW27982   2.800   4.901   4.559
 9028SOL    HW127983   2.706   4.869   4.568
 9028SOL    HW227984   2.852   4.876   4.641
 9029SOL     OW27985   5.151   5.986   2.913
 9029SOL    HW127986   5.225   5.923   2.892
 9029SOL    HW227987   5.063   5.940   2.898
 9030SOL     OW27988   2.629   1.419   1.721
 9030SOL    HW127989   2.648   1.351   1.651
 9030SOL    HW227990   2.545   1.394   1.770
 9031SOL     OW27991   2.387   6.649   6.324
 9031SOL    HW127992   2.477   6.671   6.289
 9031SOL    HW227993   2.395   6.619   6.419
 9032SOL     OW27994   1.636   1.642   1.936
 9032SOL    HW127995   1.645   1.731   1.892
 9032SOL    HW227996   1.727   1.608   1.962
 9033SOL     OW27997   1.488   3.920   2.633
 9033SOL    HW127998   1.393   3.948   2.652
 9033SOL    HW227999   1.550   3.990   2.667
 9034SOL     OW28000   3.034   6.844   6.020
 9034SOL    HW128001   2.935   6.826   6.020
 9034SOL    HW228002   3.083   6.759   6.040
 9035SOL     OW28003   6.847   1.239   4.538
 9035SOL    HW128004   6.873   1.228   4.634
 9035SOL    HW228005   6.770   1.303   4.532
 9036SOL     OW28006   1.614   1.745   5.118
 9036SOL    HW128007   1.713   1.762   5.116
 9036SOL    HW228008   1.597   1.648   5.133
 9037SOL     OW28009   1.986   3.801   6.481
 9037SOL    HW128010   1.910   3.740   6.459
 9037SOL    HW228011   2.043   3.759   6.552
 9038SOL     OW28012   5.113   6.438   5.336
 9038SOL    HW128013   5.143   6.363   5.278
 9038SOL    HW228014   5.165   6.521   5.313
 9039SOL     OW28015   2.102   5.400   6.002
 9039SOL    HW128016   2.186   5.437   6.042
 9039SOL    HW228017   2.034   5.473   5.996
 9040SOL     OW28018   2.170   1.341   2.596
 9040SOL    HW128019   2.111   1.265   2.570
 9040SOL    HW228020   2.264   1.322   2.567
 9041SOL     OW28021   2.248   3.280   7.007
 9041SOL    HW128022   2.340   3.317   7.020
 9041SOL    HW228023   2.196   3.288   0.069
 9042SOL     OW28024   3.073   5.054   3.706
 9042SOL    HW128025   3.139   4.988   3.745
 9042SOL    HW228026   3.095   5.068   3.609
 9043SOL     OW28027   0.223   2.416   5.818
 9043SOL    HW128028   0.314   2.380   5.836
 9043SOL    HW228029   0.211   2.502   5.869
 9044SOL     OW28030   6.303   5.733   0.491
 9044SOL    HW128031   6.250   5.810   0.527
 9044SOL    HW228032   6.298   5.657   0.555
 9045SOL     OW28033   3.131   6.494   4.177
 9045SOL    HW128034   3.043   6.539   4.161
 9045SOL    HW228035   3.159   6.509   4.272
 9046SOL     OW28036   3.510   3.902   4.950
 9046SOL    HW128037   3.428   3.847   4.939
 9046SOL    HW228038   3.490   3.997   4.928
 9047SOL     OW28039   1.141   4.978   4.864
 9047SOL    HW128040   1.126   4.888   4.823
 9047SOL    HW228041   1.230   4.980   4.908
 9048SOL     OW28042   0.896   3.137   4.508
 9048SOL    HW128043   0.965   3.167   4.574
 9048SOL    HW228044   0.938   3.130   4.417
 9049SOL     OW28045   5.560   5.485   6.333
 9049SOL    HW128046   5.481   5.539   6.306
 9049SOL    HW228047   5.572   5.409   6.269
 9050SOL     OW28048   0.223   4.754   6.206
 9050SOL    HW128049   0.261   4.846   6.210
 9050SOL    HW228050   0.291   4.691   6.168
 9051SOL     OW28051   5.198   6.375   6.327
 9051SOL    HW128052   5.278   6.366   6.387
 9051SOL    HW228053   5.217   6.445   6.258
 9052SOL     OW28054   1.811   4.943   4.913
 9052SOL    HW128055   1.874   4.911   4.842
 9052SOL    HW228056   1.760   4.865   4.950
 9053SOL     OW28057   3.274   2.139   3.633
 9053SOL    HW128058   3.348   2.160   3.697
 9053SOL    HW228059   3.289   2.049   3.593
 9054SOL     OW28060   2.860   0.713   1.445
 9054SOL    HW128061   2.816   0.787   1.395
 9054SOL    HW228062   2.876   0.636   1.383
 9055SOL     OW28063   1.238   2.377   3.793
 9055SOL    HW128064   1.167   2.425   3.845
 9055SOL    HW228065   1.328   2.406   3.825
 9056SOL     OW28066   5.299   0.788   3.224
 9056SOL    HW128067   5.379   0.770   3.282
 9056SOL    HW228068   5.232   0.841   3.275
 9057SOL     OW28069   5.278   5.517   5.879
 9057SOL    HW128070   5.238   5.426   5.889
 9057SOL    HW228071   5.358   5.513   5.821
 9058SOL     OW28072   1.508   3.105   4.402
 9058SOL    HW128073   1.430   3.167   4.397
 9058SOL    HW228074   1.482   3.021   4.450
 9059SOL     OW28075   0.548   1.355   2.439
 9059SOL    HW128076   0.615   1.418   2.479
 9059SOL    HW228077   0.476   1.406   2.393
 9060SOL     OW28078   0.634   4.253   1.569
 9060SOL    HW128079   0.587   4.165   1.575
 9060SOL    HW228080   0.616   4.294   1.479
 9061SOL     OW28081   5.817   4.733   1.823
 9061SOL    HW128082   5.857   4.682   1.899
 9061SOL    HW228083   5.753   4.675   1.773
 9062SOL     OW28084   0.553   5.804   3.576
 9062SOL    HW128085   0.541   5.706   3.561
 9062SOL    HW228086   0.577   5.820   3.672
 9063SOL     OW28087   4.078   1.278   1.586
 9063SOL    HW128088   4.143   1.221   1.636
 9063SOL    HW228089   3.985   1.256   1.616
 9064SOL     OW28090   0.461   4.837   3.437
 9064SOL    HW128091   0.498   4.775   3.369
 9064SOL    HW228092   0.410   4.911   3.392
 9065SOL     OW28093   2.354   5.138   5.741
 9065SOL    HW128094   2.281   5.199   5.771
 9065SOL    HW228095   2.420   5.126   5.815
 9066SOL     OW28096   4.846   4.881   5.334
 9066SOL    HW128097   4.858   4.788   5.300
 9066SOL    HW228098   4.844   4.880   5.434
 9067SOL     OW28099   6.863   0.134   4.062
 9067SOL    HW128100   6.938   0.143   3.997
 9067SOL    HW228101   6.796   0.069   4.026
 9068SOL     OW28102   4.726   6.487   4.729
 9068SOL    HW128103   4.767   6.559   4.674
 9068SOL    HW228104   4.712   6.520   4.823
 9069SOL     OW28105   5.218   1.772   1.570
 9069SOL    HW128106   5.162   1.772   1.653
 9069SOL    HW228107   5.175   1.714   1.501
 9070SOL     OW28108   1.553   1.790   5.939
 9070SOL    HW128109   1.621   1.864   5.944
 9070SOL    HW228110   1.543   1.747   6.029
 9071SOL     OW28111   5.234   1.930   5.415
 9071SOL    HW128112   5.151   1.930   5.471
 9071SOL    HW228113   5.246   1.840   5.374
 9072SOL     OW28114   4.929   1.092   2.809
 9072SOL    HW128115   5.003   1.028   2.790
 9072SOL    HW228116   4.841   1.044   2.801
 9073SOL     OW28117   4.627   1.495   6.447
 9073SOL    HW128118   4.693   1.551   6.497
 9073SOL    HW228119   4.655   1.487   6.352
 9074SOL     OW28120   1.991   6.928   1.938
 9074SOL    HW128121   2.060   6.959   1.872
 9074SOL    HW228122   1.940   6.851   1.899
 9075SOL     OW28123   6.343   6.992   1.479
 9075SOL    HW128124   6.372   0.021   1.559
 9075SOL    HW228125   6.423   6.952   1.434
 9076SOL     OW28126   6.697   0.530   2.057
 9076SOL    HW128127   6.654   0.604   2.109
 9076SOL    HW228128   6.671   0.442   2.096
 9077SOL     OW28129   6.673   1.606   6.114
 9077SOL    HW128130   6.652   1.632   6.208
 9077SOL    HW228131   6.608   1.537   6.083
 9078SOL     OW28132   5.395   5.889   0.068
 9078SOL    HW128133   5.484   5.923   0.098
 9078SOL    HW228134   5.369   5.810   0.124
 9079SOL     OW28135   1.079   0.632   6.547
 9079SOL    HW128136   1.123   0.718   6.521
 9079SOL    HW228137   1.024   0.646   6.630
 9080SOL     OW28138   6.116   3.369   1.338
 9080SOL    HW128139   6.141   3.450   1.285
 9080SOL    HW228140   6.018   3.352   1.331
 9081SOL     OW28141   3.748   1.889   0.325
 9081SOL    HW128142   3.831   1.942   0.306
 9081SOL    HW228143   3.754   1.848   0.416
 9082SOL     OW28144   2.828   5.651   5.668
 9082SOL    HW128145   2.788   5.741   5.688
 9082SOL    HW228146   2.876   5.617   5.749
 9083SOL     OW28147   4.181   4.808   0.021
 9083SOL    HW128148   4.227   4.742   6.984
 9083SOL    HW228149   4.096   4.839   7.001
 9084SOL     OW28150   0.688   2.844   5.864
 9084SOL    HW128151   0.728   2.905   5.796
 9084SOL    HW228152   0.591   2.829   5.844
 9085SOL     OW28153   2.635   5.342   6.834
 9085SOL    HW128154   2.633   5.260   6.777
 9085SOL    HW228155   2.599   5.321   6.925
 9086SOL     OW28156   6.687   4.268   0.353
 9086SOL    HW128157   6.732   4.251   0.266
 9086SOL    HW228158   6.628   4.348   0.346
 9087SOL     OW28159   6.001   1.330   1.616
 9087SOL    HW128160   6.069   1.272   1.572
 9087SOL    HW228161   5.909   1.293   1.600
 9088SOL     OW28162   6.687   0.026   0.324
 9088SOL    HW128163   6.762   7.004   0.275
 9088SOL    HW228164   6.638   6.980   0.378
 9089SOL     OW28165   4.857   5.936   3.960
 9089SOL    HW128166   4.809   5.956   3.875
 9089SOL    HW228167   4.883   5.840   3.962
 9090SOL     OW28168   5.882   6.469   4.695
 9090SOL    HW128169   5.815   6.419   4.640
 9090SOL    HW228170   5.944   6.520   4.635
 9091SOL     OW28171   2.093   1.960   1.264
 9091SOL    HW128172   2.164   1.943   1.332
 9091SOL    HW228173   2.135   1.996   1.180
 9092SOL     OW28174   1.108   6.345   5.461
 9092SOL    HW128175   1.061   6.418   5.511
 9092SOL    HW228176   1.052   6.262   5.463
 9093SOL     OW28177   1.585   5.301   0.196
 9093SOL    HW128178   1.513   5.238   0.166
 9093SOL    HW228179   1.584   5.309   0.295
 9094SOL     OW28180   0.240   5.910   1.999
 9094SOL    HW128181   0.289   5.984   2.044
 9094SOL    HW228182   0.151   5.897   2.043
 9095SOL     OW28183   3.958   3.328   6.767
 9095SOL    HW128184   3.890   3.261   6.736
 9095SOL    HW228185   4.028   3.281   6.820
 9096SOL     OW28186   5.778   2.790   2.909
 9096SOL    HW128187   5.717   2.748   2.842
 9096SOL    HW228188   5.768   2.889   2.906
 9097SOL     OW28189   1.399   3.595   6.783
 9097SOL    HW128190   1.426   3.640   6.868
 9097SOL    HW228191   1.388   3.497   6.800
 9098SOL     OW28192   3.871   3.685   1.840
 9098SOL    HW128193   3.918   3.636   1.914
 9098SOL    HW228194   3.930   3.688   1.759
 9099SOL     OW28195   2.720   3.435   1.175
 9099SOL    HW128196   2.694   3.419   1.270
 9099SOL    HW228197   2.737   3.532   1.161
 9100SOL     OW28198   0.687   3.279   1.123
 9100SOL    HW128199   0.725   3.344   1.058
 9100SOL    HW228200   0.619   3.222   1.077
 9101SOL     OW28201   1.558   2.823   2.468
 9101SOL    HW128202   1.519   2.785   2.552
 9101SOL    HW228203   1.644   2.869   2.488
 9102SOL     OW28204   4.161   5.399   2.148
 9102SOL    HW128205   4.100   5.321   2.163
 9102SOL    HW228206   4.197   5.431   2.236
 9103SOL     OW28207   6.917   3.904   0.663
 9103SOL    HW128208   6.911   3.976   0.594
 9103SOL    HW228209   6.935   3.816   0.618
 9104SOL     OW28210   4.741   6.469   1.300
 9104SOL    HW128211   4.646   6.479   1.270
 9104SOL    HW228212   4.770   6.374   1.288
 9105SOL     OW28213   1.471   1.252   6.283
 9105SOL    HW128214   1.538   1.282   6.351
 9105SOL    HW228215   1.519   1.218   6.202
 9106SOL     OW28216   5.720   5.172   0.211
 9106SOL    HW128217   5.666   5.206   0.134
 9106SOL    HW228218   5.702   5.075   0.225
 9107SOL     OW28219   3.236   0.043   0.817
 9107SOL    HW128220   3.279   0.122   0.774
 9107SOL    HW228221   3.144   0.030   0.779
 9108SOL     OW28222   4.688   4.802   5.588
 9108SOL    HW128223   4.640   4.861   5.654
 9108SOL    HW228224   4.645   4.712   5.586
 9109SOL     OW28225   2.802   2.321   3.687
 9109SOL    HW128226   2.739   2.276   3.623
 9109SOL    HW228227   2.879   2.358   3.636
 9110SOL     OW28228   1.786   4.568   3.578
 9110SOL    HW128229   1.705   4.622   3.601
 9110SOL    HW228230   1.864   4.599   3.633
 9111SOL     OW28231   4.060   4.470   1.409
 9111SOL    HW128232   4.029   4.527   1.333
 9111SOL    HW228233   4.077   4.377   1.376
 9112SOL     OW28234   1.018   4.484   2.499
 9112SOL    HW128235   1.091   4.501   2.566
 9112SOL    HW228236   1.013   4.386   2.481
 9113SOL     OW28237   5.200   0.207   0.219
 9113SOL    HW128238   5.278   0.269   0.229
 9113SOL    HW228239   5.129   0.233   0.285
 9114SOL     OW28240   2.165   4.427   2.204
 9114SOL    HW128241   2.163   4.340   2.155
 9114SOL    HW228242   2.259   4.445   2.236
 9115SOL     OW28243   1.682   4.955   4.283
 9115SOL    HW128244   1.593   4.960   4.238
 9115SOL    HW228245   1.752   4.931   4.216
 9116SOL     OW28246   6.851   1.648   6.823
 9116SOL    HW128247   6.946   1.657   6.792
 9116SOL    HW228248   6.790   1.691   6.757
 9117SOL     OW28249   6.177   2.873   6.284
 9117SOL    HW128250   6.242   2.858   6.210
 9117SOL    HW228251   6.157   2.971   6.292
 9118SOL     OW28252   6.388   0.139   1.080
 9118SOL    HW128253   6.411   0.184   1.167
 9118SOL    HW228254   6.390   0.040   1.093
 9119SOL     OW28255   6.083   0.694   1.922
 9119SOL    HW128256   6.064   0.759   1.848
 9119SOL    HW228257   6.123   0.611   1.884
 9120SOL     OW28258   5.597   1.603   5.674
 9120SOL    HW128259   5.631   1.634   5.763
 9120SOL    HW228260   5.587   1.682   5.614
 9121SOL     OW28261   0.569   2.574   5.599
 9121SOL    HW128262   0.543   2.670   5.595
 9121SOL    HW228263   0.617   2.548   5.516
 9122SOL     OW28264   1.454   3.233   2.835
 9122SOL    HW128265   1.541   3.264   2.797
 9122SOL    HW228266   1.390   3.310   2.838
 9123SOL     OW28267   2.960   6.201   5.620
 9123SOL    HW128268   3.000   6.230   5.533
 9123SOL    HW228269   2.865   6.232   5.624
 9124SOL     OW28270   6.628   6.276   5.460
 9124SOL    HW128271   6.710   6.276   5.403
 9124SOL    HW228272   6.546   6.283   5.402
 9125SOL     OW28273   4.616   4.425   3.705
 9125SOL    HW128274   4.593   4.431   3.608
 9125SOL    HW228275   4.617   4.329   3.733
 9126SOL     OW28276   6.252   1.130   1.449
 9126SOL    HW128277   6.336   1.126   1.394
 9126SOL    HW228278   6.242   1.046   1.501
 9127SOL     OW28279   5.650   6.961   6.293
 9127SOL    HW128280   5.561   6.969   6.339
 9127SOL    HW228281   5.719   7.010   6.347
 9128SOL     OW28282   3.755   1.283   5.280
 9128SOL    HW128283   3.716   1.371   5.308
 9128SOL    HW228284   3.855   1.291   5.276
 9129SOL     OW28285   1.721   2.682   6.739
 9129SOL    HW128286   1.667   2.761   6.711
 9129SOL    HW228287   1.791   2.710   6.804
 9130SOL     OW28288   6.682   4.646   0.069
 9130SOL    HW128289   6.689   4.558   0.023
 9130SOL    HW228290   6.590   4.684   0.055
 9131SOL     OW28291   0.452   4.216   4.958
 9131SOL    HW128292   0.526   4.230   5.024
 9131SOL    HW228293   0.446   4.295   4.898
 9132SOL     OW28294   6.435   3.838   3.727
 9132SOL    HW128295   6.341   3.840   3.761
 9132SOL    HW228296   6.498   3.823   3.804
 9133SOL     OW28297   2.276   4.735   0.763
 9133SOL    HW128298   2.314   4.652   0.722
 9133SOL    HW228299   2.246   4.715   0.857
 9134SOL     OW28300   3.559   6.211   0.106
 9134SOL    HW128301   3.647   6.165   0.116
 9134SOL    HW228302   3.495   6.178   0.176
 9135SOL     OW28303   0.078   0.058   2.301
 9135SOL    HW128304   0.100   0.128   2.369
 9135SOL    HW228305   0.045   0.102   2.217
 9136SOL     OW28306   5.297   5.283   5.582
 9136SOL    HW128307   5.349   5.369   5.589
 9136SOL    HW228308   5.342   5.223   5.516
 9137SOL     OW28309   4.978   1.272   1.351
 9137SOL    HW128310   5.056   1.269   1.413
 9137SOL    HW228311   4.995   1.339   1.279
 9138SOL     OW28312   6.195   5.176   6.273
 9138SOL    HW128313   6.168   5.142   6.363
 9138SOL    HW228314   6.232   5.268   6.281
 9139SOL     OW28315   3.072   1.574   5.856
 9139SOL    HW128316   3.162   1.557   5.817
 9139SOL    HW228317   3.047   1.670   5.842
 9140SOL     OW28318   6.535   2.511   3.004
 9140SOL    HW128319   6.564   2.571   2.929
 9140SOL    HW228320   6.440   2.530   3.028
 9141SOL     OW28321   5.378   7.002   6.357
 9141SOL    HW128322   5.288   7.020   6.397
 9141SOL    HW228323   5.366   6.970   6.263
 9142SOL     OW28324   0.227   3.051   5.205
 9142SOL    HW128325   0.320   3.086   5.192
 9142SOL    HW228326   0.227   2.984   5.278
 9143SOL     OW28327   4.398   3.588   0.313
 9143SOL    HW128328   4.454   3.505   0.319
 9143SOL    HW228329   4.325   3.583   0.382
 9144SOL     OW28330   1.885   6.028   6.293
 9144SOL    HW128331   1.932   6.114   6.274
 9144SOL    HW228332   1.899   5.964   6.218
 9145SOL     OW28333   0.347   4.970   0.477
 9145SOL    HW128334   0.262   4.924   0.501
 9145SOL    HW228335   0.388   5.010   0.559
 9146SOL     OW28336   5.091   2.605   1.488
 9146SOL    HW128337   5.085   2.659   1.404
 9146SOL    HW228338   5.121   2.664   1.563
 9147SOL     OW28339   5.191   6.694   4.307
 9147SOL    HW128340   5.217   6.601   4.331
 9147SOL    HW228341   5.268   6.756   4.324
 9148SOL     OW28342   6.158   6.279   2.215
 9148SOL    HW128343   6.184   6.239   2.127
 9148SOL    HW228344   6.189   6.220   2.289
 9149SOL     OW28345   4.886   2.610   3.924
 9149SOL    HW128346   4.893   2.706   3.896
 9149SOL    HW228347   4.954   2.556   3.875
 9150SOL     OW28348   4.367   6.255   3.208
 9150SOL    HW128349   4.399   6.329   3.148
 9150SOL    HW228350   4.274   6.275   3.237
 9151SOL     OW28351   1.287   4.118   2.372
 9151SOL    HW128352   1.362   4.174   2.336
 9151SOL    HW228353   1.263   4.047   2.306
 9152SOL     OW28354   2.582   5.787   4.079
 9152SOL    HW128355   2.558   5.696   4.112
 9152SOL    HW228356   2.505   5.824   4.025
 9153SOL     OW28357   1.792   2.782   0.354
 9153SOL    HW128358   1.764   2.817   0.443
 9153SOL    HW228359   1.727   2.712   0.324
 9154SOL     OW28360   2.822   6.177   6.603
 9154SOL    HW128361   2.758   6.187   6.527
 9154SOL    HW228362   2.804   6.248   6.671
 9155SOL     OW28363   2.259   3.679   6.906
 9155SOL    HW128364   2.245   3.747   6.979
 9155SOL    HW228365   2.340   3.625   6.927
 9156SOL     OW28366   2.916   2.623   1.291
 9156SOL    HW128367   2.829   2.642   1.245
 9156SOL    HW228368   2.964   2.549   1.244
 9157SOL     OW28369   5.786   4.815   5.776
 9157SOL    HW128370   5.865   4.755   5.788
 9157SOL    HW228371   5.733   4.785   5.697
 9158SOL     OW28372   6.796   3.252   4.484
 9158SOL    HW128373   6.743   3.332   4.457
 9158SOL    HW228374   6.830   3.265   4.577
 9159SOL     OW28375   0.221   6.131   3.019
 9159SOL    HW128376   0.268   6.201   2.964
 9159SOL    HW228377   0.285   6.094   3.086
 9160SOL     OW28378   6.954   6.894   4.778
 9160SOL    HW128379   0.010   6.929   4.828
 9160SOL    HW228380   6.890   6.851   4.842
 9161SOL     OW28381   4.824   4.006   4.860
 9161SOL    HW128382   4.790   4.097   4.886
 9161SOL    HW228383   4.835   3.950   4.941
 9162SOL     OW28384   5.010   2.098   3.257
 9162SOL    HW128385   5.026   2.134   3.165
 9162SOL    HW228386   4.991   2.000   3.252
 9163SOL     OW28387   2.147   3.105   3.744
 9163SOL    HW128388   2.113   3.190   3.784
 9163SOL    HW228389   2.201   3.055   3.811
 9164SOL     OW28390   2.512   0.947   6.734
 9164SOL    HW128391   2.559   0.977   6.817
 9164SOL    HW228392   2.433   1.007   6.717
 9165SOL     OW28393   6.186   0.886   6.003
 9165SOL    HW128394   6.099   0.843   5.981
 9165SOL    HW228395   6.248   0.879   5.925
 9166SOL     OW28396   4.787   6.087   1.066
 9166SOL    HW128397   4.824   6.056   1.154
 9166SOL    HW228398   4.779   6.009   1.004
 9167SOL     OW28399   2.070   2.873   6.079
 9167SOL    HW128400   2.084   2.807   6.006
 9167SOL    HW228401   2.062   2.965   6.041
 9168SOL     OW28402   1.807   6.480   5.862
 9168SOL    HW128403   1.726   6.493   5.919
 9168SOL    HW228404   1.779   6.476   5.766
 9169SOL     OW28405   6.988   0.734   4.735
 9169SOL    HW128406   6.931   0.695   4.807
 9169SOL    HW228407   7.017   0.826   4.762
 9170SOL     OW28408   0.124   4.865   6.626
 9170SOL    HW128409   0.082   4.774   6.624
 9170SOL    HW228410   0.148   4.888   6.720
 9171SOL     OW28411   3.017   5.786   0.215
 9171SOL    HW128412   3.005   5.710   0.150
 9171SOL    HW228413   3.094   5.765   0.276
 9172SOL     OW28414   3.556   0.497   4.778
 9172SOL    HW128415   3.477   0.551   4.808
 9172SOL    HW228416   3.638   0.529   4.824
 9173SOL     OW28417   5.642   4.660   4.595
 9173SOL    HW128418   5.566   4.675   4.658
 9173SOL    HW228419   5.711   4.731   4.608
 9174SOL     OW28420   6.074   3.691   0.475
 9174SOL    HW128421   6.168   3.684   0.508
 9174SOL    HW228422   6.031   3.773   0.512
 9175SOL     OW28423   2.303   6.461   4.911
 9175SOL    HW128424   2.323   6.547   4.865
 9175SOL    HW228425   2.234   6.476   4.981
 9176SOL     OW28426   2.256   1.348   5.737
 9176SOL    HW128427   2.251   1.438   5.779
 9176SOL    HW228428   2.286   1.356   5.642
 9177SOL     OW28429   1.432   4.972   4.131
 9177SOL    HW128430   1.494   5.028   4.076
 9177SOL    HW228431   1.342   4.969   4.087
 9178SOL     OW28432   2.260   5.259   1.001
 9178SOL    HW128433   2.214   5.184   0.952
 9178SOL    HW228434   2.270   5.337   0.940
 9179SOL     OW28435   2.687   5.209   4.105
 9179SOL    HW128436   2.679   5.308   4.104
 9179SOL    HW228437   2.691   5.177   4.200
 9180SOL     OW28438   6.286   2.328   3.573
 9180SOL    HW128439   6.357   2.392   3.604
 9180SOL    HW228440   6.268   2.343   3.476
 9181SOL     OW28441   4.387   2.341   3.137
 9181SOL    HW128442   4.333   2.266   3.099
 9181SOL    HW228443   4.416   2.316   3.230
 9182SOL     OW28444   3.243   0.180   2.445
 9182SOL    HW128445   3.306   0.244   2.401
 9182SOL    HW228446   3.287   0.141   2.526
 9183SOL     OW28447   5.117   5.911   0.633
 9183SOL    HW128448   5.119   5.813   0.654
 9183SOL    HW228449   5.188   5.958   0.686
 9184SOL     OW28450   5.272   1.103   0.135
 9184SOL    HW128451   5.173   1.099   0.119
 9184SOL    HW228452   5.300   1.024   0.189
 9185SOL     OW28453   4.395   7.022   4.988
 9185SOL    HW128454   4.419   0.062   5.062
 9185SOL    HW228455   4.439   6.934   5.005
 9186SOL     OW28456   5.682   1.426   3.805
 9186SOL    HW128457   5.686   1.431   3.905
 9186SOL    HW228458   5.748   1.358   3.772
 9187SOL     OW28459   2.544   0.592   1.613
 9187SOL    HW128460   2.612   0.547   1.670
 9187SOL    HW228461   2.546   0.553   1.521
 9188SOL     OW28462   1.965   6.746   2.133
 9188SOL    HW128463   1.957   6.661   2.082
 9188SOL    HW228464   1.975   6.823   2.070
 9189SOL     OW28465   5.697   5.680   2.410
 9189SOL    HW128466   5.664   5.750   2.347
 9189SOL    HW228467   5.750   5.723   2.484
 9190SOL     OW28468   1.556   5.060   0.339
 9190SOL    HW128469   1.489   5.033   0.408
 9190SOL    HW228470   1.515   5.055   0.249
 9191SOL     OW28471   6.197   0.883   5.571
 9191SOL    HW128472   6.111   0.868   5.618
 9191SOL    HW228473   6.267   0.912   5.637
 9192SOL     OW28474   0.624   3.896   5.135
 9192SOL    HW128475   0.686   3.929   5.064
 9192SOL    HW228476   0.588   3.974   5.187
 9193SOL     OW28477   4.527   4.169   0.200
 9193SOL    HW128478   4.617   4.173   0.243
 9193SOL    HW228479   4.527   4.228   0.119
 9194SOL     OW28480   2.946   1.017   3.117
 9194SOL    HW128481   2.954   1.116   3.102
 9194SOL    HW228482   3.031   0.972   3.089
 9195SOL     OW28483   1.788   2.180   4.187
 9195SOL    HW128484   1.873   2.184   4.240
 9195SOL    HW228485   1.788   2.099   4.129
 9196SOL     OW28486   4.074   0.765   4.941
 9196SOL    HW128487   4.150   0.818   4.979
 9196SOL    HW228488   4.108   0.706   4.867
 9197SOL     OW28489   1.670   4.377   1.688
 9197SOL    HW128490   1.627   4.288   1.673
 9197SOL    HW228491   1.642   4.440   1.616
 9198SOL     OW28492   6.345   5.466   5.331
 9198SOL    HW128493   6.262   5.420   5.301
 9198SOL    HW228494   6.339   5.563   5.309
 9199SOL     OW28495   0.932   3.775   6.536
 9199SOL    HW128496   0.845   3.820   6.554
 9199SOL    HW228497   1.006   3.843   6.538
 9200SOL     OW28498   2.561   0.108   1.246
 9200SOL    HW128499   2.525   0.015   1.239
 9200SOL    HW228500   2.621   0.127   1.169
 9201SOL     OW28501   0.602   3.233   0.370
 9201SOL    HW128502   0.521   3.286   0.394
 9201SOL    HW228503   0.582   3.135   0.376
 9202SOL     OW28504   2.368   6.916   3.530
 9202SOL    HW128505   2.342   6.878   3.619
 9202SOL    HW228506   2.308   6.992   3.508
 9203SOL     OW28507   0.150   5.439   6.508
 9203SOL    HW128508   0.082   5.366   6.516
 9203SOL    HW228509   0.105   5.528   6.513
 9204SOL     OW28510   4.739   2.979   6.652
 9204SOL    HW128511   4.791   3.031   6.585
 9204SOL    HW228512   4.758   3.015   6.744
 9205SOL     OW28513   6.261   4.150   2.710
 9205SOL    HW128514   6.241   4.140   2.612
 9205SOL    HW228515   6.216   4.076   2.760
 9206SOL     OW28516   3.683   5.231   1.349
 9206SOL    HW128517   3.722   5.307   1.401
 9206SOL    HW228518   3.596   5.203   1.391
 9207SOL     OW28519   4.164   4.619   0.334
 9207SOL    HW128520   4.206   4.693   0.281
 9207SOL    HW228521   4.186   4.631   0.431
 9208SOL     OW28522   6.072   4.524   4.401
 9208SOL    HW128523   6.155   4.572   4.374
 9208SOL    HW228524   6.094   4.449   4.462
 9209SOL     OW28525   3.138   0.592   0.167
 9209SOL    HW128526   3.129   0.691   0.155
 9209SOL    HW228527   3.056   0.556   0.211
 9210SOL     OW28528   6.722   1.320   2.752
 9210SOL    HW128529   6.742   1.285   2.661
 9210SOL    HW228530   6.747   1.252   2.821
 9211SOL     OW28531   6.827   2.816   4.157
 9211SOL    HW128532   6.923   2.817   4.130
 9211SOL    HW228533   6.809   2.891   4.220
 9212SOL     OW28534   3.848   5.355   4.305
 9212SOL    HW128535   3.882   5.400   4.222
 9212SOL    HW228536   3.761   5.395   4.332
 9213SOL     OW28537   5.958   2.748   5.164
 9213SOL    HW128538   5.937   2.741   5.067
 9213SOL    HW228539   6.029   2.818   5.178
 9214SOL     OW28540   0.029   5.461   5.779
 9214SOL    HW128541   0.068   5.382   5.732
 9214SOL    HW228542   6.968   5.490   5.733
 9215SOL     OW28543   0.971   2.543   0.360
 9215SOL    HW128544   1.040   2.541   0.432
 9215SOL    HW228545   0.957   2.451   0.324
 9216SOL     OW28546   3.034   0.251   3.412
 9216SOL    HW128547   3.030   0.151   3.412
 9216SOL    HW228548   3.031   0.284   3.318
 9217SOL     OW28549   0.304   0.691   5.541
 9217SOL    HW128550   0.260   0.773   5.504
 9217SOL    HW228551   0.281   0.681   5.637
 9218SOL     OW28552   3.721   6.233   0.404
 9218SOL    HW128553   3.699   6.152   0.460
 9218SOL    HW228554   3.755   6.306   0.463
 9219SOL     OW28555   0.553   2.962   0.184
 9219SOL    HW128556   0.468   3.015   0.184
 9219SOL    HW228557   0.597   2.967   0.094
 9220SOL     OW28558   2.849   6.427   1.458
 9220SOL    HW128559   2.814   6.369   1.531
 9220SOL    HW228560   2.855   6.375   1.373
 9221SOL     OW28561   3.430   0.480   4.357
 9221SOL    HW128562   3.379   0.497   4.273
 9221SOL    HW228563   3.413   0.554   4.422
 9222SOL     OW28564   2.593   0.460   6.709
 9222SOL    HW128565   2.669   0.469   6.772
 9222SOL    HW228566   2.507   0.456   6.760
 9223SOL     OW28567   1.690   1.809   4.829
 9223SOL    HW128568   1.647   1.893   4.795
 9223SOL    HW228569   1.643   1.780   4.913
 9224SOL     OW28570   2.996   5.210   4.650
 9224SOL    HW128571   3.007   5.138   4.718
 9224SOL    HW228572   3.056   5.191   4.572
 9225SOL     OW28573   3.561   6.946   6.291
 9225SOL    HW128574   3.530   6.985   6.204
 9225SOL    HW228575   3.546   6.847   6.290
 9226SOL     OW28576   5.542   6.349   1.668
 9226SOL    HW128577   5.556   6.313   1.760
 9226SOL    HW228578   5.553   6.448   1.669
 9227SOL     OW28579   0.802   5.404   3.009
 9227SOL    HW128580   0.756   5.444   3.088
 9227SOL    HW228581   0.893   5.374   3.034
 9228SOL     OW28582   1.132   0.733   6.008
 9228SOL    HW128583   1.159   0.686   6.092
 9228SOL    HW228584   1.100   0.825   6.031
 9229SOL     OW28585   1.832   5.836   4.650
 9229SOL    HW128586   1.770   5.766   4.616
 9229SOL    HW228587   1.923   5.797   4.663
 9230SOL     OW28588   5.712   0.323   2.454
 9230SOL    HW128589   5.802   0.358   2.428
 9230SOL    HW228590   5.664   0.291   2.372
 9231SOL     OW28591   2.051   3.412   4.128
 9231SOL    HW128592   2.090   3.503   4.142
 9231SOL    HW228593   1.952   3.419   4.119
 9232SOL     OW28594   3.408   5.244   1.180
 9232SOL    HW128595   3.363   5.193   1.253
 9232SOL    HW228596   3.441   5.331   1.216
 9233SOL     OW28597   5.661   4.937   1.629
 9233SOL    HW128598   5.745   4.955   1.577
 9233SOL    HW228599   5.647   4.839   1.637
 9234SOL     OW28600   3.347   5.850   3.917
 9234SOL    HW128601   3.297   5.931   3.888
 9234SOL    HW228602   3.397   5.870   4.001
 9235SOL     OW28603   1.513   1.895   3.320
 9235SOL    HW128604   1.563   1.862   3.241
 9235SOL    HW228605   1.427   1.844   3.329
 9236SOL     OW28606   3.587   4.243   5.426
 9236SOL    HW128607   3.596   4.222   5.523
 9236SOL    HW228608   3.677   4.236   5.382
 9237SOL     OW28609   2.021   4.574   4.552
 9237SOL    HW128610   2.048   4.608   4.642
 9237SOL    HW228611   1.950   4.633   4.514
 9238SOL     OW28612   4.028   2.128   6.121
 9238SOL    HW128613   4.106   2.079   6.084
 9238SOL    HW228614   4.002   2.201   6.058
 9239SOL     OW28615   0.314   3.787   1.222
 9239SOL    HW128616   0.355   3.704   1.260
 9239SOL    HW228617   0.217   3.791   1.248
 9240SOL     OW28618   5.629   1.132   0.374
 9240SOL    HW128619   5.683   1.206   0.414
 9240SOL    HW228620   5.649   1.125   0.276
 9241SOL     OW28621   6.518   5.450   6.540
 9241SOL    HW128622   6.552   5.538   6.506
 9241SOL    HW228623   6.451   5.467   6.613
 9242SOL     OW28624   6.853   5.210   0.518
 9242SOL    HW128625   6.865   5.309   0.522
 9242SOL    HW228626   6.772   5.188   0.464
 9243SOL     OW28627   6.180   5.576   3.030
 9243SOL    HW128628   6.229   5.489   3.030
 9243SOL    HW228629   6.217   5.635   3.102
 9244SOL     OW28630   4.585   5.415   6.094
 9244SOL    HW128631   4.546   5.503   6.066
 9244SOL    HW228632   4.617   5.421   6.189
 9245SOL     OW28633   1.365   5.444   2.599
 9245SOL    HW128634   1.345   5.428   2.695
 9245SOL    HW228635   1.457   5.410   2.577
 9246SOL     OW28636   5.859   4.797   3.652
 9246SOL    HW128637   5.792   4.850   3.702
 9246SOL    HW228638   5.939   4.854   3.632
 9247SOL     OW28639   0.538   6.684   3.184
 9247SOL    HW128640   0.607   6.700   3.255
 9247SOL    HW228641   0.501   6.592   3.193
 9248SOL     OW28642   2.466   2.450   6.036
 9248SOL    HW128643   2.515   2.536   6.053
 9248SOL    HW228644   2.370   2.461   6.061
 9249SOL     OW28645   5.885   2.249   5.689
 9249SOL    HW128646   5.907   2.266   5.786
 9249SOL    HW228647   5.851   2.334   5.648
 9250SOL     OW28648   5.260   4.123   4.633
 9250SOL    HW128649   5.346   4.168   4.656
 9250SOL    HW228650   5.278   4.027   4.608
 9251SOL     OW28651   3.666   1.976   3.464
 9251SOL    HW128652   3.600   1.910   3.428
 9251SOL    HW228653   3.753   1.965   3.416
 9252SOL     OW28654   6.636   0.544   4.206
 9252SOL    HW128655   6.693   0.621   4.233
 9252SOL    HW228656   6.608   0.555   4.110
 9253SOL     OW28657   4.061   6.160   6.075
 9253SOL    HW128658   3.976   6.124   6.114
 9253SOL    HW228659   4.082   6.111   5.990
 9254SOL     OW28660   5.748   3.874   1.544
 9254SOL    HW128661   5.705   3.888   1.634
 9254SOL    HW228662   5.781   3.780   1.537
 9255SOL     OW28663   5.283   2.918   7.017
 9255SOL    HW128664   5.239   2.916   0.084
 9255SOL    HW228665   5.212   2.927   6.946
 9256SOL     OW28666   4.159   4.847   3.158
 9256SOL    HW128667   4.103   4.910   3.213
 9256SOL    HW228668   4.111   4.826   3.073
 9257SOL     OW28669   0.786   4.303   2.659
 9257SOL    HW128670   0.816   4.253   2.740
 9257SOL    HW228671   0.848   4.284   2.583
 9258SOL     OW28672   3.746   3.061   3.797
 9258SOL    HW128673   3.766   3.138   3.736
 9258SOL    HW228674   3.709   2.985   3.743
 9259SOL     OW28675   1.089   2.106   1.230
 9259SOL    HW128676   1.155   2.115   1.155
 9259SOL    HW228677   1.101   2.183   1.294
 9260SOL     OW28678   5.115   2.348   5.661
 9260SOL    HW128679   5.182   2.277   5.682
 9260SOL    HW228680   5.144   2.397   5.580
 9261SOL     OW28681   4.435   0.550   6.516
 9261SOL    HW128682   4.450   0.638   6.472
 9261SOL    HW228683   4.489   0.480   6.468
 9262SOL     OW28684   6.086   2.088   5.608
 9262SOL    HW128685   6.015   2.157   5.624
 9262SOL    HW228686   6.079   2.016   5.677
 9263SOL     OW28687   6.114   3.567   1.554
 9263SOL    HW128688   6.018   3.576   1.526
 9263SOL    HW228689   6.119   3.530   1.647
 9264SOL     OW28690   6.113   3.809   0.223
 9264SOL    HW128691   6.157   3.730   0.267
 9264SOL    HW228692   6.173   3.845   0.152
 9265SOL     OW28693   3.182   1.481   0.221
 9265SOL    HW128694   3.243   1.464   0.143
 9265SOL    HW228695   3.188   1.577   0.248
 9266SOL     OW28696   2.962   6.133   3.132
 9266SOL    HW128697   2.972   6.196   3.055
 9266SOL    HW228698   3.047   6.082   3.145
 9267SOL     OW28699   0.313   4.023   5.170
 9267SOL    HW128700   0.318   4.063   5.078
 9267SOL    HW228701   0.286   3.927   5.163
 9268SOL     OW28702   0.765   6.890   2.755
 9268SOL    HW128703   0.787   6.816   2.819
 9268SOL    HW228704   0.848   6.937   2.727
 9269SOL     OW28705   2.889   2.099   0.162
 9269SOL    HW128706   2.819   2.093   0.233
 9269SOL    HW228707   2.884   2.188   0.118
 9270SOL     OW28708   5.706   6.878   5.442
 9270SOL    HW128709   5.734   6.888   5.538
 9270SOL    HW228710   5.625   6.933   5.425
 9271SOL     OW28711   1.776   6.085   1.003
 9271SOL    HW128712   1.864   6.051   0.969
 9271SOL    HW228713   1.709   6.084   0.928
 9272SOL     OW28714   3.098   4.338   6.185
 9272SOL    HW128715   3.109   4.416   6.247
 9272SOL    HW228716   3.172   4.273   6.200
 9273SOL     OW28717   4.991   5.788   3.586
 9273SOL    HW128718   5.011   5.780   3.488
 9273SOL    HW228719   5.009   5.700   3.630
 9274SOL     OW28720   5.870   2.080   6.367
 9274SOL    HW128721   5.873   2.180   6.364
 9274SOL    HW228722   5.824   2.046   6.285
 9275SOL     OW28723   0.586   0.971   0.270
 9275SOL    HW128724   0.577   0.927   0.180
 9275SOL    HW228725   0.652   1.046   0.264
 9276SOL     OW28726   2.502   4.939   4.196
 9276SOL    HW128727   2.482   4.982   4.108
 9276SOL    HW228728   2.579   4.986   4.239
 9277SOL     OW28729   3.802   3.405   0.436
 9277SOL    HW128730   3.767   3.485   0.484
 9277SOL    HW228731   3.868   3.433   0.367
 9278SOL     OW28732   1.608   1.227   4.034
 9278SOL    HW128733   1.626   1.292   4.108
 9278SOL    HW228734   1.671   1.244   3.958
 9279SOL     OW28735   4.494   0.447   1.849
 9279SOL    HW128736   4.527   0.508   1.921
 9279SOL    HW228737   4.534   0.356   1.862
 9280SOL     OW28738   1.474   0.327   4.079
 9280SOL    HW128739   1.455   0.243   4.029
 9280SOL    HW228740   1.393   0.353   4.132
 9281SOL     OW28741   3.147   3.601   0.749
 9281SOL    HW128742   3.076   3.531   0.745
 9281SOL    HW228743   3.106   3.689   0.773
 9282SOL     OW28744   4.991   2.458   4.480
 9282SOL    HW128745   5.082   2.497   4.490
 9282SOL    HW228746   4.982   2.415   4.390
 9283SOL     OW28747   6.485   1.368   2.297
 9283SOL    HW128748   6.523   1.331   2.212
 9283SOL    HW228749   6.397   1.411   2.279
 9284SOL     OW28750   3.893   4.404   6.783
 9284SOL    HW128751   3.886   4.383   6.881
 9284SOL    HW228752   3.853   4.329   6.730
 9285SOL     OW28753   5.142   2.978   0.236
 9285SOL    HW128754   5.083   3.027   0.172
 9285SOL    HW228755   5.137   3.020   0.326
 9286SOL     OW28756   6.136   0.282   5.447
 9286SOL    HW128757   6.150   0.220   5.524
 9286SOL    HW228758   6.171   0.373   5.470
 9287SOL     OW28759   3.511   5.914   1.157
 9287SOL    HW128760   3.548   5.988   1.100
 9287SOL    HW228761   3.587   5.864   1.199
 9288SOL     OW28762   3.728   1.139   5.795
 9288SOL    HW128763   3.742   1.044   5.768
 9288SOL    HW228764   3.695   1.192   5.717
 9289SOL     OW28765   4.250   2.000   2.337
 9289SOL    HW128766   4.185   1.933   2.371
 9289SOL    HW228767   4.237   2.087   2.384
 9290SOL     OW28768   4.188   1.453   4.928
 9290SOL    HW128769   4.116   1.390   4.899
 9290SOL    HW228770   4.175   1.478   5.023
 9291SOL     OW28771   2.075   0.687   5.562
 9291SOL    HW128772   2.174   0.684   5.575
 9291SOL    HW228773   2.053   0.737   5.478
 9292SOL     OW28774   6.552   3.153   6.175
 9292SOL    HW128775   6.467   3.167   6.124
 9292SOL    HW228776   6.575   3.237   6.224
 9293SOL     OW28777   6.291   4.014   0.631
 9293SOL    HW128778   6.383   3.979   0.646
 9293SOL    HW228779   6.294   4.089   0.566
 9294SOL     OW28780   3.846   6.704   6.292
 9294SOL    HW128781   3.797   6.642   6.354
 9294SOL    HW228782   3.833   6.674   6.198
 9295SOL     OW28783   5.293   1.740   3.476
 9295SOL    HW128784   5.318   1.753   3.380
 9295SOL    HW228785   5.293   1.828   3.523
 9296SOL     OW28786   6.984   6.693   6.245
 9296SOL    HW128787   0.049   6.652   6.218
 9296SOL    HW228788   6.956   6.655   6.333
 9297SOL     OW28789   0.128   0.586   1.447
 9297SOL    HW128790   0.064   0.619   1.517
 9297SOL    HW228791   0.183   0.511   1.485
 9298SOL     OW28792   2.182   5.978   5.985
 9298SOL    HW128793   2.276   5.986   6.018
 9298SOL    HW228794   2.147   6.069   5.962
 9299SOL     OW28795   1.219   3.460   4.257
 9299SOL    HW128796   1.188   3.402   4.182
 9299SOL    HW228797   1.300   3.511   4.228
 9300SOL     OW28798   6.726   5.057   4.589
 9300SOL    HW128799   6.663   5.135   4.578
 9300SOL    HW228800   6.679   4.983   4.636
 9301SOL     OW28801   4.967   4.321   3.223
 9301SOL    HW128802   4.984   4.225   3.246
 9301SOL    HW228803   5.054   4.371   3.224
 9302SOL     OW28804   2.239   2.963   3.978
 9302SOL    HW128805   2.192   2.883   3.943
 9302SOL    HW228806   2.328   2.936   4.014
 9303SOL     OW28807   3.366   6.234   0.535
 9303SOL    HW128808   3.436   6.190   0.591
 9303SOL    HW228809   3.279   6.188   0.548
 9304SOL     OW28810   4.218   3.862   0.267
 9304SOL    HW128811   4.155   3.799   0.223
 9304SOL    HW228812   4.305   3.861   0.218
 9305SOL     OW28813   4.879   1.607   1.472
 9305SOL    HW128814   4.939   1.650   1.405
 9305SOL    HW228815   4.848   1.519   1.438
 9306SOL     OW28816   0.297   4.896   4.887
 9306SOL    HW128817   0.259   4.943   4.808
 9306SOL    HW228818   0.396   4.910   4.889
 9307SOL     OW28819   1.091   2.928   0.792
 9307SOL    HW128820   1.098   2.994   0.867
 9307SOL    HW228821   1.079   2.836   0.829
 9308SOL     OW28822   0.681   4.570   1.208
 9308SOL    HW128823   0.769   4.559   1.254
 9308SOL    HW228824   0.696   4.597   1.113
 9309SOL     OW28825   3.642   5.414   5.119
 9309SOL    HW128826   3.611   5.319   5.110
 9309SOL    HW228827   3.716   5.431   5.055
 9310SOL     OW28828   4.302   6.101   6.441
 9310SOL    HW128829   4.388   6.146   6.466
 9310SOL    HW228830   4.321   6.008   6.412
 9311SOL     OW28831   5.959   4.468   1.063
 9311SOL    HW128832   5.913   4.555   1.085
 9311SOL    HW228833   5.890   4.401   1.035
 9312SOL     OW28834   2.178   4.402   0.703
 9312SOL    HW128835   2.132   4.316   0.682
 9312SOL    HW228836   2.116   4.461   0.755
 9313SOL     OW28837   6.868   0.866   1.291
 9313SOL    HW128838   6.863   0.767   1.305
 9313SOL    HW228839   6.897   0.885   1.197
 9314SOL     OW28840   4.437   4.943   6.775
 9314SOL    HW128841   4.425   4.847   6.802
 9314SOL    HW228842   4.355   4.994   6.798
 9315SOL     OW28843   6.433   0.496   5.268
 9315SOL    HW128844   6.522   0.522   5.306
 9315SOL    HW228845   6.436   0.399   5.242
 9316SOL     OW28846   4.735   5.620   4.758
 9316SOL    HW128847   4.680   5.661   4.830
 9316SOL    HW228848   4.818   5.580   4.797
 9317SOL     OW28849   6.066   6.157   2.853
 9317SOL    HW128850   6.127   6.158   2.774
 9317SOL    HW228851   6.074   6.070   2.900
 9318SOL     OW28852   6.933   1.437   4.910
 9318SOL    HW128853   7.021   1.479   4.891
 9318SOL    HW228854   6.924   1.352   4.858
 9319SOL     OW28855   0.743   2.827   6.291
 9319SOL    HW128856   0.814   2.881   6.336
 9319SOL    HW228857   0.783   2.741   6.259
 9320SOL     OW28858   3.967   1.976   5.692
 9320SOL    HW128859   3.920   2.031   5.623
 9320SOL    HW228860   4.061   2.009   5.703
 9321SOL     OW28861   6.209   0.139   2.272
 9321SOL    HW128862   6.135   0.073   2.263
 9321SOL    HW228863   6.283   0.099   2.326
 9322SOL     OW28864   6.794   5.948   6.047
 9322SOL    HW128865   6.820   5.997   5.964
 9322SOL    HW228866   6.852   5.866   6.057
 9323SOL     OW28867   1.184   0.341   5.561
 9323SOL    HW128868   1.261   0.329   5.624
 9323SOL    HW228869   1.135   0.254   5.552
 9324SOL     OW28870   1.855   5.174   0.156
 9324SOL    HW128871   1.760   5.206   0.147
 9324SOL    HW228872   1.857   5.095   0.218
 9325SOL     OW28873   4.986   1.933   1.043
 9325SOL    HW128874   5.001   1.974   1.133
 9325SOL    HW228875   5.001   2.002   0.972
 9326SOL     OW28876   2.765   6.736   0.909
 9326SOL    HW128877   2.831   6.812   0.910
 9326SOL    HW228878   2.794   6.667   0.976
 9327SOL     OW28879   5.135   6.636   3.088
 9327SOL    HW128880   5.098   6.726   3.111
 9327SOL    HW228881   5.221   6.646   3.039
 9328SOL     OW28882   4.017   1.418   6.420
 9328SOL    HW128883   4.069   1.490   6.466
 9328SOL    HW228884   4.040   1.329   6.460
 9329SOL     OW28885   0.047   3.318   2.950
 9329SOL    HW128886   7.007   3.350   3.021
 9329SOL    HW228887   0.035   3.220   2.936
 9330SOL     OW28888   0.354   5.546   0.681
 9330SOL    HW128889   0.422   5.533   0.609
 9330SOL    HW228890   0.322   5.640   0.681
 9331SOL     OW28891   0.490   1.235   6.275
 9331SOL    HW128892   0.532   1.202   6.190
 9331SOL    HW228893   0.461   1.157   6.330
 9332SOL     OW28894   3.463   4.064   3.062
 9332SOL    HW128895   3.526   4.046   2.987
 9332SOL    HW228896   3.464   4.161   3.085
 9333SOL     OW28897   5.250   4.147   1.151
 9333SOL    HW128898   5.157   4.183   1.147
 9333SOL    HW228899   5.270   4.097   1.066
 9334SOL     OW28900   3.650   0.216   3.168
 9334SOL    HW128901   3.564   0.234   3.215
 9334SOL    HW228902   3.672   0.119   3.175
 9335SOL     OW28903   1.382   1.492   6.587
 9335SOL    HW128904   1.293   1.483   6.631
 9335SOL    HW228905   1.370   1.504   6.489
 9336SOL     OW28906   3.283   6.468   6.270
 9336SOL    HW128907   3.375   6.507   6.275
 9336SOL    HW228908   3.288   6.369   6.276
 9337SOL     OW28909   5.300   0.228   2.789
 9337SOL    HW128910   5.245   0.248   2.708
 9337SOL    HW228911   5.293   0.131   2.812
 9338SOL     OW28912   4.128   0.578   2.381
 9338SOL    HW128913   4.099   0.483   2.384
 9338SOL    HW228914   4.224   0.582   2.353
 9339SOL     OW28915   5.757   6.872   0.460
 9339SOL    HW128916   5.818   6.803   0.420
 9339SOL    HW228917   5.737   6.942   0.392
 9340SOL     OW28918   5.193   3.668   5.621
 9340SOL    HW128919   5.270   3.662   5.557
 9340SOL    HW228920   5.213   3.615   5.703
 9341SOL     OW28921   1.514   5.854   6.861
 9341SOL    HW128922   1.430   5.803   6.876
 9341SOL    HW228923   1.540   5.850   6.765
 9342SOL     OW28924   2.679   0.302   4.488
 9342SOL    HW128925   2.707   0.207   4.502
 9342SOL    HW228926   2.583   0.305   4.462
 9343SOL     OW28927   6.281   4.712   4.395
 9343SOL    HW128928   6.267   4.792   4.337
 9343SOL    HW228929   6.361   4.661   4.362
 9344SOL     OW28930   4.954   5.699   0.955
 9344SOL    HW128931   5.030   5.750   0.995
 9344SOL    HW228932   4.990   5.618   0.908
 9345SOL     OW28933   6.501   2.979   2.485
 9345SOL    HW128934   6.520   2.976   2.583
 9345SOL    HW228935   6.504   2.886   2.448
 9346SOL     OW28936   5.667   1.052   1.347
 9346SOL    HW128937   5.629   0.978   1.402
 9346SOL    HW228938   5.714   1.013   1.268
 9347SOL     OW28939   1.569   5.285   1.148
 9347SOL    HW128940   1.596   5.303   1.243
 9347SOL    HW228941   1.470   5.272   1.144
 9348SOL     OW28942   4.331   5.584   0.819
 9348SOL    HW128943   4.350   5.593   0.917
 9348SOL    HW228944   4.236   5.611   0.801
 9349SOL     OW28945   0.331   7.023   2.172
 9349SOL    HW128946   0.377   0.088   2.177
 9349SOL    HW228947   0.261   7.018   2.243
 9350SOL     OW28948   0.895   2.682   5.889
 9350SOL    HW128949   0.817   2.745   5.895
 9350SOL    HW228950   0.956   2.713   5.816
 9351SOL     OW28951   3.020   2.196   6.824
 9351SOL    HW128952   3.019   2.097   6.838
 9351SOL    HW228953   2.948   2.239   6.879
 9352SOL     OW28954   2.611   3.992   0.107
 9352SOL    HW128955   2.516   4.023   0.100
 9352SOL    HW228956   2.613   3.897   0.138
 9353SOL     OW28957   0.666   5.267   1.794
 9353SOL    HW128958   0.611   5.190   1.761
 9353SOL    HW228959   0.707   5.243   1.882
 9354SOL     OW28960   6.563   2.677   6.713
 9354SOL    HW128961   6.598   2.583   6.712
 9354SOL    HW228962   6.640   2.741   6.718
 9355SOL     OW28963   1.081   1.998   4.581
 9355SOL    HW128964   1.166   2.014   4.632
 9355SOL    HW228965   1.020   2.076   4.592
 9356SOL     OW28966   4.208   6.594   1.348
 9356SOL    HW128967   4.278   6.565   1.283
 9356SOL    HW228968   4.223   6.548   1.436
 9357SOL     OW28969   1.221   2.234   6.892
 9357SOL    HW128970   1.321   2.234   6.898
 9357SOL    HW228971   1.193   2.285   6.811
 9358SOL     OW28972   0.108   4.275   2.253
 9358SOL    HW128973   0.090   4.183   2.289
 9358SOL    HW228974   0.156   4.329   2.322
 9359SOL     OW28975   1.874   6.024   5.892
 9359SOL    HW128976   1.883   5.970   5.976
 9359SOL    HW228977   1.873   5.962   5.813
 9360SOL     OW28978   1.657   0.120   6.571
 9360SOL    HW128979   1.687   0.100   6.664
 9360SOL    HW228980   1.700   0.056   6.507
 9361SOL     OW28981   1.832   6.255   3.473
 9361SOL    HW128982   1.796   6.262   3.380
 9361SOL    HW228983   1.785   6.182   3.522
 9362SOL     OW28984   1.981   1.317   2.015
 9362SOL    HW128985   2.061   1.372   2.040
 9362SOL    HW228986   2.004   1.257   1.938
 9363SOL     OW28987   3.288   5.190   2.707
 9363SOL    HW128988   3.246   5.115   2.655
 9363SOL    HW228989   3.258   5.186   2.802
 9364SOL     OW28990   2.182   2.473   1.845
 9364SOL    HW128991   2.166   2.416   1.926
 9364SOL    HW228992   2.257   2.536   1.864
 9365SOL     OW28993   3.363   2.103   4.395
 9365SOL    HW128994   3.447   2.090   4.448
 9365SOL    HW228995   3.358   2.033   4.323
 9366SOL     OW28996   3.434   6.007   0.750
 9366SOL    HW128997   3.467   6.050   0.834
 9366SOL    HW228998   3.335   6.020   0.742
 9367SOL     OW28999   5.063   6.949   1.310
 9367SOL    HW129000   4.982   6.948   1.251
 9367SOL    HW229001   5.129   6.881   1.277
 9368SOL     OW29002   4.089   0.588   2.635
 9368SOL    HW129003   4.115   0.596   2.539
 9368SOL    HW229004   4.168   0.557   2.688
 9369SOL     OW29005   0.978   5.173   6.386
 9369SOL    HW129006   0.966   5.265   6.349
 9369SOL    HW229007   0.908   5.112   6.349
 9370SOL     OW29008   4.023   1.542   4.355
 9370SOL    HW129009   4.106   1.488   4.369
 9370SOL    HW229010   4.034   1.631   4.400
 9371SOL     OW29011   3.682   5.834   1.483
 9371SOL    HW129012   3.613   5.865   1.548
 9371SOL    HW229013   3.771   5.831   1.529
 9372SOL     OW29014   4.769   6.901   1.651
 9372SOL    HW129015   4.866   6.910   1.671
 9372SOL    HW229016   4.736   6.985   1.607
 9373SOL     OW29017   6.274   1.889   6.842
 9373SOL    HW129018   6.289   1.804   6.893
 9373SOL    HW229019   6.246   1.961   6.905
 9374SOL     OW29020   0.704   4.629   5.992
 9374SOL    HW129021   0.754   4.639   6.078
 9374SOL    HW229022   0.745   4.688   5.923
 9375SOL     OW29023   6.966   1.784   6.426
 9375SOL    HW129024   6.974   1.753   6.332
 9375SOL    HW229025   6.943   1.881   6.428
 9376SOL     OW29026   2.127   3.641   2.369
 9376SOL    HW129027   2.128   3.688   2.281
 9376SOL    HW229028   2.151   3.545   2.356
 9377SOL     OW29029   2.159   5.685   2.337
 9377SOL    HW129030   2.203   5.632   2.264
 9377SOL    HW229031   2.164   5.635   2.423
 9378SOL     OW29032   3.796   0.603   3.637
 9378SOL    HW129033   3.807   0.699   3.665
 9378SOL    HW229034   3.709   0.592   3.589
 9379SOL     OW29035   3.934   6.092   4.624
 9379SOL    HW129036   3.893   6.025   4.561
 9379SOL    HW229037   3.867   6.118   4.693
 9380SOL     OW29038   4.579   5.559   6.360
 9380SOL    HW129039   4.518   5.638   6.355
 9380SOL    HW229040   4.592   5.534   6.456
 9381SOL     OW29041   5.555   1.672   4.974
 9381SOL    HW129042   5.545   1.735   4.897
 9381SOL    HW229043   5.483   1.602   4.969
 9382SOL     OW29044   3.691   0.516   4.178
 9382SOL    HW129045   3.779   0.535   4.222
 9382SOL    HW229046   3.621   0.502   4.249
 9383SOL     OW29047   4.794   4.174   3.622
 9383SOL    HW129048   4.890   4.146   3.615
 9383SOL    HW229049   4.758   4.148   3.711
 9384SOL     OW29050   1.742   0.030   2.181
 9384SOL    HW129051   1.842   0.041   2.181
 9384SOL    HW229052   1.717   6.984   2.113
 9385SOL     OW29053   4.143   1.128   3.545
 9385SOL    HW129054   4.123   1.105   3.640
 9385SOL    HW229055   4.228   1.180   3.540
 9386SOL     OW29056   4.284   5.956   5.062
 9386SOL    HW129057   4.299   5.860   5.036
 9386SOL    HW229058   4.228   6.001   4.993
 9387SOL     OW29059   3.624   2.204   0.055
 9387SOL    HW129060   3.556   2.267   0.019
 9387SOL    HW229061   3.691   2.182   7.007
 9388SOL     OW29062   2.027   6.663   4.215
 9388SOL    HW129063   2.041   6.564   4.203
 9388SOL    HW229064   1.975   6.699   4.139
 9389SOL     OW29065   3.754   5.185   2.119
 9389SOL    HW129066   3.676   5.122   2.115
 9389SOL    HW229067   3.772   5.222   2.027
 9390SOL     OW29068   4.966   4.630   5.591
 9390SOL    HW129069   4.915   4.550   5.622
 9390SOL    HW229070   4.920   4.713   5.622
 9391SOL     OW29071   0.958   6.251   4.350
 9391SOL    HW129072   0.943   6.312   4.272
 9391SOL    HW229073   1.003   6.167   4.319
 9392SOL     OW29074   5.257   4.131   3.028
 9392SOL    HW129075   5.279   4.040   2.991
 9392SOL    HW229076   5.337   4.190   3.020
 9393SOL     OW29077   3.087   6.562   6.094
 9393SOL    HW129078   3.166   6.527   6.145
 9393SOL    HW229079   3.088   6.526   6.001
 9394SOL     OW29080   4.931   0.070   1.003
 9394SOL    HW129081   5.016   0.106   1.041
 9394SOL    HW229082   4.922   6.996   1.026
 9395SOL     OW29083   2.773   1.929   0.616
 9395SOL    HW129084   2.739   1.855   0.558
 9395SOL    HW229085   2.727   1.926   0.705
 9396SOL     OW29086   1.416   6.223   6.786
 9396SOL    HW129087   1.329   6.183   6.758
 9396SOL    HW229088   1.489   6.189   6.727
 9397SOL     OW29089   4.007   0.339   6.484
 9397SOL    HW129090   4.019   0.353   6.386
 9397SOL    HW229091   4.044   0.249   6.510
 9398SOL     OW29092   6.734   1.771   6.610
 9398SOL    HW129093   6.820   1.757   6.561
 9398SOL    HW229094   6.665   1.805   6.547
 9399SOL     OW29095   2.092   2.745   3.903
 9399SOL    HW129096   2.096   2.731   4.002
 9399SOL    HW229097   1.998   2.771   3.877
 9400SOL     OW29098   5.270   0.902   0.514
 9400SOL    HW129099   5.300   0.900   0.419
 9400SOL    HW229100   5.343   0.868   0.573
 9401SOL     OW29101   0.555   1.564   2.755
 9401SOL    HW129102   0.540   1.633   2.684
 9401SOL    HW229103   0.485   1.493   2.748
 9402SOL     OW29104   1.649   5.518   3.357
 9402SOL    HW129105   1.644   5.484   3.263
 9402SOL    HW229106   1.743   5.540   3.380
 9403SOL     OW29107   6.566   2.145   1.964
 9403SOL    HW129108   6.500   2.215   1.989
 9403SOL    HW229109   6.632   2.133   2.038
 9404SOL     OW29110   2.206   3.480   0.850
 9404SOL    HW129111   2.186   3.552   0.782
 9404SOL    HW229112   2.134   3.410   0.846
 9405SOL     OW29113   0.295   4.615   5.580
 9405SOL    HW129114   0.309   4.541   5.514
 9405SOL    HW229115   0.382   4.639   5.622
 9406SOL     OW29116   0.253   3.141   6.829
 9406SOL    HW129117   0.213   3.098   6.748
 9406SOL    HW229118   0.182   3.155   6.898
 9407SOL     OW29119   1.808   4.637   5.642
 9407SOL    HW129120   1.893   4.604   5.600
 9407SOL    HW229121   1.821   4.644   5.741
 9408SOL     OW29122   6.571   4.881   4.721
 9408SOL    HW129123   6.573   4.794   4.671
 9408SOL    HW229124   6.593   4.864   4.818
 9409SOL     OW29125   6.650   4.980   2.360
 9409SOL    HW129126   6.612   4.897   2.319
 9409SOL    HW229127   6.750   4.978   2.352
 9410SOL     OW29128   4.277   0.418   1.449
 9410SOL    HW129129   4.339   0.344   1.424
 9410SOL    HW229130   4.267   0.421   1.548
 9411SOL     OW29131   3.088   3.100   3.731
 9411SOL    HW129132   3.157   3.140   3.792
 9411SOL    HW229133   3.022   3.170   3.705
 9412SOL     OW29134   6.332   6.758   1.654
 9412SOL    HW129135   6.296   6.850   1.638
 9412SOL    HW229136   6.431   6.762   1.661
 9413SOL     OW29137   4.037   5.067   3.682
 9413SOL    HW129138   4.081   5.040   3.596
 9413SOL    HW229139   3.947   5.105   3.664
 9414SOL     OW29140   2.334   1.750   4.714
 9414SOL    HW129141   2.278   1.727   4.794
 9414SOL    HW229142   2.431   1.736   4.736
 9415SOL     OW29143   4.128   1.101   1.998
 9415SOL    HW129144   4.039   1.128   1.962
 9415SOL    HW229145   4.121   1.084   2.096
 9416SOL     OW29146   6.618   5.211   6.611
 9416SOL    HW129147   6.581   5.303   6.597
 9416SOL    HW229148   6.613   5.160   6.525
 9417SOL     OW29149   3.847   5.891   1.687
 9417SOL    HW129150   3.933   5.876   1.736
 9417SOL    HW229151   3.840   5.988   1.661
 9418SOL     OW29152   3.235   2.146   4.660
 9418SOL    HW129153   3.192   2.057   4.643
 9418SOL    HW229154   3.299   2.167   4.586
 9419SOL     OW29155   2.552   2.892   6.737
 9419SOL    HW129156   2.593   2.972   6.695
 9419SOL    HW229157   2.576   2.888   6.833
 9420SOL     OW29158   5.365   3.552   6.974
 9420SOL    HW129159   5.423   3.585   0.026
 9420SOL    HW229160   5.344   3.628   6.912
 9421SOL     OW29161   3.807   6.458   5.702
 9421SOL    HW129162   3.808   6.368   5.746
 9421SOL    HW229163   3.802   6.530   5.772
 9422SOL     OW29164   2.205   5.737   4.577
 9422SOL    HW129165   2.138   5.776   4.514
 9422SOL    HW229166   2.164   5.728   4.668
 9423SOL     OW29167   4.341   5.375   3.111
 9423SOL    HW129168   4.422   5.413   3.066
 9423SOL    HW229169   4.329   5.280   3.084
 9424SOL     OW29170   5.604   0.697   4.744
 9424SOL    HW129171   5.632   0.603   4.725
 9424SOL    HW229172   5.547   0.699   4.826
 9425SOL     OW29173   6.842   5.045   0.254
 9425SOL    HW129174   6.767   5.098   0.293
 9425SOL    HW229175   6.880   4.985   0.324
 9426SOL     OW29176   0.027   2.728   6.323
 9426SOL    HW129177   0.087   2.655   6.356
 9426SOL    HW229178   6.996   2.764   6.399
 9427SOL     OW29179   3.787   5.707   3.197
 9427SOL    HW129180   3.877   5.669   3.219
 9427SOL    HW229181   3.794   5.807   3.191
 9428SOL     OW29182   6.521   0.069   6.645
 9428SOL    HW129183   6.599   0.131   6.655
 9428SOL    HW229184   6.492   0.067   6.549
 9429SOL     OW29185   2.217   1.996   3.895
 9429SOL    HW129186   2.229   1.897   3.887
 9429SOL    HW229187   2.131   2.023   3.852
 9430SOL     OW29188   0.683   2.350   4.610
 9430SOL    HW129189   0.704   2.269   4.664
 9430SOL    HW229190   0.759   2.415   4.615
 9431SOL     OW29191   0.305   4.415   6.304
 9431SOL    HW129192   0.301   4.451   6.211
 9431SOL    HW229193   0.219   4.371   6.327
 9432SOL     OW29194   6.815   1.579   3.591
 9432SOL    HW129195   6.821   1.510   3.662
 9432SOL    HW229196   6.897   1.575   3.533
 9433SOL     OW29197   3.903   6.356   2.975
 9433SOL    HW129198   3.997   6.331   2.951
 9433SOL    HW229199   3.883   6.447   2.940
 9434SOL     OW29200   5.184   5.257   4.026
 9434SOL    HW129201   5.238   5.327   3.978
 9434SOL    HW229202   5.238   5.221   4.102
 9435SOL     OW29203   0.644   3.143   1.521
 9435SOL    HW129204   0.709   3.116   1.592
 9435SOL    HW229205   0.586   3.217   1.555
 9436SOL     OW29206   1.445   0.427   3.385
 9436SOL    HW129207   1.415   0.472   3.301
 9436SOL    HW229208   1.381   0.354   3.408
 9437SOL     OW29209   6.535   5.730   4.692
 9437SOL    HW129210   6.521   5.717   4.594
 9437SOL    HW229211   6.553   5.827   4.710
 9438SOL     OW29212   3.563   6.003   2.250
 9438SOL    HW129213   3.474   6.048   2.255
 9438SOL    HW229214   3.603   5.999   2.341
 9439SOL     OW29215   1.087   2.951   0.511
 9439SOL    HW129216   1.006   2.980   0.459
 9439SOL    HW229217   1.060   2.922   0.603
 9440SOL     OW29218   2.665   5.289   2.988
 9440SOL    HW129219   2.597   5.302   2.915
 9440SOL    HW229220   2.670   5.193   3.013
 9441SOL     OW29221   6.794   6.465   4.481
 9441SOL    HW129222   6.827   6.548   4.527
 9441SOL    HW229223   6.869   6.400   4.475
 9442SOL     OW29224   4.143   3.684   0.473
 9442SOL    HW129225   4.061   3.690   0.529
 9442SOL    HW229226   4.176   3.776   0.452
 9443SOL     OW29227   2.190   4.446   2.996
 9443SOL    HW129228   2.100   4.437   2.953
 9443SOL    HW229229   2.195   4.386   3.075
 9444SOL     OW29230   1.339   4.384   0.405
 9444SOL    HW129231   1.333   4.414   0.310
 9444SOL    HW229232   1.256   4.333   0.429
 9445SOL     OW29233   0.540   1.624   4.279
 9445SOL    HW129234   0.574   1.587   4.193
 9445SOL    HW229235   0.440   1.618   4.280
 9446SOL     OW29236   6.548   4.894   2.999
 9446SOL    HW129237   6.574   4.805   2.963
 9446SOL    HW229238   6.454   4.891   3.033
 9447SOL     OW29239   5.502   4.811   2.045
 9447SOL    HW129240   5.576   4.815   2.112
 9447SOL    HW229241   5.508   4.890   1.984
 9448SOL     OW29242   5.411   0.450   5.567
 9448SOL    HW129243   5.340   0.491   5.509
 9448SOL    HW229244   5.392   0.471   5.663
 9449SOL     OW29245   6.154   0.197   1.923
 9449SOL    HW129246   6.115   0.147   1.846
 9449SOL    HW229247   6.098   0.182   2.005
 9450SOL     OW29248   1.871   6.060   3.852
 9450SOL    HW129249   1.886   6.129   3.782
 9450SOL    HW229250   1.908   5.972   3.821
 9451SOL     OW29251   3.872   6.204   6.502
 9451SOL    HW129252   3.775   6.216   6.522
 9451SOL    HW229253   3.918   6.167   6.582
 9452SOL     OW29254   6.874   4.165   0.524
 9452SOL    HW129255   6.793   4.195   0.473
 9452SOL    HW229256   6.873   4.206   0.615
 9453SOL     OW29257   4.099   6.279   3.300
 9453SOL    HW129258   4.088   6.378   3.305
 9453SOL    HW229259   4.011   6.235   3.316
 9454SOL     OW29260   4.712   3.706   0.373
 9454SOL    HW129261   4.691   3.609   0.361
 9454SOL    HW229262   4.631   3.754   0.406
 9455SOL     OW29263   2.871   2.249   2.388
 9455SOL    HW129264   2.866   2.291   2.298
 9455SOL    HW229265   2.938   2.174   2.386
 9456SOL     OW29266   6.696   3.009   2.140
 9456SOL    HW129267   6.634   2.931   2.147
 9456SOL    HW229268   6.647   3.087   2.101
 9457SOL     OW29269   0.146   5.381   3.498
 9457SOL    HW129270   0.202   5.384   3.415
 9457SOL    HW229271   0.148   5.289   3.536
 9458SOL     OW29272   6.155   3.472   6.964
 9458SOL    HW129273   6.149   3.572   6.965
 9458SOL    HW229274   6.169   3.439   0.035
 9459SOL     OW29275   4.907   5.061   4.959
 9459SOL    HW129276   4.846   4.992   4.920
 9459SOL    HW229277   4.945   5.028   5.045
 9460SOL     OW29278   1.140   1.956   3.088
 9460SOL    HW129279   1.063   1.924   3.034
 9460SOL    HW229280   1.174   1.881   3.145
 9461SOL     OW29281   1.259   2.589   3.118
 9461SOL    HW129282   1.330   2.547   3.173
 9461SOL    HW229283   1.275   2.570   3.021
 9462SOL     OW29284   1.623   1.393   4.245
 9462SOL    HW129285   1.584   1.365   4.333
 9462SOL    HW229286   1.584   1.481   4.218
 9463SOL     OW29287   5.507   5.501   0.801
 9463SOL    HW129288   5.463   5.576   0.751
 9463SOL    HW229289   5.538   5.535   0.890
 9464SOL     OW29290   1.013   0.810   1.415
 9464SOL    HW129291   1.045   0.866   1.339
 9464SOL    HW229292   0.972   0.868   1.485
 9465SOL     OW29293   6.657   4.295   0.763
 9465SOL    HW129294   6.619   4.220   0.817
 9465SOL    HW229295   6.632   4.382   0.805
 9466SOL     OW29296   3.580   5.179   6.666
 9466SOL    HW129297   3.607   5.089   6.630
 9466SOL    HW229298   3.660   5.221   6.709
 9467SOL     OW29299   2.368   3.261   0.854
 9467SOL    HW129300   2.448   3.253   0.794
 9467SOL    HW229301   2.333   3.355   0.850
 9468SOL     OW29302   6.442   2.239   0.536
 9468SOL    HW129303   6.361   2.244   0.596
 9468SOL    HW229304   6.464   2.143   0.520
 9469SOL     OW29305   0.955   6.516   1.409
 9469SOL    HW129306   0.965   6.417   1.417
 9469SOL    HW229307   0.916   6.539   1.319
 9470SOL     OW29308   3.934   4.303   0.903
 9470SOL    HW129309   3.852   4.258   0.869
 9470SOL    HW229310   4.015   4.257   0.866
 9471SOL     OW29311   6.184   3.035   4.960
 9471SOL    HW129312   6.263   3.092   4.981
 9471SOL    HW229313   6.186   3.009   4.864
 9472SOL     OW29314   1.619   2.924   6.649
 9472SOL    HW129315   1.670   2.981   6.713
 9472SOL    HW229316   1.521   2.947   6.654
 9473SOL     OW29317   3.131   4.810   0.556
 9473SOL    HW129318   3.087   4.889   0.514
 9473SOL    HW229319   3.178   4.757   0.486
 9474SOL     OW29320   5.581   2.930   1.487
 9474SOL    HW129321   5.564   2.993   1.563
 9474SOL    HW229322   5.659   2.963   1.433
 9475SOL     OW29323   4.710   3.928   6.096
 9475SOL    HW129324   4.696   3.880   6.182
 9475SOL    HW229325   4.700   4.026   6.111
 9476SOL     OW29326   3.508   4.160   6.070
 9476SOL    HW129327   3.580   4.091   6.072
 9476SOL    HW229328   3.427   4.125   6.118
 9477SOL     OW29329   2.111   4.230   1.175
 9477SOL    HW129330   2.113   4.200   1.270
 9477SOL    HW229331   2.169   4.171   1.119
 9478SOL     OW29332   5.417   2.012   6.958
 9478SOL    HW129333   5.331   2.057   6.980
 9478SOL    HW229334   5.400   1.933   6.899
 9479SOL     OW29335   3.889   0.877   1.419
 9479SOL    HW129336   3.918   0.789   1.380
 9479SOL    HW229337   3.894   0.948   1.349
 9480SOL     OW29338   6.058   0.089   6.997
 9480SOL    HW129339   6.073   0.170   6.940
 9480SOL    HW229340   6.084   0.008   6.945
 9481SOL     OW29341   4.122   1.418   3.258
 9481SOL    HW129342   4.184   1.341   3.246
 9481SOL    HW229343   4.056   1.421   3.183
 9482SOL     OW29344   6.194   0.130   0.869
 9482SOL    HW129345   6.241   0.145   0.956
 9482SOL    HW229346   6.256   0.083   0.806
 9483SOL     OW29347   0.087   1.003   0.696
 9483SOL    HW129348   0.007   0.955   0.660
 9483SOL    HW229349   0.092   0.990   0.795
 9484SOL     OW29350   3.569   5.979   4.900
 9484SOL    HW129351   3.535   5.908   4.838
 9484SOL    HW229352   3.500   5.998   4.970
 9485SOL     OW29353   0.022   1.318   6.625
 9485SOL    HW129354   0.065   1.284   6.709
 9485SOL    HW229355   0.009   1.417   6.632
 9486SOL     OW29356   4.967   5.577   0.031
 9486SOL    HW129357   5.032   5.611   6.985
 9486SOL    HW229358   4.874   5.590   7.021
 9487SOL     OW29359   3.337   3.264   3.764
 9487SOL    HW129360   3.271   3.338   3.773
 9487SOL    HW229361   3.347   3.216   3.851
 9488SOL     OW29362   0.962   1.926   0.474
 9488SOL    HW129363   1.048   1.904   0.427
 9488SOL    HW229364   0.893   1.951   0.406
 9489SOL     OW29365   4.963   4.394   0.529
 9489SOL    HW129366   5.019   4.392   0.612
 9489SOL    HW229367   4.872   4.428   0.551
 9490SOL     OW29368   5.632   3.903   3.792
 9490SOL    HW129369   5.616   3.831   3.859
 9490SOL    HW229370   5.602   3.871   3.702
 9491SOL     OW29371   5.269   6.463   2.834
 9491SOL    HW129372   5.238   6.397   2.902
 9491SOL    HW229373   5.199   6.533   2.819
 9492SOL     OW29374   4.758   2.694   4.473
 9492SOL    HW129375   4.748   2.654   4.564
 9492SOL    HW229376   4.839   2.655   4.429
 9493SOL     OW29377   4.212   6.759   3.208
 9493SOL    HW129378   4.279   6.801   3.270
 9493SOL    HW229379   4.142   6.826   3.185
 9494SOL     OW29380   5.239   2.198   1.993
 9494SOL    HW129381   5.268   2.205   2.088
 9494SOL    HW229382   5.319   2.189   1.934
 9495SOL     OW29383   1.400   0.970   2.180
 9495SOL    HW129384   1.460   0.890   2.178
 9495SOL    HW229385   1.455   1.053   2.182
 9496SOL     OW29386   4.296   2.188   2.561
 9496SOL    HW129387   4.285   2.264   2.497
 9496SOL    HW229388   4.393   2.165   2.569
 9497SOL     OW29389   5.276   5.046   4.714
 9497SOL    HW129390   5.350   5.019   4.775
 9497SOL    HW229391   5.200   4.982   4.724
 9498SOL     OW29392   6.789   5.778   3.891
 9498SOL    HW129393   6.840   5.754   3.809
 9498SOL    HW229394   6.725   5.852   3.870
 9499SOL     OW29395   6.130   6.177   5.885
 9499SOL    HW129396   6.140   6.141   5.977
 9499SOL    HW229397   6.155   6.107   5.819
 9500SOL     OW29398   4.312   0.950   0.713
 9500SOL    HW129399   4.362   0.867   0.737
 9500SOL    HW229400   4.267   0.987   0.794
 9501SOL     OW29401   1.807   2.975   4.929
 9501SOL    HW129402   1.817   3.041   5.002
 9501SOL    HW229403   1.716   2.983   4.888
 9502SOL     OW29404   5.665   4.722   5.568
 9502SOL    HW129405   5.629   4.628   5.570
 9502SOL    HW229406   5.614   4.776   5.501
 9503SOL     OW29407   0.445   2.437   6.677
 9503SOL    HW129408   0.430   2.427   6.579
 9503SOL    HW229409   0.431   2.532   6.704
 9504SOL     OW29410   6.488   5.238   1.842
 9504SOL    HW129411   6.405   5.215   1.894
 9504SOL    HW229412   6.513   5.333   1.862
 9505SOL     OW29413   4.233   5.008   5.180
 9505SOL    HW129414   4.262   4.986   5.273
 9505SOL    HW229415   4.138   5.036   5.180
 9506SOL     OW29416   3.390   1.724   1.067
 9506SOL    HW129417   3.351   1.813   1.044
 9506SOL    HW229418   3.451   1.694   0.993
 9507SOL     OW29419   5.735   6.842   2.056
 9507SOL    HW129420   5.639   6.820   2.037
 9507SOL    HW229421   5.749   6.851   2.155
 9508SOL     OW29422   5.081   1.429   2.943
 9508SOL    HW129423   5.016   1.413   2.868
 9508SOL    HW229424   5.115   1.523   2.939
 9509SOL     OW29425   6.742   6.858   2.460
 9509SOL    HW129426   6.737   6.939   2.402
 9509SOL    HW229427   6.811   6.872   2.532
 9510SOL     OW29428   0.748   2.431   3.942
 9510SOL    HW129429   0.824   2.392   3.993
 9510SOL    HW229430   0.749   2.395   3.848
 9511SOL     OW29431   1.535   1.559   0.818
 9511SOL    HW129432   1.539   1.611   0.904
 9511SOL    HW229433   1.560   1.464   0.836
 9512SOL     OW29434   6.687   2.441   1.201
 9512SOL    HW129435   6.698   2.469   1.297
 9512SOL    HW229436   6.657   2.519   1.147
 9513SOL     OW29437   3.931   5.206   6.935
 9513SOL    HW129438   3.941   5.106   6.941
 9513SOL    HW229439   4.015   5.249   6.970
 9514SOL     OW29440   2.945   3.255   6.938
 9514SOL    HW129441   3.019   3.212   6.990
 9514SOL    HW229442   2.972   3.348   6.913
 9515SOL     OW29443   2.106   5.354   4.016
 9515SOL    HW129444   2.188   5.311   4.053
 9515SOL    HW229445   2.045   5.379   4.092
 9516SOL     OW29446   6.771   3.572   0.609
 9516SOL    HW129447   6.708   3.648   0.598
 9516SOL    HW229448   6.733   3.490   0.567
 9517SOL     OW29449   1.384   4.606   0.682
 9517SOL    HW129450   1.394   4.699   0.646
 9517SOL    HW229451   1.290   4.576   0.671
 9518SOL     OW29452   1.576   1.057   0.321
 9518SOL    HW129453   1.540   0.974   0.277
 9518SOL    HW229454   1.620   1.114   0.253
 9519SOL     OW29455   1.340   2.753   5.284
 9519SOL    HW129456   1.260   2.789   5.236
 9519SOL    HW229457   1.423   2.795   5.246
 9520SOL     OW29458   2.057   6.810   2.469
 9520SOL    HW129459   2.113   6.814   2.386
 9520SOL    HW229460   2.039   6.903   2.502
 9521SOL     OW29461   5.338   5.603   4.336
 9521SOL    HW129462   5.430   5.567   4.322
 9521SOL    HW229463   5.296   5.557   4.415
 9522SOL     OW29464   3.935   6.299   0.934
 9522SOL    HW129465   4.016   6.359   0.932
 9522SOL    HW229466   3.951   6.221   0.874
 9523SOL     OW29467   3.093   5.950   4.674
 9523SOL    HW129468   3.005   5.915   4.641
 9523SOL    HW229469   3.150   5.976   4.596
 9524SOL     OW29470   4.090   3.183   1.151
 9524SOL    HW129471   4.108   3.146   1.242
 9524SOL    HW229472   4.032   3.264   1.159
 9525SOL     OW29473   2.938   1.107   6.088
 9525SOL    HW129474   2.889   1.034   6.038
 9525SOL    HW229475   2.884   1.134   6.167
 9526SOL     OW29476   5.272   5.267   2.558
 9526SOL    HW129477   5.300   5.309   2.644
 9526SOL    HW229478   5.229   5.337   2.500
 9527SOL     OW29479   0.105   1.817   1.825
 9527SOL    HW129480   0.018   1.773   1.803
 9527SOL    HW229481   0.110   1.906   1.779
 9528SOL     OW29482   0.077   1.043   2.047
 9528SOL    HW129483   0.075   1.142   2.032
 9528SOL    HW229484   0.016   0.999   1.981
 9529SOL     OW29485   0.709   3.028   6.085
 9529SOL    HW129486   0.702   2.968   6.164
 9529SOL    HW229487   0.670   2.982   6.005
 9530SOL     OW29488   1.064   1.785   3.429
 9530SOL    HW129489   1.111   1.848   3.491
 9530SOL    HW229490   0.966   1.788   3.446
 9531SOL     OW29491   3.517   6.838   2.910
 9531SOL    HW129492   3.485   6.931   2.926
 9531SOL    HW229493   3.606   6.840   2.865
 9532SOL     OW29494   1.898   0.223   1.703
 9532SOL    HW129495   1.927   0.309   1.747
 9532SOL    HW229496   1.827   0.180   1.758
 9533SOL     OW29497   1.579   1.090   6.059
 9533SOL    HW129498   1.613   1.147   5.985
 9533SOL    HW229499   1.530   1.011   6.022
 9534SOL     OW29500   5.430   2.586   4.917
 9534SOL    HW129501   5.375   2.624   4.843
 9534SOL    HW229502   5.526   2.580   4.887
 9535SOL     OW29503   2.524   1.002   5.764
 9535SOL    HW129504   2.509   0.979   5.860
 9535SOL    HW229505   2.510   1.100   5.750
 9536SOL     OW29506   1.615   6.094   5.780
 9536SOL    HW129507   1.707   6.085   5.820
 9536SOL    HW229508   1.616   6.059   5.687
 9537SOL     OW29509   2.847   7.005   1.275
 9537SOL    HW129510   2.792   6.922   1.280
 9537SOL    HW229511   2.797   0.059   1.314
 9538SOL     OW29512   6.535   2.448   4.306
 9538SOL    HW129513   6.493   2.441   4.215
 9538SOL    HW229514   6.631   2.476   4.296
 9539SOL     OW29515   1.000   6.023   0.425
 9539SOL    HW129516   0.965   6.008   0.517
 9539SOL    HW229517   1.040   5.938   0.390
 9540SOL     OW29518   4.864   4.405   4.704
 9540SOL    HW129519   4.819   4.381   4.618
 9540SOL    HW229520   4.962   4.386   4.697
 9541SOL     OW29521   2.099   2.719   4.182
 9541SOL    HW129522   2.116   2.654   4.256
 9541SOL    HW229523   2.032   2.787   4.212
 9542SOL     OW29524   4.861   3.554   4.217
 9542SOL    HW129525   4.844   3.651   4.200
 9542SOL    HW229526   4.898   3.542   4.309
 9543SOL     OW29527   5.591   2.060   2.677
 9543SOL    HW129528   5.591   2.029   2.772
 9543SOL    HW229529   5.515   2.123   2.662
 9544SOL     OW29530   4.306   1.435   2.005
 9544SOL    HW129531   4.329   1.532   1.998
 9544SOL    HW229532   4.218   1.418   1.961
 9545SOL     OW29533   6.809   0.865   3.814
 9545SOL    HW129534   6.895   0.826   3.849
 9545SOL    HW229535   6.830   0.940   3.752
 9546SOL     OW29536   2.921   5.423   0.605
 9546SOL    HW129537   2.875   5.509   0.628
 9546SOL    HW229538   2.966   5.433   0.516
 9547SOL     OW29539   0.655   6.523   3.834
 9547SOL    HW129540   0.644   6.430   3.871
 9547SOL    HW229541   0.632   6.523   3.737
 9548SOL     OW29542   4.516   5.921   3.462
 9548SOL    HW129543   4.579   5.999   3.459
 9548SOL    HW229544   4.489   5.896   3.369
 9549SOL     OW29545   2.215   6.037   0.702
 9549SOL    HW129546   2.232   6.113   0.764
 9549SOL    HW229547   2.125   5.999   0.719
 9550SOL     OW29548   0.878   1.388   0.436
 9550SOL    HW129549   0.859   1.351   0.527
 9550SOL    HW229550   0.805   1.451   0.410
 9551SOL     OW29551   1.304   6.461   4.591
 9551SOL    HW129552   1.340   6.535   4.647
 9551SOL    HW229553   1.327   6.478   4.495
 9552SOL     OW29554   1.845   5.373   3.153
 9552SOL    HW129555   1.893   5.318   3.222
 9552SOL    HW229556   1.911   5.403   3.083
 9553SOL     OW29557   5.621   4.342   5.791
 9553SOL    HW129558   5.548   4.310   5.852
 9553SOL    HW229559   5.680   4.406   5.840
 9554SOL     OW29560   1.881   1.584   2.043
 9554SOL    HW129561   1.940   1.607   2.120
 9554SOL    HW229562   1.910   1.497   2.004
 9555SOL     OW29563   6.964   2.345   0.692
 9555SOL    HW129564   6.899   2.302   0.630
 9555SOL    HW229565   0.016   2.281   0.711
 9556SOL     OW29566   1.766   1.657   1.517
 9556SOL    HW129567   1.842   1.657   1.452
 9556SOL    HW229568   1.802   1.651   1.610
 9557SOL     OW29569   5.218   0.948   2.346
 9557SOL    HW129570   5.287   0.898   2.398
 9557SOL    HW229571   5.127   0.917   2.373
 9558SOL     OW29572   6.164   4.853   2.696
 9558SOL    HW129573   6.135   4.923   2.631
 9558SOL    HW229574   6.090   4.835   2.761
 9559SOL     OW29575   6.968   2.941   1.858
 9559SOL    HW129576   6.888   3.001   1.860
 9559SOL    HW229577   7.023   2.960   1.776
 9560SOL     OW29578   3.223   1.732   4.070
 9560SOL    HW129579   3.207   1.633   4.070
 9560SOL    HW229580   3.258   1.760   3.981
 9561SOL     OW29581   3.935   6.742   0.611
 9561SOL    HW129582   3.932   6.727   0.512
 9561SOL    HW229583   3.843   6.731   0.649
 9562SOL     OW29584   5.331   5.190   2.838
 9562SOL    HW129585   5.253   5.199   2.900
 9562SOL    HW229586   5.322   5.107   2.783
 9563SOL     OW29587   6.238   6.285   6.992
 9563SOL    HW129588   6.323   6.233   6.984
 9563SOL    HW229589   6.224   6.338   6.908
 9564SOL     OW29590   2.238   6.748   6.822
 9564SOL    HW129591   2.288   6.787   6.745
 9564SOL    HW229592   2.270   6.788   6.907
 9565SOL     OW29593   3.835   5.917   4.423
 9565SOL    HW129594   3.824   5.984   4.349
 9565SOL    HW229595   3.878   5.834   4.387
 9566SOL     OW29596   2.743   4.765   5.286
 9566SOL    HW129597   2.724   4.711   5.368
 9566SOL    HW229598   2.797   4.710   5.222
 9567SOL     OW29599   6.289   5.731   5.905
 9567SOL    HW129600   6.258   5.665   5.974
 9567SOL    HW229601   6.385   5.751   5.920
 9568SOL     OW29602   4.797   3.587   6.449
 9568SOL    HW129603   4.735   3.636   6.388
 9568SOL    HW229604   4.750   3.569   6.536
 9569SOL     OW29605   6.180   1.225   0.571
 9569SOL    HW129606   6.199   1.154   0.638
 9569SOL    HW229607   6.236   1.306   0.592
 9570SOL     OW29608   0.299   0.870   0.639
 9570SOL    HW129609   0.316   0.872   0.541
 9570SOL    HW229610   0.210   0.912   0.659
 9571SOL     OW29611   2.238   3.780   0.141
 9571SOL    HW129612   2.296   3.862   0.135
 9571SOL    HW229613   2.241   3.744   0.234
 9572SOL     OW29614   1.558   4.484   1.473
 9572SOL    HW129615   1.574   4.411   1.406
 9572SOL    HW229616   1.479   4.538   1.445
 9573SOL     OW29617   1.009   1.781   0.943
 9573SOL    HW129618   1.100   1.753   0.974
 9573SOL    HW229619   0.984   1.867   0.988
 9574SOL     OW29620   2.580   1.842   5.487
 9574SOL    HW129621   2.603   1.931   5.526
 9574SOL    HW229622   2.501   1.804   5.535
 9575SOL     OW29623   5.886   0.523   1.983
 9575SOL    HW129624   5.953   0.594   1.961
 9575SOL    HW229625   5.811   0.563   2.036
 9576SOL     OW29626   3.409   2.071   6.087
 9576SOL    HW129627   3.364   2.095   6.173
 9576SOL    HW229628   3.350   2.009   6.034
 9577SOL     OW29629   0.948   6.351   3.146
 9577SOL    HW129630   1.023   6.329   3.084
 9577SOL    HW229631   0.861   6.326   3.104
 9578SOL     OW29632   6.007   3.424   2.042
 9578SOL    HW129633   6.080   3.462   2.099
 9578SOL    HW229634   5.994   3.327   2.064
 9579SOL     OW29635   0.852   6.681   2.461
 9579SOL    HW129636   0.944   6.701   2.494
 9579SOL    HW229637   0.850   6.686   2.361
 9580SOL     OW29638   4.476   3.676   6.036
 9580SOL    HW129639   4.423   3.590   6.040
 9580SOL    HW229640   4.415   3.753   6.053
 9581SOL     OW29641   1.354   4.431   6.121
 9581SOL    HW129642   1.307   4.371   6.057
 9581SOL    HW229643   1.345   4.394   6.214
 9582SOL     OW29644   4.840   5.326   4.998
 9582SOL    HW129645   4.865   5.391   4.926
 9582SOL    HW229646   4.875   5.235   4.974
 9583SOL     OW29647   2.108   4.307   1.644
 9583SOL    HW129648   2.125   4.400   1.612
 9583SOL    HW229649   2.184   4.279   1.703
 9584SOL     OW29650   5.918   5.788   6.251
 9584SOL    HW129651   5.857   5.759   6.325
 9584SOL    HW229652   6.009   5.806   6.289
 9585SOL     OW29653   5.776   0.596   4.376
 9585SOL    HW129654   5.812   0.688   4.392
 9585SOL    HW229655   5.806   0.563   4.287
 9586SOL     OW29656   5.447   3.506   3.408
 9586SOL    HW129657   5.351   3.536   3.412
 9586SOL    HW229658   5.501   3.575   3.360
 9587SOL     OW29659   4.737   6.546   1.831
 9587SOL    HW129660   4.798   6.623   1.813
 9587SOL    HW229661   4.760   6.505   1.919
 9588SOL     OW29662   6.968   0.597   2.109
 9588SOL    HW129663   6.886   0.589   2.052
 9588SOL    HW229664   6.945   0.642   2.195
 9589SOL     OW29665   2.826   1.489   6.508
 9589SOL    HW129666   2.886   1.476   6.429
 9589SOL    HW229667   2.749   1.426   6.502
 9590SOL     OW29668   6.681   4.694   4.899
 9590SOL    HW129669   6.656   4.598   4.897
 9590SOL    HW229670   6.780   4.704   4.892
 9591SOL     OW29671   1.608   4.824   1.733
 9591SOL    HW129672   1.591   4.741   1.787
 9591SOL    HW229673   1.563   4.901   1.777
 9592SOL     OW29674   4.863   5.149   1.991
 9592SOL    HW129675   4.911   5.083   1.934
 9592SOL    HW229676   4.920   5.172   2.070
 9593SOL     OW29677   0.598   2.763   3.865
 9593SOL    HW129678   0.530   2.694   3.840
 9593SOL    HW229679   0.558   2.824   3.934
 9594SOL     OW29680   6.051   6.932   1.996
 9594SOL    HW129681   6.070   6.954   2.092
 9594SOL    HW229682   5.954   6.910   1.985
 9595SOL     OW29683   0.888   4.717   4.327
 9595SOL    HW129684   0.984   4.694   4.308
 9595SOL    HW229685   0.860   4.671   4.411
 9596SOL     OW29686   5.299   6.524   4.660
 9596SOL    HW129687   5.264   6.593   4.723
 9596SOL    HW229688   5.323   6.441   4.712
 9597SOL     OW29689   2.363   3.999   1.236
 9597SOL    HW129690   2.367   4.046   1.324
 9597SOL    HW229691   2.375   3.901   1.250
 9598SOL     OW29692   0.099   5.513   6.046
 9598SOL    HW129693   0.063   5.503   5.953
 9598SOL    HW229694   0.030   5.484   6.112
 9599SOL     OW29695   5.055   1.721   4.876
 9599SOL    HW129696   5.035   1.715   4.778
 9599SOL    HW229697   5.130   1.785   4.892
 9600SOL     OW29698   1.317   6.700   6.887
 9600SOL    HW129699   1.355   6.793   6.887
 9600SOL    HW229700   1.305   6.669   6.981
 9601SOL     OW29701   0.683   4.969   5.600
 9601SOL    HW129702   0.772   4.992   5.560
 9601SOL    HW229703   0.632   5.053   5.616
 9602SOL     OW29704   1.280   5.612   0.804
 9602SOL    HW129705   1.370   5.601   0.762
 9602SOL    HW229706   1.287   5.673   0.883
 9603SOL     OW29707   1.652   5.473   4.006
 9603SOL    HW129708   1.724   5.523   3.956
 9603SOL    HW229709   1.603   5.537   4.065
 9604SOL     OW29710   6.916   1.031   7.000
 9604SOL    HW129711   6.820   1.005   6.997
 9604SOL    HW229712   6.947   1.036   0.072
 9605SOL     OW29713   2.039   5.747   6.629
 9605SOL    HW129714   2.084   5.812   6.690
 9605SOL    HW229715   1.983   5.797   6.562
 9606SOL     OW29716   6.494   6.390   4.135
 9606SOL    HW129717   6.498   6.485   4.165
 9606SOL    HW229718   6.465   6.332   4.211
 9607SOL     OW29719   0.936   2.663   1.874
 9607SOL    HW129720   0.998   2.612   1.934
 9607SOL    HW229721   0.888   2.598   1.814
 9608SOL     OW29722   6.713   6.422   2.541
 9608SOL    HW129723   6.787   6.468   2.492
 9608SOL    HW229724   6.726   6.323   2.536
 9609SOL     OW29725   1.824   2.858   3.955
 9609SOL    HW129726   1.775   2.814   3.879
 9609SOL    HW229727   1.760   2.876   4.030
 9610SOL     OW29728   2.921   1.748   6.479
 9610SOL    HW129729   3.006   1.771   6.527
 9610SOL    HW229730   2.899   1.652   6.494
 9611SOL     OW29731   6.572   6.436   1.054
 9611SOL    HW129732   6.589   6.367   1.124
 9611SOL    HW229733   6.583   6.396   0.963
 9612SOL     OW29734   5.672   2.793   2.171
 9612SOL    HW129735   5.628   2.753   2.091
 9612SOL    HW229736   5.769   2.768   2.171
 9613SOL     OW29737   5.726   6.480   5.772
 9613SOL    HW129738   5.730   6.479   5.672
 9613SOL    HW229739   5.814   6.451   5.810
 9614SOL     OW29740   3.721   3.300   2.480
 9614SOL    HW129741   3.791   3.255   2.535
 9614SOL    HW229742   3.649   3.234   2.456
 9615SOL     OW29743   1.007   6.564   3.708
 9615SOL    HW129744   0.944   6.639   3.689
 9615SOL    HW229745   1.093   6.581   3.660
 9616SOL     OW29746   3.308   3.603   1.221
 9616SOL    HW129747   3.307   3.571   1.316
 9616SOL    HW229748   3.402   3.601   1.186
 9617SOL     OW29749   0.958   3.754   3.388
 9617SOL    HW129750   0.911   3.667   3.382
 9617SOL    HW229751   0.904   3.825   3.342
 9618SOL     OW29752   4.493   5.800   0.007
 9618SOL    HW129753   4.424   5.781   6.960
 9618SOL    HW229754   4.511   5.898   0.010
 9619SOL     OW29755   2.187   6.928   1.023
 9619SOL    HW129756   2.095   6.887   1.026
 9619SOL    HW229757   2.208   6.968   1.112
 9620SOL     OW29758   3.493   1.302   6.680
 9620SOL    HW129759   3.423   1.232   6.697
 9620SOL    HW229760   3.583   1.258   6.673
 9621SOL     OW29761   1.202   1.830   1.304
 9621SOL    HW129762   1.132   1.886   1.348
 9621SOL    HW229763   1.188   1.734   1.328
 9622SOL     OW29764   6.440   0.395   5.696
 9622SOL    HW129765   6.375   0.468   5.673
 9622SOL    HW229766   6.459   0.341   5.614
 9623SOL     OW29767   4.060   6.515   6.602
 9623SOL    HW129768   4.054   6.478   6.510
 9623SOL    HW229769   4.014   6.604   6.605
 9624SOL     OW29770   4.338   5.061   4.234
 9624SOL    HW129771   4.306   4.967   4.220
 9624SOL    HW229772   4.267   5.115   4.279
 9625SOL     OW29773   4.865   3.790   5.629
 9625SOL    HW129774   4.809   3.770   5.709
 9625SOL    HW229775   4.809   3.834   5.559
 9626SOL     OW29776   2.359   3.550   6.511
 9626SOL    HW129777   2.428   3.622   6.504
 9626SOL    HW229778   2.359   3.495   6.428
 9627SOL     OW29779   0.873   5.235   6.629
 9627SOL    HW129780   0.775   5.243   6.615
 9627SOL    HW229781   0.915   5.191   6.550
 9628SOL     OW29782   6.240   1.828   6.204
 9628SOL    HW129783   6.214   1.733   6.185
 9628SOL    HW229784   6.323   1.829   6.260
 9629SOL     OW29785   6.365   5.742   3.805
 9629SOL    HW129786   6.333   5.794   3.884
 9629SOL    HW229787   6.439   5.680   3.834
 9630SOL     OW29788   5.890   6.399   6.195
 9630SOL    HW129789   5.921   6.416   6.101
 9630SOL    HW229790   5.794   6.427   6.204
 9631SOL     OW29791   4.149   1.043   0.297
 9631SOL    HW129792   4.188   1.077   0.383
 9631SOL    HW229793   4.171   0.946   0.287
 9632SOL     OW29794   3.696   5.957   2.030
 9632SOL    HW129795   3.702   5.862   1.999
 9632SOL    HW229796   3.647   5.961   2.117
 9633SOL     OW29797   3.696   2.877   2.481
 9633SOL    HW129798   3.771   2.882   2.415
 9633SOL    HW229799   3.733   2.876   2.574
 9634SOL     OW29800   5.382   4.604   3.009
 9634SOL    HW129801   5.395   4.601   3.109
 9634SOL    HW229802   5.287   4.625   2.989
 9635SOL     OW29803   0.112   5.209   3.715
 9635SOL    HW129804   0.192   5.155   3.742
 9635SOL    HW229805   0.137   5.306   3.713
 9636SOL     OW29806   4.874   3.117   3.980
 9636SOL    HW129807   4.897   3.214   3.972
 9636SOL    HW229808   4.787   3.107   4.029
 9637SOL     OW29809   2.659   2.945   7.014
 9637SOL    HW129810   2.752   2.972   0.018
 9637SOL    HW229811   2.596   2.968   0.065
 9638SOL     OW29812   6.019   4.976   5.631
 9638SOL    HW129813   5.937   4.950   5.580
 9638SOL    HW229814   6.091   5.003   5.567
 9639SOL     OW29815   3.929   1.508   2.593
 9639SOL    HW129816   3.938   1.449   2.673
 9639SOL    HW229817   3.832   1.519   2.571
 9640SOL     OW29818   4.601   0.295   2.904
 9640SOL    HW129819   4.516   0.286   2.955
 9640SOL    HW229820   4.674   0.325   2.966
 9641SOL     OW29821   5.892   3.636   3.349
 9641SOL    HW129822   5.911   3.597   3.439
 9641SOL    HW229823   5.870   3.563   3.284
 9642SOL     OW29824   1.412   0.109   3.931
 9642SOL    HW129825   1.334   0.157   3.892
 9642SOL    HW229826   1.423   0.020   3.887
 9643SOL     OW29827   4.898   4.952   4.220
 9643SOL    HW129828   4.901   4.990   4.312
 9643SOL    HW229829   4.884   4.853   4.225
 9644SOL     OW29830   1.285   5.781   4.857
 9644SOL    HW129831   1.371   5.827   4.833
 9644SOL    HW229832   1.225   5.845   4.905
 9645SOL     OW29833   0.351   4.912   6.479
 9645SOL    HW129834   0.374   4.816   6.466
 9645SOL    HW229835   0.261   4.920   6.522
 9646SOL     OW29836   3.292   5.927   6.156
 9646SOL    HW129837   3.330   5.877   6.079
 9646SOL    HW229838   3.196   5.950   6.138
 9647SOL     OW29839   6.386   6.919   3.508
 9647SOL    HW129840   6.287   6.932   3.504
 9647SOL    HW229841   6.416   6.923   3.604
 9648SOL     OW29842   3.724   2.098   1.270
 9648SOL    HW129843   3.751   2.024   1.331
 9648SOL    HW229844   3.628   2.122   1.287
 9649SOL     OW29845   1.728   5.768   0.010
 9649SOL    HW129846   1.784   5.851   0.011
 9649SOL    HW229847   1.648   5.784   6.975
 9650SOL     OW29848   6.889   5.282   4.895
 9650SOL    HW129849   6.885   5.381   4.907
 9650SOL    HW229850   6.936   5.260   4.810
 9651SOL     OW29851   4.492   1.642   0.530
 9651SOL    HW129852   4.577   1.692   0.545
 9651SOL    HW229853   4.510   1.561   0.474
 9652SOL     OW29854   6.997   3.647   0.485
 9652SOL    HW129855   6.940   3.603   0.555
 9652SOL    HW229856   7.013   3.584   0.410
 9653SOL     OW29857   4.421   4.119   6.030
 9653SOL    HW129858   4.353   4.167   5.974
 9653SOL    HW229859   4.471   4.186   6.085
 9654SOL     OW29860   3.776   3.554   3.766
 9654SOL    HW129861   3.697   3.494   3.776
 9654SOL    HW229862   3.820   3.537   3.678
 9655SOL     OW29863   4.489   0.722   1.187
 9655SOL    HW129864   4.509   0.647   1.123
 9655SOL    HW229865   4.394   0.751   1.173
 9656SOL     OW29866   5.840   4.046   0.856
 9656SOL    HW129867   5.865   4.142   0.856
 9656SOL    HW229868   5.862   4.006   0.946
 9657SOL     OW29869   5.538   3.967   3.250
 9657SOL    HW129870   5.440   3.959   3.267
 9657SOL    HW229871   5.574   4.046   3.300
 9658SOL     OW29872   4.958   2.062   2.527
 9658SOL    HW129873   4.977   1.981   2.471
 9658SOL    HW229874   4.948   2.142   2.469
 9659SOL     OW29875   2.532   3.319   0.527
 9659SOL    HW129876   2.445   3.274   0.504
 9659SOL    HW229877   2.513   3.411   0.561
 9660SOL     OW29878   0.442   5.763   1.604
 9660SOL    HW129879   0.526   5.710   1.621
 9660SOL    HW229880   0.460   5.831   1.534
 9661SOL     OW29881   5.122   5.106   0.691
 9661SOL    HW129882   5.031   5.066   0.689
 9661SOL    HW229883   5.183   5.047   0.746
 9662SOL     OW29884   5.813   5.254   5.926
 9662SOL    HW129885   5.752   5.183   5.891
 9662SOL    HW229886   5.812   5.252   6.025
 9663SOL     OW29887   0.771   5.283   3.429
 9663SOL    HW129888   0.814   5.231   3.355
 9663SOL    HW229889   0.687   5.327   3.394
 9664SOL     OW29890   4.827   4.028   3.140
 9664SOL    HW129891   4.796   4.053   3.048
 9664SOL    HW229892   4.755   4.048   3.207
 9665SOL     OW29893   5.728   5.745   6.715
 9665SOL    HW129894   5.827   5.759   6.715
 9665SOL    HW229895   5.685   5.803   6.785
 9666SOL     OW29896   5.260   3.409   0.489
 9666SOL    HW129897   5.287   3.420   0.584
 9666SOL    HW229898   5.246   3.499   0.448
 9667SOL     OW29899   6.122   6.403   6.316
 9667SOL    HW129900   6.029   6.414   6.283
 9667SOL    HW229901   6.170   6.335   6.260
 9668SOL     OW29902   0.443   0.128   5.754
 9668SOL    HW129903   0.436   0.034   5.787
 9668SOL    HW229904   0.539   0.155   5.752
 9669SOL     OW29905   3.974   0.248   0.202
 9669SOL    HW129906   4.065   0.240   0.160
 9669SOL    HW229907   3.984   0.264   0.300
 9670SOL     OW29908   0.032   6.794   6.662
 9670SOL    HW129909   6.971   6.798   6.608
 9670SOL    HW229910   0.010   6.791   6.759
 9671SOL     OW29911   1.356   5.764   6.514
 9671SOL    HW129912   1.342   5.766   6.613
 9671SOL    HW229913   1.295   5.696   6.473
 9672SOL     OW29914   0.994   3.210   4.270
 9672SOL    HW129915   0.967   3.301   4.304
 9672SOL    HW229916   1.008   3.214   4.172
 9673SOL     OW29917   2.229   4.072   0.992
 9673SOL    HW129918   2.252   4.035   1.082
 9673SOL    HW229919   2.266   4.011   0.921
 9674SOL     OW29920   2.654   6.043   4.594
 9674SOL    HW129921   2.670   6.083   4.504
 9674SOL    HW229922   2.584   5.972   4.588
 9675SOL     OW29923   4.791   3.458   1.305
 9675SOL    HW129924   4.882   3.431   1.274
 9675SOL    HW229925   4.723   3.419   1.243
 9676SOL     OW29926   0.661   2.660   6.570
 9676SOL    HW129927   0.729   2.610   6.516
 9676SOL    HW229928   0.648   2.615   6.658
 9677SOL     OW29929   6.690   5.061   0.742
 9677SOL    HW129930   6.764   5.071   0.676
 9677SOL    HW229931   6.720   5.004   0.818
 9678SOL     OW29932   4.019   3.265   4.771
 9678SOL    HW129933   4.068   3.333   4.825
 9678SOL    HW229934   4.062   3.256   4.681
 9679SOL     OW29935   2.114   1.663   4.860
 9679SOL    HW129936   2.043   1.609   4.816
 9679SOL    HW229937   2.127   1.630   4.954
 9680SOL     OW29938   4.755   5.738   2.655
 9680SOL    HW129939   4.741   5.790   2.571
 9680SOL    HW229940   4.755   5.641   2.634
 9681SOL     OW29941   1.369   1.692   2.749
 9681SOL    HW129942   1.466   1.706   2.770
 9681SOL    HW229943   1.328   1.779   2.721
 9682SOL     OW29944   5.390   5.456   5.119
 9682SOL    HW129945   5.410   5.512   5.200
 9682SOL    HW229946   5.308   5.400   5.137
 9683SOL     OW29947   3.197   5.940   2.018
 9683SOL    HW129948   3.241   5.851   2.035
 9683SOL    HW229949   3.220   5.972   1.927
 9684SOL     OW29950   0.980   3.547   5.784
 9684SOL    HW129951   1.064   3.542   5.731
 9684SOL    HW229952   0.912   3.486   5.745
 9685SOL     OW29953   3.704   4.730   1.400
 9685SOL    HW129954   3.631   4.738   1.332
 9685SOL    HW229955   3.790   4.706   1.355
 9686SOL     OW29956   0.073   1.803   5.776
 9686SOL    HW129957   0.061   1.704   5.786
 9686SOL    HW229958   7.007   1.847   5.763
 9687SOL     OW29959   5.675   0.975   2.099
 9687SOL    HW129960   5.694   1.063   2.054
 9687SOL    HW229961   5.743   0.960   2.171
 9688SOL     OW29962   0.013   4.062   1.220
 9688SOL    HW129963   0.090   4.116   1.254
 9688SOL    HW229964   6.951   4.101   1.254
 9689SOL     OW29965   1.564   6.120   0.765
 9689SOL    HW129966   1.494   6.107   0.694
 9689SOL    HW229967   1.628   6.190   0.735
 9690SOL     OW29968   6.033   5.132   5.369
 9690SOL    HW129969   6.104   5.068   5.399
 9690SOL    HW229970   6.046   5.153   5.272
 9691SOL     OW29971   3.080   4.107   1.902
 9691SOL    HW129972   3.168   4.134   1.863
 9691SOL    HW229973   3.094   4.036   1.970
 9692SOL     OW29974   5.199   4.981   1.412
 9692SOL    HW129975   5.259   5.042   1.465
 9692SOL    HW229976   5.111   4.975   1.457
 9693SOL     OW29977   5.438   3.838   4.732
 9693SOL    HW129978   5.442   3.869   4.637
 9693SOL    HW229979   5.349   3.797   4.750
 9694SOL     OW29980   3.473   0.045   2.273
 9694SOL    HW129981   3.465   0.022   2.370
 9694SOL    HW229982   3.460   6.985   2.219
 9695SOL     OW29983   0.803   2.565   3.389
 9695SOL    HW129984   0.717   2.565   3.439
 9695SOL    HW229985   0.790   2.520   3.300
 9696SOL     OW29986   6.075   2.275   2.434
 9696SOL    HW129987   6.015   2.334   2.488
 9696SOL    HW229988   6.120   2.209   2.494
 9697SOL     OW29989   1.173   5.955   0.822
 9697SOL    HW129990   1.218   5.920   0.905
 9697SOL    HW229991   1.236   5.949   0.745
 9698SOL     OW29992   5.914   3.043   0.715
 9698SOL    HW129993   5.845   2.971   0.721
 9698SOL    HW229994   6.005   3.002   0.716
 9699SOL     OW29995   1.401   5.522   1.430
 9699SOL    HW129996   1.398   5.556   1.336
 9699SOL    HW229997   1.315   5.477   1.452
 9700SOL     OW29998   5.685   0.411   5.223
 9700SOL    HW129999   5.785   0.403   5.223
 9700SOL    HW230000   5.647   0.360   5.146
 9701SOL     OW30001   4.550   3.186   6.475
 9701SOL    HW130002   4.502   3.200   6.561
 9701SOL    HW230003   4.531   3.094   6.440
 9702SOL     OW30004   3.685   3.085   1.363
 9702SOL    HW130005   3.718   2.992   1.347
 9702SOL    HW230006   3.604   3.082   1.422
 9703SOL     OW30007   6.829   3.990   5.064
 9703SOL    HW130008   6.761   3.998   5.137
 9703SOL    HW230009   6.817   4.064   4.998
 9704SOL     OW30010   2.282   4.157   3.097
 9704SOL    HW130011   2.230   4.122   3.019
 9704SOL    HW230012   2.295   4.083   3.164
 9705SOL     OW30013   6.384   3.051   5.750
 9705SOL    HW130014   6.343   3.035   5.661
 9705SOL    HW230015   6.326   3.113   5.803
 9706SOL     OW30016   1.234   1.567   2.421
 9706SOL    HW130017   1.226   1.662   2.393
 9706SOL    HW230018   1.324   1.552   2.462
 9707SOL     OW30019   6.940   4.904   2.613
 9707SOL    HW130020   6.888   4.820   2.627
 9707SOL    HW230021   6.996   4.923   2.694
 9708SOL     OW30022   2.383   0.552   2.530
 9708SOL    HW130023   2.466   0.561   2.476
 9708SOL    HW230024   2.374   0.457   2.561
 9709SOL     OW30025   5.727   1.974   2.457
 9709SOL    HW130026   5.692   2.011   2.543
 9709SOL    HW230027   5.827   1.975   2.459
 9710SOL     OW30028   6.309   5.899   4.020
 9710SOL    HW130029   6.306   5.963   3.942
 9710SOL    HW230030   6.257   5.937   4.096
 9711SOL     OW30031   4.143   0.399   6.989
 9711SOL    HW130032   4.191   0.397   0.053
 9711SOL    HW230033   4.182   0.330   6.928
 9712SOL     OW30034   5.474   1.717   6.982
 9712SOL    HW130035   5.554   1.658   6.984
 9712SOL    HW230036   5.457   1.753   0.051
 9713SOL     OW30037   1.145   6.529   3.461
 9713SOL    HW130038   1.160   6.448   3.404
 9713SOL    HW230039   1.109   6.603   3.405
 9714SOL     OW30040   2.583   4.657   4.340
 9714SOL    HW130041   2.587   4.746   4.385
 9714SOL    HW230042   2.513   4.600   4.384
 9715SOL     OW30043   6.409   3.862   0.097
 9715SOL    HW130044   6.472   3.785   0.102
 9715SOL    HW230045   6.346   3.849   0.020
 9716SOL     OW30046   2.786   5.086   0.166
 9716SOL    HW130047   2.762   4.992   0.192
 9716SOL    HW230048   2.795   5.142   0.248
 9717SOL     OW30049   4.241   1.049   5.287
 9717SOL    HW130050   4.234   1.077   5.382
 9717SOL    HW230051   4.150   1.029   5.252
 9718SOL     OW30052   3.430   2.344   6.943
 9718SOL    HW130053   3.331   2.352   6.946
 9718SOL    HW230054   3.458   2.308   6.853
 9719SOL     OW30055   4.581   6.055   4.859
 9719SOL    HW130056   4.489   6.091   4.848
 9719SOL    HW230057   4.646   6.115   4.812
 9720SOL     OW30058   2.026   3.832   3.049
 9720SOL    HW130059   2.048   3.879   2.963
 9720SOL    HW230060   1.937   3.788   3.041
 9721SOL     OW30061   0.769   1.682   0.449
 9721SOL    HW130062   0.802   1.712   0.539
 9721SOL    HW230063   0.672   1.703   0.440
 9722SOL     OW30064   3.904   3.052   5.058
 9722SOL    HW130065   3.829   2.994   5.025
 9722SOL    HW230066   3.945   3.101   4.981
 9723SOL     OW30067   6.602   5.997   4.102
 9723SOL    HW130068   6.525   6.023   4.044
 9723SOL    HW230069   6.615   5.898   4.099
 9724SOL     OW30070   1.167   5.372   0.206
 9724SOL    HW130071   1.080   5.327   0.184
 9724SOL    HW230072   1.165   5.466   0.172
 9725SOL     OW30073   3.474   5.593   5.472
 9725SOL    HW130074   3.431   5.502   5.471
 9725SOL    HW230075   3.409   5.660   5.506
 9726SOL     OW30076   5.909   1.277   4.218
 9726SOL    HW130077   5.887   1.366   4.178
 9726SOL    HW230078   5.979   1.288   4.288
 9727SOL     OW30079   0.807   1.158   0.265
 9727SOL    HW130080   0.854   1.225   0.208
 9727SOL    HW230081   0.829   1.174   0.361
 9728SOL     OW30082   4.755   0.786   5.648
 9728SOL    HW130083   4.666   0.765   5.607
 9728SOL    HW230084   4.744   0.861   5.714
 9729SOL     OW30085   0.244   5.272   3.248
 9729SOL    HW130086   0.148   5.299   3.241
 9729SOL    HW230087   0.253   5.194   3.310
 9730SOL     OW30088   6.946   4.275   3.458
 9730SOL    HW130089   6.940   4.184   3.418
 9730SOL    HW230090   6.957   4.267   3.557
 9731SOL     OW30091   4.931   3.490   2.350
 9731SOL    HW130092   4.981   3.562   2.302
 9731SOL    HW230093   4.997   3.428   2.394
 9732SOL     OW30094   1.091   2.725   2.507
 9732SOL    HW130095   1.085   2.727   2.408
 9732SOL    HW230096   1.132   2.638   2.536
 9733SOL     OW30097   6.650   5.104   2.669
 9733SOL    HW130098   6.648   5.200   2.641
 9733SOL    HW230099   6.729   5.088   2.728
 9734SOL     OW30100   6.178   6.433   5.617
 9734SOL    HW130101   6.243   6.424   5.693
 9734SOL    HW230102   6.179   6.349   5.562
 9735SOL     OW30103   1.501   2.580   2.112
 9735SOL    HW130104   1.452   2.596   2.197
 9735SOL    HW230105   1.453   2.623   2.036
 9736SOL     OW30106   4.737   2.134   4.971
 9736SOL    HW130107   4.755   2.060   5.036
 9736SOL    HW230108   4.745   2.222   5.018
 9737SOL     OW30109   5.895   2.423   2.568
 9737SOL    HW130110   5.870   2.402   2.662
 9737SOL    HW230111   5.833   2.493   2.531
 9738SOL     OW30112   1.739   5.653   2.230
 9738SOL    HW130113   1.679   5.593   2.285
 9738SOL    HW230114   1.758   5.736   2.281
 9739SOL     OW30115   5.880   0.005   0.242
 9739SOL    HW130116   5.865   0.051   0.155
 9739SOL    HW230117   5.945   6.953   0.229
 9740SOL     OW30118   6.904   0.999   1.843
 9740SOL    HW130119   6.906   1.090   1.803
 9740SOL    HW230120   6.876   0.932   1.773
 9741SOL     OW30121   2.886   1.245   4.782
 9741SOL    HW130122   2.893   1.273   4.877
 9741SOL    HW230123   2.882   1.145   4.778
 9742SOL     OW30124   3.984   2.357   5.946
 9742SOL    HW130125   3.916   2.431   5.944
 9742SOL    HW230126   4.004   2.328   5.852
 9743SOL     OW30127   6.125   3.494   4.046
 9743SOL    HW130128   6.113   3.424   3.975
 9743SOL    HW230129   6.217   3.488   4.084
 9744SOL     OW30130   1.998   0.409   3.819
 9744SOL    HW130131   1.948   0.494   3.833
 9744SOL    HW230132   1.938   0.341   3.778
 9745SOL     OW30133   6.689   0.884   5.279
 9745SOL    HW130134   6.677   0.945   5.358
 9745SOL    HW230135   6.727   0.797   5.310
 9746SOL     OW30136   4.111   5.113   6.218
 9746SOL    HW130137   4.020   5.156   6.212
 9746SOL    HW230138   4.109   5.025   6.171
 9747SOL     OW30139   2.301   2.612   3.138
 9747SOL    HW130140   2.366   2.559   3.083
 9747SOL    HW230141   2.318   2.594   3.235
 9748SOL     OW30142   1.217   0.778   2.991
 9748SOL    HW130143   1.207   0.726   2.907
 9748SOL    HW230144   1.196   0.874   2.973
 9749SOL     OW30145   6.608   1.580   1.891
 9749SOL    HW130146   6.580   1.487   1.869
 9749SOL    HW230147   6.655   1.581   1.980
 9750SOL     OW30148   6.985   4.477   3.896
 9750SOL    HW130149   6.907   4.535   3.923
 9750SOL    HW230150   0.036   4.535   3.861
 9751SOL     OW30151   2.412   1.351   1.865
 9751SOL    HW130152   2.446   1.268   1.910
 9751SOL    HW230153   2.353   1.401   1.928
 9752SOL     OW30154   3.519   3.322   6.900
 9752SOL    HW130155   3.508   3.242   6.958
 9752SOL    HW230156   3.435   3.377   6.902
 9753SOL     OW30157   6.372   6.082   4.889
 9753SOL    HW130158   6.427   6.127   4.959
 9753SOL    HW230159   6.282   6.125   4.884
 9754SOL     OW30160   3.683   1.386   1.014
 9754SOL    HW130161   3.596   1.379   1.062
 9754SOL    HW230162   3.740   1.307   1.037
 9755SOL     OW30163   3.339   4.410   6.519
 9755SOL    HW130164   3.415   4.345   6.519
 9755SOL    HW230165   3.333   4.455   6.608
 9756SOL     OW30166   6.170   0.487   6.188
 9756SOL    HW130167   6.077   0.525   6.189
 9756SOL    HW230168   6.215   0.512   6.103
 9757SOL     OW30169   5.026   4.010   3.601
 9757SOL    HW130170   5.081   3.928   3.619
 9757SOL    HW230171   4.958   3.989   3.531
 9758SOL     OW30172   1.700   0.452   1.124
 9758SOL    HW130173   1.608   0.490   1.134
 9758SOL    HW230174   1.766   0.510   1.171
 9759SOL     OW30175   0.489   1.029   0.784
 9759SOL    HW130176   0.425   0.971   0.734
 9759SOL    HW230177   0.541   0.973   0.848
 9760SOL     OW30178   4.632   2.223   0.232
 9760SOL    HW130179   4.634   2.309   0.182
 9760SOL    HW230180   4.646   2.240   0.329
 9761SOL     OW30181   1.318   2.406   1.832
 9761SOL    HW130182   1.302   2.477   1.764
 9761SOL    HW230183   1.408   2.419   1.874
 9762SOL     OW30184   2.409   1.360   5.496
 9762SOL    HW130185   2.451   1.411   5.422
 9762SOL    HW230186   2.357   1.283   5.459
 9763SOL     OW30187   6.331   1.432   0.752
 9763SOL    HW130188   6.305   1.355   0.810
 9763SOL    HW230189   6.326   1.517   0.805
 9764SOL     OW30190   5.353   2.138   2.241
 9764SOL    HW130191   5.313   2.047   2.232
 9764SOL    HW230192   5.453   2.131   2.229
 9765SOL     OW30193   6.661   0.996   1.168
 9765SOL    HW130194   6.663   0.977   1.070
 9765SOL    HW230195   6.730   0.941   1.215
 9766SOL     OW30196   2.162   1.272   4.738
 9766SOL    HW130197   2.112   1.271   4.652
 9766SOL    HW230198   2.099   1.290   4.813
 9767SOL     OW30199   2.143   3.414   5.961
 9767SOL    HW130200   2.227   3.361   5.972
 9767SOL    HW230201   2.088   3.375   5.887
 9768SOL     OW30202   6.235   2.108   1.159
 9768SOL    HW130203   6.276   2.137   1.245
 9768SOL    HW230204   6.178   2.182   1.123
 9769SOL     OW30205   2.976   1.798   4.950
 9769SOL    HW130206   2.946   1.869   4.886
 9769SOL    HW230207   2.986   1.838   5.042
 9770SOL     OW30208   2.787   2.076   6.185
 9770SOL    HW130209   2.770   1.991   6.135
 9770SOL    HW230210   2.702   2.126   6.196
 9771SOL     OW30211   3.191   6.301   3.260
 9771SOL    HW130212   3.275   6.354   3.275
 9771SOL    HW230213   3.214   6.212   3.222
 9772SOL     OW30214   1.227   6.626   1.463
 9772SOL    HW130215   1.297   6.601   1.397
 9772SOL    HW230216   1.143   6.577   1.443
 9773SOL     OW30217   4.763   5.445   1.773
 9773SOL    HW130218   4.767   5.406   1.865
 9773SOL    HW230219   4.694   5.397   1.719
 9774SOL     OW30220   0.855   5.410   4.412
 9774SOL    HW130221   0.811   5.360   4.337
 9774SOL    HW230222   0.859   5.507   4.390
 9775SOL     OW30223   2.087   1.240   4.019
 9775SOL    HW130224   2.022   1.165   4.031
 9775SOL    HW230225   2.078   1.306   4.094
 9776SOL     OW30226   1.599   5.869   6.579
 9776SOL    HW130227   1.678   5.809   6.568
 9776SOL    HW230228   1.521   5.830   6.531
 9777SOL     OW30229   4.831   0.392   5.899
 9777SOL    HW130230   4.863   0.465   5.839
 9777SOL    HW230231   4.735   0.408   5.923
 9778SOL     OW30232   0.146   2.716   4.119
 9778SOL    HW130233   0.094   2.801   4.123
 9778SOL    HW230234   0.161   2.682   4.212
 9779SOL     OW30235   1.572   0.891   3.672
 9779SOL    HW130236   1.533   0.805   3.642
 9779SOL    HW230237   1.505   0.964   3.659
 9780SOL     OW30238   1.841   2.303   1.580
 9780SOL    HW130239   1.878   2.291   1.488
 9780SOL    HW230240   1.898   2.368   1.631
 9781SOL     OW30241   1.750   2.749   3.723
 9781SOL    HW130242   1.823   2.810   3.692
 9781SOL    HW230243   1.773   2.655   3.699
 9782SOL     OW30244   0.302   2.402   1.632
 9782SOL    HW130245   0.241   2.335   1.589
 9782SOL    HW230246   0.265   2.494   1.618
 9783SOL     OW30247   3.272   1.613   2.781
 9783SOL    HW130248   3.343   1.601   2.849
 9783SOL    HW230249   3.189   1.649   2.825
 9784SOL     OW30250   1.783   1.440   0.308
 9784SOL    HW130251   1.747   1.457   0.400
 9784SOL    HW230252   1.883   1.445   0.310
 9785SOL     OW30253   6.805   2.338   4.586
 9785SOL    HW130254   6.834   2.429   4.557
 9785SOL    HW230255   6.727   2.346   4.648
 9786SOL     OW30256   2.388   4.550   1.248
 9786SOL    HW130257   2.295   4.528   1.220
 9786SOL    HW230258   2.448   4.553   1.167
 9787SOL     OW30259   3.659   3.120   2.721
 9787SOL    HW130260   3.652   3.036   2.775
 9787SOL    HW230261   3.593   3.187   2.755
 9788SOL     OW30262   6.524   6.268   1.312
 9788SOL    HW130263   6.565   6.350   1.354
 9788SOL    HW230264   6.438   6.293   1.269
 9789SOL     OW30265   3.651   0.254   6.451
 9789SOL    HW130266   3.634   0.186   6.523
 9789SOL    HW230267   3.702   0.331   6.490
 9790SOL     OW30268   0.330   4.580   4.463
 9790SOL    HW130269   0.346   4.677   4.482
 9790SOL    HW230270   0.278   4.571   4.378
 9791SOL     OW30271   1.231   6.335   1.156
 9791SOL    HW130272   1.271   6.247   1.181
 9791SOL    HW230273   1.252   6.356   1.060
 9792SOL     OW30274   3.809   5.818   1.113
 9792SOL    HW130275   3.729   5.763   1.138
 9792SOL    HW230276   3.822   5.815   1.014
 9793SOL     OW30277   4.717   1.761   2.484
 9793SOL    HW130278   4.632   1.788   2.439
 9793SOL    HW230279   4.793   1.768   2.420
 9794SOL     OW30280   4.863   4.620   4.901
 9794SOL    HW130281   4.939   4.599   4.963
 9794SOL    HW230282   4.846   4.540   4.843
 9795SOL     OW30283   1.409   3.728   3.751
 9795SOL    HW130284   1.429   3.823   3.775
 9795SOL    HW230285   1.473   3.697   3.680
 9796SOL     OW30286   3.173   3.361   3.090
 9796SOL    HW130287   3.122   3.420   3.151
 9796SOL    HW230288   3.187   3.407   3.002
 9797SOL     OW30289   3.168   6.918   6.276
 9797SOL    HW130290   3.144   6.842   6.335
 9797SOL    HW230291   3.230   6.886   6.204
 9798SOL     OW30292   1.259   3.286   0.310
 9798SOL    HW130293   1.268   3.216   0.239
 9798SOL    HW230294   1.167   3.327   0.304
 9799SOL     OW30295   2.356   6.975   6.022
 9799SOL    HW130296   2.317   6.931   5.941
 9799SOL    HW230297   2.456   6.975   6.015
 9800SOL     OW30298   6.265   3.558   4.838
 9800SOL    HW130299   6.349   3.610   4.823
 9800SOL    HW230300   6.265   3.477   4.779
 9801SOL     OW30301   6.372   5.806   6.901
 9801SOL    HW130302   6.419   5.803   6.990
 9801SOL    HW230303   6.308   5.883   6.901
 9802SOL     OW30304   4.534   4.724   0.866
 9802SOL    HW130305   4.565   4.672   0.787
 9802SOL    HW230306   4.565   4.679   0.950
 9803SOL     OW30307   0.580   3.923   6.533
 9803SOL    HW130308   0.595   3.881   6.623
 9803SOL    HW230309   0.546   4.016   6.545
 9804SOL     OW30310   6.658   5.324   2.228
 9804SOL    HW130311   6.746   5.337   2.273
 9804SOL    HW230312   6.660   5.368   2.138
 9805SOL     OW30313   0.555   6.746   3.974
 9805SOL    HW130314   0.574   6.660   3.926
 9805SOL    HW230315   0.552   6.730   4.072
 9806SOL     OW30316   2.904   2.556   5.753
 9806SOL    HW130317   2.875   2.565   5.848
 9806SOL    HW230318   2.912   2.647   5.712
 9807SOL     OW30319   3.019   3.700   2.024
 9807SOL    HW130320   2.994   3.674   2.117
 9807SOL    HW230321   3.060   3.792   2.025
 9808SOL     OW30322   4.817   6.889   3.554
 9808SOL    HW130323   4.855   6.971   3.512
 9808SOL    HW230324   4.775   6.913   3.642
 9809SOL     OW30325   0.072   2.967   0.737
 9809SOL    HW130326   0.029   3.057   0.741
 9809SOL    HW230327   0.107   2.942   0.828
 9810SOL     OW30328   1.770   1.566   6.560
 9810SOL    HW130329   1.718   1.563   6.646
 9810SOL    HW230330   1.851   1.508   6.569
 9811SOL     OW30331   6.234   4.105   4.077
 9811SOL    HW130332   6.311   4.100   4.140
 9811SOL    HW230333   6.185   4.191   4.092
 9812SOL     OW30334   2.649   6.206   4.820
 9812SOL    HW130335   2.679   6.165   4.733
 9812SOL    HW230336   2.716   6.187   4.891
 9813SOL     OW30337   4.973   2.054   1.304
 9813SOL    HW130338   4.970   2.154   1.303
 9813SOL    HW230339   4.965   2.022   1.398
 9814SOL     OW30340   5.726   0.973   0.147
 9814SOL    HW130341   5.821   0.989   0.117
 9814SOL    HW230342   5.708   0.875   0.147
 9815SOL     OW30343   4.222   2.251   4.729
 9815SOL    HW130344   4.137   2.198   4.721
 9815SOL    HW230345   4.217   2.332   4.671
 9816SOL     OW30346   1.262   0.255   0.598
 9816SOL    HW130347   1.263   0.190   0.674
 9816SOL    HW230348   1.179   0.240   0.543
 9817SOL     OW30349   0.170   6.860   3.630
 9817SOL    HW130350   0.198   6.832   3.722
 9817SOL    HW230351   0.232   6.932   3.597
 9818SOL     OW30352   6.216   2.577   4.594
 9818SOL    HW130353   6.193   2.567   4.497
 9818SOL    HW230354   6.291   2.514   4.617
 9819SOL     OW30355   3.653   1.626   3.623
 9819SOL    HW130356   3.624   1.677   3.704
 9819SOL    HW230357   3.716   1.553   3.651
 9820SOL     OW30358   4.091   4.103   6.052
 9820SOL    HW130359   4.044   4.177   6.100
 9820SOL    HW230360   4.164   4.143   5.995
 9821SOL     OW30361   5.133   5.778   6.529
 9821SOL    HW130362   5.056   5.759   6.468
 9821SOL    HW230363   5.174   5.865   6.504
 9822SOL     OW30364   0.784   0.029   3.124
 9822SOL    HW130365   0.749   0.066   3.210
 9822SOL    HW230366   0.709   7.013   3.071
 9823SOL     OW30367   3.706   0.840   1.808
 9823SOL    HW130368   3.665   0.822   1.718
 9823SOL    HW230369   3.800   0.870   1.796
 9824SOL     OW30370   1.406   4.262   5.142
 9824SOL    HW130371   1.432   4.297   5.051
 9824SOL    HW230372   1.476   4.288   5.208
 9825SOL     OW30373   3.797   4.822   5.275
 9825SOL    HW130374   3.699   4.842   5.266
 9825SOL    HW230375   3.844   4.848   5.190
 9826SOL     OW30376   4.514   6.759   6.056
 9826SOL    HW130377   4.535   6.718   5.968
 9826SOL    HW230378   4.571   6.717   6.127
 9827SOL     OW30379   1.720   4.278   5.030
 9827SOL    HW130380   1.661   4.213   4.982
 9827SOL    HW230381   1.816   4.251   5.020
 9828SOL     OW30382   4.329   2.335   0.235
 9828SOL    HW130383   4.336   2.377   0.145
 9828SOL    HW230384   4.375   2.246   0.234
 9829SOL     OW30385   2.854   6.368   0.137
 9829SOL    HW130386   2.761   6.349   0.167
 9829SOL    HW230387   2.865   6.341   0.041
 9830SOL     OW30388   5.664   1.488   0.970
 9830SOL    HW130389   5.648   1.403   1.019
 9830SOL    HW230390   5.744   1.478   0.911
 9831SOL     OW30391   1.423   6.275   1.638
 9831SOL    HW130392   1.476   6.360   1.634
 9831SOL    HW230393   1.425   6.230   1.549
 9832SOL     OW30394   4.557   5.350   1.620
 9832SOL    HW130395   4.459   5.329   1.609
 9832SOL    HW230396   4.608   5.313   1.543
 9833SOL     OW30397   3.697   3.830   5.116
 9833SOL    HW130398   3.690   3.866   5.209
 9833SOL    HW230399   3.616   3.856   5.064
 9834SOL     OW30400   2.030   3.974   5.385
 9834SOL    HW130401   1.966   4.039   5.425
 9834SOL    HW230402   2.111   4.022   5.352
 9835SOL     OW30403   5.323   2.098   4.438
 9835SOL    HW130404   5.295   2.175   4.496
 9835SOL    HW230405   5.264   2.094   4.358
 9836SOL     OW30406   5.419   3.703   3.033
 9836SOL    HW130407   5.489   3.754   2.983
 9836SOL    HW230408   5.367   3.765   3.090
 9837SOL     OW30409   2.234   6.862   3.784
 9837SOL    HW130410   2.205   6.777   3.741
 9837SOL    HW230411   2.160   6.898   3.840
 9838SOL     OW30412   0.774   6.284   6.206
 9838SOL    HW130413   0.874   6.284   6.199
 9838SOL    HW230414   0.734   6.303   6.117
 9839SOL     OW30415   6.450   1.778   1.751
 9839SOL    HW130416   6.509   1.856   1.728
 9839SOL    HW230417   6.505   1.706   1.793
 9840SOL     OW30418   0.092   0.586   1.159
 9840SOL    HW130419   0.119   0.583   1.255
 9840SOL    HW230420   0.174   0.595   1.102
 9841SOL     OW30421   1.517   4.051   4.750
 9841SOL    HW130422   1.469   3.987   4.690
 9841SOL    HW230423   1.529   4.009   4.840
 9842SOL     OW30424   3.493   3.324   2.849
 9842SOL    HW130425   3.396   3.347   2.846
 9842SOL    HW230426   3.534   3.365   2.930
 9843SOL     OW30427   6.628   1.756   1.034
 9843SOL    HW130428   6.701   1.822   1.052
 9843SOL    HW230429   6.587   1.776   0.945
 9844SOL     OW30430   4.551   6.851   2.635
 9844SOL    HW130431   4.477   6.918   2.640
 9844SOL    HW230432   4.512   6.761   2.614
 9845SOL     OW30433   2.629   1.813   4.807
 9845SOL    HW130434   2.712   1.867   4.796
 9845SOL    HW230435   2.617   1.753   4.727
 9846SOL     OW30436   3.054   3.952   3.134
 9846SOL    HW130437   3.033   3.960   3.036
 9846SOL    HW230438   3.016   3.867   3.169
 9847SOL     OW30439   2.657   2.823   6.366
 9847SOL    HW130440   2.561   2.850   6.378
 9847SOL    HW230441   2.715   2.874   6.429
 9848SOL     OW30442   4.543   2.757   6.256
 9848SOL    HW130443   4.509   2.663   6.260
 9848SOL    HW230444   4.590   2.779   6.342
 9849SOL     OW30445   6.406   0.600   6.805
 9849SOL    HW130446   6.362   0.681   6.843
 9849SOL    HW230447   6.368   0.581   6.714
 9850SOL     OW30448   4.123   6.323   2.832
 9850SOL    HW130449   4.217   6.298   2.857
 9850SOL    HW230450   4.101   6.286   2.742
 9851SOL     OW30451   4.591   2.138   5.318
 9851SOL    HW130452   4.627   2.045   5.310
 9851SOL    HW230453   4.667   2.203   5.313
 9852SOL     OW30454   4.674   1.897   3.689
 9852SOL    HW130455   4.671   1.938   3.598
 9852SOL    HW230456   4.638   1.963   3.756
 9853SOL     OW30457   5.217   4.185   2.266
 9853SOL    HW130458   5.129   4.216   2.230
 9853SOL    HW230459   5.221   4.085   2.266
 9854SOL     OW30460   5.799   5.637   4.719
 9854SOL    HW130461   5.785   5.702   4.794
 9854SOL    HW230462   5.873   5.574   4.744
 9855SOL     OW30463   0.869   4.326   1.197
 9855SOL    HW130464   0.881   4.392   1.271
 9855SOL    HW230465   0.947   4.264   1.195
 9856SOL     OW30466   3.948   3.940   0.777
 9856SOL    HW130467   3.856   3.963   0.810
 9856SOL    HW230468   3.947   3.847   0.741
 9857SOL     OW30469   5.427   1.806   2.903
 9857SOL    HW130470   5.507   1.748   2.888
 9857SOL    HW230471   5.449   1.900   2.878
 9858SOL     OW30472   4.758   0.676   1.845
 9858SOL    HW130473   4.691   0.655   1.915
 9858SOL    HW230474   4.821   0.746   1.878
 9859SOL     OW30475   5.904   0.503   1.189
 9859SOL    HW130476   5.892   0.412   1.229
 9859SOL    HW230477   5.857   0.570   1.245
 9860SOL     OW30478   0.316   0.807   1.348
 9860SOL    HW130479   0.241   0.747   1.376
 9860SOL    HW230480   0.396   0.751   1.324
 9861SOL     OW30481   3.785   6.159   4.828
 9861SOL    HW130482   3.794   6.258   4.835
 9861SOL    HW230483   3.702   6.130   4.876
 9862SOL     OW30484   2.479   3.528   0.688
 9862SOL    HW130485   2.559   3.577   0.722
 9862SOL    HW230486   2.401   3.547   0.748
 9863SOL     OW30487   3.333   0.047   2.696
 9863SOL    HW130488   3.397   0.085   2.762
 9863SOL    HW230489   3.256   0.005   2.745
 9864SOL     OW30490   4.769   5.926   3.692
 9864SOL    HW130491   4.689   5.868   3.674
 9864SOL    HW230492   4.851   5.879   3.660
 9865SOL     OW30493   0.442   0.325   3.516
 9865SOL    HW130494   0.372   0.331   3.588
 9865SOL    HW230495   0.455   0.415   3.475
 9866SOL     OW30496   4.807   4.074   4.590
 9866SOL    HW130497   4.781   4.053   4.684
 9866SOL    HW230498   4.787   3.995   4.532
 9867SOL     OW30499   3.922   1.353   0.355
 9867SOL    HW130500   3.938   1.366   0.257
 9867SOL    HW230501   3.841   1.296   0.368
 9868SOL     OW30502   0.858   4.440   0.053
 9868SOL    HW130503   0.790   4.408   7.009
 9868SOL    HW230504   0.831   4.529   0.088
 9869SOL     OW30505   1.746   4.011   3.899
 9869SOL    HW130506   1.720   3.956   3.819
 9869SOL    HW230507   1.788   3.951   3.968
 9870SOL     OW30508   4.924   6.004   2.470
 9870SOL    HW130509   4.913   5.910   2.502
 9870SOL    HW230510   4.933   6.004   2.370
 9871SOL     OW30511   1.480   0.475   5.989
 9871SOL    HW130512   1.407   0.519   6.040
 9871SOL    HW230513   1.558   0.537   5.980
 9872SOL     OW30514   2.672   5.029   3.086
 9872SOL    HW130515   2.766   4.995   3.080
 9872SOL    HW230516   2.617   4.966   3.140
 9873SOL     OW30517   2.232   2.972   0.508
 9873SOL    HW130518   2.141   3.000   0.539
 9873SOL    HW230519   2.262   2.892   0.560
 9874SOL     OW30520   0.894   2.156   4.127
 9874SOL    HW130521   0.954   2.139   4.049
 9874SOL    HW230522   0.799   2.147   4.098
 9875SOL     OW30523   0.645   0.897   1.739
 9875SOL    HW130524   0.662   0.828   1.810
 9875SOL    HW230525   0.651   0.988   1.778
 9876SOL     OW30526   6.626   0.770   2.271
 9876SOL    HW130527   6.710   0.750   2.321
 9876SOL    HW230528   6.548   0.766   2.333
 9877SOL     OW30529   2.895   6.478   2.751
 9877SOL    HW130530   2.962   6.552   2.742
 9877SOL    HW230531   2.827   6.503   2.820
 9878SOL     OW30532   1.983   5.558   6.260
 9878SOL    HW130533   1.915   5.622   6.225
 9878SOL    HW230534   1.948   5.464   6.252
 9879SOL     OW30535   5.349   5.278   4.566
 9879SOL    HW130536   5.334   5.191   4.615
 9879SOL    HW230537   5.351   5.353   4.632
 9880SOL     OW30538   1.709   3.018   5.424
 9880SOL    HW130539   1.799   3.006   5.383
 9880SOL    HW230540   1.719   3.058   5.516
 9881SOL     OW30541   1.605   2.406   4.872
 9881SOL    HW130542   1.519   2.456   4.878
 9881SOL    HW230543   1.654   2.413   4.959
 9882SOL     OW30544   0.956   2.168   3.864
 9882SOL    HW130545   0.944   2.235   3.791
 9882SOL    HW230546   0.953   2.076   3.825
 9883SOL     OW30547   0.826   6.603   1.176
 9883SOL    HW130548   0.818   6.530   1.108
 9883SOL    HW230549   0.776   6.684   1.144
 9884SOL     OW30550   4.078   1.489   3.523
 9884SOL    HW130551   3.985   1.502   3.557
 9884SOL    HW230552   4.075   1.472   3.424
 9885SOL     OW30553   6.684   4.253   5.136
 9885SOL    HW130554   6.612   4.322   5.144
 9885SOL    HW230555   6.651   4.166   5.172
 9886SOL     OW30556   0.613   4.908   2.640
 9886SOL    HW130557   0.682   4.894   2.568
 9886SOL    HW230558   0.577   5.001   2.635
 9887SOL     OW30559   4.057   1.128   6.810
 9887SOL    HW130560   3.971   1.152   6.766
 9887SOL    HW230561   4.041   1.110   6.907
 9888SOL     OW30562   0.167   3.901   0.739
 9888SOL    HW130563   0.068   3.913   0.747
 9888SOL    HW230564   0.212   3.988   0.758
 9889SOL     OW30565   6.617   4.741   0.836
 9889SOL    HW130566   6.532   4.789   0.859
 9889SOL    HW230567   6.690   4.773   0.896
 9890SOL     OW30568   1.866   2.314   0.390
 9890SOL    HW130569   1.887   2.228   0.436
 9890SOL    HW230570   1.777   2.307   0.345
 9891SOL     OW30571   6.087   2.496   0.243
 9891SOL    HW130572   6.069   2.422   0.177
 9891SOL    HW230573   6.031   2.575   0.221
 9892SOL     OW30574   6.784   5.565   0.182
 9892SOL    HW130575   6.708   5.547   0.245
 9892SOL    HW230576   6.803   5.483   0.128
 9893SOL     OW30577   1.503   0.357   0.717
 9893SOL    HW130578   1.424   0.306   0.684
 9893SOL    HW230579   1.576   0.353   0.648
 9894SOL     OW30580   2.176   2.264   1.340
 9894SOL    HW130581   2.081   2.233   1.351
 9894SOL    HW230582   2.230   2.234   1.419
 9895SOL     OW30583   5.651   3.476   5.103
 9895SOL    HW130584   5.622   3.565   5.138
 9895SOL    HW230585   5.638   3.406   5.173
 9896SOL     OW30586   6.108   6.694   6.665
 9896SOL    HW130587   6.068   6.762   6.604
 9896SOL    HW230588   6.166   6.632   6.612
 9897SOL     OW30589   5.388   5.433   3.445
 9897SOL    HW130590   5.363   5.529   3.457
 9897SOL    HW230591   5.488   5.425   3.445
 9898SOL     OW30592   2.350   6.155   6.292
 9898SOL    HW130593   2.252   6.141   6.304
 9898SOL    HW230594   2.366   6.249   6.262
 9899SOL     OW30595   6.981   5.623   0.763
 9899SOL    HW130596   7.022   5.704   0.805
 9899SOL    HW230597   6.969   5.552   0.832
 9900SOL     OW30598   1.419   3.722   3.448
 9900SOL    HW130599   1.484   3.798   3.454
 9900SOL    HW230600   1.468   3.635   3.456
 9901SOL     OW30601   2.763   2.134   5.905
 9901SOL    HW130602   2.701   2.173   5.973
 9901SOL    HW230603   2.710   2.097   5.828
 9902SOL     OW30604   2.685   4.862   6.915
 9902SOL    HW130605   2.616   4.934   6.924
 9902SOL    HW230606   2.762   4.895   6.861
 9903SOL     OW30607   4.837   1.356   2.321
 9903SOL    HW130608   4.875   1.425   2.260
 9903SOL    HW230609   4.909   1.294   2.351
 9904SOL     OW30610   1.315   2.896   6.667
 9904SOL    HW130611   1.334   2.993   6.651
 9904SOL    HW230612   1.290   2.852   6.581
 9905SOL     OW30613   3.465   0.995   6.920
 9905SOL    HW130614   3.427   1.026   6.833
 9905SOL    HW230615   3.563   1.013   6.923
 9906SOL     OW30616   3.698   3.021   2.089
 9906SOL    HW130617   3.798   3.023   2.088
 9906SOL    HW230618   3.665   3.052   2.178
 9907SOL     OW30619   6.632   1.108   0.668
 9907SOL    HW130620   6.608   1.100   0.765
 9907SOL    HW230621   6.637   1.017   0.628
 9908SOL     OW30622   5.313   2.038   3.183
 9908SOL    HW130623   5.336   1.967   3.116
 9908SOL    HW230624   5.217   2.030   3.209
 9909SOL     OW30625   3.845   0.169   3.822
 9909SOL    HW130626   3.903   0.105   3.874
 9909SOL    HW230627   3.765   0.193   3.876
 9910SOL     OW30628   0.860   3.580   2.351
 9910SOL    HW130629   0.793   3.647   2.384
 9910SOL    HW230630   0.906   3.537   2.429
 9911SOL     OW30631   3.479   6.859   2.114
 9911SOL    HW130632   3.563   6.867   2.061
 9911SOL    HW230633   3.418   6.794   2.070
 9912SOL     OW30634   3.839   1.939   1.455
 9912SOL    HW130635   3.800   1.959   1.545
 9912SOL    HW230636   3.910   2.007   1.434
 9913SOL     OW30637   6.042   3.876   0.731
 9913SOL    HW130638   5.966   3.935   0.758
 9913SOL    HW230639   6.117   3.932   0.696
 9914SOL     OW30640   6.456   3.421   4.627
 9914SOL    HW130641   6.496   3.424   4.718
 9914SOL    HW230642   6.528   3.398   4.560
 9915SOL     OW30643   4.318   0.715   2.984
 9915SOL    HW130644   4.227   0.756   2.980
 9915SOL    HW230645   4.335   0.679   3.076
 9916SOL     OW30646   2.108   2.976   3.389
 9916SOL    HW130647   2.204   3.003   3.392
 9916SOL    HW230648   2.066   2.990   3.479
 9917SOL     OW30649   5.837   3.417   0.062
 9917SOL    HW130650   5.854   3.511   0.092
 9917SOL    HW230651   5.862   3.409   6.988
 9918SOL     OW30652   3.413   1.421   2.610
 9918SOL    HW130653   3.365   1.488   2.666
 9918SOL    HW230654   3.349   1.376   2.548
 9919SOL     OW30655   5.492   5.390   1.648
 9919SOL    HW130656   5.586   5.356   1.652
 9919SOL    HW230657   5.464   5.398   1.552
 9920SOL     OW30658   4.618   1.616   1.773
 9920SOL    HW130659   4.644   1.695   1.717
 9920SOL    HW230660   4.551   1.645   1.841
 9921SOL     OW30661   4.289   5.783   6.274
 9921SOL    HW130662   4.268   5.685   6.272
 9921SOL    HW230663   4.294   5.817   6.181
 9922SOL     OW30664   1.561   4.492   0.477
 9922SOL    HW130665   1.477   4.442   0.456
 9922SOL    HW230666   1.556   4.584   0.437
 9923SOL     OW30667   5.140   4.398   6.406
 9923SOL    HW130668   5.117   4.485   6.362
 9923SOL    HW230669   5.107   4.398   6.500
 9924SOL     OW30670   0.047   2.326   4.848
 9924SOL    HW130671   0.069   2.323   4.750
 9924SOL    HW230672   7.008   2.401   4.865
 9925SOL     OW30673   6.867   4.239   4.500
 9925SOL    HW130674   6.838   4.220   4.406
 9925SOL    HW230675   6.947   4.299   4.499
 9926SOL     OW30676   2.409   3.889   0.335
 9926SOL    HW130677   2.497   3.841   0.328
 9926SOL    HW230678   2.424   3.980   0.375
 9927SOL     OW30679   6.153   6.662   1.925
 9927SOL    HW130680   6.140   6.761   1.934
 9927SOL    HW230681   6.072   6.614   1.961
 9928SOL     OW30682   4.866   5.711   1.727
 9928SOL    HW130683   4.820   5.779   1.670
 9928SOL    HW230684   4.815   5.625   1.724
 9929SOL     OW30685   1.835   5.297   5.708
 9929SOL    HW130686   1.883   5.381   5.684
 9929SOL    HW230687   1.754   5.319   5.761
 9930SOL     OW30688   6.159   0.656   4.825
 9930SOL    HW130689   6.071   0.622   4.859
 9930SOL    HW230690   6.219   0.579   4.803
 9931SOL     OW30691   1.054   4.513   4.863
 9931SOL    HW130692   1.108   4.475   4.788
 9931SOL    HW230693   1.114   4.545   4.936
 9932SOL     OW30694   2.113   5.507   0.021
 9932SOL    HW130695   2.092   5.438   6.975
 9932SOL    HW230696   2.068   5.483   0.107
 9933SOL     OW30697   1.483   4.748   2.906
 9933SOL    HW130698   1.577   4.748   2.871
 9933SOL    HW230699   1.463   4.661   2.950
 9934SOL     OW30700   6.236   1.966   5.418
 9934SOL    HW130701   6.229   1.869   5.395
 9934SOL    HW230702   6.156   1.994   5.471
 9935SOL     OW30703   2.894   0.516   0.293
 9935SOL    HW130704   2.852   0.473   0.373
 9935SOL    HW230705   2.823   0.547   0.230
 9936SOL     OW30706   6.366   4.927   5.093
 9936SOL    HW130707   6.362   4.999   5.025
 9936SOL    HW230708   6.305   4.852   5.066
 9937SOL     OW30709   6.759   2.438   5.831
 9937SOL    HW130710   6.797   2.458   5.921
 9937SOL    HW230711   6.807   2.493   5.762
 9938SOL     OW30712   6.457   5.617   3.347
 9938SOL    HW130713   6.359   5.597   3.348
 9938SOL    HW230714   6.508   5.533   3.329
 9939SOL     OW30715   3.548   2.324   0.603
 9939SOL    HW130716   3.591   2.300   0.516
 9939SOL    HW230717   3.589   2.269   0.676
 9940SOL     OW30718   0.528   0.658   1.237
 9940SOL    HW130719   0.576   0.571   1.243
 9940SOL    HW230720   0.593   0.732   1.218
 9941SOL     OW30721   3.313   3.930   5.231
 9941SOL    HW130722   3.222   3.924   5.190
 9941SOL    HW230723   3.365   4.003   5.186
 9942SOL     OW30724   2.109   5.430   2.513
 9942SOL    HW130725   2.133   5.344   2.560
 9942SOL    HW230726   2.070   5.409   2.424
 9943SOL     OW30727   6.937   5.855   5.430
 9943SOL    HW130728   6.849   5.892   5.401
 9943SOL    HW230729   6.995   5.838   5.350
 9944SOL     OW30730   2.134   4.338   6.680
 9944SOL    HW130731   2.207   4.402   6.704
 9944SOL    HW230732   2.161   4.286   6.599
 9945SOL     OW30733   6.588   5.447   6.972
 9945SOL    HW130734   6.523   5.378   7.006
 9945SOL    HW230735   6.681   5.415   6.988
 9946SOL     OW30736   5.155   1.417   4.666
 9946SOL    HW130737   5.077   1.480   4.662
 9946SOL    HW230738   5.150   1.364   4.750
 9947SOL     OW30739   0.595   3.693   6.143
 9947SOL    HW130740   0.613   3.720   6.049
 9947SOL    HW230741   0.681   3.678   6.191
 9948SOL     OW30742   4.771   4.676   4.153
 9948SOL    HW130743   4.672   4.675   4.170
 9948SOL    HW230744   4.819   4.672   4.241
 9949SOL     OW30745   5.115   5.286   3.289
 9949SOL    HW130746   5.091   5.319   3.380
 9949SOL    HW230747   5.053   5.327   3.222
 9950SOL     OW30748   5.897   6.218   5.402
 9950SOL    HW130749   5.846   6.162   5.337
 9950SOL    HW230750   5.875   6.189   5.495
 9951SOL     OW30751   6.386   1.767   3.854
 9951SOL    HW130752   6.461   1.816   3.810
 9951SOL    HW230753   6.330   1.831   3.906
 9952SOL     OW30754   6.599   3.810   0.489
 9952SOL    HW130755   6.659   3.844   0.417
 9952SOL    HW230756   6.573   3.885   0.549
 9953SOL     OW30757   6.229   2.688   3.919
 9953SOL    HW130758   6.261   2.613   3.977
 9953SOL    HW230759   6.149   2.658   3.867
 9954SOL     OW30760   5.964   6.720   5.861
 9954SOL    HW130761   5.895   6.650   5.880
 9954SOL    HW230762   5.985   6.770   5.945
 9955SOL     OW30763   6.646   4.036   4.638
 9955SOL    HW130764   6.673   4.107   4.573
 9955SOL    HW230765   6.670   4.065   4.730
 9956SOL     OW30766   2.238   6.805   1.726
 9956SOL    HW130767   2.189   6.891   1.712
 9956SOL    HW230768   2.268   6.799   1.821
 9957SOL     OW30769   5.542   5.445   2.681
 9957SOL    HW130770   5.461   5.491   2.716
 9957SOL    HW230771   5.551   5.355   2.725
 9958SOL     OW30772   3.148   5.443   0.385
 9958SOL    HW130773   3.199   5.528   0.380
 9958SOL    HW230774   3.165   5.389   0.302
 9959SOL     OW30775   4.230   3.820   5.889
 9959SOL    HW130776   4.296   3.864   5.827
 9959SOL    HW230777   4.253   3.843   5.983
 9960SOL     OW30778   6.812   0.379   2.262
 9960SOL    HW130779   6.794   0.302   2.201
 9960SOL    HW230780   6.873   0.445   2.216
 9961SOL     OW30781   1.949   6.111   4.312
 9961SOL    HW130782   1.940   6.091   4.410
 9961SOL    HW230783   1.859   6.115   4.270
 9962SOL     OW30784   6.484   6.679   3.464
 9962SOL    HW130785   6.466   6.776   3.480
 9962SOL    HW230786   6.404   6.626   3.493
 9963SOL     OW30787   3.100   2.785   0.235
 9963SOL    HW130788   3.166   2.725   0.280
 9963SOL    HW230789   3.070   2.742   0.149
 9964SOL     OW30790   4.735   5.688   4.038
 9964SOL    HW130791   4.693   5.769   3.998
 9964SOL    HW230792   4.682   5.607   4.015
 9965SOL     OW30793   4.424   6.572   6.547
 9965SOL    HW130794   4.461   6.515   6.473
 9965SOL    HW230795   4.326   6.558   6.555
 9966SOL     OW30796   1.206   5.120   1.593
 9966SOL    HW130797   1.295   5.162   1.613
 9966SOL    HW230798   1.134   5.171   1.638
 9967SOL     OW30799   0.335   5.530   2.125
 9967SOL    HW130800   0.401   5.522   2.050
 9967SOL    HW230801   0.348   5.617   2.172
 9968SOL     OW30802   3.453   3.904   2.019
 9968SOL    HW130803   3.517   3.940   2.087
 9968SOL    HW230804   3.491   3.821   1.979
 9969SOL     OW30805   1.848   4.021   2.469
 9969SOL    HW130806   1.922   3.954   2.470
 9969SOL    HW230807   1.807   4.027   2.560
 9970SOL     OW30808   5.307   4.158   1.643
 9970SOL    HW130809   5.398   4.139   1.605
 9970SOL    HW230810   5.238   4.140   1.574
 9971SOL     OW30811   1.578   4.965   1.203
 9971SOL    HW130812   1.520   5.043   1.181
 9971SOL    HW230813   1.528   4.880   1.188
 9972SOL     OW30814   6.399   4.136   1.667
 9972SOL    HW130815   6.325   4.184   1.715
 9972SOL    HW230816   6.423   4.187   1.584
 9973SOL     OW30817   5.604   2.146   3.557
 9973SOL    HW130818   5.613   2.112   3.650
 9973SOL    HW230819   5.509   2.173   3.540
 9974SOL     OW30820   0.923   1.877   2.961
 9974SOL    HW130821   0.832   1.859   2.996
 9974SOL    HW230822   0.921   1.875   2.861
 9975SOL     OW30823   6.294   3.250   0.688
 9975SOL    HW130824   6.361   3.325   0.687
 9975SOL    HW230825   6.342   3.163   0.679
 9976SOL     OW30826   1.594   6.198   5.316
 9976SOL    HW130827   1.521   6.252   5.359
 9976SOL    HW230828   1.625   6.245   5.233
 9977SOL     OW30829   5.705   5.354   5.668
 9977SOL    HW130830   5.765   5.351   5.587
 9977SOL    HW230831   5.753   5.316   5.746
 9978SOL     OW30832   1.028   2.518   4.921
 9978SOL    HW130833   0.981   2.606   4.914
 9978SOL    HW230834   1.126   2.531   4.906
 9979SOL     OW30835   5.890   4.775   5.396
 9979SOL    HW130836   5.871   4.792   5.299
 9979SOL    HW230837   5.805   4.762   5.446
 9980SOL     OW30838   2.571   0.156   6.985
 9980SOL    HW130839   2.655   0.127   6.939
 9980SOL    HW230840   2.540   0.085   0.024
 9981SOL     OW30841   2.725   1.572   3.184
 9981SOL    HW130842   2.758   1.486   3.220
 9981SOL    HW230843   2.800   1.638   3.180
 9982SOL     OW30844   6.692   5.446   3.322
 9982SOL    HW130845   6.766   5.447   3.389
 9982SOL    HW230846   6.721   5.495   3.239
 9983SOL     OW30847   0.093   1.562   2.669
 9983SOL    HW130848   0.151   1.634   2.705
 9983SOL    HW230849   0.003   1.566   2.713
 9984SOL     OW30850   2.255   2.354   6.647
 9984SOL    HW130851   2.292   2.441   6.680
 9984SOL    HW230852   2.214   2.304   6.724
 9985SOL     OW30853   2.409   0.532   1.861
 9985SOL    HW130854   2.436   0.579   1.946
 9985SOL    HW230855   2.489   0.519   1.803
 9986SOL     OW30856   5.992   4.377   5.668
 9986SOL    HW130857   5.929   4.300   5.676
 9986SOL    HW230858   6.029   4.380   5.575
 9987SOL     OW30859   5.778   3.128   6.014
 9987SOL    HW130860   5.867   3.084   6.031
 9987SOL    HW230861   5.708   3.084   6.070
 9988SOL     OW30862   6.562   0.303   4.806
 9988SOL    HW130863   6.525   0.254   4.727
 9988SOL    HW230864   6.560   0.244   4.886
 9989SOL     OW30865   6.929   3.341   4.206
 9989SOL    HW130866   6.847   3.395   4.226
 9989SOL    HW230867   6.987   3.337   4.287
 9990SOL     OW30868   1.789   5.249   3.613
 9990SOL    HW130869   1.698   5.285   3.595
 9990SOL    HW230870   1.857   5.319   3.594
 9991SOL     OW30871   2.956   2.250   4.695
 9991SOL    HW130872   2.967   2.232   4.792
 9991SOL    HW230873   3.044   2.239   4.649
 9992SOL     OW30874   5.989   4.644   6.572
 9992SOL    HW130875   5.956   4.551   6.556
 9992SOL    HW230876   5.914   4.699   6.609
 9993SOL     OW30877   2.280   1.430   1.453
 9993SOL    HW130878   2.259   1.523   1.423
 9993SOL    HW230879   2.378   1.412   1.440
 9994SOL     OW30880   6.078   4.691   2.987
 9994SOL    HW130881   6.067   4.629   3.065
 9994SOL    HW230882   6.098   4.639   2.905
 9995SOL     OW30883   5.055   1.695   3.880
 9995SOL    HW130884   5.140   1.682   3.931
 9995SOL    HW230885   5.075   1.701   3.782
 9996SOL     OW30886   2.677   4.454   0.207
 9996SOL    HW130887   2.637   4.508   0.281
 9996SOL    HW230888   2.750   4.507   0.163
 9997SOL     OW30889   2.978   1.827   5.771
 9997SOL    HW130890   2.891   1.781   5.753
 9997SOL    HW230891   2.964   1.926   5.772
 9998SOL     OW30892   5.962   5.537   5.128
 9998SOL    HW130893   5.908   5.518   5.210
 9998SOL    HW230894   6.018   5.458   5.105
 9999SOL     OW30895   6.125   2.438   5.640
 9999SOL    HW130896   6.137   2.525   5.688
 9999SOL    HW230897   6.082   2.455   5.551
10000SOL     OW30898   7.001   2.568   0.305
10000SOL    HW130899   0.020   2.650   0.267
10000SOL    HW230900   6.984   2.581   0.403
10001SOL     OW30901   4.846   1.167   1.756
10001SOL    HW130902   4.798   1.252   1.736
10001SOL    HW230903   4.804   1.092   1.704
10002SOL     OW30904   1.109   6.115   2.188
10002SOL    HW130905   1.140   6.196   2.238
10002SOL    HW230906   1.119   6.034   2.245
10003SOL     OW30907   3.327   1.862   3.497
10003SOL    HW130908   3.277   1.793   3.551
10003SOL    HW230909   3.402   1.818   3.449
10004SOL     OW30910   6.790   2.204   3.255
10004SOL    HW130911   6.765   2.117   3.212
10004SOL    HW230912   6.720   2.230   3.321
10005SOL     OW30913   5.256   0.449   2.943
10005SOL    HW130914   5.265   0.431   3.041
10005SOL    HW230915   5.273   0.364   2.892
10006SOL     OW30916   3.763   0.114   4.169
10006SOL    HW130917   3.750   0.049   4.243
10006SOL    HW230918   3.853   0.158   4.178
10007SOL     OW30919   0.778   3.584   5.418
10007SOL    HW130920   0.743   3.558   5.508
10007SOL    HW230921   0.702   3.610   5.359
10008SOL     OW30922   3.848   0.286   4.508
10008SOL    HW130923   3.884   0.231   4.433
10008SOL    HW230924   3.748   0.278   4.512
10009SOL     OW30925   2.136   4.185   2.117
10009SOL    HW130926   2.054   4.142   2.155
10009SOL    HW230927   2.178   4.123   2.050
10010SOL     OW30928   2.017   0.817   0.344
10010SOL    HW130929   1.923   0.815   0.312
10010SOL    HW230930   2.035   0.904   0.391
10011SOL     OW30931   6.850   0.328   4.804
10011SOL    HW130932   6.871   0.278   4.720
10011SOL    HW230933   6.756   0.361   4.800
10012SOL     OW30934   5.691   1.361   3.459
10012SOL    HW130935   5.767   1.424   3.477
10012SOL    HW230936   5.723   1.267   3.463
10013SOL     OW30937   0.092   0.792   2.665
10013SOL    HW130938   0.186   0.793   2.630
10013SOL    HW230939   0.037   0.727   2.612
10014SOL     OW30940   1.109   3.968   6.433
10014SOL    HW130941   1.116   4.000   6.528
10014SOL    HW230942   1.108   4.046   6.371
10015SOL     OW30943   2.019   5.043   0.541
10015SOL    HW130944   2.068   5.095   0.471
10015SOL    HW230945   2.005   5.100   0.622
10016SOL     OW30946   1.905   1.317   0.006
10016SOL    HW130947   1.842   1.286   0.077
10016SOL    HW230948   1.974   1.247   7.011
10017SOL     OW30949   2.493   2.192   4.592
10017SOL    HW130950   2.434   2.113   4.575
10017SOL    HW230951   2.541   2.180   4.679
10018SOL     OW30952   5.485   0.501   6.103
10018SOL    HW130953   5.416   0.539   6.165
10018SOL    HW230954   5.497   0.404   6.122
10019SOL     OW30955   1.106   0.653   2.614
10019SOL    HW130956   1.190   0.604   2.592
10019SOL    HW230957   1.128   0.746   2.643
10020SOL     OW30958   1.678   3.026   1.243
10020SOL    HW130959   1.749   2.965   1.277
10020SOL    HW230960   1.636   2.987   1.161
10021SOL     OW30961   6.926   3.594   0.847
10021SOL    HW130962   6.877   3.550   0.923
10021SOL    HW230963   6.868   3.592   0.766
10022SOL     OW30964   1.761   1.405   6.823
10022SOL    HW130965   1.784   1.339   6.751
10022SOL    HW230966   1.775   1.362   6.913
10023SOL     OW30967   6.336   3.668   0.537
10023SOL    HW130968   6.371   3.598   0.600
10023SOL    HW230969   6.409   3.731   0.513
10024SOL     OW30970   1.656   5.006   3.692
10024SOL    HW130971   1.704   4.954   3.763
10024SOL    HW230972   1.722   5.063   3.644
10025SOL     OW30973   1.843   0.822   1.446
10025SOL    HW130974   1.887   0.906   1.415
10025SOL    HW230975   1.911   0.764   1.490
10026SOL     OW30976   5.804   0.396   3.258
10026SOL    HW130977   5.783   0.493   3.257
10026SOL    HW230978   5.797   0.359   3.165
10027SOL     OW30979   5.827   3.470   4.717
10027SOL    HW130980   5.784   3.557   4.693
10027SOL    HW230981   5.866   3.476   4.809
10028SOL     OW30982   1.882   1.173   0.762
10028SOL    HW130983   1.846   1.231   0.836
10028SOL    HW230984   1.808   1.153   0.698
10029SOL     OW30985   5.845   2.232   3.462
10029SOL    HW130986   5.760   2.202   3.506
10029SOL    HW230987   5.897   2.151   3.434
10030SOL     OW30988   1.694   0.443   4.167
10030SOL    HW130989   1.771   0.380   4.154
10030SOL    HW230990   1.610   0.400   4.133
10031SOL     OW30991   5.855   4.850   3.202
10031SOL    HW130992   5.764   4.850   3.161
10031SOL    HW230993   5.923   4.828   3.131
10032SOL     OW30994   2.531   1.506   5.300
10032SOL    HW130995   2.503   1.493   5.205
10032SOL    HW230996   2.604   1.575   5.303
10033SOL     OW30997   5.741   2.907   4.514
10033SOL    HW130998   5.734   2.990   4.570
10033SOL    HW230999   5.650   2.866   4.505
10034SOL     OW31000   4.391   0.275   5.584
10034SOL    HW131001   4.348   0.239   5.667
10034SOL    HW231002   4.470   0.218   5.560
10035SOL     OW31003   7.023   4.872   1.325
10035SOL    HW131004   6.998   4.776   1.312
10035SOL    HW231005   7.011   4.921   1.239
10036SOL     OW31006   6.777   1.883   0.159
10036SOL    HW131007   6.843   1.884   0.083
10036SOL    HW231008   6.723   1.967   0.157
10037SOL     OW31009   0.045   0.356   6.522
10037SOL    HW131010   0.034   0.410   6.605
10037SOL    HW231011   6.995   0.288   6.516
10038SOL     OW31012   6.356   6.888   1.109
10038SOL    HW131013   6.259   6.868   1.124
10038SOL    HW231014   6.411   6.815   1.149
10039SOL     OW31015   3.212   0.675   4.173
10039SOL    HW131016   3.202   0.608   4.099
10039SOL    HW231017   3.263   0.754   4.139
10040SOL     OW31018   6.669   3.165   0.808
10040SOL    HW131019   6.700   3.240   0.866
10040SOL    HW231020   6.699   3.078   0.846
10041SOL     OW31021   2.871   6.641   0.166
10041SOL    HW131022   2.867   6.543   0.148
10041SOL    HW231023   2.786   6.684   0.135
10042SOL     OW31024   6.939   1.860   2.892
10042SOL    HW131025   6.894   1.876   2.804
10042SOL    HW231026   7.003   1.784   2.883
10043SOL     OW31027   0.044   1.544   5.819
10043SOL    HW131028   6.995   1.487   5.779
10043SOL    HW231029   0.129   1.532   5.768
10044SOL     OW31030   3.041   2.210   5.522
10044SOL    HW131031   2.995   2.297   5.502
10044SOL    HW231032   3.116   2.197   5.457
10045SOL     OW31033   3.985   1.110   0.053
10045SOL    HW131034   3.894   1.072   0.037
10045SOL    HW231035   4.019   1.077   0.141
10046SOL     OW31036   1.641   5.390   1.404
10046SOL    HW131037   1.686   5.386   1.493
10046SOL    HW231038   1.549   5.430   1.415
10047SOL     OW31039   0.333   3.112   0.139
10047SOL    HW131040   0.296   3.046   0.074
10047SOL    HW231041   0.260   3.147   0.197
10048SOL     OW31042   6.103   6.517   2.587
10048SOL    HW131043   6.019   6.553   2.546
10048SOL    HW231044   6.128   6.431   2.542
10049SOL     OW31045   0.068   1.476   5.476
10049SOL    HW131046   0.127   1.479   5.556
10049SOL    HW231047   0.097   1.546   5.410
10050SOL     OW31048   6.160   3.184   5.837
10050SOL    HW131049   6.109   3.104   5.868
10050SOL    HW231050   6.097   3.258   5.815
10051SOL     OW31051   0.929   3.946   4.347
10051SOL    HW131052   0.994   3.965   4.421
10051SOL    HW231053   0.877   4.029   4.327
10052SOL     OW31054   1.314   0.121   3.064
10052SOL    HW131055   1.283   0.164   2.979
10052SOL    HW231056   1.318   0.190   3.137
10053SOL     OW31057   5.160   5.491   4.537
10053SOL    HW131058   5.204   5.402   4.535
10053SOL    HW231059   5.079   5.489   4.479
10054SOL     OW31060   6.333   4.293   4.589
10054SOL    HW131061   6.381   4.351   4.655
10054SOL    HW231062   6.235   4.311   4.594
10055SOL     OW31063   0.380   1.473   6.391
10055SOL    HW131064   0.428   1.397   6.347
10055SOL    HW231065   0.282   1.468   6.368
10056SOL     OW31066   6.058   3.034   3.889
10056SOL    HW131067   5.975   3.007   3.936
10056SOL    HW231068   6.079   2.968   3.816
10057SOL     OW31069   5.703   4.889   6.160
10057SOL    HW131070   5.637   4.824   6.198
10057SOL    HW231071   5.655   4.954   6.101
10058SOL     OW31072   6.459   4.084   5.674
10058SOL    HW131073   6.509   4.064   5.758
10058SOL    HW231074   6.522   4.095   5.598
10059SOL     OW31075   0.463   0.594   6.724
10059SOL    HW131076   0.369   0.624   6.740
10059SOL    HW231077   0.470   0.496   6.743
10060SOL     OW31078   2.433   2.173   2.672
10060SOL    HW131079   2.522   2.215   2.690
10060SOL    HW231080   2.400   2.204   2.583
10061SOL     OW31081   3.771   0.190   2.866
10061SOL    HW131082   3.718   0.272   2.885
10061SOL    HW231083   3.807   0.194   2.773
10062SOL     OW31084   6.182   0.803   4.435
10062SOL    HW131085   6.118   0.831   4.506
10062SOL    HW231086   6.202   0.706   4.445
10063SOL     OW31087   1.739   3.287   4.981
10063SOL    HW131088   1.754   3.302   5.079
10063SOL    HW231089   1.641   3.283   4.963
10064SOL     OW31090   2.921   6.621   0.441
10064SOL    HW131091   2.958   6.532   0.413
10064SOL    HW231092   2.873   6.663   0.364
10065SOL     OW31093   1.003   1.503   2.093
10065SOL    HW131094   0.970   1.452   2.173
10065SOL    HW231095   1.051   1.440   2.032
10066SOL     OW31096   6.032   3.637   3.621
10066SOL    HW131097   5.990   3.705   3.681
10066SOL    HW231098   6.083   3.571   3.676
10067SOL     OW31099   6.626   2.304   4.781
10067SOL    HW131100   6.589   2.319   4.873
10067SOL    HW231101   6.694   2.231   4.784
10068SOL     OW31102   1.917   3.318   3.075
10068SOL    HW131103   1.871   3.390   3.025
10068SOL    HW231104   1.894   3.229   3.035
10069SOL     OW31105   2.587   5.589   1.184
10069SOL    HW131106   2.624   5.506   1.142
10069SOL    HW231107   2.604   5.586   1.283
10070SOL     OW31108   4.036   5.861   5.374
10070SOL    HW131109   4.134   5.843   5.366
10070SOL    HW231110   3.985   5.784   5.338
10071SOL     OW31111   5.998   0.409   3.789
10071SOL    HW131112   6.008   0.460   3.704
10071SOL    HW231113   6.061   0.331   3.788
10072SOL     OW31114   6.480   2.067   1.689
10072SOL    HW131115   6.507   2.076   1.785
10072SOL    HW231116   6.482   2.157   1.646
10073SOL     OW31117   6.622   4.650   4.577
10073SOL    HW131118   6.660   4.567   4.619
10073SOL    HW231119   6.696   4.715   4.559
10074SOL     OW31120   1.298   4.508   0.177
10074SOL    HW131121   1.397   4.506   0.164
10074SOL    HW231122   1.273   4.594   0.222
10075SOL     OW31123   1.737   3.566   1.933
10075SOL    HW131124   1.717   3.488   1.992
10075SOL    HW231125   1.653   3.620   1.921
10076SOL     OW31126   5.033   5.594   3.929
10076SOL    HW131127   5.125   5.559   3.918
10076SOL    HW231128   5.009   5.595   4.026
10077SOL     OW31129   5.678   3.381   6.103
10077SOL    HW131130   5.737   3.461   6.096
10077SOL    HW231131   5.722   3.303   6.059
10078SOL     OW31132   6.622   6.503   4.999
10078SOL    HW131133   6.551   6.434   5.012
10078SOL    HW231134   6.624   6.532   4.904
10079SOL     OW31135   4.797   2.177   3.465
10079SOL    HW131136   4.707   2.136   3.483
10079SOL    HW231137   4.808   2.190   3.366
10080SOL     OW31138   5.147   0.677   5.921
10080SOL    HW131139   5.105   0.698   6.010
10080SOL    HW231140   5.220   0.742   5.903
10081SOL     OW31141   1.998   3.340   1.158
10081SOL    HW131142   2.094   3.315   1.166
10081SOL    HW231143   1.973   3.348   1.061
10082SOL     OW31144   1.321   4.335   1.168
10082SOL    HW131145   1.355   4.353   1.076
10082SOL    HW231146   1.247   4.268   1.165
10083SOL     OW31147   3.422   4.920   3.519
10083SOL    HW131148   3.376   4.989   3.463
10083SOL    HW231149   3.521   4.935   3.515
10084SOL     OW31150   1.037   0.378   4.478
10084SOL    HW131151   1.125   0.418   4.454
10084SOL    HW231152   0.984   0.361   4.395
10085SOL     OW31153   5.077   6.763   7.023
10085SOL    HW131154   5.021   6.840   0.031
10085SOL    HW231155   5.171   6.775   0.031
10086SOL     OW31156   0.035   6.555   2.970
10086SOL    HW131157   0.028   6.474   3.028
10086SOL    HW231158   7.017   6.535   2.880
10087SOL     OW31159   1.732   6.708   5.315
10087SOL    HW131160   1.673   6.689   5.237
10087SOL    HW231161   1.679   6.755   5.386
10088SOL     OW31162   0.352   2.512   0.317
10088SOL    HW131163   0.398   2.475   0.398
10088SOL    HW231164   0.349   2.612   0.323
10089SOL     OW31165   3.591   1.864   1.839
10089SOL    HW131166   3.558   1.927   1.909
10089SOL    HW231167   3.561   1.771   1.862
10090SOL     OW31168   2.546   5.845   3.035
10090SOL    HW131169   2.634   5.836   2.987
10090SOL    HW231170   2.507   5.755   3.050
10091SOL     OW31171   0.000   3.933   5.490
10091SOL    HW131172   0.032   3.838   5.490
10091SOL    HW231173   6.940   3.940   5.545
10092SOL     OW31174   0.571   1.809   3.915
10092SOL    HW131175   0.669   1.797   3.901
10092SOL    HW231176   0.522   1.739   3.863
10093SOL     OW31177   5.272   4.638   5.570
10093SOL    HW131178   5.176   4.660   5.590
10093SOL    HW231179   5.329   4.717   5.589
10094SOL     OW31180   3.389   1.360   0.429
10094SOL    HW131181   3.323   1.329   0.497
10094SOL    HW231182   3.371   1.315   0.341
10095SOL     OW31183   4.836   3.095   5.287
10095SOL    HW131184   4.880   3.098   5.197
10095SOL    HW231185   4.853   3.006   5.329
10096SOL     OW31186   5.495   2.095   2.960
10096SOL    HW131187   5.558   2.116   3.035
10096SOL    HW231188   5.444   2.177   2.936
10097SOL     OW31189   0.879   1.663   6.645
10097SOL    HW131190   0.880   1.742   6.584
10097SOL    HW231191   0.969   1.654   6.688
10098SOL     OW31192   3.058   5.568   3.717
10098SOL    HW131193   2.971   5.594   3.675
10098SOL    HW231194   3.056   5.470   3.740
10099SOL     OW31195   0.256   4.685   1.142
10099SOL    HW131196   0.163   4.675   1.177
10099SOL    HW231197   0.275   4.610   1.078
10100SOL     OW31198   4.494   5.109   4.035
10100SOL    HW131199   4.417   5.118   4.099
10100SOL    HW231200   4.574   5.154   4.072
10101SOL     OW31201   0.843   2.371   1.792
10101SOL    HW131202   0.791   2.343   1.873
10101SOL    HW231203   0.795   2.445   1.746
10102SOL     OW31204   6.448   5.759   2.841
10102SOL    HW131205   6.454   5.759   2.941
10102SOL    HW231206   6.498   5.681   2.805
10103SOL     OW31207   6.719   6.431   6.263
10103SOL    HW131208   6.754   6.478   6.182
10103SOL    HW231209   6.773   6.347   6.278
10104SOL     OW31210   2.518   0.143   3.878
10104SOL    HW131211   2.535   0.077   3.805
10104SOL    HW231212   2.539   0.103   3.966
10105SOL     OW31213   3.170   1.004   6.035
10105SOL    HW131214   3.087   1.058   6.052
10105SOL    HW231215   3.151   0.908   6.054
10106SOL     OW31216   5.215   5.542   1.236
10106SOL    HW131217   5.129   5.527   1.284
10106SOL    HW231218   5.205   5.517   1.140
10107SOL     OW31219   4.884   4.499   6.565
10107SOL    HW131220   4.791   4.520   6.595
10107SOL    HW231221   4.935   4.583   6.551
10108SOL     OW31222   2.000   2.580   0.303
10108SOL    HW131223   1.956   2.503   0.350
10108SOL    HW231224   1.941   2.660   0.308
10109SOL     OW31225   1.453   2.488   1.176
10109SOL    HW131226   1.431   2.539   1.092
10109SOL    HW231227   1.488   2.551   1.245
10110SOL     OW31228   5.068   6.130   2.665
10110SOL    HW131229   5.017   6.069   2.604
10110SOL    HW231230   5.090   6.081   2.749
10111SOL     OW31231   1.200   2.754   2.148
10111SOL    HW131232   1.217   2.825   2.079
10111SOL    HW231233   1.166   2.672   2.103
10112SOL     OW31234   0.026   1.958   3.283
10112SOL    HW131235   0.067   2.002   3.203
10112SOL    HW231236   0.051   2.009   3.365
10113SOL     OW31237   0.035   0.643   5.911
10113SOL    HW131238   0.006   0.593   5.829
10113SOL    HW231239   0.088   0.582   5.970
10114SOL     OW31240   5.247   1.428   1.634
10114SOL    HW131241   5.200   1.339   1.632
10114SOL    HW231242   5.248   1.467   1.542
10115SOL     OW31243   3.730   2.759   6.134
10115SOL    HW131244   3.632   2.774   6.140
10115SOL    HW231245   3.772   2.776   6.224
10116SOL     OW31246   6.709   0.861   4.579
10116SOL    HW131247   6.744   0.926   4.512
10116SOL    HW231248   6.693   0.908   4.666
10117SOL     OW31249   6.274   4.527   3.715
10117SOL    HW131250   6.370   4.549   3.729
10117SOL    HW231251   6.242   4.567   3.629
10118SOL     OW31252   4.717   6.321   3.926
10118SOL    HW131253   4.706   6.282   4.017
10118SOL    HW231254   4.633   6.308   3.873
10119SOL     OW31255   0.297   5.277   5.379
10119SOL    HW131256   0.214   5.247   5.331
10119SOL    HW231257   0.375   5.274   5.316
10120SOL     OW31258   2.104   3.325   2.866
10120SOL    HW131259   2.074   3.359   2.955
10120SOL    HW231260   2.129   3.228   2.873
10121SOL     OW31261   5.565   4.480   1.264
10121SOL    HW131262   5.657   4.517   1.248
10121SOL    HW231263   5.522   4.529   1.339
10122SOL     OW31264   1.231   0.271   4.213
10122SOL    HW131265   1.134   0.247   4.226
10122SOL    HW231266   1.287   0.190   4.221
10123SOL     OW31267   6.258   5.331   6.735
10123SOL    HW131268   6.285   5.236   6.721
10123SOL    HW231269   6.339   5.386   6.756
10124SOL     OW31270   1.479   5.164   2.898
10124SOL    HW131271   1.522   5.217   2.972
10124SOL    HW231272   1.510   5.069   2.903
10125SOL     OW31273   2.345   1.055   4.752
10125SOL    HW131274   2.273   1.121   4.734
10125SOL    HW231275   2.432   1.090   4.718
10126SOL     OW31276   6.501   6.343   6.490
10126SOL    HW131277   6.576   6.390   6.538
10126SOL    HW231278   6.503   6.366   6.393
10127SOL     OW31279   1.990   6.804   6.144
10127SOL    HW131280   2.028   6.870   6.209
10127SOL    HW231281   2.064   6.767   6.087
10128SOL     OW31282   2.531   1.861   7.009
10128SOL    HW131283   2.535   1.960   6.996
10128SOL    HW231284   2.589   1.836   0.065
10129SOL     OW31285   6.255   1.824   4.832
10129SOL    HW131286   6.189   1.862   4.768
10129SOL    HW231287   6.347   1.856   4.808
10130SOL     OW31288   1.192   0.964   2.664
10130SOL    HW131289   1.198   0.952   2.565
10130SOL    HW231290   1.109   1.015   2.686
10131SOL     OW31291   1.643   6.086   3.628
10131SOL    HW131292   1.594   6.071   3.542
10131SOL    HW231293   1.586   6.141   3.690
10132SOL     OW31294   6.603   0.681   1.342
10132SOL    HW131295   6.594   0.643   1.250
10132SOL    HW231296   6.695   0.663   1.377
10133SOL     OW31297   5.825   6.268   0.016
10133SOL    HW131298   5.739   6.273   0.067
10133SOL    HW231299   5.902   6.266   0.080
10134SOL     OW31300   6.652   6.539   2.258
10134SOL    HW131301   6.591   6.533   2.337
10134SOL    HW231302   6.631   6.465   2.194
10135SOL     OW31303   6.488   0.192   2.482
10135SOL    HW131304   6.431   0.257   2.431
10135SOL    HW231305   6.553   0.148   2.419
10136SOL     OW31306   4.983   2.005   2.808
10136SOL    HW131307   4.984   1.905   2.808
10136SOL    HW231308   4.973   2.039   2.714
10137SOL     OW31309   6.246   5.947   5.766
10137SOL    HW131310   6.259   5.858   5.811
10137SOL    HW231311   6.330   6.000   5.772
10138SOL     OW31312   0.731   2.318   0.702
10138SOL    HW131313   0.742   2.277   0.793
10138SOL    HW231314   0.820   2.326   0.658
10139SOL     OW31315   3.132   3.049   6.613
10139SOL    HW131316   3.145   2.974   6.548
10139SOL    HW231317   3.158   3.018   6.705
10140SOL     OW31318   0.772   6.154   5.577
10140SOL    HW131319   0.805   6.150   5.482
10140SOL    HW231320   0.674   6.133   5.579
10141SOL     OW31321   2.204   3.085   4.681
10141SOL    HW131322   2.240   3.089   4.588
10141SOL    HW231323   2.111   3.049   4.679
10142SOL     OW31324   3.937   6.371   3.983
10142SOL    HW131325   4.005   6.375   4.056
10142SOL    HW231326   3.940   6.282   3.939
10143SOL     OW31327   5.038   2.915   6.834
10143SOL    HW131328   5.063   2.957   6.747
10143SOL    HW231329   5.004   2.822   6.817
10144SOL     OW31330   4.078   0.064   6.536
10144SOL    HW131331   4.084   6.997   6.493
10144SOL    HW231332   3.998   0.067   6.596
10145SOL     OW31333   5.617   6.362   6.233
10145SOL    HW131334   5.590   6.303   6.157
10145SOL    HW231335   5.557   6.441   6.237
10146SOL     OW31336   0.236   2.988   4.559
10146SOL    HW131337   0.142   3.005   4.529
10146SOL    HW231338   0.299   3.038   4.499
10147SOL     OW31339   4.885   5.102   5.613
10147SOL    HW131340   4.792   5.113   5.580
10147SOL    HW231341   4.913   5.185   5.662
10148SOL     OW31342   0.607   4.307   1.264
10148SOL    HW131343   0.703   4.282   1.273
10148SOL    HW231344   0.599   4.395   1.218
10149SOL     OW31345   3.726   4.185   0.440
10149SOL    HW131346   3.775   4.273   0.444
10149SOL    HW231347   3.651   4.192   0.374
10150SOL     OW31348   4.256   4.443   0.870
10150SOL    HW131349   4.353   4.454   0.848
10150SOL    HW231350   4.226   4.352   0.842
10151SOL     OW31351   6.166   0.040   5.984
10151SOL    HW131352   6.261   0.062   5.966
10151SOL    HW231353   6.110   0.067   5.906
10152SOL     OW31354   4.095   6.742   2.203
10152SOL    HW131355   4.016   6.690   2.236
10152SOL    HW231356   4.131   6.798   2.277
10153SOL     OW31357   4.450   4.526   2.365
10153SOL    HW131358   4.354   4.547   2.350
10153SOL    HW231359   4.500   4.530   2.278
10154SOL     OW31360   4.798   5.804   5.471
10154SOL    HW131361   4.758   5.808   5.380
10154SOL    HW231362   4.747   5.864   5.533
10155SOL     OW31363   4.458   1.689   4.552
10155SOL    HW131364   4.542   1.640   4.531
10155SOL    HW231365   4.437   1.680   4.650
10156SOL     OW31366   5.102   1.854   0.464
10156SOL    HW131367   5.049   1.896   0.538
10156SOL    HW231368   5.160   1.782   0.501
10157SOL     OW31369   0.576   3.497   1.554
10157SOL    HW131370   0.591   3.525   1.459
10157SOL    HW231371   0.492   3.443   1.560
10158SOL     OW31372   5.908   4.737   0.193
10158SOL    HW131373   5.925   4.700   0.101
10158SOL    HW231374   5.990   4.785   0.225
10159SOL     OW31375   3.437   2.914   2.435
10159SOL    HW131376   3.431   2.876   2.343
10159SOL    HW231377   3.532   2.915   2.465
10160SOL     OW31378   0.942   5.075   2.843
10160SOL    HW131379   0.906   4.983   2.824
10160SOL    HW231380   0.966   5.120   2.758
10161SOL     OW31381   5.494   3.378   4.885
10161SOL    HW131382   5.535   3.401   4.973
10161SOL    HW231383   5.448   3.459   4.848
10162SOL     OW31384   1.352   3.123   2.411
10162SOL    HW131385   1.372   3.070   2.494
10162SOL    HW231386   1.384   3.072   2.331
10163SOL     OW31387   2.280   6.176   5.406
10163SOL    HW131388   2.359   6.155   5.348
10163SOL    HW231389   2.304   6.249   5.470
10164SOL     OW31390   1.211   1.438   3.407
10164SOL    HW131391   1.118   1.412   3.382
10164SOL    HW231392   1.211   1.482   3.496
10165SOL     OW31393   0.476   3.704   4.506
10165SOL    HW131394   0.495   3.631   4.441
10165SOL    HW231395   0.437   3.665   4.590
10166SOL     OW31396   2.283   0.832   1.496
10166SOL    HW131397   2.195   0.792   1.520
10166SOL    HW231398   2.347   0.819   1.572
10167SOL     OW31399   2.102   1.203   6.856
10167SOL    HW131400   2.017   1.154   6.841
10167SOL    HW231401   2.156   1.156   6.926
10168SOL     OW31402   6.724   0.381   6.464
10168SOL    HW131403   6.661   0.450   6.498
10168SOL    HW231404   6.717   0.375   6.364
10169SOL     OW31405   4.933   3.680   3.820
10169SOL    HW131406   4.897   3.694   3.727
10169SOL    HW231407   4.861   3.643   3.878
10170SOL     OW31408   5.915   5.705   0.263
10170SOL    HW131409   5.943   5.665   0.175
10170SOL    HW231410   5.836   5.656   0.298
10171SOL     OW31411   2.475   3.605   6.155
10171SOL    HW131412   2.558   3.627   6.104
10171SOL    HW231413   2.395   3.632   6.101
10172SOL     OW31414   5.892   0.520   2.963
10172SOL    HW131415   5.907   0.496   2.867
10172SOL    HW231416   5.979   0.514   3.013
10173SOL     OW31417   3.452   4.179   4.890
10173SOL    HW131418   3.434   4.206   4.985
10173SOL    HW231419   3.456   4.261   4.833
10174SOL     OW31420   4.427   5.445   2.612
10174SOL    HW131421   4.424   5.532   2.660
10174SOL    HW231422   4.427   5.370   2.678
10175SOL     OW31423   0.146   0.872   3.699
10175SOL    HW131424   0.181   0.895   3.790
10175SOL    HW231425   0.087   0.791   3.706
10176SOL     OW31426   6.703   1.313   5.395
10176SOL    HW131427   6.656   1.230   5.365
10176SOL    HW231428   6.740   1.361   5.315
10177SOL     OW31429   2.757   0.925   3.647
10177SOL    HW131430   2.724   0.830   3.641
10177SOL    HW231431   2.719   0.967   3.729
10178SOL     OW31432   0.537   1.855   0.602
10178SOL    HW131433   0.503   1.762   0.589
10178SOL    HW231434   0.598   1.857   0.682
10179SOL     OW31435   0.341   4.063   0.548
10179SOL    HW131436   0.392   4.004   0.609
10179SOL    HW231437   0.361   4.038   0.453
10180SOL     OW31438   4.270   6.708   5.716
10180SOL    HW131439   4.224   6.727   5.803
10180SOL    HW231440   4.365   6.738   5.723
10181SOL     OW31441   6.159   3.431   2.617
10181SOL    HW131442   6.231   3.500   2.611
10181SOL    HW231443   6.192   3.344   2.581
10182SOL     OW31444   4.848   1.563   0.950
10182SOL    HW131445   4.787   1.634   0.916
10182SOL    HW231446   4.811   1.525   1.035
10183SOL     OW31447   6.461   1.371   6.473
10183SOL    HW131448   6.476   1.309   6.396
10183SOL    HW231449   6.422   1.320   6.550
10184SOL     OW31450   5.770   1.903   5.599
10184SOL    HW131451   5.811   1.818   5.567
10184SOL    HW231452   5.689   1.924   5.544
10185SOL     OW31453   4.071   5.482   2.572
10185SOL    HW131454   4.135   5.454   2.501
10185SOL    HW231455   4.006   5.408   2.588
10186SOL     OW31456   3.590   3.507   5.821
10186SOL    HW131457   3.615   3.424   5.771
10186SOL    HW231458   3.491   3.519   5.816
10187SOL     OW31459   1.975   4.007   6.670
10187SOL    HW131460   1.906   4.079   6.664
10187SOL    HW231461   1.984   3.963   6.581
10188SOL     OW31462   3.298   0.351   6.333
10188SOL    HW131463   3.271   0.395   6.418
10188SOL    HW231464   3.221   0.349   6.270
10189SOL     OW31465   1.256   1.849   5.891
10189SOL    HW131466   1.200   1.771   5.861
10189SOL    HW231467   1.346   1.817   5.918
10190SOL     OW31468   4.473   5.527   1.369
10190SOL    HW131469   4.525   5.444   1.391
10190SOL    HW231470   4.398   5.537   1.434
10191SOL     OW31471   5.474   6.613   6.264
10191SOL    HW131472   5.528   6.693   6.240
10191SOL    HW231473   5.462   6.609   6.364
10192SOL     OW31474   2.001   1.770   4.138
10192SOL    HW131475   2.060   1.717   4.077
10192SOL    HW231476   1.927   1.711   4.171
10193SOL     OW31477   3.330   3.508   3.393
10193SOL    HW131478   3.361   3.413   3.394
10193SOL    HW231479   3.318   3.538   3.298
10194SOL     OW31480   2.349   0.424   3.428
10194SOL    HW131481   2.326   0.463   3.517
10194SOL    HW231482   2.330   0.325   3.429
10195SOL     OW31483   4.029   6.220   2.567
10195SOL    HW131484   4.078   6.133   2.558
10195SOL    HW231485   4.075   6.290   2.512
10196SOL     OW31486   5.955   2.000   3.969
10196SOL    HW131487   5.998   1.954   3.892
10196SOL    HW231488   6.004   2.085   3.990
10197SOL     OW31489   5.572   0.266   1.752
10197SOL    HW131490   5.489   0.320   1.743
10197SOL    HW231491   5.652   0.327   1.751
10198SOL     OW31492   2.411   6.936   0.867
10198SOL    HW131493   2.324   6.958   0.909
10198SOL    HW231494   2.421   6.837   0.859
10199SOL     OW31495   0.787   1.254   0.755
10199SOL    HW131496   0.857   1.324   0.769
10199SOL    HW231497   0.700   1.298   0.734
10200SOL     OW31498   5.623   4.047   4.805
10200SOL    HW131499   5.571   4.132   4.818
10200SOL    HW231500   5.560   3.971   4.790
10201SOL     OW31501   1.810   5.503   2.529
10201SOL    HW131502   1.822   5.482   2.626
10201SOL    HW231503   1.832   5.599   2.513
10202SOL     OW31504   0.510   3.241   2.641
10202SOL    HW131505   0.518   3.194   2.729
10202SOL    HW231506   0.504   3.173   2.568
10203SOL     OW31507   1.586   3.507   2.552
10203SOL    HW131508   1.499   3.474   2.514
10203SOL    HW231509   1.645   3.539   2.478
10204SOL     OW31510   2.848   4.839   4.855
10204SOL    HW131511   2.853   4.764   4.921
10204SOL    HW231512   2.784   4.909   4.888
10205SOL     OW31513   4.639   1.250   3.032
10205SOL    HW131514   4.659   1.200   2.948
10205SOL    HW231515   4.635   1.348   3.013
10206SOL     OW31516   5.067   6.856   6.457
10206SOL    HW131517   4.968   6.865   6.471
10206SOL    HW231518   5.115   6.883   6.540
10207SOL     OW31519   4.613   0.559   2.528
10207SOL    HW131520   4.707   0.528   2.514
10207SOL    HW231521   4.593   0.564   2.626
10208SOL     OW31522   6.128   4.267   5.359
10208SOL    HW131523   6.128   4.180   5.408
10208SOL    HW231524   6.049   4.271   5.298
10209SOL     OW31525   5.858   0.083   6.398
10209SOL    HW131526   5.867   0.095   6.497
10209SOL    HW231527   5.865   0.172   6.353
10210SOL     OW31528   5.130   5.632   1.734
10210SOL    HW131529   5.191   5.699   1.692
10210SOL    HW231530   5.035   5.665   1.728
10211SOL     OW31531   3.882   5.622   5.260
10211SOL    HW131532   3.795   5.657   5.297
10211SOL    HW231533   3.877   5.619   5.161
10212SOL     OW31534   6.758   0.535   5.026
10212SOL    HW131535   6.678   0.588   5.053
10212SOL    HW231536   6.734   0.437   5.025
10213SOL     OW31537   6.208   0.950   2.999
10213SOL    HW131538   6.239   0.922   2.909
10213SOL    HW231539   6.263   1.028   3.030
10214SOL     OW31540   6.771   0.332   1.851
10214SOL    HW131541   6.869   0.346   1.832
10214SOL    HW231542   6.727   0.421   1.866
10215SOL     OW31543   3.789   3.697   7.000
10215SOL    HW131544   3.726   3.677   0.053
10215SOL    HW231545   3.781   3.625   6.931
10216SOL     OW31546   5.136   0.102   1.497
10216SOL    HW131547   5.118   0.043   1.419
10216SOL    HW231548   5.233   0.094   1.523
10217SOL     OW31549   2.713   1.711   5.294
10217SOL    HW131550   2.664   1.755   5.369
10217SOL    HW231551   2.709   1.770   5.213
10218SOL     OW31552   2.114   1.926   0.538
10218SOL    HW131553   2.171   1.973   0.606
10218SOL    HW231554   2.018   1.935   0.563
10219SOL     OW31555   0.859   3.671   0.071
10219SOL    HW131556   0.886   3.634   0.160
10219SOL    HW231557   0.759   3.677   0.067
10220SOL     OW31558   4.239   1.780   1.137
10220SOL    HW131559   4.140   1.778   1.150
10220SOL    HW231560   4.280   1.846   1.200
10221SOL     OW31561   2.577   0.449   5.209
10221SOL    HW131562   2.496   0.507   5.208
10221SOL    HW231563   2.550   0.353   5.216
10222SOL     OW31564   1.418   5.289   6.185
10222SOL    HW131565   1.461   5.242   6.263
10222SOL    HW231566   1.381   5.376   6.216
10223SOL     OW31567   0.299   4.369   0.445
10223SOL    HW131568   0.389   4.406   0.420
10223SOL    HW231569   0.311   4.279   0.488
10224SOL     OW31570   1.791   6.814   4.363
10224SOL    HW131571   1.885   6.801   4.330
10224SOL    HW231572   1.755   6.728   4.397
10225SOL     OW31573   6.200   6.260   3.985
10225SOL    HW131574   6.185   6.314   3.902
10225SOL    HW231575   6.245   6.174   3.961
10226SOL     OW31576   1.225   1.821   0.611
10226SOL    HW131577   1.179   1.758   0.548
10226SOL    HW231578   1.324   1.806   0.606
10227SOL     OW31579   5.788   5.054   6.487
10227SOL    HW131580   5.771   4.964   6.528
10227SOL    HW231581   5.827   5.042   6.396
10228SOL     OW31582   1.543   5.354   3.566
10228SOL    HW131583   1.497   5.267   3.544
10228SOL    HW231584   1.555   5.407   3.482
10229SOL     OW31585   1.304   6.999   2.356
10229SOL    HW131586   1.325   0.072   2.337
10229SOL    HW231587   1.382   6.958   2.404
10230SOL     OW31588   6.579   0.598   3.607
10230SOL    HW131589   6.641   0.557   3.540
10230SOL    HW231590   6.597   0.560   3.697
10231SOL     OW31591   4.843   0.585   4.728
10231SOL    HW131592   4.778   0.644   4.775
10231SOL    HW231593   4.806   0.560   4.638
10232SOL     OW31594   3.337   2.061   5.008
10232SOL    HW131595   3.333   2.046   4.909
10232SOL    HW231596   3.278   2.138   5.032
10233SOL     OW31597   4.513   1.609   5.960
10233SOL    HW131598   4.527   1.654   6.049
10233SOL    HW231599   4.474   1.675   5.896
10234SOL     OW31600   5.054   6.092   1.843
10234SOL    HW131601   5.136   6.103   1.899
10234SOL    HW231602   5.038   6.175   1.789
10235SOL     OW31603   6.025   0.913   6.590
10235SOL    HW131604   6.068   0.991   6.545
10235SOL    HW231605   5.934   0.938   6.622
10236SOL     OW31606   2.129   5.296   1.805
10236SOL    HW131607   2.056   5.288   1.873
10236SOL    HW231608   2.201   5.357   1.839
10237SOL     OW31609   6.781   3.093   2.721
10237SOL    HW131610   6.800   3.180   2.676
10237SOL    HW231611   6.685   3.069   2.708
10238SOL     OW31612   5.248   4.670   4.596
10238SOL    HW131613   5.319   4.628   4.540
10238SOL    HW231614   5.210   4.749   4.548
10239SOL     OW31615   0.239   4.308   4.118
10239SOL    HW131616   0.238   4.239   4.046
10239SOL    HW231617   0.323   4.362   4.111
10240SOL     OW31618   7.022   4.265   3.714
10240SOL    HW131619   0.096   4.241   3.720
10240SOL    HW231620   7.003   4.343   3.774
10241SOL     OW31621   2.201   1.050   2.013
10241SOL    HW131622   2.249   1.072   2.098
10241SOL    HW231623   2.262   1.067   1.935
10242SOL     OW31624   0.003   7.002   5.922
10242SOL    HW131625   7.007   6.982   6.018
10242SOL    HW231626   0.034   0.074   5.914
10243SOL     OW31627   1.451   5.503   1.877
10243SOL    HW131628   1.512   5.576   1.846
10243SOL    HW231629   1.455   5.497   1.977
10244SOL     OW31630   2.287   6.475   6.763
10244SOL    HW131631   2.250   6.563   6.791
10244SOL    HW231632   2.363   6.450   6.823
10245SOL     OW31633   2.548   2.146   0.007
10245SOL    HW131634   2.536   2.225   6.970
10245SOL    HW231635   2.521   2.170   0.100
10246SOL     OW31636   3.516   3.931   4.550
10246SOL    HW131637   3.566   3.867   4.607
10246SOL    HW231638   3.514   3.898   4.456
10247SOL     OW31639   1.012   4.852   5.215
10247SOL    HW131640   0.974   4.762   5.194
10247SOL    HW231641   1.044   4.896   5.131
10248SOL     OW31642   4.151   0.150   1.721
10248SOL    HW131643   4.221   0.110   1.662
10248SOL    HW231644   4.164   0.249   1.726
10249SOL     OW31645   4.742   1.169   6.665
10249SOL    HW131646   4.661   1.215   6.628
10249SOL    HW231647   4.819   1.183   6.603
10250SOL     OW31648   6.503   0.423   0.090
10250SOL    HW131649   6.570   0.490   0.123
10250SOL    HW231650   6.500   0.425   7.013
10251SOL     OW31651   2.782   4.152   0.228
10251SOL    HW131652   2.764   4.247   0.205
10251SOL    HW231653   2.710   4.094   0.191
10252SOL     OW31654   6.730   5.101   1.872
10252SOL    HW131655   6.815   5.147   1.898
10252SOL    HW231656   6.659   5.169   1.858
10253SOL     OW31657   3.644   5.308   6.955
10253SOL    HW131658   3.607   5.387   6.908
10253SOL    HW231659   3.744   5.315   6.959
10254SOL     OW31660   2.457   2.146   5.109
10254SOL    HW131661   2.399   2.065   5.096
10254SOL    HW231662   2.418   2.223   5.059
10255SOL     OW31663   3.254   6.040   2.525
10255SOL    HW131664   3.326   6.067   2.588
10255SOL    HW231665   3.235   6.116   2.462
10256SOL     OW31666   5.752   6.644   6.429
10256SOL    HW131667   5.717   6.661   6.337
10256SOL    HW231668   5.770   6.731   6.475
10257SOL     OW31669   1.435   5.823   5.781
10257SOL    HW131670   1.423   5.775   5.694
10257SOL    HW231671   1.482   5.910   5.764
10258SOL     OW31672   4.060   0.789   3.065
10258SOL    HW131673   4.097   0.828   3.149
10258SOL    HW231674   3.977   0.839   3.039
10259SOL     OW31675   6.904   4.202   3.071
10259SOL    HW131676   6.816   4.247   3.056
10259SOL    HW231677   6.911   4.173   3.166
10260SOL     OW31678   0.963   6.970   1.579
10260SOL    HW131679   0.916   0.025   1.619
10260SOL    HW231680   1.009   6.918   1.652
10261SOL     OW31681   1.411   5.851   2.467
10261SOL    HW131682   1.439   5.820   2.558
10261SOL    HW231683   1.353   5.932   2.476
10262SOL     OW31684   1.447   5.121   4.681
10262SOL    HW131685   1.403   5.174   4.753
10262SOL    HW231686   1.543   5.105   4.706
10263SOL     OW31687   6.416   2.371   6.325
10263SOL    HW131688   6.433   2.345   6.420
10263SOL    HW231689   6.433   2.469   6.313
10264SOL     OW31690   0.325   0.526   5.780
10264SOL    HW131691   0.261   0.475   5.722
10264SOL    HW231692   0.419   0.498   5.759
10265SOL     OW31693   4.196   1.880   2.082
10265SOL    HW131694   4.177   1.785   2.105
10265SOL    HW231695   4.205   1.934   2.165
10266SOL     OW31696   2.981   4.353   6.697
10266SOL    HW131697   3.036   4.277   6.665
10266SOL    HW231698   3.035   4.437   6.697
10267SOL     OW31699   6.656   2.225   6.233
10267SOL    HW131700   6.587   2.291   6.262
10267SOL    HW231701   6.714   2.265   6.162
10268SOL     OW31702   5.765   5.308   1.674
10268SOL    HW131703   5.848   5.283   1.624
10268SOL    HW231704   5.762   5.257   1.760
10269SOL     OW31705   2.795   2.928   6.133
10269SOL    HW131706   2.895   2.934   6.134
10269SOL    HW231707   2.765   2.865   6.205
10270SOL     OW31708   2.076   5.733   0.576
10270SOL    HW131709   2.148   5.715   0.643
10270SOL    HW231710   2.008   5.794   0.615
10271SOL     OW31711   4.523   4.603   1.134
10271SOL    HW131712   4.490   4.515   1.100
10271SOL    HW231713   4.455   4.643   1.195
10272SOL     OW31714   0.672   0.915   5.825
10272SOL    HW131715   0.637   0.998   5.868
10272SOL    HW231716   0.596   0.855   5.801
10273SOL     OW31717   4.251   5.742   4.470
10273SOL    HW131718   4.249   5.649   4.507
10273SOL    HW231719   4.321   5.748   4.399
10274SOL     OW31720   1.336   5.533   5.956
10274SOL    HW131721   1.310   5.524   6.052
10274SOL    HW231722   1.271   5.594   5.910
10275SOL     OW31723   0.907   6.351   2.342
10275SOL    HW131724   0.872   6.445   2.334
10275SOL    HW231725   0.830   6.288   2.356
10276SOL     OW31726   6.322   5.408   6.329
10276SOL    HW131727   6.422   5.410   6.331
10276SOL    HW231728   6.287   5.438   6.417
10277SOL     OW31729   2.450   5.865   4.533
10277SOL    HW131730   2.409   5.921   4.461
10277SOL    HW231731   2.384   5.797   4.563
10278SOL     OW31732   6.000   0.582   5.420
10278SOL    HW131733   6.007   0.534   5.508
10278SOL    HW231734   5.962   0.520   5.351
10279SOL     OW31735   3.309   6.940   4.099
10279SOL    HW131736   3.332   6.847   4.130
10279SOL    HW231737   3.258   6.934   4.013
10280SOL     OW31738   1.960   3.514   6.752
10280SOL    HW131739   2.010   3.582   6.697
10280SOL    HW231740   1.878   3.557   6.791
10281SOL     OW31741   4.377   0.842   3.666
10281SOL    HW131742   4.377   0.745   3.640
10281SOL    HW231743   4.385   0.899   3.583
10282SOL     OW31744   0.971   1.780   4.089
10282SOL    HW131745   0.921   1.696   4.110
10282SOL    HW231746   0.965   1.843   4.166
10283SOL     OW31747   1.113   4.020   6.688
10283SOL    HW131748   1.046   4.072   6.741
10283SOL    HW231749   1.199   4.015   6.739
10284SOL     OW31750   5.575   3.014   5.197
10284SOL    HW131751   5.617   2.940   5.251
10284SOL    HW231752   5.503   2.975   5.139
10285SOL     OW31753   5.884   0.127   0.865
10285SOL    HW131754   5.983   0.131   0.868
10285SOL    HW231755   5.856   0.050   0.807
10286SOL     OW31756   4.091   0.741   3.380
10286SOL    HW131757   4.097   0.836   3.350
10286SOL    HW231758   4.039   0.688   3.314
10287SOL     OW31759   2.709   6.299   1.632
10287SOL    HW131760   2.778   6.229   1.651
10287SOL    HW231761   2.632   6.288   1.695
10288SOL     OW31762   5.936   6.568   3.956
10288SOL    HW131763   5.989   6.624   4.020
10288SOL    HW231764   5.876   6.627   3.901
10289SOL     OW31765   3.423   0.915   1.726
10289SOL    HW131766   3.493   0.895   1.656
10289SOL    HW231767   3.447   0.869   1.811
10290SOL     OW31768   3.823   3.995   2.445
10290SOL    HW131769   3.852   3.979   2.539
10290SOL    HW231770   3.899   4.033   2.392
10291SOL     OW31771   3.382   0.656   5.491
10291SOL    HW131772   3.379   0.563   5.529
10291SOL    HW231773   3.292   0.680   5.456
10292SOL     OW31774   0.804   1.114   4.780
10292SOL    HW131775   0.845   1.195   4.738
10292SOL    HW231776   0.819   1.117   4.879
10293SOL     OW31777   2.009   6.002   3.316
10293SOL    HW131778   2.067   6.052   3.252
10293SOL    HW231779   2.057   5.990   3.403
10294SOL     OW31780   5.808   1.544   3.217
10294SOL    HW131781   5.816   1.618   3.151
10294SOL    HW231782   5.721   1.496   3.203
10295SOL     OW31783   0.616   5.424   6.224
10295SOL    HW131784   0.519   5.449   6.223
10295SOL    HW231785   0.656   5.445   6.135
10296SOL     OW31786   6.547   2.499   0.481
10296SOL    HW131787   6.575   2.519   0.387
10296SOL    HW231788   6.481   2.425   0.481
10297SOL     OW31789   1.838   5.469   4.939
10297SOL    HW131790   1.818   5.375   4.967
10297SOL    HW231791   1.931   5.494   4.967
10298SOL     OW31792   4.894   3.376   4.007
10298SOL    HW131793   4.951   3.442   3.958
10298SOL    HW231794   4.873   3.412   4.098
10299SOL     OW31795   5.227   4.417   3.195
10299SOL    HW131796   5.301   4.379   3.140
10299SOL    HW231797   5.265   4.475   3.268
10300SOL     OW31798   1.076   4.920   2.541
10300SOL    HW131799   1.014   4.973   2.483
10300SOL    HW231800   1.127   4.855   2.483
10301SOL     OW31801   5.287   1.525   1.371
10301SOL    HW131802   5.370   1.579   1.386
10301SOL    HW231803   5.226   1.575   1.311
10302SOL     OW31804   1.884   5.630   3.289
10302SOL    HW131805   1.892   5.541   3.244
10302SOL    HW231806   1.968   5.651   3.338
10303SOL     OW31807   3.163   2.922   1.389
10303SOL    HW131808   3.240   2.966   1.436
10303SOL    HW231809   3.179   2.924   1.291
10304SOL     OW31810   6.694   6.675   2.656
10304SOL    HW131811   6.697   6.579   2.628
10304SOL    HW231812   6.671   6.732   2.577
10305SOL     OW31813   1.654   5.744   1.353
10305SOL    HW131814   1.611   5.718   1.439
10305SOL    HW231815   1.737   5.798   1.371
10306SOL     OW31816   4.418   6.079   0.041
10306SOL    HW131817   4.355   6.002   0.030
10306SOL    HW231818   4.412   6.138   6.984
10307SOL     OW31819   2.130   1.554   5.908
10307SOL    HW131820   2.218   1.589   5.939
10307SOL    HW231821   2.103   1.477   5.966
10308SOL     OW31822   3.508   5.806   3.607
10308SOL    HW131823   3.463   5.895   3.604
10308SOL    HW231824   3.454   5.743   3.662
10309SOL     OW31825   0.031   6.337   3.119
10309SOL    HW131826   0.097   6.278   3.071
10309SOL    HW231827   0.029   6.313   3.216
10310SOL     OW31828   3.655   4.074   3.321
10310SOL    HW131829   3.626   3.985   3.356
10310SOL    HW231830   3.688   4.131   3.397
10311SOL     OW31831   0.061   5.288   0.385
10311SOL    HW131832   6.996   5.246   0.409
10311SOL    HW231833   0.093   5.344   0.461
10312SOL     OW31834   2.121   4.504   1.179
10312SOL    HW131835   2.050   4.539   1.240
10312SOL    HW231836   2.108   4.405   1.167
10313SOL     OW31837   5.461   6.599   3.192
10313SOL    HW131838   5.426   6.616   3.100
10313SOL    HW231839   5.558   6.625   3.196
10314SOL     OW31840   6.759   5.823   0.813
10314SOL    HW131841   6.724   5.794   0.902
10314SOL    HW231842   6.714   5.771   0.741
10315SOL     OW31843   6.227   5.394   4.761
10315SOL    HW131844   6.190   5.340   4.685
10315SOL    HW231845   6.290   5.338   4.815
10316SOL     OW31846   0.111   4.749   3.025
10316SOL    HW131847   0.184   4.805   3.065
10316SOL    HW231848   0.023   4.780   3.060
10317SOL     OW31849   3.879   4.818   0.251
10317SOL    HW131850   3.886   4.807   0.152
10317SOL    HW231851   3.970   4.836   0.289
10318SOL     OW31852   6.195   5.429   2.258
10318SOL    HW131853   6.123   5.393   2.318
10318SOL    HW231854   6.250   5.495   2.309
10319SOL     OW31855   6.095   6.515   2.986
10319SOL    HW131856   6.146   6.545   2.905
10319SOL    HW231857   6.129   6.563   3.067
10320SOL     OW31858   5.868   6.869   1.032
10320SOL    HW131859   5.861   6.954   0.978
10320SOL    HW231860   5.874   6.791   0.970
10321SOL     OW31861   4.567   5.493   3.961
10321SOL    HW131862   4.469   5.500   3.940
10321SOL    HW231863   4.617   5.469   3.878
10322SOL     OW31864   5.931   2.841   6.986
10322SOL    HW131865   5.918   2.795   0.051
10322SOL    HW231866   5.973   2.777   6.921
10323SOL     OW31867   5.235   2.965   4.915
10323SOL    HW131868   5.256   3.052   4.869
10323SOL    HW231869   5.156   2.978   4.976
10324SOL     OW31870   2.954   3.341   3.737
10324SOL    HW131871   2.973   3.394   3.654
10324SOL    HW231872   2.911   3.400   3.805
10325SOL     OW31873   0.069   3.817   3.306
10325SOL    HW131874   0.135   3.815   3.382
10325SOL    HW231875   7.005   3.779   3.337
10326SOL     OW31876   5.822   1.983   0.597
10326SOL    HW131877   5.734   2.011   0.559
10326SOL    HW231878   5.876   1.938   0.525
10327SOL     OW31879   6.678   1.103   3.153
10327SOL    HW131880   6.603   1.048   3.190
10327SOL    HW231881   6.706   1.171   3.222
10328SOL     OW31882   6.276   2.822   1.878
10328SOL    HW131883   6.355   2.832   1.817
10328SOL    HW231884   6.233   2.733   1.863
10329SOL     OW31885   3.700   6.726   2.445
10329SOL    HW131886   3.635   6.657   2.413
10329SOL    HW231887   3.789   6.709   2.403
10330SOL     OW31888   4.006   5.174   1.247
10330SOL    HW131889   3.981   5.085   1.285
10330SOL    HW231890   4.022   5.239   1.321
10331SOL     OW31891   6.111   0.707   3.115
10331SOL    HW131892   6.144   0.612   3.115
10331SOL    HW231893   6.182   0.767   3.076
10332SOL     OW31894   0.305   2.816   6.551
10332SOL    HW131895   0.337   2.773   6.635
10332SOL    HW231896   0.375   2.807   6.480
10333SOL     OW31897   4.548   4.448   4.731
10333SOL    HW131898   4.449   4.460   4.725
10333SOL    HW231899   4.578   4.383   4.662
10334SOL     OW31900   1.855   4.554   5.180
10334SOL    HW131901   1.911   4.618   5.233
10334SOL    HW231902   1.890   4.461   5.191
10335SOL     OW31903   2.178   5.242   1.514
10335SOL    HW131904   2.171   5.143   1.508
10335SOL    HW231905   2.182   5.270   1.610
10336SOL     OW31906   4.021   6.885   2.517
10336SOL    HW131907   4.056   6.798   2.552
10336SOL    HW231908   4.088   6.925   2.455
10337SOL     OW31909   0.743   5.076   5.219
10337SOL    HW131910   0.731   4.995   5.163
10337SOL    HW231911   0.823   5.064   5.278
10338SOL     OW31912   3.188   5.982   3.176
10338SOL    HW131913   3.204   5.979   3.077
10338SOL    HW231914   3.238   5.907   3.220
10339SOL     OW31915   3.042   5.704   0.933
10339SOL    HW131916   2.975   5.752   0.990
10339SOL    HW231917   3.134   5.737   0.955
10340SOL     OW31918   2.193   0.338   0.203
10340SOL    HW131919   2.290   0.334   0.179
10340SOL    HW231920   2.138   0.334   0.120
10341SOL     OW31921   1.990   1.141   2.528
10341SOL    HW131922   1.914   1.148   2.593
10341SOL    HW231923   1.958   1.165   2.437
10342SOL     OW31924   2.476   6.279   5.006
10342SOL    HW131925   2.527   6.227   4.939
10342SOL    HW231926   2.410   6.338   4.959
10343SOL     OW31927   2.126   3.403   5.253
10343SOL    HW131928   2.140   3.495   5.218
10343SOL    HW231929   2.117   3.339   5.176
10344SOL     OW31930   3.919   4.920   5.043
10344SOL    HW131931   3.968   4.916   4.956
10344SOL    HW231932   3.913   5.015   5.073
10345SOL     OW31933   1.886   1.057   6.805
10345SOL    HW131934   1.849   1.043   6.713
10345SOL    HW231935   1.819   1.026   6.872
10346SOL     OW31936   5.112   5.750   6.828
10346SOL    HW131937   5.074   5.774   6.739
10346SOL    HW231938   5.137   5.834   6.877
10347SOL     OW31939   5.578   1.725   2.148
10347SOL    HW131940   5.533   1.667   2.216
10347SOL    HW231941   5.512   1.751   2.078
10348SOL     OW31942   0.332   5.594   5.490
10348SOL    HW131943   0.298   5.592   5.583
10348SOL    HW231944   0.311   5.507   5.444
10349SOL     OW31945   6.951   2.060   0.511
10349SOL    HW131946   6.873   2.119   0.493
10349SOL    HW231947   0.002   2.084   0.448
10350SOL     OW31948   2.029   4.600   4.849
10350SOL    HW131949   2.023   4.640   4.940
10350SOL    HW231950   2.045   4.501   4.857
10351SOL     OW31951   4.707   4.251   4.906
10351SOL    HW131952   4.612   4.275   4.887
10351SOL    HW231953   4.767   4.313   4.856
10352SOL     OW31954   5.361   1.764   0.199
10352SOL    HW131955   5.267   1.741   0.174
10352SOL    HW231956   5.363   1.854   0.242
10353SOL     OW31957   6.541   2.756   3.707
10353SOL    HW131958   6.526   2.768   3.805
10353SOL    HW231959   6.640   2.747   3.690
10354SOL     OW31960   0.412   3.232   0.700
10354SOL    HW131961   0.406   3.180   0.785
10354SOL    HW231962   0.504   3.221   0.662
10355SOL     OW31963   0.733   1.701   1.117
10355SOL    HW131964   0.664   1.644   1.161
10355SOL    HW231965   0.821   1.653   1.117
10356SOL     OW31966   6.490   3.633   6.406
10356SOL    HW131967   6.551   3.635   6.485
10356SOL    HW231968   6.541   3.656   6.323
10357SOL     OW31969   1.401   2.988   5.723
10357SOL    HW131970   1.362   2.967   5.813
10357SOL    HW231971   1.398   2.906   5.666
10358SOL     OW31972   0.580   2.290   2.736
10358SOL    HW131973   0.625   2.211   2.778
10358SOL    HW231974   0.618   2.374   2.775
10359SOL     OW31975   6.312   1.721   2.524
10359SOL    HW131976   6.269   1.641   2.483
10359SOL    HW231977   6.403   1.734   2.483
10360SOL     OW31978   5.955   4.380   1.605
10360SOL    HW131979   5.998   4.446   1.668
10360SOL    HW231980   6.001   4.385   1.517
10361SOL     OW31981   0.634   1.762   1.971
10361SOL    HW131982   0.705   1.715   1.920
10361SOL    HW231983   0.544   1.731   1.939
10362SOL     OW31984   0.935   5.029   1.793
10362SOL    HW131985   0.909   5.046   1.698
10362SOL    HW231986   0.992   5.105   1.826
10363SOL     OW31987   5.310   4.334   6.731
10363SOL    HW131988   5.362   4.316   6.815
10363SOL    HW231989   5.217   4.299   6.741
10364SOL     OW31990   5.747   4.752   2.245
10364SOL    HW131991   5.733   4.721   2.340
10364SOL    HW231992   5.765   4.672   2.187
10365SOL     OW31993   5.670   5.547   0.374
10365SOL    HW131994   5.589   5.587   0.416
10365SOL    HW231995   5.644   5.497   0.292
10366SOL     OW31996   2.530   6.137   3.692
10366SOL    HW131997   2.548   6.233   3.709
10366SOL    HW231998   2.594   6.102   3.623
10367SOL     OW31999   5.737   1.286   1.506
10367SOL    HW132000   5.649   1.308   1.548
10367SOL    HW232001   5.728   1.201   1.452
10368SOL     OW32002   2.470   6.014   2.589
10368SOL    HW132003   2.415   5.953   2.532
10368SOL    HW232004   2.485   6.101   2.541
10369SOL     OW32005   2.848   0.291   6.384
10369SOL    HW132006   2.905   0.243   6.451
10369SOL    HW232007   2.777   0.343   6.433
10370SOL     OW32008   0.960   0.599   5.854
10370SOL    HW132009   1.019   0.625   5.930
10370SOL    HW232010   0.925   0.682   5.810
10371SOL     OW32011   4.010   5.630   2.806
10371SOL    HW132012   4.032   5.575   2.725
10371SOL    HW232013   4.095   5.662   2.848
10372SOL     OW32014   3.051   6.646   1.684
10372SOL    HW132015   3.056   6.618   1.588
10372SOL    HW232016   3.143   6.644   1.724
10373SOL     OW32017   0.923   1.407   5.467
10373SOL    HW132018   0.973   1.325   5.439
10373SOL    HW232019   0.986   1.484   5.474
10374SOL     OW32020   4.338   5.745   3.913
10374SOL    HW132021   4.287   5.810   3.969
10374SOL    HW232022   4.287   5.660   3.907
10375SOL     OW32023   2.358   4.070   0.035
10375SOL    HW132024   2.367   4.167   0.059
10375SOL    HW232025   2.296   4.060   6.980
10376SOL     OW32026   1.824   4.682   3.183
10376SOL    HW132027   1.884   4.614   3.142
10376SOL    HW232028   1.728   4.657   3.168
10377SOL     OW32029   1.673   0.301   2.589
10377SOL    HW132030   1.724   0.373   2.541
10377SOL    HW232031   1.682   0.215   2.540
10378SOL     OW32032   0.220   4.851   3.652
10378SOL    HW132033   0.290   4.791   3.612
10378SOL    HW232034   0.172   4.803   3.724
10379SOL     OW32035   1.909   6.069   4.573
10379SOL    HW132036   1.963   6.099   4.652
10379SOL    HW232037   1.841   6.002   4.604
10380SOL     OW32038   2.312   2.750   4.958
10380SOL    HW132039   2.359   2.826   5.005
10380SOL    HW232040   2.301   2.674   5.022
10381SOL     OW32041   4.605   4.759   1.977
10381SOL    HW132042   4.689   4.730   1.932
10381SOL    HW232043   4.561   4.830   1.923
10382SOL     OW32044   3.970   5.230   2.273
10382SOL    HW132045   3.891   5.214   2.214
10382SOL    HW232046   4.019   5.144   2.286
10383SOL     OW32047   1.997   4.220   0.603
10383SOL    HW132048   1.931   4.283   0.562
10383SOL    HW232049   2.054   4.180   0.531
10384SOL     OW32050   6.118   6.395   1.504
10384SOL    HW132051   6.096   6.384   1.600
10384SOL    HW232052   6.037   6.425   1.453
10385SOL     OW32053   4.536   4.669   6.893
10385SOL    HW132054   4.621   4.695   6.940
10385SOL    HW232055   4.480   4.614   6.955
10386SOL     OW32056   0.070   1.481   0.206
10386SOL    HW132057   0.088   1.540   0.285
10386SOL    HW232058   0.150   1.483   0.145
10387SOL     OW32059   4.995   2.910   2.096
10387SOL    HW132060   4.904   2.940   2.068
10387SOL    HW232061   5.052   2.989   2.114
10388SOL     OW32062   2.980   1.043   5.716
10388SOL    HW132063   2.884   1.016   5.730
10388SOL    HW232064   3.000   1.124   5.770
10389SOL     OW32065   0.944   3.431   0.547
10389SOL    HW132066   0.853   3.399   0.573
10389SOL    HW232067   1.013   3.363   0.572
10390SOL     OW32068   2.627   2.304   1.359
10390SOL    HW132069   2.602   2.302   1.456
10390SOL    HW232070   2.635   2.400   1.329
10391SOL     OW32071   5.256   7.019   4.779
10391SOL    HW132072   5.223   6.930   4.809
10391SOL    HW232073   5.246   0.003   4.680
10392SOL     OW32074   6.839   5.202   4.179
10392SOL    HW132075   6.903   5.198   4.103
10392SOL    HW232076   6.760   5.143   4.160
10393SOL     OW32077   1.816   4.250   3.575
10393SOL    HW132078   1.790   4.344   3.552
10393SOL    HW232079   1.859   4.249   3.665
10394SOL     OW32080   2.686   5.761   4.335
10394SOL    HW132081   2.665   5.808   4.249
10394SOL    HW232082   2.619   5.787   4.404
10395SOL     OW32083   0.281   6.933   0.521
10395SOL    HW132084   0.221   6.991   0.576
10395SOL    HW232085   0.317   6.985   0.444
10396SOL     OW32086   2.790   1.530   5.046
10396SOL    HW132087   2.853   1.596   5.007
10396SOL    HW232088   2.719   1.577   5.099
10397SOL     OW32089   2.998   2.122   2.167
10397SOL    HW132090   3.083   2.156   2.206
10397SOL    HW232091   2.949   2.198   2.123
10398SOL     OW32092   0.003   2.606   1.640
10398SOL    HW132093   0.101   2.626   1.638
10398SOL    HW232094   7.002   2.547   1.564
10399SOL     OW32095   6.715   3.099   1.834
10399SOL    HW132096   6.728   3.128   1.739
10399SOL    HW232097   6.618   3.089   1.853
10400SOL     OW32098   3.650   6.698   0.605
10400SOL    HW132099   3.558   6.668   0.629
10400SOL    HW232100   3.647   6.790   0.565
10401SOL     OW32101   6.175   1.062   4.281
10401SOL    HW132102   6.188   0.975   4.327
10401SOL    HW232103   6.134   1.128   4.344
10402SOL     OW32104   6.697   2.897   4.534
10402SOL    HW132105   6.618   2.837   4.526
10402SOL    HW232106   6.723   2.930   4.443
10403SOL     OW32107   2.875   0.449   3.509
10403SOL    HW132108   2.869   0.525   3.443
10403SOL    HW232109   2.935   0.379   3.473
10404SOL     OW32110   0.132   6.622   5.844
10404SOL    HW132111   0.168   6.552   5.782
10404SOL    HW232112   0.158   6.712   5.810
10405SOL     OW32113   0.267   1.467   5.665
10405SOL    HW132114   0.324   1.452   5.745
10405SOL    HW232115   0.325   1.487   5.586
10406SOL     OW32116   3.260   4.919   1.547
10406SOL    HW132117   3.224   4.862   1.620
10406SOL    HW232118   3.311   4.996   1.586
10407SOL     OW32119   3.425   6.625   6.566
10407SOL    HW132120   3.366   6.561   6.615
10407SOL    HW232121   3.374   6.668   6.492
10408SOL     OW32122   4.568   1.024   0.113
10408SOL    HW132123   4.622   1.049   0.032
10408SOL    HW232124   4.488   1.083   0.119
10409SOL     OW32125   6.029   4.679   0.763
10409SOL    HW132126   6.104   4.626   0.723
10409SOL    HW232127   5.952   4.618   0.780
10410SOL     OW32128   5.753   1.254   0.083
10410SOL    HW132129   5.775   1.229   7.012
10410SOL    HW232130   5.653   1.254   0.095
10411SOL     OW32131   2.529   5.350   3.254
10411SOL    HW132132   2.589   5.336   3.175
10411SOL    HW232133   2.562   5.296   3.331
10412SOL     OW32134   6.209   1.252   0.892
10412SOL    HW132135   6.129   1.261   0.950
10412SOL    HW232136   6.219   1.156   0.864
10413SOL     OW32137   6.994   1.934   1.434
10413SOL    HW132138   6.905   1.968   1.465
10413SOL    HW232139   0.008   1.998   1.366
10414SOL     OW32140   5.131   3.386   5.103
10414SOL    HW132141   5.108   3.292   5.080
10414SOL    HW232142   5.058   3.426   5.158
10415SOL     OW32143   0.601   5.627   6.428
10415SOL    HW132144   0.584   5.704   6.366
10415SOL    HW232145   0.633   5.548   6.375
10416SOL     OW32146   5.753   2.585   4.586
10416SOL    HW132147   5.816   2.662   4.577
10416SOL    HW232148   5.701   2.595   4.672
10417SOL     OW32149   3.181   5.139   4.446
10417SOL    HW132150   3.116   5.071   4.412
10417SOL    HW232151   3.273   5.100   4.445
10418SOL     OW32152   0.185   4.153   5.569
10418SOL    HW132153   0.115   4.093   5.529
10418SOL    HW232154   0.155   4.248   5.562
10419SOL     OW32155   0.814   0.686   0.358
10419SOL    HW132156   0.874   0.736   0.295
10419SOL    HW232157   0.773   0.751   0.423
10420SOL     OW32158   0.084   3.404   2.685
10420SOL    HW132159   0.106   3.381   2.780
10420SOL    HW232160   0.131   3.341   2.623
10421SOL     OW32161   1.399   1.008   3.267
10421SOL    HW132162   1.479   0.951   3.251
10421SOL    HW232163   1.426   1.091   3.316
10422SOL     OW32164   6.597   2.701   5.617
10422SOL    HW132165   6.696   2.703   5.616
10422SOL    HW232166   6.562   2.713   5.524
10423SOL     OW32167   4.897   4.679   4.403
10423SOL    HW132168   4.951   4.597   4.422
10423SOL    HW232169   4.815   4.678   4.461
10424SOL     OW32170   5.372   1.901   6.647
10424SOL    HW132171   5.330   1.890   6.557
10424SOL    HW232172   5.430   1.982   6.647
10425SOL     OW32173   1.554   6.858   2.499
10425SOL    HW132174   1.504   6.897   2.576
10425SOL    HW232175   1.550   6.758   2.503
10426SOL     OW32176   6.317   4.213   0.458
10426SOL    HW132177   6.252   4.233   0.384
10426SOL    HW232178   6.403   4.182   0.419
10427SOL     OW32179   4.480   2.063   0.868
10427SOL    HW132180   4.416   1.990   0.846
10427SOL    HW232181   4.449   2.149   0.827
10428SOL     OW32182   3.913   0.559   4.630
10428SOL    HW132183   3.870   0.472   4.607
10428SOL    HW232184   3.905   0.575   4.729
10429SOL     OW32185   6.809   5.616   1.584
10429SOL    HW132186   6.907   5.633   1.572
10429SOL    HW232187   6.791   5.518   1.569
10430SOL     OW32188   4.065   6.977   3.125
10430SOL    HW132189   4.016   6.966   3.039
10430SOL    HW232190   4.158   7.012   3.107
10431SOL     OW32191   2.997   0.332   5.507
10431SOL    HW132192   3.019   0.398   5.435
10431SOL    HW232193   2.907   0.291   5.488
10432SOL     OW32194   6.382   0.815   3.941
10432SOL    HW132195   6.356   0.766   3.857
10432SOL    HW232196   6.325   0.897   3.950
10433SOL     OW32197   2.293   6.513   2.015
10433SOL    HW132198   2.212   6.485   1.962
10433SOL    HW232199   2.345   6.432   2.042
10434SOL     OW32200   3.422   0.044   3.384
10434SOL    HW132201   3.372   0.052   3.470
10434SOL    HW232202   3.506   7.014   3.398
10435SOL     OW32203   6.557   6.651   5.240
10435SOL    HW132204   6.636   6.600   5.207
10435SOL    HW232205   6.503   6.685   5.163
10436SOL     OW32206   0.483   5.151   4.191
10436SOL    HW132207   0.506   5.082   4.122
10436SOL    HW232208   0.508   5.118   4.282
10437SOL     OW32209   6.052   5.179   5.813
10437SOL    HW132210   5.967   5.220   5.845
10437SOL    HW232211   6.032   5.104   5.749
10438SOL     OW32212   5.461   6.555   0.387
10438SOL    HW132213   5.458   6.647   0.427
10438SOL    HW232214   5.552   6.538   0.349
10439SOL     OW32215   3.627   0.292   5.469
10439SOL    HW132216   3.700   0.228   5.446
10439SOL    HW232217   3.666   0.383   5.484
10440SOL     OW32218   0.974   0.038   0.966
10440SOL    HW132219   0.882   0.066   0.941
10440SOL    HW232220   0.971   7.003   1.048
10441SOL     OW32221   5.264   1.619   6.676
10441SOL    HW132222   5.306   1.710   6.673
10441SOL    HW232223   5.328   1.555   6.719
10442SOL     OW32224   3.374   5.335   5.484
10442SOL    HW132225   3.276   5.319   5.473
10442SOL    HW232226   3.418   5.251   5.515
10443SOL     OW32227   6.048   3.950   4.835
10443SOL    HW132228   6.033   3.857   4.871
10443SOL    HW232229   5.982   3.969   4.763
10444SOL     OW32230   3.578   5.310   4.699
10444SOL    HW132231   3.514   5.256   4.754
10444SOL    HW232232   3.601   5.395   4.747
10445SOL     OW32233   6.611   5.305   4.787
10445SOL    HW132234   6.705   5.273   4.798
10445SOL    HW232235   6.592   5.318   4.690
10446SOL     OW32236   0.534   4.390   6.669
10446SOL    HW132237   0.491   4.307   6.635
10446SOL    HW232238   0.477   4.430   6.740
10447SOL     OW32239   6.786   2.174   1.161
10447SOL    HW132240   6.716   2.108   1.189
10447SOL    HW232241   6.757   2.266   1.189
10448SOL     OW32242   3.912   3.753   1.184
10448SOL    HW132243   3.867   3.754   1.095
10448SOL    HW232244   3.852   3.792   1.253
10449SOL     OW32245   2.536   5.270   4.500
10449SOL    HW132246   2.439   5.286   4.485
10449SOL    HW232247   2.570   5.333   4.570
10450SOL     OW32248   0.140   2.381   0.195
10450SOL    HW132249   0.236   2.407   0.208
10450SOL    HW232250   0.081   2.443   0.246
10451SOL     OW32251   2.583   4.566   2.946
10451SOL    HW132252   2.521   4.621   3.000
10451SOL    HW232253   2.532   4.497   2.895
10452SOL     OW32254   0.691   3.651   3.994
10452SOL    HW132255   0.650   3.565   4.023
10452SOL    HW232256   0.791   3.645   4.000
10453SOL     OW32257   5.830   5.592   1.381
10453SOL    HW132258   5.902   5.565   1.318
10453SOL    HW232259   5.865   5.591   1.475
10454SOL     OW32260   5.335   3.003   2.344
10454SOL    HW132261   5.335   3.000   2.244
10454SOL    HW232262   5.244   2.984   2.378
10455SOL     OW32263   0.439   5.339   3.782
10455SOL    HW132264   0.538   5.329   3.786
10455SOL    HW232265   0.395   5.252   3.805
10456SOL     OW32266   3.521   6.053   1.482
10456SOL    HW132267   3.591   6.008   1.426
10456SOL    HW232268   3.518   6.151   1.460
10457SOL     OW32269   3.818   4.076   3.599
10457SOL    HW132270   3.884   4.115   3.664
10457SOL    HW232271   3.867   4.015   3.536
10458SOL     OW32272   1.053   6.990   0.702
10458SOL    HW132273   1.026   7.003   0.797
10458SOL    HW232274   1.151   7.011   0.691
10459SOL     OW32275   5.498   5.220   2.116
10459SOL    HW132276   5.477   5.273   2.034
10459SOL    HW232277   5.413   5.193   2.161
10460SOL     OW32278   2.727   5.282   1.900
10460SOL    HW132279   2.697   5.377   1.913
10460SOL    HW232280   2.794   5.259   1.971
10461SOL     OW32281   2.348   6.836   6.589
10461SOL    HW132282   2.298   6.776   6.527
10461SOL    HW232283   2.446   6.824   6.575
10462SOL     OW32284   5.784   0.977   1.105
10462SOL    HW132285   5.844   1.056   1.095
10462SOL    HW232286   5.797   0.916   1.027
10463SOL     OW32287   2.944   4.334   6.985
10463SOL    HW132288   2.988   4.354   6.898
10463SOL    HW232289   2.851   4.372   6.985
10464SOL     OW32290   4.806   6.942   0.540
10464SOL    HW132291   4.877   6.950   0.610
10464SOL    HW232292   4.750   0.002   0.539
10465SOL     OW32293   0.309   5.519   5.760
10465SOL    HW132294   0.219   5.480   5.780
10465SOL    HW232295   0.380   5.457   5.791
10466SOL     OW32296   5.033   5.615   5.198
10466SOL    HW132297   5.010   5.711   5.209
10466SOL    HW232298   5.067   5.579   5.285
10467SOL     OW32299   2.242   1.629   5.423
10467SOL    HW132300   2.328   1.643   5.472
10467SOL    HW232301   2.203   1.717   5.398
10468SOL     OW32302   3.142   6.675   4.423
10468SOL    HW132303   3.230   6.710   4.455
10468SOL    HW232304   3.123   6.587   4.467
10469SOL     OW32305   1.746   3.986   0.700
10469SOL    HW132306   1.811   3.998   0.775
10469SOL    HW232307   1.686   4.065   0.695
10470SOL     OW32308   2.652   1.832   3.670
10470SOL    HW132309   2.622   1.901   3.737
10470SOL    HW232310   2.601   1.845   3.585
10471SOL     OW32311   2.890   3.857   1.349
10471SOL    HW132312   2.827   3.925   1.386
10471SOL    HW232313   2.980   3.898   1.337
10472SOL     OW32314   3.657   0.144   1.832
10472SOL    HW132315   3.737   0.165   1.776
10472SOL    HW232316   3.685   0.108   1.920
10473SOL     OW32317   5.540   5.982   6.792
10473SOL    HW132318   5.603   6.029   6.730
10473SOL    HW232319   5.483   6.050   6.838
10474SOL     OW32320   4.207   0.474   4.200
10474SOL    HW132321   4.232   0.570   4.204
10474SOL    HW232322   4.263   0.427   4.132
10475SOL     OW32323   4.199   6.994   1.312
10475SOL    HW132324   4.180   0.068   1.296
10475SOL    HW232325   4.232   6.953   1.227
10476SOL     OW32326   6.534   5.089   6.388
10476SOL    HW132327   6.541   5.016   6.321
10476SOL    HW232328   6.445   5.133   6.380
10477SOL     OW32329   5.917   4.133   5.047
10477SOL    HW132330   5.821   4.112   5.062
10477SOL    HW232331   5.953   4.078   4.972
10478SOL     OW32332   0.084   6.071   0.851
10478SOL    HW132333   0.062   6.146   0.914
10478SOL    HW232334   0.153   6.101   0.786
10479SOL     OW32335   2.098   3.880   2.475
10479SOL    HW132336   2.106   3.785   2.445
10479SOL    HW232337   2.180   3.930   2.447
10480SOL     OW32338   5.340   6.784   2.499
10480SOL    HW132339   5.361   6.863   2.442
10480SOL    HW232340   5.261   6.735   2.461
10481SOL     OW32341   1.928   0.499   4.970
10481SOL    HW132342   1.866   0.573   4.942
10481SOL    HW232343   1.971   0.460   4.888
10482SOL     OW32344   0.968   6.126   4.756
10482SOL    HW132345   0.964   6.203   4.692
10482SOL    HW232346   0.938   6.043   4.709
10483SOL     OW32347   6.747   5.783   6.744
10483SOL    HW132348   6.779   5.800   6.837
10483SOL    HW232349   6.789   5.848   6.681
10484SOL     OW32350   0.681   1.365   2.036
10484SOL    HW132351   0.596   1.411   2.065
10484SOL    HW232352   0.750   1.375   2.107
10485SOL     OW32353   3.405   3.603   3.148
10485SOL    HW132354   3.391   3.702   3.137
10485SOL    HW232355   3.457   3.586   3.232
10486SOL     OW32356   6.474   6.264   5.084
10486SOL    HW132357   6.400   6.284   5.149
10486SOL    HW232358   6.561   6.262   5.132
10487SOL     OW32359   4.546   2.191   1.911
10487SOL    HW132360   4.615   2.229   1.850
10487SOL    HW232361   4.466   2.250   1.912
10488SOL     OW32362   0.075   2.338   5.620
10488SOL    HW132363   0.015   2.271   5.663
10488SOL    HW232364   0.131   2.382   5.690
10489SOL     OW32365   5.672   4.425   3.936
10489SOL    HW132366   5.604   4.408   4.008
10489SOL    HW232367   5.675   4.347   3.873
10490SOL     OW32368   5.670   6.377   6.524
10490SOL    HW132369   5.662   6.346   6.429
10490SOL    HW232370   5.718   6.464   6.526
10491SOL     OW32371   1.035   2.829   6.206
10491SOL    HW132372   1.052   2.778   6.122
10491SOL    HW232373   1.092   2.794   6.280
10492SOL     OW32374   4.183   0.689   0.547
10492SOL    HW132375   4.278   0.714   0.565
10492SOL    HW232376   4.122   0.763   0.578
10493SOL     OW32377   3.753   5.814   0.825
10493SOL    HW132378   3.811   5.800   0.744
10493SOL    HW232379   3.657   5.819   0.797
10494SOL     OW32380   0.768   4.178   5.777
10494SOL    HW132381   0.809   4.235   5.848
10494SOL    HW232382   0.670   4.199   5.769
10495SOL     OW32383   0.942   6.331   6.565
10495SOL    HW132384   0.844   6.325   6.547
10495SOL    HW232385   0.958   6.377   6.652
10496SOL     OW32386   6.865   3.600   5.659
10496SOL    HW132387   6.853   3.502   5.643
10496SOL    HW232388   6.915   3.640   5.582
10497SOL     OW32389   2.218   6.448   1.472
10497SOL    HW132390   2.180   6.403   1.391
10497SOL    HW232391   2.317   6.434   1.474
10498SOL     OW32392   4.156   5.702   0.461
10498SOL    HW132393   4.182   5.752   0.544
10498SOL    HW232394   4.237   5.684   0.406
10499SOL     OW32395   5.999   5.136   2.243
10499SOL    HW132396   5.909   5.115   2.205
10499SOL    HW232397   6.067   5.075   2.201
10500SOL     OW32398   6.390   4.313   6.110
10500SOL    HW132399   6.397   4.400   6.061
10500SOL    HW232400   6.294   4.295   6.133
10501SOL     OW32401   2.855   5.213   2.675
10501SOL    HW132402   2.832   5.117   2.659
10501SOL    HW232403   2.772   5.265   2.692
10502SOL     OW32404   3.007   3.546   2.298
10502SOL    HW132405   3.038   3.455   2.327
10502SOL    HW232406   3.001   3.606   2.378
10503SOL     OW32407   6.099   2.616   6.581
10503SOL    HW132408   6.026   2.673   6.545
10503SOL    HW232409   6.187   2.650   6.548
10504SOL     OW32410   1.414   2.722   6.277
10504SOL    HW132411   1.456   2.811   6.255
10504SOL    HW232412   1.479   2.649   6.258
10505SOL     OW32413   6.257   6.295   1.213
10505SOL    HW132414   6.277   6.386   1.176
10505SOL    HW232415   6.186   6.303   1.283
10506SOL     OW32416   1.071   2.640   0.822
10506SOL    HW132417   1.091   2.578   0.747
10506SOL    HW232418   0.982   2.616   0.863
10507SOL     OW32419   1.459   4.678   6.357
10507SOL    HW132420   1.415   4.737   6.289
10507SOL    HW232421   1.400   4.599   6.374
10508SOL     OW32422   1.151   5.591   5.005
10508SOL    HW132423   1.082   5.595   4.933
10508SOL    HW232424   1.232   5.643   4.977
10509SOL     OW32425   5.143   2.966   3.463
10509SOL    HW132426   5.230   3.003   3.498
10509SOL    HW232427   5.148   2.957   3.364
10510SOL     OW32428   5.129   5.779   4.213
10510SOL    HW132429   5.201   5.717   4.240
10510SOL    HW232430   5.040   5.741   4.238
10511SOL     OW32431   3.704   2.089   2.272
10511SOL    HW132432   3.726   1.994   2.251
10511SOL    HW232433   3.683   2.138   2.187
10512SOL     OW32434   4.523   0.869   4.670
10512SOL    HW132435   4.533   0.777   4.707
10512SOL    HW232436   4.440   0.874   4.615
10513SOL     OW32437   5.530   3.118   1.661
10513SOL    HW132438   5.550   3.129   1.758
10513SOL    HW232439   5.469   3.192   1.631
10514SOL     OW32440   1.057   3.172   1.514
10514SOL    HW132441   1.059   3.083   1.468
10514SOL    HW232442   1.003   3.237   1.460
10515SOL     OW32443   1.818   2.771   5.103
10515SOL    HW132444   1.792   2.817   5.018
10515SOL    HW232445   1.912   2.795   5.126
10516SOL     OW32446   3.402   2.105   1.271
10516SOL    HW132447   3.357   2.185   1.309
10516SOL    HW232448   3.378   2.024   1.324
10517SOL     OW32449   0.871   3.050   3.517
10517SOL    HW132450   0.822   2.976   3.562
10517SOL    HW232451   0.949   3.013   3.467
10518SOL     OW32452   0.772   5.515   2.723
10518SOL    HW132453   0.749   5.603   2.682
10518SOL    HW232454   0.808   5.529   2.815
10519SOL     OW32455   2.867   6.212   1.284
10519SOL    HW132456   2.962   6.213   1.313
10519SOL    HW232457   2.861   6.228   1.186
10520SOL     OW32458   0.387   1.715   5.232
10520SOL    HW132459   0.431   1.716   5.321
10520SOL    HW232460   0.454   1.736   5.161
10521SOL     OW32461   6.152   3.231   0.987
10521SOL    HW132462   6.192   3.215   0.896
10521SOL    HW232463   6.181   3.321   1.020
10522SOL     OW32464   5.083   2.455   3.816
10522SOL    HW132465   5.152   2.502   3.761
10522SOL    HW232466   5.027   2.397   3.756
10523SOL     OW32467   6.933   4.773   3.527
10523SOL    HW132468   6.953   4.818   3.614
10523SOL    HW232469   7.017   4.764   3.474
10524SOL     OW32470   6.329   6.677   4.699
10524SOL    HW132471   6.243   6.661   4.748
10524SOL    HW232472   6.334   6.772   4.669
10525SOL     OW32473   4.667   1.448   4.767
10525SOL    HW132474   4.653   1.457   4.668
10525SOL    HW232475   4.603   1.380   4.804
10526SOL     OW32476   1.327   5.136   0.576
10526SOL    HW132477   1.321   5.173   0.669
10526SOL    HW232478   1.311   5.209   0.510
10527SOL     OW32479   0.715   0.418   4.631
10527SOL    HW132480   0.670   0.352   4.571
10527SOL    HW232481   0.650   0.450   4.700
10528SOL     OW32482   0.994   3.776   5.931
10528SOL    HW132483   0.979   3.693   5.876
10528SOL    HW232484   0.922   3.842   5.910
10529SOL     OW32485   1.010   6.064   6.968
10529SOL    HW132486   1.018   6.146   0.003
10529SOL    HW232487   1.101   6.038   6.936
10530SOL     OW32488   0.113   6.652   0.644
10530SOL    HW132489   0.168   6.660   0.561
10530SOL    HW232490   0.071   6.740   0.665
10531SOL     OW32491   2.664   2.844   5.328
10531SOL    HW132492   2.764   2.848   5.328
10531SOL    HW232493   2.627   2.930   5.294
10532SOL     OW32494   5.394   6.011   6.494
10532SOL    HW132495   5.422   5.951   6.569
10532SOL    HW232496   5.390   6.106   6.526
10533SOL     OW32497   2.805   5.402   3.428
10533SOL    HW132498   2.859   5.402   3.513
10533SOL    HW232499   2.732   5.335   3.436
10534SOL     OW32500   1.099   5.991   2.675
10534SOL    HW132501   1.174   6.019   2.615
10534SOL    HW232502   1.015   6.036   2.646
10535SOL     OW32503   3.095   2.214   2.888
10535SOL    HW132504   3.006   2.205   2.841
10535SOL    HW232505   3.161   2.152   2.846
10536SOL     OW32506   5.596   1.686   4.174
10536SOL    HW132507   5.556   1.755   4.115
10536SOL    HW232508   5.685   1.659   4.137
10537SOL     OW32509   4.322   0.129   3.384
10537SOL    HW132510   4.317   0.228   3.392
10537SOL    HW232511   4.249   0.087   3.438
10538SOL     OW32512   6.614   3.382   2.741
10538SOL    HW132513   6.531   3.377   2.685
10538SOL    HW232514   6.625   3.475   2.776
10539SOL     OW32515   6.625   0.444   2.955
10539SOL    HW132516   6.532   0.424   2.985
10539SOL    HW232517   6.641   0.402   2.866
10540SOL     OW32518   2.737   3.682   6.019
10540SOL    HW132519   2.768   3.588   6.030
10540SOL    HW232520   2.729   3.703   5.922
10541SOL     OW32521   3.239   3.201   5.044
10541SOL    HW132522   3.175   3.127   5.063
10541SOL    HW232523   3.324   3.164   5.008
10542SOL     OW32524   5.105   6.835   4.102
10542SOL    HW132525   5.023   6.875   4.143
10542SOL    HW232526   5.148   6.772   4.166
10543SOL     OW32527   0.472   3.187   5.209
10543SOL    HW132528   0.430   3.274   5.184
10543SOL    HW232529   0.511   3.145   5.127
10544SOL     OW32530   1.752   0.748   3.487
10544SOL    HW132531   1.726   0.825   3.545
10544SOL    HW232532   1.701   0.753   3.401
10545SOL     OW32533   2.049   2.064   2.738
10545SOL    HW132534   2.051   2.160   2.709
10545SOL    HW232535   2.128   2.045   2.797
10546SOL     OW32536   3.314   6.952   0.437
10546SOL    HW132537   3.254   6.921   0.511
10546SOL    HW232538   3.300   0.027   0.423
10547SOL     OW32539   3.769   6.977   5.094
10547SOL    HW132540   3.810   6.974   5.002
10547SOL    HW232541   3.725   0.043   5.108
10548SOL     OW32542   0.719   4.947   4.457
10548SOL    HW132543   0.801   4.927   4.511
10548SOL    HW232544   0.657   4.868   4.460
10549SOL     OW32545   0.270   1.150   1.098
10549SOL    HW132546   0.278   1.170   1.196
10549SOL    HW232547   0.332   1.075   1.074
10550SOL     OW32548   3.990   6.091   3.515
10550SOL    HW132549   3.972   6.078   3.612
10550SOL    HW232550   4.046   6.015   3.481
10551SOL     OW32551   3.066   2.341   5.992
10551SOL    HW132552   3.151   2.341   5.939
10551SOL    HW232553   3.034   2.247   6.003
10552SOL     OW32554   3.376   0.670   4.516
10552SOL    HW132555   3.316   0.686   4.594
10552SOL    HW232556   3.390   0.755   4.467
10553SOL     OW32557   0.276   5.152   0.275
10553SOL    HW132558   0.309   5.079   0.335
10553SOL    HW232559   0.221   5.217   0.328
10554SOL     OW32560   6.099   5.150   2.814
10554SOL    HW132561   6.183   5.119   2.770
10554SOL    HW232562   6.103   5.132   2.912
10555SOL     OW32563   3.742   2.669   0.554
10555SOL    HW132564   3.746   2.768   0.568
10555SOL    HW232565   3.825   2.638   0.507
10556SOL     OW32566   1.927   1.766   3.090
10556SOL    HW132567   1.932   1.729   2.997
10556SOL    HW232568   1.993   1.841   3.099
10557SOL     OW32569   2.240   4.074   3.941
10557SOL    HW132570   2.217   4.155   3.995
10557SOL    HW232571   2.214   4.089   3.846
10558SOL     OW32572   2.503   5.420   5.831
10558SOL    HW132573   2.456   5.470   5.903
10558SOL    HW232574   2.577   5.366   5.872
10559SOL     OW32575   4.122   6.695   6.021
10559SOL    HW132576   4.158   6.613   6.065
10559SOL    HW232577   4.188   6.770   6.031
10560SOL     OW32578   5.294   6.156   1.969
10560SOL    HW132579   5.341   6.162   2.057
10560SOL    HW232580   5.292   6.246   1.926
10561SOL     OW32581   6.022   4.570   0.374
10561SOL    HW132582   5.943   4.629   0.388
10561SOL    HW232583   6.034   4.553   0.276
10562SOL     OW32584   3.639   6.295   2.213
10562SOL    HW132585   3.557   6.348   2.233
10562SOL    HW232586   3.613   6.206   2.173
10563SOL     OW32587   0.256   0.273   1.028
10563SOL    HW132588   0.174   0.288   0.972
10563SOL    HW232589   0.309   0.198   0.990
10564SOL     OW32590   5.888   5.593   4.219
10564SOL    HW132591   5.895   5.505   4.266
10564SOL    HW232592   5.946   5.660   4.266
10565SOL     OW32593   0.410   6.832   5.329
10565SOL    HW132594   0.413   6.907   5.395
10565SOL    HW232595   0.324   6.834   5.279
10566SOL     OW32596   2.951   3.260   0.269
10566SOL    HW132597   2.981   3.259   0.364
10566SOL    HW232598   2.912   3.171   0.245
10567SOL     OW32599   1.068   2.174   6.338
10567SOL    HW132600   1.069   2.270   6.311
10567SOL    HW232601   1.059   2.117   6.256
10568SOL     OW32602   5.678   2.451   5.837
10568SOL    HW132603   5.644   2.406   5.754
10568SOL    HW232604   5.724   2.383   5.895
10569SOL     OW32605   5.511   6.595   1.257
10569SOL    HW132606   5.544   6.579   1.164
10569SOL    HW232607   5.575   6.557   1.323
10570SOL     OW32608   0.803   4.739   3.838
10570SOL    HW132609   0.804   4.679   3.918
10570SOL    HW232610   0.733   4.709   3.774
10571SOL     OW32611   0.261   4.048   6.023
10571SOL    HW132612   0.259   4.063   6.122
10571SOL    HW232613   0.292   4.131   5.977
10572SOL     OW32614   5.789   4.325   0.916
10572SOL    HW132615   5.803   4.388   0.840
10572SOL    HW232616   5.700   4.280   0.906
10573SOL     OW32617   5.472   1.313   3.643
10573SOL    HW132618   5.495   1.253   3.720
10573SOL    HW232619   5.551   1.369   3.620
10574SOL     OW32620   0.070   1.722   3.791
10574SOL    HW132621   0.121   1.719   3.877
10574SOL    HW232622   0.001   1.795   3.795
10575SOL     OW32623   6.249   0.901   1.573
10575SOL    HW132624   6.169   0.874   1.628
10575SOL    HW232625   6.258   0.840   1.495
10576SOL     OW32626   2.413   4.389   4.050
10576SOL    HW132627   2.386   4.384   3.954
10576SOL    HW232628   2.495   4.446   4.058
10577SOL     OW32629   4.020   6.324   0.584
10577SOL    HW132630   4.035   6.273   0.499
10577SOL    HW232631   3.995   6.260   0.657
10578SOL     OW32632   6.411   3.155   4.299
10578SOL    HW132633   6.326   3.130   4.253
10578SOL    HW232634   6.398   3.240   4.351
10579SOL     OW32635   1.782   3.668   0.404
10579SOL    HW132636   1.741   3.737   0.344
10579SOL    HW232637   1.755   3.686   0.499
10580SOL     OW32638   6.589   6.668   6.471
10580SOL    HW132639   6.553   6.647   6.380
10580SOL    HW232640   6.523   6.723   6.521
10581SOL     OW32641   5.602   6.955   2.893
10581SOL    HW132642   5.555   0.011   2.931
10581SOL    HW232643   5.681   6.933   2.951
10582SOL     OW32644   5.577   4.320   6.650
10582SOL    HW132645   5.490   4.283   6.683
10582SOL    HW232646   5.560   4.406   6.602
10583SOL     OW32647   2.982   1.343   5.398
10583SOL    HW132648   3.064   1.288   5.416
10583SOL    HW232649   3.006   1.440   5.400
10584SOL     OW32650   0.174   6.943   5.509
10584SOL    HW132651   0.085   6.989   5.517
10584SOL    HW232652   0.241   7.008   5.473
10585SOL     OW32653   0.469   0.336   5.328
10585SOL    HW132654   0.535   0.355   5.255
10585SOL    HW232655   0.409   0.415   5.340
10586SOL     OW32656   4.269   4.677   5.270
10586SOL    HW132657   4.226   4.650   5.356
10586SOL    HW232658   4.278   4.597   5.211
10587SOL     OW32659   1.552   5.945   5.491
10587SOL    HW132660   1.493   5.962   5.413
10587SOL    HW232661   1.580   5.848   5.491
10588SOL     OW32662   1.178   4.778   4.570
10588SOL    HW132663   1.194   4.679   4.580
10588SOL    HW232664   1.264   4.825   4.553
10589SOL     OW32665   5.564   6.021   3.867
10589SOL    HW132666   5.534   5.927   3.883
10589SOL    HW232667   5.652   6.021   3.820
10590SOL     OW32668   0.770   5.602   3.209
10590SOL    HW132669   0.840   5.595   3.280
10590SOL    HW232670   0.798   5.668   3.140
10591SOL     OW32671   1.226   2.074   1.623
10591SOL    HW132672   1.171   2.142   1.671
10591SOL    HW232673   1.292   2.120   1.563
10592SOL     OW32674   6.106   2.319   5.124
10592SOL    HW132675   6.110   2.388   5.052
10592SOL    HW232676   6.122   2.229   5.084
10593SOL     OW32677   3.330   6.115   2.164
10593SOL    HW132678   3.283   6.030   2.138
10593SOL    HW232679   3.349   6.168   2.082
10594SOL     OW32680   3.044   0.328   3.769
10594SOL    HW132681   3.038   0.422   3.737
10594SOL    HW232682   2.967   0.276   3.734
10595SOL     OW32683   6.365   6.907   0.801
10595SOL    HW132684   6.311   6.825   0.783
10595SOL    HW232685   6.373   6.920   0.900
10596SOL     OW32686   5.317   2.515   6.854
10596SOL    HW132687   5.247   2.457   6.896
10596SOL    HW232688   5.353   2.580   6.921
10597SOL     OW32689   2.333   0.724   6.047
10597SOL    HW132690   2.339   0.657   5.972
10597SOL    HW232691   2.249   0.709   6.099
10598SOL     OW32692   2.467   1.878   6.065
10598SOL    HW132693   2.559   1.913   6.082
10598SOL    HW232694   2.406   1.908   6.138
10599SOL     OW32695   6.684   3.362   6.317
10599SOL    HW132696   6.726   3.425   6.250
10599SOL    HW232697   6.755   3.301   6.353
10600SOL     OW32698   3.074   1.722   1.389
10600SOL    HW132699   3.074   1.816   1.354
10600SOL    HW232700   3.065   1.658   1.312
10601SOL     OW32701   0.641   6.045   5.897
10601SOL    HW132702   0.578   6.025   5.971
10601SOL    HW232703   0.694   6.127   5.918
10602SOL     OW32704   0.371   0.400   1.223
10602SOL    HW132705   0.414   0.485   1.193
10602SOL    HW232706   0.310   0.366   1.152
10603SOL     OW32707   4.692   0.081   2.050
10603SOL    HW132708   4.752   0.106   1.975
10603SOL    HW232709   4.742   0.087   2.136
10604SOL     OW32710   5.884   6.961   4.657
10604SOL    HW132711   5.890   6.955   4.558
10604SOL    HW232712   5.965   7.008   4.693
10605SOL     OW32713   2.309   1.936   1.425
10605SOL    HW132714   2.383   1.870   1.437
10605SOL    HW232715   2.330   2.019   1.476
10606SOL     OW32716   6.116   0.726   0.799
10606SOL    HW132717   6.078   0.726   0.706
10606SOL    HW232718   6.136   0.632   0.827
10607SOL     OW32719   3.649   4.062   6.368
10607SOL    HW132720   3.658   3.984   6.431
10607SOL    HW232721   3.636   4.028   6.275
10608SOL     OW32722   5.818   3.420   3.183
10608SOL    HW132723   5.824   3.338   3.240
10608SOL    HW232724   5.738   3.412   3.124
10609SOL     OW32725   4.276   1.635   6.737
10609SOL    HW132726   4.371   1.603   6.739
10609SOL    HW232727   4.235   1.614   6.648
10610SOL     OW32728   0.968   0.509   4.162
10610SOL    HW132729   1.051   0.564   4.155
10610SOL    HW232730   0.960   0.450   4.082
10611SOL     OW32731   3.425   5.702   4.940
10611SOL    HW132732   3.327   5.717   4.926
10611SOL    HW232733   3.441   5.676   5.036
10612SOL     OW32734   5.830   1.658   3.457
10612SOL    HW132735   5.785   1.746   3.472
10612SOL    HW232736   5.823   1.632   3.361
10613SOL     OW32737   5.580   0.476   4.505
10613SOL    HW132738   5.619   0.538   4.437
10613SOL    HW232739   5.618   0.384   4.492
10614SOL     OW32740   4.497   0.816   6.449
10614SOL    HW132741   4.437   0.886   6.410
10614SOL    HW232742   4.565   0.858   6.509
10615SOL     OW32743   1.550   1.685   6.190
10615SOL    HW132744   1.646   1.656   6.187
10615SOL    HW232745   1.543   1.770   6.242
10616SOL     OW32746   2.770   6.496   6.501
10616SOL    HW132747   2.783   6.449   6.413
10616SOL    HW232748   2.843   6.563   6.514
10617SOL     OW32749   2.808   3.544   1.414
10617SOL    HW132750   2.862   3.460   1.403
10617SOL    HW232751   2.870   3.622   1.428
10618SOL     OW32752   0.542   5.320   5.262
10618SOL    HW132753   0.607   5.384   5.302
10618SOL    HW232754   0.587   5.232   5.246
10619SOL     OW32755   1.315   2.432   3.421
10619SOL    HW132756   1.360   2.497   3.482
10619SOL    HW232757   1.379   2.403   3.350
10620SOL     OW32758   2.388   0.582   0.090
10620SOL    HW132759   2.307   0.609   0.142
10620SOL    HW232760   2.396   0.641   0.009
10621SOL     OW32761   0.889   3.501   3.355
10621SOL    HW132762   0.899   3.426   3.420
10621SOL    HW232763   0.896   3.466   3.262
10622SOL     OW32764   4.563   2.999   0.462
10622SOL    HW132765   4.555   3.014   0.364
10622SOL    HW232766   4.503   2.924   0.490
10623SOL     OW32767   5.374   6.346   6.541
10623SOL    HW132768   5.343   6.390   6.625
10623SOL    HW232769   5.472   6.359   6.530
10624SOL     OW32770   0.362   2.462   5.390
10624SOL    HW132771   0.430   2.474   5.462
10624SOL    HW232772   0.406   2.424   5.308
10625SOL     OW32773   6.474   4.817   6.740
10625SOL    HW132774   6.475   4.720   6.764
10625SOL    HW232775   6.563   4.844   6.703
10626SOL     OW32776   5.405   3.428   1.212
10626SOL    HW132777   5.447   3.452   1.124
10626SOL    HW232778   5.400   3.329   1.220
10627SOL     OW32779   5.576   6.305   5.949
10627SOL    HW132780   5.628   6.365   5.889
10627SOL    HW232781   5.600   6.210   5.932
10628SOL     OW32782   4.554   6.843   1.111
10628SOL    HW132783   4.548   6.815   1.015
10628SOL    HW232784   4.512   6.933   1.122
10629SOL     OW32785   2.692   5.409   4.283
10629SOL    HW132786   2.774   5.461   4.258
10629SOL    HW232787   2.695   5.386   4.380
10630SOL     OW32788   4.162   0.198   2.623
10630SOL    HW132789   4.090   0.130   2.637
10630SOL    HW232790   4.122   0.285   2.597
10631SOL     OW32791   4.572   5.973   6.762
10631SOL    HW132792   4.494   6.031   6.787
10631SOL    HW232793   4.539   5.888   6.723
10632SOL     OW32794   4.214   5.768   3.220
10632SOL    HW132795   4.213   5.835   3.294
10632SOL    HW232796   4.138   5.704   3.232
10633SOL     OW32797   1.704   2.839   1.600
10633SOL    HW132798   1.783   2.896   1.578
10633SOL    HW232799   1.677   2.855   1.695
10634SOL     OW32800   6.898   4.361   6.872
10634SOL    HW132801   6.958   4.380   6.950
10634SOL    HW232802   6.879   4.446   6.823
10635SOL     OW32803   2.620   3.900   6.654
10635SOL    HW132804   2.570   3.927   6.736
10635SOL    HW232805   2.613   3.971   6.585
10636SOL     OW32806   6.828   2.481   6.406
10636SOL    HW132807   6.764   2.435   6.466
10636SOL    HW232808   6.921   2.470   6.442
10637SOL     OW32809   3.037   0.378   6.873
10637SOL    HW132810   3.062   0.282   6.884
10637SOL    HW232811   3.120   0.433   6.869
10638SOL     OW32812   0.066   5.251   1.621
10638SOL    HW132813   0.073   5.244   1.721
10638SOL    HW232814   0.015   5.172   1.586
10639SOL     OW32815   1.835   4.207   1.094
10639SOL    HW132816   1.922   4.253   1.111
10639SOL    HW232817   1.841   4.157   1.007
10640SOL     OW32818   3.973   6.892   3.373
10640SOL    HW132819   4.051   6.873   3.434
10640SOL    HW232820   4.007   6.915   3.282
10641SOL     OW32821   1.242   0.190   3.526
10641SOL    HW132822   1.209   0.237   3.444
10641SOL    HW232823   1.179   0.115   3.549
10642SOL     OW32824   5.365   2.359   6.623
10642SOL    HW132825   5.407   2.417   6.554
10642SOL    HW232826   5.358   2.409   6.709
10643SOL     OW32827   1.622   5.036   5.916
10643SOL    HW132828   1.705   5.036   5.860
10643SOL    HW232829   1.647   5.018   6.011
10644SOL     OW32830   0.577   2.480   2.932
10644SOL    HW132831   0.654   2.492   2.994
10644SOL    HW232832   0.527   2.398   2.956
10645SOL     OW32833   2.484   2.534   3.588
10645SOL    HW132834   2.474   2.556   3.684
10645SOL    HW232835   2.562   2.473   3.575
10646SOL     OW32836   5.333   1.262   4.316
10646SOL    HW132837   5.370   1.213   4.237
10646SOL    HW232838   5.301   1.352   4.287
10647SOL     OW32839   3.878   5.286   4.582
10647SOL    HW132840   3.903   5.352   4.511
10647SOL    HW232841   3.823   5.213   4.542
10648SOL     OW32842   5.655   5.687   5.219
10648SOL    HW132843   5.580   5.700   5.154
10648SOL    HW232844   5.737   5.733   5.185
10649SOL     OW32845   6.877   3.791   3.036
10649SOL    HW132846   6.957   3.795   2.976
10649SOL    HW232847   6.903   3.820   3.128
10650SOL     OW32848   0.102   0.914   4.202
10650SOL    HW132849   0.066   0.823   4.182
10650SOL    HW232850   0.042   0.960   4.267
10651SOL     OW32851   3.994   6.015   5.793
10651SOL    HW132852   3.942   5.941   5.750
10651SOL    HW232853   4.070   6.041   5.733
10652SOL     OW32854   1.778   6.788   6.982
10652SOL    HW132855   1.710   6.796   6.908
10652SOL    HW232856   1.869   6.809   6.946
10653SOL     OW32857   3.822   6.206   4.359
10653SOL    HW132858   3.737   6.256   4.342
10653SOL    HW232859   3.873   6.250   4.433
10654SOL     OW32860   5.889   1.946   4.842
10654SOL    HW132861   5.866   1.903   4.930
10654SOL    HW232862   5.814   1.933   4.778
10655SOL     OW32863   1.151   4.700   1.513
10655SOL    HW132864   1.240   4.745   1.523
10655SOL    HW232865   1.081   4.769   1.494
10656SOL     OW32866   6.650   1.381   1.634
10656SOL    HW132867   6.641   1.285   1.659
10656SOL    HW232868   6.597   1.399   1.551
10657SOL     OW32869   5.805   0.688   3.649
10657SOL    HW132870   5.781   0.760   3.584
10657SOL    HW232871   5.722   0.650   3.690
10658SOL     OW32872   6.663   3.479   4.985
10658SOL    HW132873   6.753   3.440   4.965
10658SOL    HW232874   6.667   3.578   4.973
10659SOL     OW32875   1.174   5.331   1.328
10659SOL    HW132876   1.164   5.248   1.384
10659SOL    HW232877   1.098   5.394   1.348
10660SOL     OW32878   6.707   3.348   5.595
10660SOL    HW132879   6.638   3.282   5.565
10660SOL    HW232880   6.720   3.340   5.694
10661SOL     OW32881   1.714   3.593   6.887
10661SOL    HW132882   1.735   3.677   6.938
10661SOL    HW232883   1.674   3.618   6.799
10662SOL     OW32884   2.468   1.575   3.200
10662SOL    HW132885   2.447   1.606   3.293
10662SOL    HW232886   2.566   1.561   3.191
10663SOL     OW32887   1.843   1.568   4.229
10663SOL    HW132888   1.755   1.521   4.219
10663SOL    HW232889   1.918   1.503   4.215
10664SOL     OW32890   1.282   5.319   4.255
10664SOL    HW132891   1.267   5.244   4.321
10664SOL    HW232892   1.315   5.400   4.304
10665SOL     OW32893   2.306   2.663   6.444
10665SOL    HW132894   2.286   2.674   6.542
10665SOL    HW232895   2.236   2.606   6.402
10666SOL     OW32896   3.808   3.631   2.240
10666SOL    HW132897   3.809   3.616   2.141
10666SOL    HW232898   3.857   3.716   2.261
10667SOL     OW32899   5.781   2.328   2.808
10667SOL    HW132900   5.827   2.278   2.881
10667SOL    HW232901   5.704   2.273   2.774
10668SOL     OW32902   3.225   2.163   5.349
10668SOL    HW132903   3.212   2.078   5.298
10668SOL    HW232904   3.221   2.241   5.286
10669SOL     OW32905   5.393   0.975   1.185
10669SOL    HW132906   5.452   0.960   1.106
10669SOL    HW232907   5.413   1.064   1.225
10670SOL     OW32908   5.064   3.856   4.212
10670SOL    HW132909   5.117   3.776   4.186
10670SOL    HW232910   5.123   3.936   4.215
10671SOL     OW32911   1.230   1.704   3.959
10671SOL    HW132912   1.138   1.732   3.985
10671SOL    HW232913   1.265   1.637   4.024
10672SOL     OW32914   5.801   3.583   2.067
10672SOL    HW132915   5.728   3.537   2.118
10672SOL    HW232916   5.870   3.517   2.040
10673SOL     OW32917   1.892   1.322   1.404
10673SOL    HW132918   1.950   1.241   1.396
10673SOL    HW232919   1.897   1.358   1.497
10674SOL     OW32920   3.787   3.431   4.664
10674SOL    HW132921   3.842   3.499   4.617
10674SOL    HW232922   3.846   3.372   4.719
10675SOL     OW32923   3.850   0.005   5.829
10675SOL    HW132924   3.889   6.993   5.914
10675SOL    HW232925   3.864   0.104   5.825
10676SOL     OW32926   1.351   6.214   5.682
10676SOL    HW132927   1.435   6.185   5.728
10676SOL    HW232928   1.360   6.201   5.583
10677SOL     OW32929   0.673   2.083   0.497
10677SOL    HW132930   0.675   2.155   0.567
10677SOL    HW232931   0.630   2.001   0.534
10678SOL     OW32932   4.151   5.507   3.515
10678SOL    HW132933   4.234   5.453   3.501
10678SOL    HW232934   4.096   5.467   3.588
10679SOL     OW32935   4.634   4.332   6.875
10679SOL    HW132936   4.688   4.399   6.926
10679SOL    HW232937   4.694   4.275   6.819
10680SOL     OW32938   3.758   1.656   4.052
10680SOL    HW132939   3.712   1.699   3.974
10680SOL    HW232940   3.691   1.637   4.124
10681SOL     OW32941   6.526   3.308   6.547
10681SOL    HW132942   6.567   3.347   6.464
10681SOL    HW232943   6.472   3.228   6.523
10682SOL     OW32944   6.233   3.052   5.518
10682SOL    HW132945   6.141   3.031   5.550
10682SOL    HW232946   6.236   3.048   5.418
10683SOL     OW32947   3.695   0.734   3.198
10683SOL    HW132948   3.765   0.672   3.234
10683SOL    HW232949   3.605   0.700   3.224
10684SOL     OW32950   5.338   4.445   0.999
10684SOL    HW132951   5.428   4.489   0.987
10684SOL    HW232952   5.315   4.443   1.097
10685SOL     OW32953   0.338   5.318   1.631
10685SOL    HW132954   0.258   5.259   1.641
10685SOL    HW232955   0.331   5.394   1.697
10686SOL     OW32956   2.117   4.090   0.375
10686SOL    HW132957   2.088   4.018   0.312
10686SOL    HW232958   2.154   4.167   0.322
10687SOL     OW32959   6.612   4.640   2.960
10687SOL    HW132960   6.706   4.609   2.979
10687SOL    HW232961   6.553   4.615   3.036
10688SOL     OW32962   5.713   1.434   2.360
10688SOL    HW132963   5.793   1.486   2.332
10688SOL    HW232964   5.651   1.494   2.411
10689SOL     OW32965   0.148   6.950   1.964
10689SOL    HW132966   0.093   6.867   1.980
10689SOL    HW232967   0.218   6.957   2.034
10690SOL     OW32968   6.644   6.015   3.278
10690SOL    HW132969   6.685   5.956   3.347
10690SOL    HW232970   6.545   6.000   3.275
10691SOL     OW32971   3.763   1.830   2.545
10691SOL    HW132972   3.739   1.925   2.566
10691SOL    HW232973   3.722   1.770   2.614
10692SOL     OW32974   2.640   0.839   5.151
10692SOL    HW132975   2.664   0.761   5.209
10692SOL    HW232976   2.677   0.923   5.192
10693SOL     OW32977   0.988   5.824   1.561
10693SOL    HW132978   0.975   5.920   1.585
10693SOL    HW232979   1.077   5.793   1.594
10694SOL     OW32980   4.780   5.956   5.912
10694SOL    HW132981   4.856   5.901   5.945
10694SOL    HW232982   4.728   5.903   5.844
10695SOL     OW32983   0.897   3.561   1.353
10695SOL    HW132984   0.806   3.599   1.337
10695SOL    HW232985   0.889   3.464   1.376
10696SOL     OW32986   6.587   4.407   4.897
10696SOL    HW132987   6.527   4.327   4.892
10696SOL    HW232988   6.631   4.411   4.987
10697SOL     OW32989   0.824   5.840   5.059
10697SOL    HW132990   0.845   5.812   5.152
10697SOL    HW232991   0.874   5.783   4.994
10698SOL     OW32992   5.009   4.489   6.839
10698SOL    HW132993   4.939   4.467   6.907
10698SOL    HW232994   5.006   4.586   6.818
10699SOL     OW32995   3.691   4.207   0.838
10699SOL    HW132996   3.619   4.220   0.907
10699SOL    HW232997   3.658   4.143   0.769
10700SOL     OW32998   5.788   6.716   0.162
10700SOL    HW132999   5.790   6.631   0.214
10700SOL    HW233000   5.880   6.739   0.130
10701SOL     OW33001   2.631   7.002   6.306
10701SOL    HW133002   2.708   0.041   6.294
10701SOL    HW233003   2.545   0.030   6.296
10702SOL     OW33004   4.898   3.117   2.763
10702SOL    HW133005   4.868   3.044   2.702
10702SOL    HW233006   4.877   3.206   2.721
10703SOL     OW33007   2.226   2.249   5.945
10703SOL    HW133008   2.248   2.263   6.041
10703SOL    HW233009   2.243   2.153   5.921
10704SOL     OW33010   6.891   5.527   2.453
10704SOL    HW133011   6.811   5.573   2.493
10704SOL    HW233012   6.899   5.435   2.491
10705SOL     OW33013   5.618   4.869   1.008
10705SOL    HW133014   5.536   4.925   0.996
10705SOL    HW233015   5.651   4.878   1.102
10706SOL     OW33016   4.190   0.131   2.039
10706SOL    HW133017   4.236   0.220   2.030
10706SOL    HW233018   4.250   0.059   2.005
10707SOL     OW33019   6.133   0.061   4.681
10707SOL    HW133020   6.116   0.154   4.650
10707SOL    HW233021   6.204   0.019   4.625
10708SOL     OW33022   4.925   1.767   2.315
10708SOL    HW133023   4.930   1.734   2.221
10708SOL    HW233024   4.994   1.722   2.371
10709SOL     OW33025   5.592   5.555   3.910
10709SOL    HW133026   5.583   5.575   3.813
10709SOL    HW233027   5.649   5.625   3.953
10710SOL     OW33028   5.604   0.587   3.193
10710SOL    HW133029   5.643   0.646   3.122
10710SOL    HW233030   5.584   0.641   3.274
10711SOL     OW33031   2.710   6.718   3.629
10711SOL    HW133032   2.620   6.685   3.659
10711SOL    HW233033   2.711   6.723   3.529
10712SOL     OW33034   4.299   0.494   2.776
10712SOL    HW133035   4.267   0.452   2.861
10712SOL    HW233036   4.369   0.563   2.797
10713SOL     OW33037   1.349   2.848   0.422
10713SOL    HW133038   1.270   2.905   0.444
10713SOL    HW233039   1.424   2.906   0.389
10714SOL     OW33040   4.261   3.158   5.281
10714SOL    HW133041   4.275   3.066   5.245
10714SOL    HW233042   4.165   3.170   5.305
10715SOL     OW33043   4.770   0.158   2.339
10715SOL    HW133044   4.750   0.082   2.401
10715SOL    HW233045   4.858   0.199   2.362
10716SOL     OW33046   6.692   2.626   3.304
10716SOL    HW133047   6.662   2.666   3.217
10716SOL    HW233048   6.627   2.556   3.333
10717SOL     OW33049   2.006   3.055   0.580
10717SOL    HW133050   1.963   2.975   0.623
10717SOL    HW233051   1.941   3.095   0.515
10718SOL     OW33052   1.321   4.346   6.366
10718SOL    HW133053   1.224   4.322   6.365
10718SOL    HW233054   1.355   4.347   6.460
10719SOL     OW33055   6.106   5.866   3.379
10719SOL    HW133056   6.121   5.768   3.383
10719SOL    HW233057   6.010   5.886   3.397
10720SOL     OW33058   5.897   5.374   4.403
10720SOL    HW133059   5.823   5.377   4.470
10720SOL    HW233060   5.911   5.279   4.373
10721SOL     OW33061   5.045   3.872   5.354
10721SOL    HW133062   5.092   3.960   5.352
10721SOL    HW233063   5.003   3.854   5.266
10722SOL     OW33064   6.132   4.077   7.002
10722SOL    HW133065   6.159   4.055   6.908
10722SOL    HW233066   6.033   4.082   7.008
10723SOL     OW33067   6.911   2.048   6.447
10723SOL    HW133068   7.001   2.057   6.488
10723SOL    HW233069   6.851   2.120   6.480
10724SOL     OW33070   0.386   6.682   6.533
10724SOL    HW133071   0.476   6.640   6.538
10724SOL    HW233072   0.319   6.623   6.579
10725SOL     OW33073   1.941   5.614   5.354
10725SOL    HW133074   1.910   5.588   5.262
10725SOL    HW233075   2.039   5.634   5.351
10726SOL     OW33076   4.181   0.181   4.079
10726SOL    HW133077   4.209   0.162   4.173
10726SOL    HW233078   4.114   0.113   4.050
10727SOL     OW33079   0.790   4.756   6.451
10727SOL    HW133080   0.783   4.680   6.515
10727SOL    HW233081   0.830   4.835   6.498
10728SOL     OW33082   0.927   5.213   0.127
10728SOL    HW133083   0.897   5.225   0.032
10728SOL    HW233084   0.852   5.237   0.189
10729SOL     OW33085   6.235   1.683   1.962
10729SOL    HW133086   6.276   1.743   1.893
10729SOL    HW233087   6.268   1.589   1.949
10730SOL     OW33088   3.354   6.803   0.712
10730SOL    HW133089   3.293   6.875   0.744
10730SOL    HW233090   3.305   6.743   0.650
10731SOL     OW33091   3.614   0.726   1.094
10731SOL    HW133092   3.609   0.826   1.097
10731SOL    HW233093   3.635   0.692   1.186
10732SOL     OW33094   0.631   4.433   5.607
10732SOL    HW133095   0.562   4.419   5.537
10732SOL    HW233096   0.707   4.370   5.593
10733SOL     OW33097   6.362   1.221   6.703
10733SOL    HW133098   6.337   1.237   6.799
10733SOL    HW233099   6.457   1.193   6.698
10734SOL     OW33100   1.207   2.009   0.820
10734SOL    HW133101   1.201   1.941   0.747
10734SOL    HW233102   1.251   1.969   0.900
10735SOL     OW33103   0.263   2.853   2.212
10735SOL    HW133104   0.231   2.808   2.295
10735SOL    HW233105   0.264   2.952   2.226
10736SOL     OW33106   2.197   0.170   3.538
10736SOL    HW133107   2.124   0.236   3.520
10736SOL    HW233108   2.239   0.144   3.451
10737SOL     OW33109   0.687   1.829   0.867
10737SOL    HW133110   0.723   1.799   0.955
10737SOL    HW233111   0.760   1.827   0.799
10738SOL     OW33112   3.466   6.051   2.743
10738SOL    HW133113   3.522   5.969   2.753
10738SOL    HW233114   3.515   6.118   2.687
10739SOL     OW33115   1.666   1.901   1.178
10739SOL    HW133116   1.639   1.973   1.113
10739SOL    HW233117   1.616   1.914   1.263
10740SOL     OW33118   6.540   4.747   5.677
10740SOL    HW133119   6.461   4.686   5.681
10740SOL    HW233120   6.587   4.735   5.589
10741SOL     OW33121   4.339   0.817   1.595
10741SOL    HW133122   4.290   0.786   1.513
10741SOL    HW233123   4.402   0.890   1.569
10742SOL     OW33124   6.707   6.663   0.967
10742SOL    HW133125   6.656   6.582   0.996
10742SOL    HW233126   6.773   6.637   0.896
10743SOL     OW33127   1.823   1.538   5.309
10743SOL    HW133128   1.737   1.535   5.359
10743SOL    HW233129   1.806   1.515   5.213
10744SOL     OW33130   3.550   1.601   0.451
10744SOL    HW133131   3.494   1.519   0.440
10744SOL    HW233132   3.506   1.664   0.515
10745SOL     OW33133   0.168   4.977   5.862
10745SOL    HW133134   0.133   4.895   5.908
10745SOL    HW233135   0.194   5.046   5.930
10746SOL     OW33136   0.973   3.836   6.933
10746SOL    HW133137   0.931   3.773   6.998
10746SOL    HW233138   1.022   3.784   6.863
10747SOL     OW33139   3.132   0.464   5.104
10747SOL    HW133140   3.095   0.475   5.012
10747SOL    HW233141   3.223   0.506   5.108
10748SOL     OW33142   5.301   0.603   1.717
10748SOL    HW133143   5.285   0.514   1.674
10748SOL    HW233144   5.214   0.650   1.728
10749SOL     OW33145   0.610   6.099   4.746
10749SOL    HW133146   0.664   6.015   4.752
10749SOL    HW233147   0.647   6.157   4.673
10750SOL     OW33148   3.654   6.786   4.877
10750SOL    HW133149   3.613   6.789   4.969
10750SOL    HW233150   3.749   6.816   4.882
10751SOL     OW33151   2.005   4.311   4.078
10751SOL    HW133152   1.941   4.246   4.121
10751SOL    HW233153   1.963   4.402   4.075
10752SOL     OW33154   6.174   4.739   5.343
10752SOL    HW133155   6.077   4.731   5.366
10752SOL    HW233156   6.199   4.665   5.280
10753SOL     OW33157   0.126   4.534   4.277
10753SOL    HW133158   0.118   4.485   4.364
10753SOL    HW233159   0.105   4.471   4.202
10754SOL     OW33160   1.110   6.948   3.460
10754SOL    HW133161   1.201   6.907   3.465
10754SOL    HW233162   1.084   6.961   3.364
10755SOL     OW33163   6.742   0.310   1.351
10755SOL    HW133164   6.768   0.405   1.335
10755SOL    HW233165   6.812   0.266   1.408
10756SOL     OW33166   6.369   5.426   5.664
10756SOL    HW133167   6.284   5.465   5.628
10756SOL    HW233168   6.346   5.349   5.725
10757SOL     OW33169   2.826   2.303   6.989
10757SOL    HW133170   2.807   2.384   0.022
10757SOL    HW233171   2.740   2.266   6.953
10758SOL     OW33172   0.793   6.192   3.906
10758SOL    HW133173   0.857   6.252   3.859
10758SOL    HW233174   0.829   6.168   3.996
10759SOL     OW33175   1.735   3.379   0.557
10759SOL    HW133176   1.746   3.281   0.540
10759SOL    HW233177   1.693   3.422   0.477
10760SOL     OW33178   5.423   1.035   3.390
10760SOL    HW133179   5.468   1.065   3.306
10760SOL    HW233180   5.359   1.106   3.421
10761SOL     OW33181   0.619   5.612   5.539
10761SOL    HW133182   0.676   5.566   5.470
10761SOL    HW233183   0.524   5.581   5.529
10762SOL     OW33184   2.993   0.849   4.928
10762SOL    HW133185   2.970   0.752   4.930
10762SOL    HW233186   2.913   0.902   4.898
10763SOL     OW33187   4.181   6.916   2.848
10763SOL    HW133188   4.176   6.823   2.885
10763SOL    HW233189   4.217   6.913   2.755
10764SOL     OW33190   5.120   2.236   5.245
10764SOL    HW133191   5.079   2.148   5.222
10764SOL    HW233192   5.216   2.237   5.217
10765SOL     OW33193   4.966   2.699   0.993
10765SOL    HW133194   4.878   2.658   0.970
10765SOL    HW233195   4.958   2.798   0.989
10766SOL     OW33196   3.865   4.656   0.767
10766SOL    HW133197   3.862   4.755   0.751
10766SOL    HW233198   3.827   4.608   0.688
10767SOL     OW33199   2.467   0.739   1.194
10767SOL    HW133200   2.457   0.813   1.260
10767SOL    HW233201   2.389   0.677   1.201
10768SOL     OW33202   5.510   5.016   1.840
10768SOL    HW133203   5.556   5.080   1.901
10768SOL    HW233204   5.572   4.988   1.767
10769SOL     OW33205   1.748   3.718   5.843
10769SOL    HW133206   1.848   3.728   5.841
10769SOL    HW233207   1.708   3.795   5.893
10770SOL     OW33208   5.132   6.577   3.713
10770SOL    HW133209   5.098   6.642   3.644
10770SOL    HW233210   5.056   6.541   3.765
10771SOL     OW33211   3.880   0.311   3.596
10771SOL    HW133212   3.873   0.241   3.667
10771SOL    HW233213   3.870   0.402   3.637
10772SOL     OW33214   5.777   6.104   4.567
10772SOL    HW133215   5.798   6.057   4.481
10772SOL    HW233216   5.749   6.198   4.548
10773SOL     OW33217   5.975   4.784   6.134
10773SOL    HW133218   6.015   4.875   6.126
10773SOL    HW233219   5.875   4.791   6.133
10774SOL     OW33220   1.986   1.306   4.933
10774SOL    HW133221   1.998   1.239   5.006
10774SOL    HW233222   1.890   1.310   4.907
10775SOL     OW33223   0.492   4.253   2.586
10775SOL    HW133224   0.587   4.284   2.586
10775SOL    HW233225   0.446   4.288   2.504
10776SOL     OW33226   0.607   0.768   6.535
10776SOL    HW133227   0.582   0.751   6.631
10776SOL    HW233228   0.704   0.745   6.522
10777SOL     OW33229   3.603   5.250   1.013
10777SOL    HW133230   3.566   5.286   0.927
10777SOL    HW233231   3.529   5.222   1.073
10778SOL     OW33232   4.993   0.170   4.135
10778SOL    HW133233   4.895   0.171   4.153
10778SOL    HW233234   5.022   0.261   4.103
10779SOL     OW33235   5.898   3.180   3.274
10779SOL    HW133236   5.974   3.230   3.314
10779SOL    HW233237   5.933   3.099   3.226
10780SOL     OW33238   1.298   0.716   4.156
10780SOL    HW133239   1.318   0.703   4.059
10780SOL    HW233240   1.300   0.814   4.177
10781SOL     OW33241   3.769   1.112   3.221
10781SOL    HW133242   3.813   1.193   3.259
10781SOL    HW233243   3.685   1.092   3.270
10782SOL     OW33244   0.026   0.644   3.752
10782SOL    HW133245   7.018   0.578   3.683
10782SOL    HW233246   6.993   0.633   3.835
10783SOL     OW33247   0.234   3.020   2.945
10783SOL    HW133248   0.275   2.980   3.027
10783SOL    HW233249   0.262   3.116   2.937
10784SOL     OW33250   3.298   0.965   4.225
10784SOL    HW133251   3.207   0.997   4.250
10784SOL    HW233252   3.348   0.937   4.307
10785SOL     OW33253   1.165   3.680   0.891
10785SOL    HW133254   1.245   3.730   0.925
10785SOL    HW233255   1.188   3.634   0.805
10786SOL     OW33256   5.980   5.359   2.397
10786SOL    HW133257   5.909   5.398   2.455
10786SOL    HW233258   5.946   5.277   2.352
10787SOL     OW33259   0.664   0.253   5.549
10787SOL    HW133260   0.720   0.171   5.537
10787SOL    HW233261   0.619   0.277   5.463
10788SOL     OW33262   0.934   3.650   1.022
10788SOL    HW133263   0.874   3.726   1.049
10788SOL    HW233264   0.999   3.682   0.952
10789SOL     OW33265   6.227   3.060   6.674
10789SOL    HW133266   6.300   3.047   6.741
10789SOL    HW233267   6.162   3.128   6.709
10790SOL     OW33268   0.733   6.578   1.564
10790SOL    HW133269   0.703   6.662   1.518
10790SOL    HW233270   0.823   6.553   1.529
10791SOL     OW33271   6.791   5.852   2.292
10791SOL    HW133272   6.736   5.773   2.265
10791SOL    HW233273   6.749   5.897   2.371
10792SOL     OW33274   3.138   2.947   5.160
10792SOL    HW133275   3.218   2.950   5.220
10792SOL    HW233276   3.059   2.912   5.210
10793SOL     OW33277   6.071   3.849   5.879
10793SOL    HW133278   6.079   3.948   5.895
10793SOL    HW233279   6.130   3.800   5.943
10794SOL     OW33280   3.983   3.575   3.982
10794SOL    HW133281   3.901   3.557   3.928
10794SOL    HW233282   4.057   3.515   3.950
10795SOL     OW33283   0.591   5.235   2.996
10795SOL    HW133284   0.631   5.146   3.018
10795SOL    HW233285   0.665   5.302   2.983
10796SOL     OW33286   6.682   6.910   5.355
10796SOL    HW133287   6.619   6.951   5.421
10796SOL    HW233288   6.632   6.845   5.297
10797SOL     OW33289   3.702   3.207   1.111
10797SOL    HW133290   3.620   3.177   1.062
10797SOL    HW233291   3.702   3.167   1.203
10798SOL     OW33292   2.335   1.688   0.630
10798SOL    HW133293   2.409   1.626   0.603
10798SOL    HW233294   2.360   1.782   0.608
10799SOL     OW33295   4.412   0.591   2.317
10799SOL    HW133296   4.496   0.579   2.370
10799SOL    HW233297   4.420   0.675   2.262
10800SOL     OW33298   0.664   6.330   6.452
10800SOL    HW133299   0.596   6.263   6.481
10800SOL    HW233300   0.715   6.294   6.374
10801SOL     OW33301   1.010   6.547   0.872
10801SOL    HW133302   0.962   6.593   0.797
10801SOL    HW233303   0.958   6.467   0.901
10802SOL     OW33304   6.998   6.519   2.716
10802SOL    HW133305   7.021   6.422   2.724
10802SOL    HW233306   6.965   6.538   2.624
10803SOL     OW33307   1.717   5.627   6.248
10803SOL    HW133308   1.685   5.542   6.289
10803SOL    HW233309   1.649   5.661   6.182
10804SOL     OW33310   6.967   2.653   3.477
10804SOL    HW133311   6.990   2.749   3.461
10804SOL    HW233312   6.900   2.623   3.410
10805SOL     OW33313   5.706   0.971   5.676
10805SOL    HW133314   5.662   1.051   5.634
10805SOL    HW233315   5.661   0.888   5.644
10806SOL     OW33316   3.671   4.950   6.539
10806SOL    HW133317   3.755   4.943   6.593
10806SOL    HW233318   3.693   4.946   6.442
10807SOL     OW33319   1.236   5.156   4.022
10807SOL    HW133320   1.281   5.184   4.106
10807SOL    HW233321   1.269   5.212   3.946
10808SOL     OW33322   0.477   2.879   6.307
10808SOL    HW133323   0.489   2.943   6.384
10808SOL    HW233324   0.562   2.830   6.292
10809SOL     OW33325   1.538   4.220   4.387
10809SOL    HW133326   1.564   4.279   4.463
10809SOL    HW233327   1.592   4.243   4.306
10810SOL     OW33328   6.768   0.141   3.303
10810SOL    HW133329   6.682   0.091   3.311
10810SOL    HW233330   6.751   0.232   3.264
10811SOL     OW33331   4.815   5.004   4.495
10811SOL    HW133332   4.794   4.952   4.578
10811SOL    HW233333   4.730   5.030   4.449
10812SOL     OW33334   6.622   3.565   6.876
10812SOL    HW133335   6.717   3.546   6.899
10812SOL    HW233336   6.563   3.495   6.917
10813SOL     OW33337   0.314   3.362   6.248
10813SOL    HW133338   0.287   3.281   6.195
10813SOL    HW233339   0.398   3.343   6.299
10814SOL     OW33340   2.590   0.392   0.643
10814SOL    HW133341   2.517   0.418   0.705
10814SOL    HW233342   2.574   0.299   0.609
10815SOL     OW33343   5.333   1.700   3.164
10815SOL    HW133344   5.262   1.671   3.099
10815SOL    HW233345   5.406   1.746   3.114
10816SOL     OW33346   3.703   2.872   2.832
10816SOL    HW133347   3.651   2.788   2.825
10816SOL    HW233348   3.717   2.895   2.928
10817SOL     OW33349   3.068   0.759   3.431
10817SOL    HW133350   3.125   0.677   3.430
10817SOL    HW233351   3.100   0.821   3.502
10818SOL     OW33352   4.542   4.988   5.719
10818SOL    HW133353   4.450   4.962   5.688
10818SOL    HW233354   4.546   5.087   5.733
10819SOL     OW33355   6.197   5.584   6.116
10819SOL    HW133356   6.248   5.533   6.186
10819SOL    HW233357   6.108   5.541   6.102
10820SOL     OW33358   0.373   5.693   5.071
10820SOL    HW133359   0.452   5.752   5.055
10820SOL    HW233360   0.404   5.599   5.089
10821SOL     OW33361   4.521   6.125   2.818
10821SOL    HW133362   4.559   6.038   2.789
10821SOL    HW233363   4.427   6.113   2.848
10822SOL     OW33364   5.422   1.858   1.063
10822SOL    HW133365   5.497   1.808   1.020
10822SOL    HW233366   5.343   1.798   1.074
10823SOL     OW33367   0.371   0.046   3.688
10823SOL    HW133368   0.456   0.009   3.727
10823SOL    HW233369   0.391   0.085   3.598
10824SOL     OW33370   1.023   1.419   2.973
10824SOL    HW133371   0.929   1.424   3.007
10824SOL    HW233372   1.030   1.471   2.888
10825SOL     OW33373   1.098   2.464   0.610
10825SOL    HW133374   1.188   2.423   0.621
10825SOL    HW233375   1.027   2.395   0.624
10826SOL     OW33376   0.788   2.127   2.846
10826SOL    HW133377   0.886   2.120   2.829
10826SOL    HW233378   0.773   2.147   2.943
10827SOL     OW33379   6.446   3.189   4.804
10827SOL    HW133380   6.428   3.198   4.902
10827SOL    HW233381   6.367   3.222   4.752
10828SOL     OW33382   6.748   3.822   0.064
10828SOL    HW133383   6.691   3.742   0.082
10828SOL    HW233384   6.831   3.794   0.017
10829SOL     OW33385   4.772   3.442   0.103
10829SOL    HW133386   4.804   3.349   0.085
10829SOL    HW233387   4.748   3.451   0.200
10830SOL     OW33388   4.679   1.550   3.766
10830SOL    HW133389   4.747   1.478   3.778
10830SOL    HW233390   4.646   1.581   3.855
10831SOL     OW33391   3.880   0.680   2.035
10831SOL    HW133392   3.808   0.739   1.999
10831SOL    HW233393   3.942   0.734   2.091
10832SOL     OW33394   6.868   3.150   6.856
10832SOL    HW133395   6.768   3.151   6.856
10832SOL    HW233396   6.902   3.181   6.767
10833SOL     OW33397   0.267   2.656   1.040
10833SOL    HW133398   0.256   2.585   1.110
10833SOL    HW233399   0.260   2.615   0.950
10834SOL     OW33400   6.323   1.015   1.081
10834SOL    HW133401   6.401   1.028   1.142
10834SOL    HW233402   6.243   1.062   1.118
10835SOL     OW33403   4.953   3.486   0.738
10835SOL    HW133404   5.006   3.564   0.772
10835SOL    HW233405   4.984   3.403   0.784
10836SOL     OW33406   1.362   0.562   2.577
10836SOL    HW133407   1.421   0.621   2.521
10836SOL    HW233408   1.415   0.526   2.654
10837SOL     OW33409   6.233   4.539   2.064
10837SOL    HW133410   6.264   4.633   2.079
10837SOL    HW233411   6.165   4.537   1.991
10838SOL     OW33412   5.532   6.643   3.846
10838SOL    HW133413   5.515   6.674   3.753
10838SOL    HW233414   5.471   6.566   3.867
10839SOL     OW33415   4.493   3.495   0.693
10839SOL    HW133416   4.495   3.573   0.756
10839SOL    HW233417   4.571   3.436   0.710
10840SOL     OW33418   3.384   0.709   1.932
10840SOL    HW133419   3.478   0.678   1.943
10840SOL    HW233420   3.337   0.703   2.020
10841SOL     OW33421   6.383   5.214   4.915
10841SOL    HW133422   6.464   5.237   4.861
10841SOL    HW233423   6.392   5.251   5.007
10842SOL     OW33424   4.151   2.900   1.662
10842SOL    HW133425   4.072   2.890   1.722
10842SOL    HW233426   4.209   2.975   1.695
10843SOL     OW33427   2.004   1.557   0.958
10843SOL    HW133428   1.947   1.529   1.035
10843SOL    HW233429   1.960   1.531   0.873
10844SOL     OW33430   0.387   5.848   4.313
10844SOL    HW133431   0.375   5.944   4.288
10844SOL    HW233432   0.415   5.841   4.409
10845SOL     OW33433   4.353   5.903   4.779
10845SOL    HW133434   4.332   5.977   4.714
10845SOL    HW233435   4.451   5.886   4.779
10846SOL     OW33436   5.861   6.499   6.914
10846SOL    HW133437   5.831   6.421   6.968
10846SOL    HW233438   5.959   6.490   6.894
10847SOL     OW33439   2.182   1.736   0.168
10847SOL    HW133440   2.141   1.717   0.258
10847SOL    HW233441   2.186   1.651   0.116
10848SOL     OW33442   0.710   3.961   1.410
10848SOL    HW133443   0.809   3.948   1.416
10848SOL    HW233444   0.688   4.002   1.322
10849SOL     OW33445   3.003   4.954   4.369
10849SOL    HW133446   2.977   4.899   4.290
10849SOL    HW233447   2.935   4.942   4.442
10850SOL     OW33448   4.002   6.171   0.051
10850SOL    HW133449   4.084   6.115   0.057
10850SOL    HW233450   3.985   6.196   6.979
10851SOL     OW33451   2.750   4.014   1.506
10851SOL    HW133452   2.735   4.085   1.438
10851SOL    HW233453   2.662   3.984   1.543
10852SOL     OW33454   2.040   1.399   0.285
10852SOL    HW133455   2.097   1.406   0.203
10852SOL    HW233456   2.099   1.393   0.365
10853SOL     OW33457   2.369   3.278   6.011
10853SOL    HW133458   2.360   3.178   6.002
10853SOL    HW233459   2.401   3.300   6.103
10854SOL     OW33460   4.323   5.284   5.055
10854SOL    HW133461   4.414   5.246   5.038
10854SOL    HW233462   4.295   5.264   5.148
10855SOL     OW33463   3.602   0.899   0.271
10855SOL    HW133464   3.527   0.864   0.327
10855SOL    HW233465   3.661   0.824   0.243
10856SOL     OW33466   0.044   0.517   6.297
10856SOL    HW133467   0.095   0.603   6.296
10856SOL    HW233468   0.022   0.492   6.392
10857SOL     OW33469   0.056   1.863   2.340
10857SOL    HW133470   0.123   1.920   2.387
10857SOL    HW233471   0.063   1.878   2.241
10858SOL     OW33472   2.116   6.113   1.390
10858SOL    HW133473   2.138   6.144   1.482
10858SOL    HW233474   2.195   6.128   1.330
10859SOL     OW33475   6.807   4.814   4.498
10859SOL    HW133476   6.794   4.907   4.532
10859SOL    HW233477   6.844   4.818   4.405
10860SOL     OW33478   6.842   3.783   3.457
10860SOL    HW133479   6.744   3.765   3.453
10860SOL    HW233480   6.887   3.717   3.518
10861SOL     OW33481   3.039   3.476   3.294
10861SOL    HW133482   3.099   3.492   3.373
10861SOL    HW233483   2.992   3.389   3.306
10862SOL     OW33484   2.079   0.887   5.941
10862SOL    HW133485   2.090   0.985   5.927
10862SOL    HW233486   2.169   0.842   5.935
10863SOL     OW33487   2.196   6.870   4.293
10863SOL    HW133488   2.144   6.797   4.249
10863SOL    HW233489   2.135   6.922   4.353
10864SOL     OW33490   3.126   6.292   1.803
10864SOL    HW133491   3.172   6.379   1.786
10864SOL    HW233492   3.094   6.289   1.897
10865SOL     OW33493   6.695   1.347   6.872
10865SOL    HW133494   6.762   1.391   6.931
10865SOL    HW233495   6.665   1.412   6.802
10866SOL     OW33496   5.180   4.773   6.734
10866SOL    HW133497   5.188   4.770   6.634
10866SOL    HW233498   5.243   4.842   6.770
10867SOL     OW33499   2.985   4.599   0.710
10867SOL    HW133500   3.059   4.581   0.774
10867SOL    HW233501   2.987   4.696   0.684
10868SOL     OW33502   4.891   1.698   3.578
10868SOL    HW133503   4.925   1.604   3.586
10868SOL    HW233504   4.805   1.707   3.628
10869NA      NA33505   6.280   2.265   5.633
10870NA      NA33506   4.251   4.814   5.044
10871NA      NA33507   1.660   3.440   1.492
10872NA      NA33508   4.993   3.680   5.468
10873NA      NA33509   4.250   2.170   4.953
10874NA      NA33510   3.645   4.649   1.612
10875NA      NA33511   6.521   5.450   5.476
10876NA      NA33512   3.569   3.458   4.592
10877NA      NA33513   4.873   6.474   6.834
10878NA      NA33514   3.455   6.641   5.495
10879NA      NA33515   6.461   5.088   2.450
10880NA      NA33516   2.464   0.755   3.902
10881NA      NA33517   3.814   5.230   1.111
10882NA      NA33518   3.692   3.550   2.451
   7.02305   7.02305   7.02305
