Generated by trjconv : CNT in water t=  51.00000
33518
    1C        C    1   2.838   2.765   4.748
    1C        C    2   2.893   2.716   4.869
    1C        C    3   2.842   2.770   4.987
    1C        C    4   2.848   2.774   4.261
    1C        C    5   2.899   2.723   4.383
    1C        C    6   2.844   2.770   4.505
    1C        C    7   3.012   2.641   4.626
    1C        C    8   2.895   2.721   4.627
    1C        C    9   3.076   2.602   4.746
    1C        C   10   3.007   2.634   4.865
    1C        C   11   3.183   2.496   4.976
    1C        C   12   3.062   2.566   4.975
    1C        C   13   2.845   2.768   3.771
    1C        C   14   2.898   2.723   3.894
    1C        C   15   2.847   2.770   4.017
    1C        C   16   3.018   2.647   4.138
    1C        C   17   2.900   2.725   4.139
    1C        C   18   3.078   2.615   4.262
    1C        C   19   3.017   2.647   4.385
    1C        C   20   3.209   2.555   4.502
    1C        C   21   3.076   2.603   4.506
    1C        C   22   3.280   2.532   4.622
    1C        C   23   3.209   2.550   4.743
    1C        C   24   3.412   2.485   4.862
    1C        C   25   3.270   2.504   4.862
    1C        C   26   3.486   2.474   4.980
    1C        C   27   2.852   2.769   3.282
    1C        C   28   2.904   2.721   3.405
    1C        C   29   2.853   2.769   3.527
    1C        C   30   3.019   2.640   3.650
    1C        C   31   2.903   2.721   3.650
    1C        C   32   3.080   2.607   3.774
    1C        C   33   3.014   2.643   3.893
    1C        C   34   3.205   2.550   4.019
    1C        C   35   3.078   2.611   4.015
    1C        C   36   3.274   2.529   4.140
    1C        C   37   3.208   2.561   4.261
    1C        C   38   3.416   2.508   4.379
    1C        C   39   3.276   2.530   4.381
    1C        C   40   3.487   2.503   4.501
    1C        C   41   3.418   2.505   4.624
    1C        C   42   3.633   2.482   4.743
    1C        C   43   3.490   2.479   4.743
    1C        C   44   3.704   2.489   4.865
    1C        C   45   3.625   2.479   4.980
    1C        C   46   2.833   2.751   2.794
    1C        C   47   2.894   2.711   2.915
    1C        C   48   2.845   2.762   3.038
    1C        C   49   3.015   2.634   3.160
    1C        C   50   2.902   2.719   3.160
    1C        C   51   3.075   2.596   3.282
    1C        C   52   3.018   2.637   3.405
    1C        C   53   3.209   2.550   3.526
    1C        C   54   3.078   2.601   3.528
    1C        C   55   3.276   2.535   3.650
    1C        C   56   3.209   2.550   3.773
    1C        C   57   3.413   2.508   3.892
    1C        C   58   3.273   2.526   3.897
    1C        C   59   3.482   2.501   4.015
    1C        C   60   3.414   2.509   4.139
    1C        C   61   3.630   2.496   4.257
    1C        C   62   3.489   2.502   4.259
    1C        C   63   3.702   2.502   4.379
    1C        C   64   3.628   2.497   4.500
    1C        C   65   3.834   2.544   4.621
    1C        C   66   3.701   2.497   4.621
    1C        C   67   3.904   2.565   4.742
    1C        C   68   3.840   2.529   4.862
    1C        C   69   4.051   2.586   4.979
    1C        C   70   3.920   2.537   4.977
    1C        C   71   2.824   2.730   2.309
    1C        C   72   2.884   2.692   2.431
    1C        C   73   2.827   2.741   2.550
    1C        C   74   3.004   2.625   2.672
    1C        C   75   2.883   2.699   2.673
    1C        C   76   3.068   2.591   2.793
    1C        C   77   3.011   2.632   2.916
    1C        C   78   3.207   2.549   3.035
    1C        C   79   3.074   2.597   3.037
    1C        C   80   3.273   2.526   3.158
    1C        C   81   3.205   2.541   3.281
    1C        C   82   3.412   2.497   3.400
    1C        C   83   3.273   2.520   3.403
    1C        C   84   3.482   2.497   3.523
    1C        C   85   3.413   2.501   3.646
    1C        C   86   3.623   2.503   3.771
    1C        C   87   3.482   2.498   3.769
    1C        C   88   3.694   2.511   3.893
    1C        C   89   3.623   2.499   4.015
    1C        C   90   3.833   2.552   4.133
    1C        C   91   3.699   2.507   4.134
    1C        C   92   3.900   2.574   4.256
    1C        C   93   3.837   2.543   4.378
    1C        C   94   4.025   2.640   4.498
    1C        C   95   3.904   2.569   4.500
    1C        C   96   4.088   2.675   4.620
    1C        C   97   4.034   2.624   4.739
    1C        C   98   4.189   2.764   4.860
    1C        C   99   4.100   2.652   4.862
    1C        C  100   4.211   2.843   4.974
    1C        C  101   2.824   2.731   2.068
    1C        C  102   2.990   2.590   2.187
    1C        C  103   2.881   2.683   2.187
    1C        C  104   3.062   2.572   2.309
    1C        C  105   3.003   2.616   2.429
    1C        C  106   3.198   2.533   2.549
    1C        C  107   3.067   2.587   2.552
    1C        C  108   3.271   2.524   2.670
    1C        C  109   3.200   2.542   2.791
    1C        C  110   3.409   2.494   2.913
    1C        C  111   3.271   2.523   2.912
    1C        C  112   3.483   2.485   3.033
    1C        C  113   3.411   2.494   3.155
    1C        C  114   3.622   2.496   3.280
    1C        C  115   3.481   2.487   3.277
    1C        C  116   3.691   2.508   3.403
    1C        C  117   3.623   2.502   3.527
    1C        C  118   3.832   2.540   3.645
    1C        C  119   3.693   2.513   3.649
    1C        C  120   3.894   2.573   3.767
    1C        C  121   3.830   2.550   3.891
    1C        C  122   4.023   2.644   4.008
    1C        C  123   3.900   2.574   4.011
    1C        C  124   4.085   2.672   4.131
    1C        C  125   4.028   2.633   4.255
    1C        C  126   4.195   2.766   4.375
    1C        C  127   4.088   2.674   4.376
    1C        C  128   4.250   2.815   4.496
    1C        C  129   4.197   2.765   4.617
    1C        C  130   4.325   2.934   4.738
    1C        C  131   4.240   2.821   4.740
    1C        C  132   4.354   3.002   4.858
    1C        C  133   4.284   2.961   4.973
    1C        C  134   3.174   2.472   2.082
    1C        C  135   3.038   2.507   2.082
    1C        C  136   3.264   2.484   2.189
    1C        C  137   3.195   2.523   2.306
    1C        C  138   3.404   2.482   2.428
    1C        C  139   3.264   2.503   2.428
    1C        C  140   3.479   2.488   2.547
    1C        C  141   3.409   2.497   2.669
    1C        C  142   3.622   2.495   2.792
    1C        C  143   3.481   2.491   2.791
    1C        C  144   3.694   2.502   2.913
    1C        C  145   3.623   2.496   3.035
    1C        C  146   3.829   2.541   3.157
    1C        C  147   3.693   2.504   3.158
    1C        C  148   3.894   2.570   3.280
    1C        C  149   3.827   2.547   3.402
    1C        C  150   4.024   2.629   3.520
    1C        C  151   3.898   2.566   3.523
    1C        C  152   4.085   2.668   3.642
    1C        C  153   4.021   2.637   3.763
    1C        C  154   4.192   2.767   3.887
    1C        C  155   4.081   2.679   3.884
    1C        C  156   4.246   2.812   4.009
    1C        C  157   4.196   2.760   4.130
    1C        C  158   4.339   2.919   4.252
    1C        C  159   4.246   2.812   4.252
    1C        C  160   4.379   2.980   4.373
    1C        C  161   4.332   2.930   4.496
    1C        C  162   4.437   3.116   4.614
    1C        C  163   4.369   2.993   4.617
    1C        C  164   4.461   3.184   4.735
    1C        C  165   4.428   3.122   4.858
    1C        C  166   4.506   3.319   4.970
    1C        C  167   4.479   3.183   4.973
    1C        C  168   3.477   2.439   2.069
    1C        C  169   3.403   2.459   2.186
    1C        C  170   3.617   2.463   2.305
    1C        C  171   3.475   2.461   2.307
    1C        C  172   3.692   2.487   2.422
    1C        C  173   3.620   2.489   2.543
    1C        C  174   3.823   2.541   2.666
    1C        C  175   3.687   2.505   2.667
    1C        C  176   3.892   2.564   2.787
    1C        C  177   3.830   2.540   2.912
    1C        C  178   4.023   2.626   3.028
    1C        C  179   3.895   2.565   3.035
    1C        C  180   4.083   2.662   3.151
    1C        C  181   4.022   2.629   3.274
    1C        C  182   4.195   2.749   3.396
    1C        C  183   4.084   2.662   3.396
    1C        C  184   4.248   2.801   3.517
    1C        C  185   4.197   2.755   3.640
    1C        C  186   4.337   2.915   3.763
    1C        C  187   4.243   2.809   3.762
    1C        C  188   4.380   2.972   3.885
    1C        C  189   4.341   2.916   4.009
    1C        C  190   4.446   3.101   4.127
    1C        C  191   4.381   2.976   4.130
    1C        C  192   4.469   3.171   4.247
    1C        C  193   4.441   3.107   4.370
    1C        C  194   4.506   3.313   4.490
    1C        C  195   4.468   3.177   4.490
    1C        C  196   4.523   3.384   4.611
    1C        C  197   4.516   3.316   4.734
    1C        C  198   4.554   3.534   4.848
    1C        C  199   4.530   3.393   4.853
    1C        C  200   4.579   3.619   4.960
    1C        C  201   3.615   2.417   2.075
    1C        C  202   3.832   2.500   2.183
    1C        C  203   3.695   2.460   2.186
    1C        C  204   3.900   2.535   2.303
    1C        C  205   3.829   2.521   2.424
    1C        C  206   4.019   2.624   2.541
    1C        C  207   3.895   2.557   2.545
    1C        C  208   4.081   2.660   2.662
    1C        C  209   4.019   2.627   2.784
    1C        C  210   4.194   2.749   2.906
    1C        C  211   4.080   2.667   2.905
    1C        C  212   4.248   2.794   3.029
    1C        C  213   4.195   2.748   3.151
    1C        C  214   4.338   2.904   3.270
    1C        C  215   4.247   2.796   3.273
    1C        C  216   4.375   2.965   3.392
    1C        C  217   4.339   2.910   3.517
    1C        C  218   4.438   3.097   3.639
    1C        C  219   4.377   2.970   3.639
    1C        C  220   4.467   3.165   3.760
    1C        C  221   4.445   3.097   3.882
    1C        C  222   4.500   3.304   4.002
    1C        C  223   4.471   3.166   4.003
    1C        C  224   4.512   3.378   4.121
    1C        C  225   4.503   3.308   4.244
    1C        C  226   4.514   3.520   4.366
    1C        C  227   4.515   3.379   4.365
    1C        C  228   4.512   3.594   4.486
    1C        C  229   4.529   3.525   4.608
    1C        C  230   4.499   3.741   4.726
    1C        C  231   4.531   3.603   4.726
    1C        C  232   4.491   3.816   4.845
    1C        C  233   4.544   3.755   4.959
    1C        C  234   4.016   2.608   2.064
    1C        C  235   3.896   2.538   2.064
    1C        C  236   4.084   2.650   2.180
    1C        C  237   4.022   2.609   2.299
    1C        C  238   4.204   2.728   2.418
    1C        C  239   4.085   2.650   2.419
    1C        C  240   4.255   2.782   2.539
    1C        C  241   4.196   2.743   2.661
    1C        C  242   4.340   2.900   2.780
    1C        C  243   4.246   2.795   2.783
    1C        C  244   4.379   2.958   2.903
    1C        C  245   4.341   2.901   3.026
    1C        C  246   4.440   3.089   3.148
    1C        C  247   4.379   2.962   3.148
    1C        C  248   4.460   3.158   3.270
    1C        C  249   4.432   3.094   3.393
    1C        C  250   4.489   3.298   3.510
    1C        C  251   4.457   3.161   3.515
    1C        C  252   4.507   3.368   3.632
    1C        C  253   4.500   3.302   3.757
    1C        C  254   4.517   3.514   3.876
    1C        C  255   4.507   3.373   3.879
    1C        C  256   4.516   3.589   3.996
    1C        C  257   4.514   3.520   4.119
    1C        C  258   4.486   3.728   4.242
    1C        C  259   4.512   3.589   4.242
    1C        C  260   4.467   3.798   4.363
    1C        C  261   4.476   3.730   4.486
    1C        C  262   4.425   3.942   4.603
    1C        C  263   4.468   3.807   4.605
    1C        C  264   4.401   4.012   4.723
    1C        C  265   4.433   3.945   4.843
    1C        C  266   4.317   4.130   4.956
    1C        C  267   4.389   4.011   4.959
    1C        C  268   4.263   2.780   2.060
    1C        C  269   4.195   2.738   2.175
    1C        C  270   4.350   2.883   2.297
    1C        C  271   4.254   2.778   2.296
    1C        C  272   4.389   2.948   2.417
    1C        C  273   4.342   2.893   2.538
    1C        C  274   4.444   3.084   2.660
    1C        C  275   4.375   2.961   2.657
    1C        C  276   4.465   3.151   2.783
    1C        C  277   4.442   3.084   2.905
    1C        C  278   4.505   3.289   3.022
    1C        C  279   4.471   3.152   3.025
    1C        C  280   4.513   3.362   3.143
    1C        C  281   4.497   3.295   3.267
    1C        C  282   4.507   3.508   3.387
    1C        C  283   4.505   3.367   3.388
    1C        C  284   4.508   3.579   3.509
    1C        C  285   4.511   3.510   3.633
    1C        C  286   4.485   3.722   3.752
    1C        C  287   4.507   3.583   3.753
    1C        C  288   4.465   3.791   3.874
    1C        C  289   4.487   3.727   3.998
    1C        C  290   4.427   3.932   4.116
    1C        C  291   4.473   3.798   4.120
    1C        C  292   4.396   3.996   4.238
    1C        C  293   4.425   3.933   4.361
    1C        C  294   4.327   4.127   4.476
    1C        C  295   4.396   4.004   4.480
    1C        C  296   4.286   4.189   4.596
    1C        C  297   4.329   4.135   4.719
    1C        C  298   4.202   4.315   4.834
    1C        C  299   4.287   4.200   4.838
    1C        C  300   4.173   4.402   4.944
    1C        C  301   4.348   2.890   2.057
    1C        C  302   4.469   3.066   2.175
    1C        C  303   4.400   2.941   2.177
    1C        C  304   4.479   3.141   2.295
    1C        C  305   4.450   3.075   2.417
    1C        C  306   4.516   3.280   2.536
    1C        C  307   4.478   3.144   2.536
    1C        C  308   4.520   3.355   2.656
    1C        C  309   4.503   3.287   2.779
    1C        C  310   4.519   3.499   2.895
    1C        C  311   4.517   3.358   2.900
    1C        C  312   4.515   3.572   3.016
    1C        C  313   4.516   3.503   3.139
    1C        C  314   4.482   3.712   3.262
    1C        C  315   4.508   3.573   3.262
    1C        C  316   4.468   3.785   3.383
    1C        C  317   4.485   3.718   3.506
    1C        C  318   4.428   3.923   3.626
    1C        C  319   4.471   3.789   3.628
    1C        C  320   4.399   3.990   3.747
    1C        C  321   4.423   3.925   3.870
    1C        C  322   4.319   4.110   3.989
    1C        C  323   4.397   3.993   3.992
    1C        C  324   4.282   4.175   4.109
    1C        C  325   4.328   4.119   4.231
    1C        C  326   4.189   4.282   4.352
    1C        C  327   4.287   4.181   4.351
    1C        C  328   4.134   4.334   4.471
    1C        C  329   4.190   4.293   4.594
    1C        C  330   4.023   4.434   4.708
    1C        C  331   4.136   4.347   4.712
    1C        C  332   3.968   4.487   4.827
    1C        C  333   4.051   4.471   4.939
    1C        C  334   4.551   3.269   2.061
    1C        C  335   4.532   3.130   2.063
    1C        C  336   4.532   3.349   2.175
    1C        C  337   4.514   3.279   2.296
    1C        C  338   4.519   3.495   2.408
    1C        C  339   4.521   3.353   2.416
    1C        C  340   4.516   3.568   2.529
    1C        C  341   4.521   3.496   2.651
    1C        C  342   4.489   3.708   2.772
    1C        C  343   4.514   3.569   2.772
    1C        C  344   4.477   3.779   2.894
    1C        C  345   4.493   3.711   3.017
    1C        C  346   4.419   3.912   3.136
    1C        C  347   4.469   3.779   3.138
    1C        C  348   4.390   3.980   3.256
    1C        C  349   4.422   3.918   3.379
    1C        C  350   4.316   4.100   3.499
    1C        C  351   4.394   3.981   3.502
    1C        C  352   4.273   4.157   3.620
    1C        C  353   4.320   4.107   3.744
    1C        C  354   4.179   4.267   3.864
    1C        C  355   4.276   4.164   3.866
    1C        C  356   4.126   4.317   3.985
    1C        C  357   4.182   4.274   4.107
    1C        C  358   4.014   4.403   4.227
    1C        C  359   4.132   4.324   4.230
    1C        C  360   3.952   4.444   4.347
    1C        C  361   4.018   4.415   4.469
    1C        C  362   3.826   4.514   4.590
    1C        C  363   3.958   4.464   4.587
    1C        C  364   3.761   4.543   4.712
    1C        C  365   3.836   4.536   4.832
    1C        C  366   3.626   4.592   4.947
    1C        C  367   3.764   4.571   4.947
    1C        C  368   4.503   3.562   2.049
    1C        C  369   4.522   3.489   2.167
    1C        C  370   4.498   3.705   2.284
    1C        C  371   4.518   3.565   2.286
    1C        C  372   4.484   3.776   2.405
    1C        C  373   4.502   3.709   2.528
    1C        C  374   4.422   3.907   2.648
    1C        C  375   4.474   3.775   2.649
    1C        C  376   4.391   3.971   2.770
    1C        C  377   4.423   3.909   2.893
    1C        C  378   4.315   4.095   3.011
    1C        C  379   4.388   3.974   3.013
    1C        C  380   4.268   4.155   3.130
    1C        C  381   4.311   4.097   3.251
    1C        C  382   4.178   4.257   3.375
    1C        C  383   4.275   4.154   3.375
    1C        C  384   4.123   4.304   3.496
    1C        C  385   4.176   4.260   3.619
    1C        C  386   4.005   4.387   3.741
    1C        C  387   4.124   4.310   3.741
    1C        C  388   3.945   4.428   3.862
    1C        C  389   4.006   4.392   3.984
    1C        C  390   3.821   4.493   4.106
    1C        C  391   3.950   4.436   4.106
    1C        C  392   3.752   4.515   4.227
    1C        C  393   3.822   4.499   4.349
    1C        C  394   3.616   4.554   4.471
    1C        C  395   3.756   4.533   4.469
    1C        C  396   3.544   4.560   4.593
    1C        C  397   3.621   4.560   4.711
    1C        C  398   3.409   4.557   4.839
    1C        C  399   3.549   4.576   4.831
    1C        C  400   3.345   4.514   4.956
    1C        C  401   4.497   3.701   2.048
    1C        C  402   4.454   3.915   2.165
    1C        C  403   4.492   3.779   2.164
    1C        C  404   4.414   3.979   2.285
    1C        C  405   4.443   3.911   2.405
    1C        C  406   4.325   4.092   2.523
    1C        C  407   4.400   3.973   2.525
    1C        C  408   4.272   4.143   2.644
    1C        C  409   4.312   4.088   2.767
    1C        C  410   4.172   4.250   2.885
    1C        C  411   4.271   4.150   2.888
    1C        C  412   4.122   4.300   3.007
    1C        C  413   4.174   4.261   3.133
    1C        C  414   4.000   4.378   3.253
    1C        C  415   4.122   4.306   3.256
    1C        C  416   3.942   4.416   3.377
    1C        C  417   4.007   4.385   3.498
    1C        C  418   3.813   4.477   3.618
    1C        C  419   3.943   4.423   3.619
    1C        C  420   3.747   4.505   3.740
    1C        C  421   3.815   4.483   3.862
    1C        C  422   3.609   4.530   3.985
    1C        C  423   3.748   4.503   3.985
    1C        C  424   3.541   4.546   4.108
    1C        C  425   3.614   4.545   4.229
    1C        C  426   3.402   4.552   4.355
    1C        C  427   3.543   4.558   4.350
    1C        C  428   3.330   4.555   4.477
    1C        C  429   3.403   4.558   4.597
    1C        C  430   3.195   4.514   4.724
    1C        C  431   3.334   4.545   4.720
    1C        C  432   3.125   4.490   4.846
    1C        C  433   3.208   4.492   4.959
    1C        C  434   4.379   4.121   2.048
    1C        C  435   4.444   3.997   2.052
    1C        C  436   4.300   4.159   2.161
    1C        C  437   4.333   4.096   2.284
    1C        C  438   4.182   4.252   2.402
    1C        C  439   4.280   4.151   2.403
    1C        C  440   4.124   4.299   2.522
    1C        C  441   4.173   4.244   2.642
    1C        C  442   4.005   4.379   2.764
    1C        C  443   4.118   4.295   2.762
    1C        C  444   3.943   4.412   2.886
    1C        C  445   4.005   4.379   3.009
    1C        C  446   3.813   4.475   3.129
    1C        C  447   3.940   4.412   3.130
    1C        C  448   3.747   4.498   3.251
    1C        C  449   3.812   4.471   3.374
    1C        C  450   3.608   4.529   3.493
    1C        C  451   3.745   4.495   3.496
    1C        C  452   3.540   4.535   3.617
    1C        C  453   3.608   4.528   3.741
    1C        C  454   3.397   4.542   3.863
    1C        C  455   3.538   4.541   3.863
    1C        C  456   3.328   4.538   3.987
    1C        C  457   3.400   4.543   4.109
    1C        C  458   3.196   4.499   4.236
    1C        C  459   3.333   4.535   4.233
    1C        C  460   3.129   4.484   4.360
    1C        C  461   3.194   4.516   4.481
    1C        C  462   3.001   4.428   4.602
    1C        C  463   3.128   4.489   4.603
    1C        C  464   2.935   4.397   4.723
    1C        C  465   2.990   4.442   4.846
    1C        C  466   2.799   4.340   4.957
    1C        C  467   2.905   4.432   4.960
    1C        C  468   4.118   4.288   2.043
    1C        C  469   4.187   4.247   2.158
    1C        C  470   4.008   4.370   2.278
    1C        C  471   4.128   4.295   2.278
    1C        C  472   3.940   4.403   2.398
    1C        C  473   4.007   4.379   2.520
    1C        C  474   3.813   4.465   2.643
    1C        C  475   3.945   4.415   2.641
    1C        C  476   3.746   4.493   2.764
    1C        C  477   3.814   4.470   2.885
    1C        C  478   3.605   4.514   3.008
    1C        C  479   3.744   4.490   3.006
    1C        C  480   3.535   4.528   3.130
    1C        C  481   3.608   4.520   3.251
    1C        C  482   3.395   4.536   3.377
    1C        C  483   3.536   4.533   3.372
    1C        C  484   3.324   4.534   3.500
    1C        C  485   3.398   4.541   3.620
    1C        C  486   3.190   4.497   3.743
    1C        C  487   3.327   4.529   3.741
    1C        C  488   3.128   4.473   3.868
    1C        C  489   3.192   4.502   3.991
    1C        C  490   3.004   4.411   4.115
    1C        C  491   3.127   4.480   4.115
    1C        C  492   2.943   4.382   4.239
    1C        C  493   3.004   4.418   4.361
    1C        C  494   2.827   4.300   4.485
    1C        C  495   2.936   4.389   4.482
    1C        C  496   2.769   4.256   4.606
    1C        C  497   2.819   4.314   4.724
    1C        C  498   2.661   4.167   4.845
    1C        C  499   2.754   4.273   4.843
    1C        C  500   2.596   4.114   4.958
    1C        C  501   3.995   4.352   2.044
    1C        C  502   3.810   4.463   2.154
    1C        C  503   3.939   4.406   2.161
    1C        C  504   3.741   4.481   2.276
    1C        C  505   3.809   4.456   2.398
    1C        C  506   3.606   4.511   2.517
    1C        C  507   3.744   4.482   2.520
    1C        C  508   3.536   4.520   2.639
    1C        C  509   3.607   4.518   2.761
    1C        C  510   3.396   4.517   2.884
    1C        C  511   3.537   4.519   2.884
    1C        C  512   3.326   4.517   3.006
    1C        C  513   3.394   4.529   3.129
    1C        C  514   3.189   4.501   3.255
    1C        C  515   3.327   4.532   3.254
    1C        C  516   3.123   4.470   3.376
    1C        C  517   3.187   4.498   3.499
    1C        C  518   2.995   4.410   3.622
    1C        C  519   3.121   4.475   3.621
    1C        C  520   2.941   4.371   3.747
    1C        C  521   3.001   4.412   3.868
    1C        C  522   2.838   4.281   3.995
    1C        C  523   2.947   4.371   3.992
    1C        C  524   2.790   4.232   4.119
    1C        C  525   2.834   4.293   4.239
    1C        C  526   2.695   4.135   4.363
    1C        C  527   2.783   4.246   4.362
    1C        C  528   2.653   4.076   4.485
    1C        C  529   2.686   4.142   4.605
    1C        C  530   2.584   3.959   4.728
    1C        C  531   2.639   4.091   4.729
    1C        C  532   2.541   3.898   4.849
    1C        C  533   2.532   3.989   4.959
    1C        C  534   3.615   4.552   2.036
    1C        C  535   3.751   4.518   2.040
    1C        C  536   3.534   4.530   2.152
    1C        C  537   3.604   4.518   2.275
    1C        C  538   3.392   4.516   2.398
    1C        C  539   3.533   4.524   2.397
    1C        C  540   3.321   4.506   2.520
    1C        C  541   3.396   4.506   2.640
    1C        C  542   3.186   4.478   2.765
    1C        C  543   3.325   4.501   2.763
    1C        C  544   3.122   4.457   2.889
    1C        C  545   3.189   4.483   3.011
    1C        C  546   3.000   4.396   3.135
    1C        C  547   3.122   4.467   3.135
    1C        C  548   2.942   4.356   3.257
    1C        C  549   3.001   4.398   3.378
    1C        C  550   2.833   4.271   3.504
    1C        C  551   2.939   4.366   3.501
    1C        C  552   2.785   4.225   3.629
    1C        C  553   2.839   4.272   3.750
    1C        C  554   2.702   4.115   3.875
    1C        C  555   2.790   4.226   3.874
    1C        C  556   2.660   4.062   3.999
    1C        C  557   2.699   4.124   4.120
    1C        C  558   2.595   3.943   4.245
    1C        C  559   2.659   4.069   4.244
    1C        C  560   2.573   3.877   4.368
    1C        C  561   2.591   3.949   4.488
    1C        C  562   2.531   3.747   4.614
    1C        C  563   2.561   3.885   4.610
    1C        C  564   2.515   3.679   4.736
    1C        C  565   2.519   3.757   4.855
    1C        C  566   2.529   3.545   4.973
    1C        C  567   2.520   3.684   4.975
    1C        C  568   3.330   4.465   2.036
    1C        C  569   3.394   4.509   2.153
    1C        C  570   3.184   4.471   2.281
    1C        C  571   3.321   4.507   2.276
    1C        C  572   3.115   4.451   2.402
    1C        C  573   3.183   4.478   2.523
    1C        C  574   2.989   4.393   2.648
    1C        C  575   3.115   4.457   2.645
    1C        C  576   2.930   4.356   2.771
    1C        C  577   2.996   4.392   2.891
    1C        C  578   2.826   4.269   3.016
    1C        C  579   2.937   4.357   3.015
    1C        C  580   2.776   4.219   3.138
    1C        C  581   2.832   4.267   3.258
    1C        C  582   2.696   4.109   3.384
    1C        C  583   2.783   4.220   3.382
    1C        C  584   2.658   4.054   3.508
    1C        C  585   2.696   4.116   3.630
    1C        C  586   2.598   3.931   3.754
    1C        C  587   2.658   4.059   3.753
    1C        C  588   2.573   3.867   3.878
    1C        C  589   2.595   3.937   3.998
    1C        C  590   2.537   3.737   4.128
    1C        C  591   2.573   3.874   4.123
    1C        C  592   2.521   3.671   4.251
    1C        C  593   2.534   3.742   4.372
    1C        C  594   2.508   3.531   4.494
    1C        C  595   2.518   3.672   4.494
    1C        C  596   2.513   3.462   4.617
    1C        C  597   2.513   3.536   4.738
    1C        C  598   2.535   3.324   4.861
    1C        C  599   2.524   3.465   4.859
    1C        C  600   2.535   3.250   4.980
    1C        C  601   3.196   4.433   2.043
    1C        C  602   2.984   4.389   2.158
    1C        C  603   3.118   4.440   2.159
    1C        C  604   2.930   4.345   2.282
    1C        C  605   2.986   4.393   2.402
    1C        C  606   2.820   4.266   2.531
    1C        C  607   2.930   4.355   2.526
    1C        C  608   2.766   4.217   2.652
    1C        C  609   2.821   4.266   2.773
    1C        C  610   2.684   4.107   2.895
    1C        C  611   2.774   4.216   2.896
    1C        C  612   2.651   4.045   3.018
    1C        C  613   2.689   4.107   3.139
    1C        C  614   2.587   3.925   3.265
    1C        C  615   2.649   4.052   3.263
    1C        C  616   2.570   3.861   3.389
    1C        C  617   2.597   3.927   3.511
    1C        C  618   2.530   3.727   3.638
    1C        C  619   2.569   3.863   3.634
    1C        C  620   2.515   3.661   3.762
    1C        C  621   2.532   3.731   3.884
    1C        C  622   2.503   3.524   4.007
    1C        C  623   2.523   3.664   4.008
    1C        C  624   2.505   3.455   4.130
    1C        C  625   2.510   3.530   4.250
    1C        C  626   2.531   3.319   4.378
    1C        C  627   2.511   3.459   4.372
    1C        C  628   2.555   3.254   4.501
    1C        C  629   2.539   3.323   4.623
    1C        C  630   2.597   3.115   4.744
    1C        C  631   2.558   3.252   4.743
    1C        C  632   2.610   3.042   4.866
    1C        C  633   2.556   3.111   4.978
    1C        C  634   2.783   4.301   2.055
    1C        C  635   2.891   4.389   2.049
    1C        C  636   2.747   4.227   2.169
    1C        C  637   2.814   4.263   2.287
    1C        C  638   2.678   4.104   2.409
    1C        C  639   2.770   4.211   2.411
    1C        C  640   2.638   4.045   2.532
    1C        C  641   2.682   4.104   2.653
    1C        C  642   2.573   3.922   2.776
    1C        C  643   2.639   4.048   2.775
    1C        C  644   2.550   3.855   2.898
    1C        C  645   2.581   3.922   3.018
    1C        C  646   2.520   3.724   3.146
    1C        C  647   2.555   3.861   3.143
    1C        C  648   2.510   3.656   3.269
    1C        C  649   2.530   3.725   3.391
    1C        C  650   2.504   3.519   3.515
    1C        C  651   2.514   3.660   3.515
    1C        C  652   2.509   3.452   3.639
    1C        C  653   2.505   3.520   3.763
    1C        C  654   2.533   3.312   3.885
    1C        C  655   2.509   3.451   3.886
    1C        C  656   2.549   3.247   4.010
    1C        C  657   2.534   3.317   4.132
    1C        C  658   2.609   3.122   4.257
    1C        C  659   2.550   3.251   4.256
    1C        C  660   2.636   3.058   4.379
    1C        C  661   2.597   3.119   4.501
    1C        C  662   2.708   2.936   4.624
    1C        C  663   2.628   3.052   4.621
    1C        C  664   2.749   2.876   4.746
    1C        C  665   2.695   2.927   4.867
    1C        C  666   2.741   2.866   4.984
    1C        C  667   2.677   4.021   2.055
    1C        C  668   2.678   4.103   2.168
    1C        C  669   2.589   3.908   2.290
    1C        C  670   2.638   4.042   2.289
    1C        C  671   2.561   3.845   2.412
    1C        C  672   2.581   3.916   2.532
    1C        C  673   2.515   3.716   2.657
    1C        C  674   2.549   3.853   2.655
    1C        C  675   2.503   3.646   2.780
    1C        C  676   2.516   3.718   2.900
    1C        C  677   2.501   3.511   3.030
    1C        C  678   2.511   3.652   3.025
    1C        C  679   2.498   3.441   3.152
    1C        C  680   2.498   3.515   3.272
    1C        C  681   2.531   3.306   3.399
    1C        C  682   2.503   3.445   3.395
    1C        C  683   2.554   3.241   3.522
    1C        C  684   2.535   3.313   3.642
    1C        C  685   2.601   3.110   3.773
    1C        C  686   2.551   3.243   3.764
    1C        C  687   2.632   3.044   3.893
    1C        C  688   2.601   3.116   4.011
    1C        C  689   2.713   2.939   4.140
    1C        C  690   2.638   3.058   4.134
    1C        C  691   2.754   2.879   4.262
    1C        C  692   2.712   2.939   4.383
    1C        C  693   2.755   2.880   4.504
    1C        C  694   2.630   3.889   2.055
    1C        C  695   2.524   3.701   2.173
    1C        C  696   2.578   3.831   2.172
    1C        C  697   2.506   3.634   2.296
    1C        C  698   2.524   3.708   2.415
    1C        C  699   2.491   3.501   2.542
    1C        C  700   2.506   3.641   2.538
    1C        C  701   2.502   3.432   2.664
    1C        C  702   2.502   3.505   2.785
    1C        C  703   2.520   3.297   2.910
    1C        C  704   2.508   3.437   2.909
    1C        C  705   2.542   3.231   3.033
    1C        C  706   2.531   3.303   3.154
    1C        C  707   2.596   3.103   3.280
    1C        C  708   2.547   3.235   3.277
    1C        C  709   2.630   3.043   3.403
    1C        C  710   2.609   3.111   3.524
    1C        C  711   2.711   2.931   3.648
    1C        C  712   2.635   3.050   3.649
    1C        C  713   2.751   2.873   3.770
    1C        C  714   2.711   2.927   3.895
    1C        C  715   2.757   2.880   4.020
    1C        C  716   2.447   3.497   2.059
    1C        C  717   2.489   3.630   2.057
    1C        C  718   2.465   3.419   2.178
    1C        C  719   2.488   3.493   2.297
    1C        C  720   2.514   3.288   2.424
    1C        C  721   2.487   3.427   2.421
    1C        C  722   2.538   3.220   2.545
    1C        C  723   2.525   3.292   2.666
    1C        C  724   2.595   3.096   2.791
    1C        C  725   2.534   3.224   2.789
    1C        C  726   2.620   3.034   2.915
    1C        C  727   2.594   3.100   3.038
    1C        C  728   2.708   2.921   3.160
    1C        C  729   2.626   3.036   3.159
    1C        C  730   2.753   2.869   3.284
    1C        C  731   2.709   2.925   3.406
    1C        C  732   2.758   2.874   3.528
    1C        C  733   2.497   3.199   2.069
    1C        C  734   2.497   3.279   2.184
    1C        C  735   2.588   3.084   2.305
    1C        C  736   2.529   3.213   2.305
    1C        C  737   2.611   3.015   2.426
    1C        C  738   2.583   3.086   2.545
    1C        C  739   2.699   2.912   2.671
    1C        C  740   2.622   3.031   2.669
    1C        C  741   2.739   2.857   2.794
    1C        C  742   2.695   2.914   2.916
    1C        C  743   2.746   2.862   3.037
    1C        C  744   2.545   3.069   2.072
    1C        C  745   2.685   2.895   2.186
    1C        C  746   2.606   3.012   2.185
    1C        C  747   2.728   2.835   2.306
    1C        C  748   2.683   2.894   2.427
    1C        C  749   2.735   2.848   2.550
    1C        C  750   2.732   2.835   2.068
    1C        C  751   3.653   2.309   1.980
    1C        O  752   3.626   2.190   2.013
    1C        O  753   3.664   2.328   1.842
    1C        C  754   4.628   3.056   1.977
    1C        O  755   4.607   3.036   1.855
    1C        O  756   4.763   3.039   2.008
    1C        C  757   4.461   4.230   1.990
    1C        O  758   4.564   4.273   2.049
    1C        O  759   4.415   4.303   1.880
    1C        C  760   3.587   4.660   1.938
    1C        O  761   3.615   4.776   1.980
    1C        O  762   3.553   4.660   1.802
    1C        C  763   2.914   4.459   1.921
    1C        O  764   2.943   4.404   1.811
    1C        O  765   2.849   4.580   1.892
    1C        C  766   2.350   3.463   1.953
    1C        O  767   2.387   3.441   1.834
    1C        O  768   2.224   3.408   1.978
    1C        C  769   4.669   3.577   5.070
    1C        O  770   4.617   3.585   5.184
    1C        O  771   4.805   3.606   5.086
    1C        C  772   4.264   4.445   5.052
    1C        O  773   4.235   4.447   5.175
    1C        O  774   4.373   4.527   5.021
    1C        C  775   4.139   2.505   5.067
    1C        O  776   4.141   2.380   5.055
    1C        O  777   4.141   2.529   5.205
    1C        C  778   2.902   4.532   5.070
    1C        O  779   2.841   4.641   5.058
    1C        O  780   2.918   4.479   5.199
    1C        C  781   2.455   3.042   5.062
    1C        O  782   2.335   3.021   5.031
    1C        O  783   2.484   3.028   5.197
    1C        C  784   2.432   3.979   5.068
    1C        O  785   2.308   3.999   5.051
    1C        O  786   2.458   3.941   5.201
    1C        C  787   2.951   2.434   1.986
    1C        O  788   2.983   2.434   1.865
    1C        O  789   2.925   2.301   2.015
    1C        C  790   3.184   2.378   5.065
    1C        O  791   3.120   2.276   5.025
    1C        O  792   3.177   2.386   5.205
    1C        H  793   4.289   3.022   5.061
    1C        H  794   4.141   2.843   5.055
    1C        H  795   4.465   3.142   5.071
    1C        H  796   4.468   3.370   5.056
    1C        H  797   4.540   3.802   5.055
    1C        H  798   4.452   4.006   5.045
    1C        H  799   4.296   4.183   5.046
    1C        H  800   4.023   4.522   5.029
    1C        H  801   3.819   4.600   5.034
    1C        H  802   3.585   4.635   5.036
    1C        H  803   3.410   4.475   5.032
    1C        H  804   3.173   4.454   5.053
    1C        H  805   3.864   2.574   5.060
    1C        H  806   3.672   2.484   5.076
    1C        H  807   2.990   2.537   5.049
    1C        H  808   3.431   2.472   5.072
    1C        H  809   2.883   2.747   5.083
    1C        H  810   2.695   2.897   5.076
    1C        H  811   2.503   3.291   5.074
    1C        H  812   2.556   3.495   5.064
    1C        H  813   2.485   3.729   5.066
    1C        H  814   2.620   4.149   5.056
    1C        H  815   2.752   4.318   5.050
    1C        H  816   2.683   2.847   1.974
    1C        H  817   2.808   2.665   1.985
    1C        H  818   3.197   2.393   2.013
    1C        H  819   3.438   2.497   1.987
    1C        H  820   3.886   2.474   1.979
    1C        H  821   4.065   2.618   1.969
    1C        H  822   4.259   2.715   1.975
    1C        H  823   4.396   2.919   1.966
    1C        H  824   4.595   3.308   1.972
    1C        H  825   4.496   3.520   1.951
    1C        H  826   4.485   3.752   1.954
    1C        H  827   3.821   4.574   1.981
    1C        H  828   3.959   4.380   1.947
    1C        H  829   4.165   4.263   1.950
    1C        H  830   4.515   3.976   1.975
    1C        H  831   2.665   3.819   1.982
    1C        H  832   2.726   4.057   1.967
    1C        H  833   2.699   4.320   1.992
    1C        H  834   3.384   4.444   1.946
    1C        H  835   3.179   4.346   1.983
    1C        H  836   2.499   2.993   2.012
    1C        H  837   2.434   3.226   1.986
    1C        H  838   2.489   3.686   1.966
    2V3OU   H29  839   2.796   3.547   1.089
    2V3OU   C27  840   2.779   3.501   1.189
    2V3OU   H27  841   2.720   3.576   1.247
    2V3OU   H28  842   2.725   3.403   1.180
    2V3OU   O11  843   2.905   3.475   1.252
    2V3OU   C15  844   2.919   3.392   1.362
    2V3OU   C13  845   3.048   3.372   1.413
    2V3OU   C14  846   3.074   3.268   1.504
    2V3OU   C16  847   2.964   3.194   1.544
    2V3OU    H6  848   2.988   3.104   1.604
    2V3OU   C12  849   3.211   3.228   1.544
    2V3OU    O2  850   3.238   3.125   1.610
    2V3OU   C10  851   3.324   3.305   1.490
    2V3OU    C8  852   3.457   3.270   1.511
    2V3OU   O10  853   3.483   3.150   1.568
    2V3OU   H26  854   3.402   3.110   1.605
    2V3OU    C6  855   3.565   3.348   1.458
    2V3OU    C5  856   3.535   3.464   1.388
    2V3OU    C4  857   3.702   3.291   1.455
    2V3OU    H4  858   3.728   3.232   1.548
    2V3OU    H5  859   3.708   3.225   1.364
    2V3OU    C2  860   3.811   3.398   1.444
    2V3OU    O6  861   3.806   3.472   1.566
    2V3OU   H21  862   3.767   3.557   1.540
    2V3OU    C3  863   3.777   3.493   1.329
    2V3OU    H2  864   3.860   3.568   1.323
    2V3OU    H3  865   3.780   3.443   1.229
    2V3OU   C25  866   3.946   3.329   1.426
    2V3OU    O7  867   3.995   3.292   1.319
    2V3OU   C26  868   4.026   3.290   1.550
    2V3OU   H22  869   4.066   3.383   1.597
    2V3OU   H23  870   4.111   3.223   1.521
    2V3OU    O8  871   3.964   3.211   1.649
    2V3OU   H24  872   3.927   3.270   1.716
    2V3OU    C1  873   3.642   3.561   1.347
    2V3OU    H1  874   3.620   3.617   1.251
    2V3OU    O3  875   3.658   3.654   1.454
    2V3OU   C19  876   3.613   3.789   1.443
    2V3OU    H9  877   3.517   3.791   1.382
    2V3OU    O4  878   3.711   3.849   1.362
    2V3OU   C20  879   3.841   3.872   1.415
    2V3OU   H10  880   3.888   3.770   1.425
    2V3OU   C24  881   3.609   3.852   1.582
    2V3OU   H16  882   3.541   3.789   1.644
    2V3OU   H17  883   3.560   3.952   1.570
    2V3OU   C23  884   3.750   3.868   1.640
    2V3OU   H15  885   3.791   3.763   1.656
    2V3OU    N1  886   3.735   3.952   1.757
    2V3OU   H19  887   3.802   3.919   1.824
    2V3OU   H20  888   3.645   3.933   1.797
    2V3OU   C21  889   3.849   3.946   1.549
    2V3OU   H11  890   3.954   3.926   1.586
    2V3OU    O5  891   3.826   4.086   1.555
    2V3OU   H18  892   3.784   4.104   1.641
    2V3OU   C22  893   3.911   3.948   1.303
    2V3OU   H12  894   3.860   4.046   1.286
    2V3OU   H13  895   3.907   3.885   1.210
    2V3OU   H14  896   4.019   3.957   1.328
    2V3OU   C11  897   3.158   3.464   1.383
    2V3OU    O1  898   3.133   3.580   1.342
    2V3OU    C9  899   3.297   3.421   1.412
    2V3OU    C7  900   3.399   3.502   1.363
    2V3OU    O9  901   3.384   3.609   1.279
    2V3OU   H25  902   3.290   3.630   1.291
    2V3OU   C17  903   2.814   3.313   1.412
    2V3OU    H7  904   2.710   3.335   1.388
    2V3OU   C18  905   2.832   3.209   1.504
    2V3OU    H8  906   2.750   3.153   1.552
    3SOL     OW  907   0.876   3.325   0.811
    3SOL    HW1  908   0.931   3.407   0.795
    3SOL    HW2  909   0.790   3.350   0.855
    4SOL     OW  910   5.657   0.940   2.420
    4SOL    HW1  911   5.632   1.036   2.431
    4SOL    HW2  912   5.748   0.934   2.379
    5SOL     OW  913   3.483   3.124   1.149
    5SOL    HW1  914   3.562   3.145   1.207
    5SOL    HW2  915   3.406   3.095   1.206
    6SOL     OW  916   2.572   2.536   1.138
    6SOL    HW1  917   2.637   2.589   1.085
    6SOL    HW2  918   2.544   2.455   1.086
    7SOL     OW  919   6.268   0.978   1.684
    7SOL    HW1  920   6.211   1.059   1.702
    7SOL    HW2  921   6.227   0.899   1.729
    8SOL     OW  922   2.812   1.710   3.510
    8SOL    HW1  923   2.814   1.701   3.610
    8SOL    HW2  924   2.892   1.761   3.479
    9SOL     OW  925   0.984   3.926   6.337
    9SOL    HW1  926   0.901   3.872   6.352
    9SOL    HW2  927   1.059   3.865   6.309
   10SOL     OW  928   0.432   4.053   0.157
   10SOL    HW1  929   0.513   4.079   0.105
   10SOL    HW2  930   0.445   4.078   0.253
   11SOL     OW  931   4.215   6.094   6.876
   11SOL    HW1  932   4.253   6.067   6.964
   11SOL    HW2  933   4.240   6.188   6.856
   12SOL     OW  934   5.306   6.025   2.695
   12SOL    HW1  935   5.366   6.010   2.616
   12SOL    HW2  936   5.264   6.115   2.689
   13SOL     OW  937   2.159   0.472   3.146
   13SOL    HW1  938   2.123   0.379   3.155
   13SOL    HW2  939   2.120   0.529   3.218
   14SOL     OW  940   2.930   6.956   1.720
   14SOL    HW1  941   2.923   6.870   1.669
   14SOL    HW2  942   2.838   6.993   1.735
   15SOL     OW  943   2.140   6.376   6.222
   15SOL    HW1  944   2.098   6.440   6.158
   15SOL    HW2  945   2.187   6.303   6.172
   16SOL     OW  946   6.821   1.452   6.595
   16SOL    HW1  947   6.745   1.513   6.573
   16SOL    HW2  948   6.823   1.376   6.531
   17SOL     OW  949   4.877   6.093   3.614
   17SOL    HW1  950   4.862   6.185   3.651
   17SOL    HW2  951   4.817   6.029   3.661
   18SOL     OW  952   1.446   1.101   0.335
   18SOL    HW1  953   1.377   1.158   0.291
   18SOL    HW2  954   1.498   1.051   0.266
   19SOL     OW  955   0.811   6.861   1.623
   19SOL    HW1  956   0.871   6.935   1.594
   19SOL    HW2  957   0.811   6.788   1.554
   20SOL     OW  958   3.022   0.872   4.159
   20SOL    HW1  959   3.074   0.789   4.179
   20SOL    HW2  960   2.927   0.860   4.190
   21SOL     OW  961   2.852   2.784   1.378
   21SOL    HW1  962   2.835   2.685   1.378
   21SOL    HW2  963   2.912   2.807   1.455
   22SOL     OW  964   0.824   1.298   4.967
   22SOL    HW1  965   0.766   1.377   4.986
   22SOL    HW2  966   0.892   1.288   5.040
   23SOL     OW  967   3.807   6.042   4.214
   23SOL    HW1  968   3.772   6.109   4.149
   23SOL    HW2  969   3.872   5.982   4.169
   24SOL     OW  970   3.942   0.852   4.641
   24SOL    HW1  971   3.892   0.938   4.647
   24SOL    HW2  972   3.987   0.834   4.729
   25SOL     OW  973   3.029   4.414   1.280
   25SOL    HW1  974   2.993   4.396   1.188
   25SOL    HW2  975   3.033   4.513   1.296
   26SOL     OW  976   5.940   1.164   2.755
   26SOL    HW1  977   5.948   1.217   2.839
   26SOL    HW2  978   5.940   1.066   2.777
   27SOL     OW  979   6.093   6.233   2.092
   27SOL    HW1  980   6.020   6.188   2.144
   27SOL    HW2  981   6.080   6.216   1.994
   28SOL     OW  982   3.109   1.113   0.677
   28SOL    HW1  983   3.061   1.110   0.589
   28SOL    HW2  984   3.205   1.091   0.663
   29SOL     OW  985   4.078   2.687   1.670
   29SOL    HW1  986   4.038   2.597   1.654
   29SOL    HW2  987   4.021   2.738   1.734
   30SOL     OW  988   3.861   1.105   4.699
   30SOL    HW1  989   3.833   1.154   4.781
   30SOL    HW2  990   3.868   1.169   4.623
   31SOL     OW  991   0.265   1.025   5.037
   31SOL    HW1  992   0.177   1.070   5.022
   31SOL    HW2  993   0.249   0.934   5.077
   32SOL     OW  994   0.077   2.084   1.929
   32SOL    HW1  995   0.130   2.168   1.916
   32SOL    HW2  996   0.110   2.013   1.866
   33SOL     OW  997   2.046   2.032   5.183
   33SOL    HW1  998   2.075   1.977   5.262
   33SOL    HW2  999   1.974   1.984   5.133
   34SOL     OW 1000   0.775   0.268   4.829
   34SOL    HW1 1001   0.771   0.199   4.757
   34SOL    HW2 1002   0.857   0.254   4.884
   35SOL     OW 1003   4.180   1.591   6.501
   35SOL    HW1 1004   4.104   1.632   6.450
   35SOL    HW2 1005   4.258   1.577   6.440
   36SOL     OW 1006   1.840   1.437   5.880
   36SOL    HW1 1007   1.804   1.364   5.939
   36SOL    HW2 1008   1.817   1.526   5.919
   37SOL     OW 1009   2.015   6.651   0.458
   37SOL    HW1 1010   1.996   6.553   0.466
   37SOL    HW2 1011   1.952   6.702   0.517
   38SOL     OW 1012   0.058   6.363   2.021
   38SOL    HW1 1013   0.107   6.345   2.106
   38SOL    HW2 1014   0.123   6.361   1.944
   39SOL     OW 1015   6.999   2.902   5.939
   39SOL    HW1 1016   6.951   2.815   5.953
   39SOL    HW2 1017   6.948   2.958   5.873
   40SOL     OW 1018   6.864   0.713   1.655
   40SOL    HW1 1019   6.863   0.651   1.733
   40SOL    HW2 1020   6.771   0.739   1.631
   41SOL     OW 1021   1.527   0.454   5.617
   41SOL    HW1 1022   1.623   0.432   5.599
   41SOL    HW2 1023   1.518   0.553   5.629
   42SOL     OW 1024   3.880   0.592   0.386
   42SOL    HW1 1025   3.910   0.615   0.479
   42SOL    HW2 1026   3.953   0.545   0.338
   43SOL     OW 1027   5.222   5.582   5.297
   43SOL    HW1 1028   5.225   5.584   5.397
   43SOL    HW2 1029   5.310   5.551   5.261
   44SOL     OW 1030   0.730   3.360   6.388
   44SOL    HW1 1031   0.753   3.306   6.468
   44SOL    HW2 1032   0.682   3.303   6.322
   45SOL     OW 1033   2.698   0.447   1.558
   45SOL    HW1 1034   2.774   0.477   1.617
   45SOL    HW2 1035   2.618   0.427   1.615
   46SOL     OW 1036   1.428   4.705   3.871
   46SOL    HW1 1037   1.403   4.622   3.922
   46SOL    HW2 1038   1.354   4.772   3.880
   47SOL     OW 1039   6.049   4.204   3.013
   47SOL    HW1 1040   5.966   4.259   3.017
   47SOL    HW2 1041   6.103   4.232   2.934
   48SOL     OW 1042   0.898   1.362   5.273
   48SOL    HW1 1043   0.820   1.318   5.229
   48SOL    HW2 1044   0.925   1.443   5.220
   49SOL     OW 1045   5.291   2.396   0.599
   49SOL    HW1 1046   5.297   2.336   0.678
   49SOL    HW2 1047   5.339   2.482   0.619
   50SOL     OW 1048   6.845   3.906   4.525
   50SOL    HW1 1049   6.854   3.833   4.457
   50SOL    HW2 1050   6.791   3.873   4.602
   51SOL     OW 1051   3.014   5.818   2.529
   51SOL    HW1 1052   2.982   5.729   2.563
   51SOL    HW2 1053   3.112   5.814   2.511
   52SOL     OW 1054   0.987   1.998   1.462
   52SOL    HW1 1055   1.043   1.942   1.523
   52SOL    HW2 1056   1.035   2.010   1.375
   53SOL     OW 1057   4.929   6.286   4.245
   53SOL    HW1 1058   4.942   6.223   4.169
   53SOL    HW2 1059   4.932   6.381   4.212
   54SOL     OW 1060   4.257   5.853   6.317
   54SOL    HW1 1061   4.233   5.803   6.400
   54SOL    HW2 1062   4.356   5.855   6.307
   55SOL     OW 1063   3.837   2.343   0.137
   55SOL    HW1 1064   3.889   2.258   0.138
   55SOL    HW2 1065   3.787   2.351   0.051
   56SOL     OW 1066   0.922   6.694   1.436
   56SOL    HW1 1067   0.925   6.594   1.433
   56SOL    HW2 1068   0.929   6.730   1.343
   57SOL     OW 1069   5.800   1.234   0.669
   57SOL    HW1 1070   5.841   1.151   0.631
   57SOL    HW2 1071   5.801   1.307   0.601
   58SOL     OW 1072   6.861   6.830   6.905
   58SOL    HW1 1073   6.861   6.861   7.000
   58SOL    HW2 1074   6.863   6.909   6.844
   59SOL     OW 1075   0.887   6.955   4.901
   59SOL    HW1 1076   0.829   6.989   4.975
   59SOL    HW2 1077   0.843   6.974   4.813
   60SOL     OW 1078   4.769   6.601   5.354
   60SOL    HW1 1079   4.834   6.595   5.430
   60SOL    HW2 1080   4.790   6.683   5.300
   61SOL     OW 1081   3.951   0.569   4.979
   61SOL    HW1 1082   4.045   0.602   4.973
   61SOL    HW2 1083   3.935   0.501   4.908
   62SOL     OW 1084   2.722   1.272   4.845
   62SOL    HW1 1085   2.791   1.215   4.891
   62SOL    HW2 1086   2.700   1.351   4.903
   63SOL     OW 1087   6.993   3.326   3.116
   63SOL    HW1 1088   0.034   3.247   3.118
   63SOL    HW2 1089   6.907   3.303   3.162
   64SOL     OW 1090   6.926   2.395   5.803
   64SOL    HW1 1091   6.904   2.383   5.706
   64SOL    HW2 1092   6.868   2.334   5.857
   65SOL     OW 1093   6.984   3.891   5.837
   65SOL    HW1 1094   0.042   3.952   5.851
   65SOL    HW2 1095   6.900   3.945   5.833
   66SOL     OW 1096   2.541   1.362   0.794
   66SOL    HW1 1097   2.617   1.297   0.807
   66SOL    HW2 1098   2.569   1.453   0.822
   67SOL     OW 1099   4.892   5.749   4.200
   67SOL    HW1 1100   4.857   5.695   4.276
   67SOL    HW2 1101   4.880   5.846   4.220
   68SOL     OW 1102   5.662   2.788   6.477
   68SOL    HW1 1103   5.677   2.697   6.439
   68SOL    HW2 1104   5.688   2.857   6.409
   69SOL     OW 1105   2.394   2.908   6.136
   69SOL    HW1 1106   2.336   2.957   6.070
   69SOL    HW2 1107   2.411   2.967   6.215
   70SOL     OW 1108   6.700   5.535   1.914
   70SOL    HW1 1109   6.621   5.477   1.893
   70SOL    HW2 1110   6.671   5.630   1.924
   71SOL     OW 1111   2.072   2.942   2.888
   71SOL    HW1 1112   1.983   2.898   2.878
   71SOL    HW2 1113   2.060   3.040   2.904
   72SOL     OW 1114   3.106   5.412   4.183
   72SOL    HW1 1115   3.022   5.456   4.215
   72SOL    HW2 1116   3.096   5.385   4.088
   73SOL     OW 1117   4.218   2.282   6.691
   73SOL    HW1 1118   4.153   2.303   6.764
   73SOL    HW2 1119   4.309   2.268   6.730
   74SOL     OW 1120   5.116   5.942   6.352
   74SOL    HW1 1121   5.044   5.993   6.304
   74SOL    HW2 1122   5.092   5.845   6.355
   75SOL     OW 1123   3.896   5.000   5.053
   75SOL    HW1 1124   3.919   5.096   5.037
   75SOL    HW2 1125   3.814   4.977   5.001
   76SOL     OW 1126   2.555   3.104   1.280
   76SOL    HW1 1127   2.508   3.180   1.325
   76SOL    HW2 1128   2.588   3.134   1.191
   77SOL     OW 1129   5.535   4.746   6.309
   77SOL    HW1 1130   5.588   4.662   6.298
   77SOL    HW2 1131   5.468   4.753   6.235
   78SOL     OW 1132   6.479   6.548   6.271
   78SOL    HW1 1133   6.563   6.602   6.273
   78SOL    HW2 1134   6.462   6.509   6.361
   79SOL     OW 1135   3.334   0.071   6.901
   79SOL    HW1 1136   3.334   0.006   6.825
   79SOL    HW2 1137   3.427   0.106   6.915
   80SOL     OW 1138   0.311   1.275   3.896
   80SOL    HW1 1139   0.291   1.361   3.943
   80SOL    HW2 1140   0.226   1.231   3.867
   81SOL     OW 1141   1.439   0.186   3.913
   81SOL    HW1 1142   1.430   0.183   4.013
   81SOL    HW2 1143   1.497   0.110   3.882
   82SOL     OW 1144   6.982   4.425   5.630
   82SOL    HW1 1145   6.976   4.521   5.603
   82SOL    HW2 1146   6.979   4.366   5.549
   83SOL     OW 1147   6.500   0.108   6.863
   83SOL    HW1 1148   6.509   0.137   6.958
   83SOL    HW2 1149   6.556   0.027   6.847
   84SOL     OW 1150   6.183   3.549   1.585
   84SOL    HW1 1151   6.110   3.566   1.652
   84SOL    HW2 1152   6.184   3.452   1.561
   85SOL     OW 1153   0.262   2.117   5.307
   85SOL    HW1 1154   0.169   2.134   5.272
   85SOL    HW2 1155   0.284   2.020   5.295
   86SOL     OW 1156   1.483   0.966   4.729
   86SOL    HW1 1157   1.383   0.959   4.735
   86SOL    HW2 1158   1.520   0.882   4.689
   87SOL     OW 1159   4.204   0.588   1.425
   87SOL    HW1 1160   4.229   0.507   1.477
   87SOL    HW2 1161   4.249   0.669   1.465
   88SOL     OW 1162   5.623   0.521   0.691
   88SOL    HW1 1163   5.615   0.590   0.620
   88SOL    HW2 1164   5.552   0.535   0.760
   89SOL     OW 1165   1.975   1.885   6.039
   89SOL    HW1 1166   2.013   1.794   6.024
   89SOL    HW2 1167   1.929   1.915   5.955
   90SOL     OW 1168   6.690   5.835   3.757
   90SOL    HW1 1169   6.686   5.913   3.695
   90SOL    HW2 1170   6.765   5.775   3.731
   91SOL     OW 1171   4.894   4.726   4.692
   91SOL    HW1 1172   4.986   4.729   4.733
   91SOL    HW2 1173   4.826   4.712   4.765
   92SOL     OW 1174   2.792   6.596   1.187
   92SOL    HW1 1175   2.726   6.592   1.263
   92SOL    HW2 1176   2.776   6.680   1.134
   93SOL     OW 1177   3.516   4.937   5.776
   93SOL    HW1 1178   3.539   5.014   5.836
   93SOL    HW2 1179   3.584   4.865   5.786
   94SOL     OW 1180   2.391   5.993   0.922
   94SOL    HW1 1181   2.423   5.919   0.862
   94SOL    HW2 1182   2.390   5.960   1.016
   95SOL     OW 1183   6.391   0.009   4.679
   95SOL    HW1 1184   6.413   0.069   4.602
   95SOL    HW2 1185   6.450   0.031   4.756
   96SOL     OW 1186   1.286   0.078   4.734
   96SOL    HW1 1187   1.328   7.015   4.698
   96SOL    HW2 1188   1.344   0.117   4.806
   97SOL     OW 1189   6.345   2.659   5.120
   97SOL    HW1 1190   6.339   2.759   5.130
   97SOL    HW2 1191   6.256   2.624   5.091
   98SOL     OW 1192   6.033   2.279   5.915
   98SOL    HW1 1193   6.060   2.183   5.905
   98SOL    HW2 1194   6.011   2.317   5.825
   99SOL     OW 1195   4.239   2.484   1.375
   99SOL    HW1 1196   4.305   2.412   1.356
   99SOL    HW2 1197   4.287   2.571   1.388
  100SOL     OW 1198   6.344   5.080   6.385
  100SOL    HW1 1199   6.405   5.003   6.407
  100SOL    HW2 1200   6.320   5.129   6.469
  101SOL     OW 1201   1.289   6.586   4.322
  101SOL    HW1 1202   1.247   6.501   4.290
  101SOL    HW2 1203   1.218   6.651   4.349
  102SOL     OW 1204   4.937   6.949   3.082
  102SOL    HW1 1205   4.853   6.962   3.030
  102SOL    HW2 1206   4.922   6.973   3.178
  103SOL     OW 1207   3.643   2.120   1.537
  103SOL    HW1 1208   3.722   2.175   1.566
  103SOL    HW2 1209   3.666   2.067   1.456
  104SOL     OW 1210   0.220   5.449   1.677
  104SOL    HW1 1211   0.180   5.539   1.690
  104SOL    HW2 1212   0.148   5.384   1.651
  105SOL     OW 1213   5.111   1.609   5.340
  105SOL    HW1 1214   5.192   1.667   5.346
  105SOL    HW2 1215   5.130   1.533   5.278
  106SOL     OW 1216   3.843   6.628   0.401
  106SOL    HW1 1217   3.810   6.543   0.443
  106SOL    HW2 1218   3.928   6.609   0.351
  107SOL     OW 1219   2.425   3.277   1.447
  107SOL    HW1 1220   2.423   3.253   1.544
  107SOL    HW2 1221   2.440   3.376   1.438
  108SOL     OW 1222   5.109   4.437   5.338
  108SOL    HW1 1223   5.072   4.348   5.365
  108SOL    HW2 1224   5.109   4.444   5.238
  109SOL     OW 1225   6.627   0.759   1.505
  109SOL    HW1 1226   6.582   0.674   1.533
  109SOL    HW2 1227   6.659   0.751   1.411
  110SOL     OW 1228   3.018   5.845   5.246
  110SOL    HW1 1229   3.092   5.870   5.184
  110SOL    HW2 1230   3.039   5.879   5.338
  111SOL     OW 1231   3.848   1.087   3.135
  111SOL    HW1 1232   3.928   1.044   3.177
  111SOL    HW2 1233   3.869   1.109   3.039
  112SOL     OW 1234   0.139   0.995   6.108
  112SOL    HW1 1235   0.210   0.926   6.092
  112SOL    HW2 1236   0.060   0.975   6.050
  113SOL     OW 1237   0.126   5.782   4.138
  113SOL    HW1 1238   0.222   5.756   4.154
  113SOL    HW2 1239   0.119   5.830   4.051
  114SOL     OW 1240   0.183   6.857   6.836
  114SOL    HW1 1241   0.203   6.947   6.874
  114SOL    HW2 1242   0.166   6.792   6.911
  115SOL     OW 1243   5.209   1.129   4.883
  115SOL    HW1 1244   5.231   1.034   4.858
  115SOL    HW2 1245   5.132   1.129   4.947
  116SOL     OW 1246   6.239   4.572   2.724
  116SOL    HW1 1247   6.248   4.671   2.725
  116SOL    HW2 1248   6.249   4.539   2.630
  117SOL     OW 1249   1.036   6.536   6.522
  117SOL    HW1 1250   1.073   6.624   6.493
  117SOL    HW2 1251   1.036   6.473   6.444
  118SOL     OW 1252   1.381   0.664   2.089
  118SOL    HW1 1253   1.398   0.654   2.187
  118SOL    HW2 1254   1.293   0.623   2.067
  119SOL     OW 1255   6.722   2.867   6.313
  119SOL    HW1 1256   6.708   2.950   6.259
  119SOL    HW2 1257   6.641   2.849   6.368
  120SOL     OW 1258   5.594   6.414   1.433
  120SOL    HW1 1259   5.685   6.451   1.451
  120SOL    HW2 1260   5.581   6.329   1.486
  121SOL     OW 1261   3.104   3.298   6.082
  121SOL    HW1 1262   3.066   3.283   5.991
  121SOL    HW2 1263   3.180   3.363   6.077
  122SOL     OW 1264   0.314   3.279   4.608
  122SOL    HW1 1265   0.274   3.360   4.564
  122SOL    HW2 1266   0.297   3.283   4.706
  123SOL     OW 1267   1.161   1.886   1.660
  123SOL    HW1 1268   1.232   1.817   1.651
  123SOL    HW2 1269   1.142   1.902   1.757
  124SOL     OW 1270   4.729   2.717   0.808
  124SOL    HW1 1271   4.736   2.670   0.896
  124SOL    HW2 1272   4.710   2.651   0.736
  125SOL     OW 1273   2.013   3.376   1.827
  125SOL    HW1 1274   2.002   3.283   1.793
  125SOL    HW2 1275   2.096   3.381   1.883
  126SOL     OW 1276   3.335   4.589   1.154
  126SOL    HW1 1277   3.244   4.629   1.163
  126SOL    HW2 1278   3.375   4.575   1.245
  127SOL     OW 1279   0.915   5.783   5.992
  127SOL    HW1 1280   0.916   5.694   6.038
  127SOL    HW2 1281   0.978   5.781   5.914
  128SOL     OW 1282   4.730   2.412   1.774
  128SOL    HW1 1283   4.811   2.466   1.799
  128SOL    HW2 1284   4.658   2.473   1.743
  129SOL     OW 1285   2.683   3.494   6.251
  129SOL    HW1 1286   2.585   3.514   6.261
  129SOL    HW2 1287   2.736   3.568   6.292
  130SOL     OW 1288   1.335   2.164   4.534
  130SOL    HW1 1289   1.235   2.164   4.528
  130SOL    HW2 1290   1.374   2.180   4.443
  131SOL     OW 1291   5.174   2.134   2.827
  131SOL    HW1 1292   5.107   2.208   2.824
  131SOL    HW2 1293   5.153   2.073   2.903
  132SOL     OW 1294   0.469   2.424   0.658
  132SOL    HW1 1295   0.502   2.499   0.601
  132SOL    HW2 1296   0.526   2.416   0.739
  133SOL     OW 1297   6.354   5.178   1.988
  133SOL    HW1 1298   6.324   5.261   2.035
  133SOL    HW2 1299   6.276   5.115   1.979
  134SOL     OW 1300   0.255   3.878   2.747
  134SOL    HW1 1301   0.306   3.928   2.677
  134SOL    HW2 1302   0.199   3.808   2.703
  135SOL     OW 1303   4.679   1.395   4.209
  135SOL    HW1 1304   4.704   1.421   4.303
  135SOL    HW2 1305   4.737   1.443   4.144
  136SOL     OW 1306   5.350   4.885   5.701
  136SOL    HW1 1307   5.277   4.823   5.671
  136SOL    HW2 1308   5.434   4.833   5.715
  137SOL     OW 1309   3.781   0.418   5.893
  137SOL    HW1 1310   3.757   0.432   5.797
  137SOL    HW2 1311   3.841   0.339   5.901
  138SOL     OW 1312   6.470   5.139   4.786
  138SOL    HW1 1313   6.488   5.148   4.884
  138SOL    HW2 1314   6.427   5.223   4.752
  139SOL     OW 1315   3.708   5.654   5.524
  139SOL    HW1 1316   3.742   5.612   5.440
  139SOL    HW2 1317   3.784   5.695   5.574
  140SOL     OW 1318   6.342   4.305   5.029
  140SOL    HW1 1319   6.326   4.375   4.960
  140SOL    HW2 1320   6.395   4.343   5.104
  141SOL     OW 1321   1.233   2.334   3.244
  141SOL    HW1 1322   1.235   2.248   3.194
  141SOL    HW2 1323   1.327   2.366   3.259
  142SOL     OW 1324   1.472   5.760   1.346
  142SOL    HW1 1325   1.470   5.724   1.253
  142SOL    HW2 1326   1.461   5.685   1.412
  143SOL     OW 1327   5.530   3.840   1.634
  143SOL    HW1 1328   5.574   3.924   1.665
  143SOL    HW2 1329   5.498   3.787   1.713
  144SOL     OW 1330   2.670   6.357   0.658
  144SOL    HW1 1331   2.589   6.415   0.662
  144SOL    HW2 1332   2.665   6.287   0.728
  145SOL     OW 1333   6.646   5.546   0.438
  145SOL    HW1 1334   6.603   5.602   0.509
  145SOL    HW2 1335   6.647   5.597   0.352
  146SOL     OW 1336   6.544   4.867   0.785
  146SOL    HW1 1337   6.613   4.795   0.776
  146SOL    HW2 1338   6.517   4.899   0.694
  147SOL     OW 1339   6.225   2.295   1.594
  147SOL    HW1 1340   6.195   2.366   1.530
  147SOL    HW2 1341   6.240   2.209   1.543
  148SOL     OW 1342   1.113   4.909   5.869
  148SOL    HW1 1343   1.213   4.909   5.859
  148SOL    HW2 1344   1.079   4.816   5.854
  149SOL     OW 1345   3.046   1.035   6.213
  149SOL    HW1 1346   3.066   0.983   6.296
  149SOL    HW2 1347   3.041   0.973   6.135
  150SOL     OW 1348   0.495   5.898   5.948
  150SOL    HW1 1349   0.424   5.926   6.012
  150SOL    HW2 1350   0.471   5.810   5.908
  151SOL     OW 1351   3.934   0.948   1.770
  151SOL    HW1 1352   3.960   1.033   1.725
  151SOL    HW2 1353   3.943   0.872   1.706
  152SOL     OW 1354   3.431   1.081   4.734
  152SOL    HW1 1355   3.456   1.172   4.702
  152SOL    HW2 1356   3.332   1.069   4.729
  153SOL     OW 1357   1.686   0.809   3.061
  153SOL    HW1 1358   1.738   0.827   2.977
  153SOL    HW2 1359   1.698   0.886   3.124
  154SOL     OW 1360   6.598   2.121   2.889
  154SOL    HW1 1361   6.696   2.124   2.871
  154SOL    HW2 1362   6.578   2.168   2.975
  155SOL     OW 1363   0.157   0.824   2.530
  155SOL    HW1 1364   0.173   0.726   2.539
  155SOL    HW2 1365   0.197   0.872   2.608
  156SOL     OW 1366   0.025   2.148   0.982
  156SOL    HW1 1367   0.006   2.246   0.974
  156SOL    HW2 1368   6.975   2.105   1.039
  157SOL     OW 1369   5.801   4.023   2.806
  157SOL    HW1 1370   5.707   4.012   2.773
  157SOL    HW2 1371   5.804   4.002   2.904
  158SOL     OW 1372   1.457   1.638   3.253
  158SOL    HW1 1373   1.476   1.580   3.332
  158SOL    HW2 1374   1.371   1.611   3.211
  159SOL     OW 1375   5.094   3.735   2.170
  159SOL    HW1 1376   5.193   3.728   2.187
  159SOL    HW2 1377   5.060   3.647   2.136
  160SOL     OW 1378   6.747   4.407   5.830
  160SOL    HW1 1379   6.774   4.481   5.892
  160SOL    HW2 1380   6.726   4.325   5.883
  161SOL     OW 1381   3.583   4.981   5.186
  161SOL    HW1 1382   3.542   5.016   5.102
  161SOL    HW2 1383   3.521   4.999   5.263
  162SOL     OW 1384   4.536   6.228   2.015
  162SOL    HW1 1385   4.613   6.179   1.974
  162SOL    HW2 1386   4.540   6.219   2.115
  163SOL     OW 1387   5.359   0.655   1.662
  163SOL    HW1 1388   5.271   0.607   1.668
  163SOL    HW2 1389   5.372   0.710   1.745
  164SOL     OW 1390   6.304   3.397   1.240
  164SOL    HW1 1391   6.350   3.463   1.180
  164SOL    HW2 1392   6.277   3.317   1.186
  165SOL     OW 1393   5.564   3.935   6.440
  165SOL    HW1 1394   5.481   3.908   6.490
  165SOL    HW2 1395   5.643   3.920   6.499
  166SOL     OW 1396   1.612   0.660   1.606
  166SOL    HW1 1397   1.526   0.624   1.571
  166SOL    HW2 1398   1.618   0.646   1.705
  167SOL     OW 1399   6.534   3.307   0.636
  167SOL    HW1 1400   6.609   3.241   0.633
  167SOL    HW2 1401   6.569   3.398   0.612
  168SOL     OW 1402   2.259   5.612   1.567
  168SOL    HW1 1403   2.319   5.633   1.644
  168SOL    HW2 1404   2.299   5.537   1.514
  169SOL     OW 1405   0.962   0.097   1.543
  169SOL    HW1 1406   0.899   0.168   1.573
  169SOL    HW2 1407   1.024   0.074   1.619
  170SOL     OW 1408   0.479   1.681   3.318
  170SOL    HW1 1409   0.466   1.761   3.259
  170SOL    HW2 1410   0.435   1.601   3.277
  171SOL     OW 1411   3.401   3.454   0.162
  171SOL    HW1 1412   3.431   3.476   0.070
  171SOL    HW2 1413   3.447   3.371   0.193
  172SOL     OW 1414   6.865   2.827   0.567
  172SOL    HW1 1415   6.846   2.902   0.504
  172SOL    HW2 1416   6.880   2.743   0.516
  173SOL     OW 1417   0.316   6.377   5.771
  173SOL    HW1 1418   0.219   6.375   5.746
  173SOL    HW2 1419   0.352   6.284   5.773
  174SOL     OW 1420   2.843   5.775   3.778
  174SOL    HW1 1421   2.871   5.700   3.838
  174SOL    HW2 1422   2.825   5.739   3.686
  175SOL     OW 1423   0.790   5.406   2.950
  175SOL    HW1 1424   0.762   5.489   2.999
  175SOL    HW2 1425   0.713   5.369   2.899
  176SOL     OW 1426   2.965   5.206   1.086
  176SOL    HW1 1427   2.897   5.278   1.077
  176SOL    HW2 1428   2.922   5.117   1.069
  177SOL     OW 1429   4.458   2.098   2.907
  177SOL    HW1 1430   4.490   2.011   2.870
  177SOL    HW2 1431   4.460   2.168   2.835
  178SOL     OW 1432   5.722   4.218   6.385
  178SOL    HW1 1433   5.700   4.218   6.482
  178SOL    HW2 1434   5.709   4.127   6.347
  179SOL     OW 1435   2.917   0.060   0.725
  179SOL    HW1 1436   2.964   6.995   0.746
  179SOL    HW2 1437   2.905   0.068   0.626
  180SOL     OW 1438   1.348   2.285   6.516
  180SOL    HW1 1439   1.261   2.327   6.493
  180SOL    HW2 1440   1.333   2.203   6.572
  181SOL     OW 1441   3.078   2.825   5.307
  181SOL    HW1 1442   3.125   2.743   5.338
  181SOL    HW2 1443   3.084   2.831   5.208
  182SOL     OW 1444   4.760   2.785   5.228
  182SOL    HW1 1445   4.800   2.876   5.220
  182SOL    HW2 1446   4.804   2.736   5.303
  183SOL     OW 1447   5.515   1.708   2.107
  183SOL    HW1 1448   5.484   1.802   2.092
  183SOL    HW2 1449   5.515   1.688   2.206
  184SOL     OW 1450   0.286   4.666   3.357
  184SOL    HW1 1451   0.297   4.576   3.314
  184SOL    HW2 1452   0.323   4.664   3.449
  185SOL     OW 1453   2.823   3.484   6.649
  185SOL    HW1 1454   2.772   3.429   6.715
  185SOL    HW2 1455   2.760   3.521   6.581
  186SOL     OW 1456   5.968   6.356   3.289
  186SOL    HW1 1457   5.963   6.439   3.345
  186SOL    HW2 1458   6.062   6.322   3.288
  187SOL     OW 1459   5.491   1.177   3.855
  187SOL    HW1 1460   5.563   1.134   3.910
  187SOL    HW2 1461   5.445   1.246   3.910
  188SOL     OW 1462   6.386   2.740   4.071
  188SOL    HW1 1463   6.451   2.778   4.005
  188SOL    HW2 1464   6.302   2.714   4.023
  189SOL     OW 1465   2.209   4.079   2.548
  189SOL    HW1 1466   2.118   4.042   2.531
  189SOL    HW2 1467   2.262   4.077   2.463
  190SOL     OW 1468   3.156   1.235   6.688
  190SOL    HW1 1469   3.178   1.273   6.778
  190SOL    HW2 1470   3.240   1.205   6.643
  191SOL     OW 1471   4.473   5.945   5.494
  191SOL    HW1 1472   4.526   6.009   5.437
  191SOL    HW2 1473   4.532   5.869   5.522
  192SOL     OW 1474   0.022   0.388   1.133
  192SOL    HW1 1475   0.022   0.318   1.061
  192SOL    HW2 1476   6.956   0.437   1.131
  193SOL     OW 1477   5.344   4.508   6.513
  193SOL    HW1 1478   5.431   4.514   6.465
  193SOL    HW2 1479   5.306   4.600   6.525
  194SOL     OW 1480   4.079   0.012   4.615
  194SOL    HW1 1481   4.154   6.970   4.591
  194SOL    HW2 1482   4.111   0.077   4.683
  195SOL     OW 1483   6.934   5.332   3.477
  195SOL    HW1 1484   6.959   5.359   3.384
  195SOL    HW2 1485   6.835   5.342   3.489
  196SOL     OW 1486   1.024   1.287   1.094
  196SOL    HW1 1487   1.113   1.319   1.125
  196SOL    HW2 1488   0.986   1.224   1.162
  197SOL     OW 1489   1.902   1.033   0.779
  197SOL    HW1 1490   1.997   1.064   0.783
  197SOL    HW2 1491   1.872   1.032   0.684
  198SOL     OW 1492   2.846   1.224   3.557
  198SOL    HW1 1493   2.837   1.309   3.506
  198SOL    HW2 1494   2.928   1.176   3.527
  199SOL     OW 1495   0.845   1.564   4.289
  199SOL    HW1 1496   0.799   1.616   4.217
  199SOL    HW2 1497   0.944   1.571   4.276
  200SOL     OW 1498   6.608   2.575   0.308
  200SOL    HW1 1499   6.554   2.640   0.361
  200SOL    HW2 1500   6.548   2.505   0.269
  201SOL     OW 1501   0.645   0.956   6.322
  201SOL    HW1 1502   0.697   1.012   6.258
  201SOL    HW2 1503   0.671   0.860   6.312
  202SOL     OW 1504   4.738   6.950   0.805
  202SOL    HW1 1505   4.834   6.968   0.828
  202SOL    HW2 1506   4.684   0.013   0.817
  203SOL     OW 1507   6.339   2.946   6.555
  203SOL    HW1 1508   6.257   2.913   6.602
  203SOL    HW2 1509   6.395   2.869   6.526
  204SOL     OW 1510   6.297   0.920   4.998
  204SOL    HW1 1511   6.320   0.944   4.904
  204SOL    HW2 1512   6.376   0.877   5.042
  205SOL     OW 1513   2.107   3.521   3.141
  205SOL    HW1 1514   2.116   3.432   3.095
  205SOL    HW2 1515   2.168   3.587   3.097
  206SOL     OW 1516   0.305   3.356   0.256
  206SOL    HW1 1517   0.241   3.352   0.333
  206SOL    HW2 1518   0.317   3.264   0.218
  207SOL     OW 1519   5.968   2.666   4.766
  207SOL    HW1 1520   5.905   2.741   4.786
  207SOL    HW2 1521   6.036   2.658   4.839
  208SOL     OW 1522   1.269   3.712   4.827
  208SOL    HW1 1523   1.318   3.628   4.851
  208SOL    HW2 1524   1.334   3.782   4.800
  209SOL     OW 1525   6.836   4.485   3.048
  209SOL    HW1 1526   6.831   4.388   3.023
  209SOL    HW2 1527   6.849   4.540   2.966
  210SOL     OW 1528   4.651   2.734   0.129
  210SOL    HW1 1529   4.621   2.705   0.038
  210SOL    HW2 1530   4.600   2.684   0.199
  211SOL     OW 1531   0.458   1.344   2.565
  211SOL    HW1 1532   0.377   1.299   2.601
  211SOL    HW2 1533   0.537   1.282   2.572
  212SOL     OW 1534   2.230   3.859   2.177
  212SOL    HW1 1535   2.238   3.912   2.092
  212SOL    HW2 1536   2.320   3.829   2.206
  213SOL     OW 1537   0.909   4.650   1.733
  213SOL    HW1 1538   0.979   4.590   1.695
  213SOL    HW2 1539   0.932   4.671   1.828
  214SOL     OW 1540   5.393   5.873   1.612
  214SOL    HW1 1541   5.396   5.914   1.703
  214SOL    HW2 1542   5.325   5.800   1.611
  215SOL     OW 1543   2.806   5.655   3.514
  215SOL    HW1 1544   2.814   5.569   3.464
  215SOL    HW2 1545   2.811   5.732   3.449
  216SOL     OW 1546   0.928   6.356   2.817
  216SOL    HW1 1547   0.977   6.300   2.751
  216SOL    HW2 1548   0.961   6.450   2.813
  217SOL     OW 1549   0.769   4.549   5.789
  217SOL    HW1 1550   0.793   4.453   5.771
  217SOL    HW2 1551   0.692   4.575   5.731
  218SOL     OW 1552   2.149   1.868   5.367
  218SOL    HW1 1553   2.075   1.813   5.407
  218SOL    HW2 1554   2.228   1.809   5.348
  219SOL     OW 1555   4.313   1.779   1.374
  219SOL    HW1 1556   4.308   1.835   1.292
  219SOL    HW2 1557   4.389   1.810   1.431
  220SOL     OW 1558   3.062   6.616   1.138
  220SOL    HW1 1559   3.106   6.706   1.133
  220SOL    HW2 1560   2.967   6.626   1.167
  221SOL     OW 1561   5.617   4.742   1.865
  221SOL    HW1 1562   5.631   4.643   1.859
  221SOL    HW2 1563   5.590   4.766   1.958
  222SOL     OW 1564   2.421   4.916   6.427
  222SOL    HW1 1565   2.433   4.947   6.333
  222SOL    HW2 1566   2.325   4.930   6.454
  223SOL     OW 1567   6.217   2.186   5.406
  223SOL    HW1 1568   6.168   2.104   5.376
  223SOL    HW2 1569   6.244   2.240   5.326
  224SOL     OW 1570   2.318   1.553   5.915
  224SOL    HW1 1571   2.386   1.507   5.972
  224SOL    HW2 1572   2.350   1.644   5.891
  225SOL     OW 1573   3.878   6.552   5.834
  225SOL    HW1 1574   3.821   6.480   5.876
  225SOL    HW2 1575   3.889   6.627   5.899
  226SOL     OW 1576   1.101   2.385   6.355
  226SOL    HW1 1577   1.112   2.484   6.343
  226SOL    HW2 1578   1.096   2.341   6.266
  227SOL     OW 1579   1.817   3.587   1.352
  227SOL    HW1 1580   1.886   3.641   1.401
  227SOL    HW2 1581   1.848   3.572   1.258
  228SOL     OW 1582   1.221   0.306   2.487
  228SOL    HW1 1583   1.291   0.276   2.551
  228SOL    HW2 1584   1.264   0.355   2.411
  229SOL     OW 1585   3.641   6.733   6.168
  229SOL    HW1 1586   3.581   6.779   6.102
  229SOL    HW2 1587   3.587   6.670   6.224
  230SOL     OW 1588   5.536   5.635   5.944
  230SOL    HW1 1589   5.623   5.634   5.994
  230SOL    HW2 1590   5.465   5.593   6.000
  231SOL     OW 1591   5.326   1.857   6.572
  231SOL    HW1 1592   5.271   1.779   6.604
  231SOL    HW2 1593   5.418   1.825   6.549
  232SOL     OW 1594   1.325   1.738   5.748
  232SOL    HW1 1595   1.316   1.777   5.656
  232SOL    HW2 1596   1.399   1.671   5.749
  233SOL     OW 1597   3.326   1.922   3.106
  233SOL    HW1 1598   3.323   1.986   3.182
  233SOL    HW2 1599   3.303   1.969   3.021
  234SOL     OW 1600   4.745   0.692   0.742
  234SOL    HW1 1601   4.752   0.728   0.649
  234SOL    HW2 1602   4.828   0.716   0.793
  235SOL     OW 1603   4.879   3.138   2.910
  235SOL    HW1 1604   4.890   3.075   2.987
  235SOL    HW2 1605   4.823   3.215   2.939
  236SOL     OW 1606   4.298   5.150   6.262
  236SOL    HW1 1607   4.358   5.175   6.186
  236SOL    HW2 1608   4.216   5.104   6.225
  237SOL     OW 1609   6.114   3.324   3.137
  237SOL    HW1 1610   6.192   3.347   3.080
  237SOL    HW2 1611   6.106   3.225   3.146
  238SOL     OW 1612   6.789   1.977   0.632
  238SOL    HW1 1613   6.889   1.983   0.631
  238SOL    HW2 1614   6.754   1.992   0.540
  239SOL     OW 1615   1.061   3.517   7.011
  239SOL    HW1 1616   1.064   3.429   6.964
  239SOL    HW2 1617   1.107   3.510   0.078
  240SOL     OW 1618   4.877   3.344   3.334
  240SOL    HW1 1619   4.826   3.270   3.378
  240SOL    HW2 1620   4.881   3.423   3.395
  241SOL     OW 1621   2.736   2.035   4.196
  241SOL    HW1 1622   2.655   2.070   4.241
  241SOL    HW2 1623   2.753   2.088   4.113
  242SOL     OW 1624   3.686   3.730   2.653
  242SOL    HW1 1625   3.731   3.818   2.672
  242SOL    HW2 1626   3.710   3.700   2.561
  243SOL     OW 1627   3.910   2.629   6.111
  243SOL    HW1 1628   3.869   2.686   6.040
  243SOL    HW2 1629   3.973   2.684   6.166
  244SOL     OW 1630   4.707   3.386   5.323
  244SOL    HW1 1631   4.654   3.402   5.407
  244SOL    HW2 1632   4.691   3.462   5.260
  245SOL     OW 1633   4.317   1.386   2.859
  245SOL    HW1 1634   4.399   1.368   2.912
  245SOL    HW2 1635   4.254   1.308   2.866
  246SOL     OW 1636   6.217   1.130   1.933
  246SOL    HW1 1637   6.295   1.068   1.930
  246SOL    HW2 1638   6.249   1.225   1.941
  247SOL     OW 1639   1.455   1.769   1.414
  247SOL    HW1 1640   1.482   1.704   1.342
  247SOL    HW2 1641   1.398   1.722   1.481
  248SOL     OW 1642   2.072   2.748   2.202
  248SOL    HW1 1643   2.133   2.670   2.185
  248SOL    HW2 1644   2.123   2.821   2.248
  249SOL     OW 1645   4.840   5.992   5.042
  249SOL    HW1 1646   4.770   6.003   4.971
  249SOL    HW2 1647   4.828   5.902   5.086
  250SOL     OW 1648   4.064   2.520   0.364
  250SOL    HW1 1649   4.158   2.490   0.380
  250SOL    HW2 1650   4.019   2.456   0.302
  251SOL     OW 1651   3.802   4.066   5.516
  251SOL    HW1 1652   3.721   4.098   5.468
  251SOL    HW2 1653   3.839   3.985   5.470
  252SOL     OW 1654   6.472   6.237   5.558
  252SOL    HW1 1655   6.474   6.332   5.590
  252SOL    HW2 1656   6.544   6.224   5.490
  253SOL     OW 1657   4.036   6.518   6.149
  253SOL    HW1 1658   4.076   6.427   6.136
  253SOL    HW2 1659   4.079   6.582   6.085
  254SOL     OW 1660   5.634   2.659   5.645
  254SOL    HW1 1661   5.714   2.626   5.695
  254SOL    HW2 1662   5.555   2.602   5.666
  255SOL     OW 1663   1.679   4.091   6.281
  255SOL    HW1 1664   1.761   4.146   6.261
  255SOL    HW2 1665   1.603   4.123   6.225
  256SOL     OW 1666   5.049   2.257   5.408
  256SOL    HW1 1667   5.049   2.356   5.424
  256SOL    HW2 1668   4.998   2.212   5.481
  257SOL     OW 1669   5.106   6.636   2.275
  257SOL    HW1 1670   5.020   6.676   2.307
  257SOL    HW2 1671   5.086   6.560   2.213
  258SOL     OW 1672   1.452   3.495   5.529
  258SOL    HW1 1673   1.395   3.414   5.514
  258SOL    HW2 1674   1.452   3.518   5.627
  259SOL     OW 1675   3.804   6.651   4.039
  259SOL    HW1 1676   3.858   6.567   4.040
  259SOL    HW2 1677   3.800   6.689   4.131
  260SOL     OW 1678   3.877   5.440   3.330
  260SOL    HW1 1679   3.858   5.407   3.423
  260SOL    HW2 1680   3.813   5.397   3.266
  261SOL     OW 1681   4.436   4.717   0.577
  261SOL    HW1 1682   4.382   4.662   0.641
  261SOL    HW2 1683   4.446   4.667   0.491
  262SOL     OW 1684   1.335   3.951   6.496
  262SOL    HW1 1685   1.309   3.857   6.470
  262SOL    HW2 1686   1.325   4.011   6.417
  263SOL     OW 1687   0.687   6.819   4.395
  263SOL    HW1 1688   0.723   6.888   4.332
  263SOL    HW2 1689   0.638   6.864   4.469
  264SOL     OW 1690   6.494   3.464   6.539
  264SOL    HW1 1691   6.560   3.461   6.615
  264SOL    HW2 1692   6.431   3.387   6.548
  265SOL     OW 1693   6.325   0.276   3.974
  265SOL    HW1 1694   6.336   0.339   3.897
  265SOL    HW2 1695   6.246   0.217   3.958
  266SOL     OW 1696   3.650   0.809   5.925
  266SOL    HW1 1697   3.716   0.793   5.998
  266SOL    HW2 1698   3.565   0.843   5.964
  267SOL     OW 1699   1.518   0.808   3.895
  267SOL    HW1 1700   1.430   0.856   3.895
  267SOL    HW2 1701   1.557   0.811   3.804
  268SOL     OW 1702   3.488   2.400   1.144
  268SOL    HW1 1703   3.559   2.354   1.091
  268SOL    HW2 1704   3.503   2.383   1.242
  269SOL     OW 1705   4.629   1.972   0.524
  269SOL    HW1 1706   4.688   2.050   0.546
  269SOL    HW2 1707   4.592   1.984   0.432
  270SOL     OW 1708   5.218   0.841   6.827
  270SOL    HW1 1709   5.191   0.890   6.744
  270SOL    HW2 1710   5.260   0.754   6.801
  271SOL     OW 1711   1.309   3.258   6.514
  271SOL    HW1 1712   1.226   3.310   6.537
  271SOL    HW2 1713   1.283   3.173   6.467
  272SOL     OW 1714   3.204   6.283   3.884
  272SOL    HW1 1715   3.116   6.316   3.850
  272SOL    HW2 1716   3.276   6.348   3.856
  273SOL     OW 1717   2.114   4.714   6.201
  273SOL    HW1 1718   2.168   4.631   6.188
  273SOL    HW2 1719   2.085   4.720   6.297
  274SOL     OW 1720   5.134   2.620   3.985
  274SOL    HW1 1721   5.042   2.620   3.945
  274SOL    HW2 1722   5.150   2.533   4.032
  275SOL     OW 1723   6.432   6.237   1.668
  275SOL    HW1 1724   6.501   6.237   1.595
  275SOL    HW2 1725   6.344   6.265   1.630
  276SOL     OW 1726   0.885   0.897   4.999
  276SOL    HW1 1727   0.951   0.856   4.936
  276SOL    HW2 1728   0.917   0.885   5.093
  277SOL     OW 1729   2.131   4.260   1.038
  277SOL    HW1 1730   2.227   4.275   1.063
  277SOL    HW2 1731   2.072   4.318   1.094
  278SOL     OW 1732   0.309   2.699   1.959
  278SOL    HW1 1733   0.354   2.723   1.873
  278SOL    HW2 1734   0.353   2.748   2.035
  279SOL     OW 1735   6.155   1.622   3.776
  279SOL    HW1 1736   6.251   1.637   3.754
  279SOL    HW2 1737   6.110   1.710   3.789
  280SOL     OW 1738   1.652   4.825   2.523
  280SOL    HW1 1739   1.738   4.872   2.542
  280SOL    HW2 1740   1.670   4.727   2.510
  281SOL     OW 1741   2.620   4.473   1.188
  281SOL    HW1 1742   2.635   4.536   1.112
  281SOL    HW2 1743   2.576   4.389   1.154
  282SOL     OW 1744   2.740   1.886   6.392
  282SOL    HW1 1745   2.722   1.839   6.479
  282SOL    HW2 1746   2.779   1.976   6.411
  283SOL     OW 1747   3.924   2.397   5.968
  283SOL    HW1 1748   3.948   2.428   5.876
  283SOL    HW2 1749   3.918   2.476   6.030
  284SOL     OW 1750   1.306   4.448   3.956
  284SOL    HW1 1751   1.238   4.505   4.003
  284SOL    HW2 1752   1.261   4.393   3.886
  285SOL     OW 1753   5.377   4.486   4.363
  285SOL    HW1 1754   5.373   4.462   4.460
  285SOL    HW2 1755   5.448   4.554   4.349
  286SOL     OW 1756   3.154   3.928   6.643
  286SOL    HW1 1757   3.209   3.866   6.587
  286SOL    HW2 1758   3.207   3.955   6.724
  287SOL     OW 1759   1.660   3.549   6.817
  287SOL    HW1 1760   1.569   3.554   6.776
  287SOL    HW2 1761   1.713   3.476   6.773
  288SOL     OW 1762   5.113   3.596   0.844
  288SOL    HW1 1763   5.180   3.617   0.915
  288SOL    HW2 1764   5.024   3.577   0.888
  289SOL     OW 1765   3.327   4.944   6.457
  289SOL    HW1 1766   3.332   4.881   6.535
  289SOL    HW2 1767   3.419   4.961   6.422
  290SOL     OW 1768   1.356   1.275   4.606
  290SOL    HW1 1769   1.412   1.223   4.541
  290SOL    HW2 1770   1.406   1.356   4.636
  291SOL     OW 1771   0.107   1.868   2.493
  291SOL    HW1 1772   0.030   1.803   2.492
  291SOL    HW2 1773   0.116   1.909   2.402
  292SOL     OW 1774   2.645   0.101   3.908
  292SOL    HW1 1775   2.578   0.112   3.981
  292SOL    HW2 1776   2.630   0.173   3.839
  293SOL     OW 1777   3.038   4.841   3.643
  293SOL    HW1 1778   2.953   4.791   3.659
  293SOL    HW2 1779   3.039   4.924   3.699
  294SOL     OW 1780   4.743   0.610   7.001
  294SOL    HW1 1781   4.816   0.564   0.030
  294SOL    HW2 1782   4.660   0.555   7.005
  295SOL     OW 1783   5.250   6.859   3.419
  295SOL    HW1 1784   5.303   6.778   3.392
  295SOL    HW2 1785   5.254   6.927   3.346
  296SOL     OW 1786   2.631   2.067   3.348
  296SOL    HW1 1787   2.594   2.049   3.439
  296SOL    HW2 1788   2.669   1.983   3.310
  297SOL     OW 1789   1.264   4.683   2.871
  297SOL    HW1 1790   1.354   4.724   2.886
  297SOL    HW2 1791   1.235   4.699   2.777
  298SOL     OW 1792   6.484   4.957   1.012
  298SOL    HW1 1793   6.495   4.941   0.914
  298SOL    HW2 1794   6.464   5.053   1.028
  299SOL     OW 1795   5.959   2.462   4.601
  299SOL    HW1 1796   6.031   2.451   4.532
  299SOL    HW2 1797   5.969   2.550   4.646
  300SOL     OW 1798   6.778   0.069   2.562
  300SOL    HW1 1799   6.827   0.156   2.552
  300SOL    HW2 1800   6.703   0.066   2.495
  301SOL     OW 1801   4.510   3.160   5.770
  301SOL    HW1 1802   4.504   3.079   5.828
  301SOL    HW2 1803   4.419   3.200   5.759
  302SOL     OW 1804   0.993   6.490   3.982
  302SOL    HW1 1805   0.977   6.577   4.028
  302SOL    HW2 1806   0.905   6.447   3.961
  303SOL     OW 1807   5.886   6.425   3.009
  303SOL    HW1 1808   5.938   6.509   2.991
  303SOL    HW2 1809   5.937   6.367   3.072
  304SOL     OW 1810   3.514   6.523   3.681
  304SOL    HW1 1811   3.604   6.565   3.694
  304SOL    HW2 1812   3.506   6.443   3.741
  305SOL     OW 1813   1.581   3.844   1.797
  305SOL    HW1 1814   1.565   3.745   1.791
  305SOL    HW2 1815   1.650   3.871   1.730
  306SOL     OW 1816   2.008   0.894   3.474
  306SOL    HW1 1817   1.916   0.871   3.444
  306SOL    HW2 1818   2.028   0.989   3.452
  307SOL     OW 1819   3.279   0.282   1.711
  307SOL    HW1 1820   3.349   0.220   1.746
  307SOL    HW2 1821   3.189   0.248   1.738
  308SOL     OW 1822   1.002   5.167   4.217
  308SOL    HW1 1823   1.056   5.174   4.301
  308SOL    HW2 1824   1.047   5.106   4.153
  309SOL     OW 1825   3.537   5.076   4.949
  309SOL    HW1 1826   3.603   5.120   4.889
  309SOL    HW2 1827   3.471   5.024   4.894
  310SOL     OW 1828   0.886   5.800   6.337
  310SOL    HW1 1829   0.877   5.841   6.427
  310SOL    HW2 1830   0.816   5.837   6.276
  311SOL     OW 1831   0.275   0.628   1.470
  311SOL    HW1 1832   0.258   0.604   1.375
  311SOL    HW2 1833   0.192   0.611   1.524
  312SOL     OW 1834   3.724   1.539   4.812
  312SOL    HW1 1835   3.689   1.632   4.822
  312SOL    HW2 1836   3.654   1.473   4.841
  313SOL     OW 1837   6.878   4.786   0.472
  313SOL    HW1 1838   6.944   4.848   0.515
  313SOL    HW2 1839   6.891   4.788   0.373
  314SOL     OW 1840   3.023   6.204   1.119
  314SOL    HW1 1841   3.059   6.119   1.155
  314SOL    HW2 1842   3.099   6.265   1.094
  315SOL     OW 1843   0.762   3.377   2.547
  315SOL    HW1 1844   0.845   3.331   2.580
  315SOL    HW2 1845   0.718   3.321   2.477
  316SOL     OW 1846   2.137   3.895   4.409
  316SOL    HW1 1847   2.160   3.985   4.446
  316SOL    HW2 1848   2.208   3.866   4.344
  317SOL     OW 1849   6.331   1.175   0.167
  317SOL    HW1 1850   6.411   1.208   0.218
  317SOL    HW2 1851   6.327   1.075   0.173
  318SOL     OW 1852   2.124   4.933   0.937
  318SOL    HW1 1853   2.194   4.873   0.976
  318SOL    HW2 1854   2.165   5.020   0.911
  319SOL     OW 1855   1.355   0.140   6.739
  319SOL    HW1 1856   1.356   0.153   6.838
  319SOL    HW2 1857   1.265   0.163   6.703
  320SOL     OW 1858   5.082   3.109   0.957
  320SOL    HW1 1859   5.134   3.169   0.896
  320SOL    HW2 1860   5.140   3.031   0.984
  321SOL     OW 1861   2.277   1.061   1.775
  321SOL    HW1 1862   2.202   1.102   1.827
  321SOL    HW2 1863   2.277   1.097   1.682
  322SOL     OW 1864   3.093   2.603   5.686
  322SOL    HW1 1865   3.120   2.556   5.770
  322SOL    HW2 1866   3.161   2.587   5.615
  323SOL     OW 1867   0.655   4.275   2.045
  323SOL    HW1 1868   0.653   4.234   1.953
  323SOL    HW2 1869   0.562   4.301   2.071
  324SOL     OW 1870   0.467   3.216   4.374
  324SOL    HW1 1871   0.404   3.217   4.451
  324SOL    HW2 1872   0.511   3.306   4.365
  325SOL     OW 1873   2.496   2.365   2.662
  325SOL    HW1 1874   2.520   2.426   2.587
  325SOL    HW2 1875   2.446   2.286   2.626
  326SOL     OW 1876   2.333   5.032   5.387
  326SOL    HW1 1877   2.322   4.988   5.297
  326SOL    HW2 1878   2.413   4.993   5.433
  327SOL     OW 1879   6.163   5.226   6.184
  327SOL    HW1 1880   6.219   5.168   6.244
  327SOL    HW2 1881   6.216   5.248   6.102
  328SOL     OW 1882   3.319   5.830   1.370
  328SOL    HW1 1883   3.380   5.751   1.370
  328SOL    HW2 1884   3.373   5.914   1.380
  329SOL     OW 1885   3.205   3.596   2.497
  329SOL    HW1 1886   3.170   3.513   2.453
  329SOL    HW2 1887   3.128   3.656   2.521
  330SOL     OW 1888   3.159   1.832   1.881
  330SOL    HW1 1889   3.251   1.842   1.843
  330SOL    HW2 1890   3.122   1.922   1.901
  331SOL     OW 1891   5.745   4.370   5.996
  331SOL    HW1 1892   5.747   4.467   5.974
  331SOL    HW2 1893   5.690   4.322   5.928
  332SOL     OW 1894   4.414   2.120   3.930
  332SOL    HW1 1895   4.398   2.099   3.834
  332SOL    HW2 1896   4.485   2.189   3.938
  333SOL     OW 1897   4.296   6.267   0.399
  333SOL    HW1 1898   4.351   6.290   0.318
  333SOL    HW2 1899   4.341   6.303   0.481
  334SOL     OW 1900   4.945   6.526   2.603
  334SOL    HW1 1901   5.008   6.592   2.644
  334SOL    HW2 1902   4.875   6.501   2.671
  335SOL     OW 1903   3.444   6.815   3.048
  335SOL    HW1 1904   3.419   6.884   2.981
  335SOL    HW2 1905   3.450   6.857   3.139
  336SOL     OW 1906   3.770   0.390   4.802
  336SOL    HW1 1907   3.672   0.406   4.805
  336SOL    HW2 1908   3.805   0.416   4.712
  337SOL     OW 1909   0.314   4.202   1.421
  337SOL    HW1 1910   0.303   4.107   1.450
  337SOL    HW2 1911   0.259   4.219   1.339
  338SOL     OW 1912   2.610   2.382   1.535
  338SOL    HW1 1913   2.547   2.447   1.493
  338SOL    HW2 1914   2.640   2.417   1.624
  339SOL     OW 1915   4.163   0.612   3.135
  339SOL    HW1 1916   4.222   0.533   3.116
  339SOL    HW2 1917   4.156   0.624   3.234
  340SOL     OW 1918   4.828   3.922   4.784
  340SOL    HW1 1919   4.831   3.851   4.713
  340SOL    HW2 1920   4.740   3.968   4.782
  341SOL     OW 1921   5.195   5.052   5.847
  341SOL    HW1 1922   5.216   5.139   5.804
  341SOL    HW2 1923   5.239   4.978   5.797
  342SOL     OW 1924   5.596   3.827   0.315
  342SOL    HW1 1925   5.591   3.890   0.393
  342SOL    HW2 1926   5.510   3.777   0.307
  343SOL     OW 1927   2.400   0.987   2.580
  343SOL    HW1 1928   2.415   1.059   2.647
  343SOL    HW2 1929   2.432   1.017   2.490
  344SOL     OW 1930   3.612   5.443   6.826
  344SOL    HW1 1931   3.546   5.510   6.791
  344SOL    HW2 1932   3.704   5.468   6.795
  345SOL     OW 1933   1.451   0.619   5.921
  345SOL    HW1 1934   1.472   0.527   5.885
  345SOL    HW2 1935   1.421   0.677   5.846
  346SOL     OW 1936   3.250   0.698   4.250
  346SOL    HW1 1937   3.279   0.608   4.217
  346SOL    HW2 1938   3.326   0.763   4.243
  347SOL     OW 1939   4.814   6.640   5.633
  347SOL    HW1 1940   4.879   6.615   5.705
  347SOL    HW2 1941   4.729   6.590   5.646
  348SOL     OW 1942   2.705   5.959   2.629
  348SOL    HW1 1943   2.685   5.882   2.690
  348SOL    HW2 1944   2.780   6.012   2.667
  349SOL     OW 1945   2.482   4.875   1.791
  349SOL    HW1 1946   2.385   4.896   1.797
  349SOL    HW2 1947   2.532   4.924   1.863
  350SOL     OW 1948   4.599   3.196   0.901
  350SOL    HW1 1949   4.572   3.102   0.881
  350SOL    HW2 1950   4.697   3.206   0.890
  351SOL     OW 1951   2.925   1.812   0.645
  351SOL    HW1 1952   2.988   1.789   0.719
  351SOL    HW2 1953   2.859   1.737   0.633
  352SOL     OW 1954   3.068   1.286   6.299
  352SOL    HW1 1955   3.048   1.195   6.261
  352SOL    HW2 1956   3.098   1.277   6.394
  353SOL     OW 1957   2.161   0.533   1.162
  353SOL    HW1 1958   2.138   0.577   1.075
  353SOL    HW2 1959   2.250   0.564   1.193
  354SOL     OW 1960   5.258   0.950   2.427
  354SOL    HW1 1961   5.271   0.915   2.334
  354SOL    HW2 1962   5.262   0.874   2.492
  355SOL     OW 1963   1.580   1.526   1.623
  355SOL    HW1 1964   1.561   1.515   1.526
  355SOL    HW2 1965   1.618   1.441   1.659
  356SOL     OW 1966   4.004   6.227   2.735
  356SOL    HW1 1967   4.008   6.267   2.644
  356SOL    HW2 1968   4.051   6.287   2.800
  357SOL     OW 1969   1.470   4.552   6.162
  357SOL    HW1 1970   1.462   4.649   6.138
  357SOL    HW2 1971   1.470   4.497   6.079
  358SOL     OW 1972   5.457   0.760   3.021
  358SOL    HW1 1973   5.504   0.733   3.105
  358SOL    HW2 1974   5.361   0.736   3.028
  359SOL     OW 1975   1.082   2.158   0.380
  359SOL    HW1 1976   1.124   2.222   0.316
  359SOL    HW2 1977   1.117   2.066   0.361
  360SOL     OW 1978   5.155   6.844   0.609
  360SOL    HW1 1979   5.077   6.808   0.558
  360SOL    HW2 1980   5.134   6.936   0.641
  361SOL     OW 1981   3.599   1.056   3.495
  361SOL    HW1 1982   3.541   1.116   3.550
  361SOL    HW2 1983   3.564   1.053   3.401
  362SOL     OW 1984   2.739   3.835   1.038
  362SOL    HW1 1985   2.649   3.866   1.007
  362SOL    HW2 1986   2.733   3.809   1.134
  363SOL     OW 1987   4.152   4.798   3.690
  363SOL    HW1 1988   4.211   4.729   3.731
  363SOL    HW2 1989   4.057   4.771   3.697
  364SOL     OW 1990   1.747   6.284   6.414
  364SOL    HW1 1991   1.706   6.265   6.325
  364SOL    HW2 1992   1.831   6.337   6.402
  365SOL     OW 1993   4.889   6.874   2.748
  365SOL    HW1 1994   4.883   6.886   2.847
  365SOL    HW2 1995   4.801   6.846   2.712
  366SOL     OW 1996   5.061   0.913   0.539
  366SOL    HW1 1997   5.023   0.998   0.501
  366SOL    HW2 1998   5.035   0.906   0.636
  367SOL     OW 1999   4.668   1.835   2.080
  367SOL    HW1 2000   4.757   1.829   2.033
  367SOL    HW2 2001   4.644   1.746   2.117
  368SOL     OW 2002   1.693   5.125   5.802
  368SOL    HW1 2003   1.632   5.070   5.746
  368SOL    HW2 2004   1.730   5.069   5.877
  369SOL     OW 2005   0.599   3.259   1.384
  369SOL    HW1 2006   0.554   3.235   1.470
  369SOL    HW2 2007   0.690   3.218   1.381
  370SOL     OW 2008   3.246   1.741   7.020
  370SOL    HW1 2009   3.250   1.784   6.929
  370SOL    HW2 2010   3.179   1.667   7.019
  371SOL     OW 2011   3.771   3.096   5.979
  371SOL    HW1 2012   3.833   3.080   6.056
  371SOL    HW2 2013   3.678   3.072   6.006
  372SOL     OW 2014   1.975   4.890   0.201
  372SOL    HW1 2015   2.004   4.985   0.189
  372SOL    HW2 2016   1.903   4.886   0.270
  373SOL     OW 2017   6.579   6.460   0.124
  373SOL    HW1 2018   6.499   6.517   0.104
  373SOL    HW2 2019   6.655   6.517   0.155
  374SOL     OW 2020   4.701   1.112   1.095
  374SOL    HW1 2021   4.678   1.015   1.085
  374SOL    HW2 2022   4.691   1.158   1.006
  375SOL     OW 2023   6.800   4.433   1.160
  375SOL    HW1 2024   6.759   4.515   1.121
  375SOL    HW2 2025   6.731   4.360   1.165
  376SOL     OW 2026   2.132   3.659   4.564
  376SOL    HW1 2027   2.160   3.648   4.659
  376SOL    HW2 2028   2.164   3.747   4.529
  377SOL     OW 2029   4.469   2.156   4.691
  377SOL    HW1 2030   4.493   2.077   4.747
  377SOL    HW2 2031   4.495   2.139   4.596
  378SOL     OW 2032   5.065   2.490   4.673
  378SOL    HW1 2033   5.078   2.577   4.625
  378SOL    HW2 2034   5.084   2.415   4.610
  379SOL     OW 2035   0.114   2.431   1.558
  379SOL    HW1 2036   0.056   2.349   1.555
  379SOL    HW2 2037   0.088   2.487   1.637
  380SOL     OW 2038   1.105   2.108   0.028
  380SOL    HW1 2039   1.197   2.070   0.038
  380SOL    HW2 2040   1.094   2.187   0.088
  381SOL     OW 2041   4.062   4.733   0.606
  381SOL    HW1 2042   4.085   4.738   0.703
  381SOL    HW2 2043   4.012   4.648   0.588
  382SOL     OW 2044   2.557   5.180   0.437
  382SOL    HW1 2045   2.475   5.185   0.494
  382SOL    HW2 2046   2.541   5.227   0.351
  383SOL     OW 2047   6.396   2.086   0.463
  383SOL    HW1 2048   6.388   2.185   0.451
  383SOL    HW2 2049   6.348   2.059   0.546
  384SOL     OW 2050   1.691   4.880   5.003
  384SOL    HW1 2051   1.789   4.897   5.016
  384SOL    HW2 2052   1.644   4.966   4.983
  385SOL     OW 2053   4.231   5.368   1.847
  385SOL    HW1 2054   4.202   5.325   1.762
  385SOL    HW2 2055   4.154   5.417   1.887
  386SOL     OW 2056   2.434   6.353   4.653
  386SOL    HW1 2057   2.364   6.384   4.589
  386SOL    HW2 2058   2.511   6.314   4.602
  387SOL     OW 2059   6.624   0.126   6.017
  387SOL    HW1 2060   6.605   0.207   6.072
  387SOL    HW2 2061   6.592   0.045   6.066
  388SOL     OW 2062   0.242   2.102   4.360
  388SOL    HW1 2063   0.151   2.139   4.345
  388SOL    HW2 2064   0.285   2.084   4.271
  389SOL     OW 2065   5.188   4.323   1.946
  389SOL    HW1 2066   5.263   4.265   1.916
  389SOL    HW2 2067   5.204   4.352   2.040
  390SOL     OW 2068   4.068   2.410   6.893
  390SOL    HW1 2069   3.971   2.391   6.879
  390SOL    HW2 2070   4.081   2.507   6.911
  391SOL     OW 2071   4.086   3.695   3.658
  391SOL    HW1 2072   4.126   3.651   3.738
  391SOL    HW2 2073   4.114   3.791   3.654
  392SOL     OW 2074   2.004   3.841   1.826
  392SOL    HW1 2075   2.103   3.853   1.834
  392SOL    HW2 2076   1.959   3.877   1.907
  393SOL     OW 2077   1.441   5.589   1.571
  393SOL    HW1 2078   1.465   5.643   1.652
  393SOL    HW2 2079   1.387   5.510   1.599
  394SOL     OW 2080   6.140   1.343   6.160
  394SOL    HW1 2081   6.137   1.300   6.250
  394SOL    HW2 2082   6.174   1.278   6.092
  395SOL     OW 2083   6.124   4.418   0.153
  395SOL    HW1 2084   6.103   4.347   0.086
  395SOL    HW2 2085   6.071   4.402   0.237
  396SOL     OW 2086   1.493   0.851   1.303
  396SOL    HW1 2087   1.584   0.818   1.279
  396SOL    HW2 2088   1.495   0.951   1.313
  397SOL     OW 2089   4.335   2.389   4.715
  397SOL    HW1 2090   4.256   2.342   4.756
  397SOL    HW2 2091   4.411   2.325   4.707
  398SOL     OW 2092   0.002   1.104   3.437
  398SOL    HW1 2093   0.024   1.039   3.365
  398SOL    HW2 2094   0.077   1.107   3.504
  399SOL     OW 2095   6.129   5.685   3.740
  399SOL    HW1 2096   6.098   5.688   3.835
  399SOL    HW2 2097   6.066   5.739   3.683
  400SOL     OW 2098   6.895   6.627   3.602
  400SOL    HW1 2099   6.956   6.698   3.636
  400SOL    HW2 2100   6.889   6.632   3.502
  401SOL     OW 2101   1.350   5.242   4.480
  401SOL    HW1 2102   1.350   5.315   4.411
  401SOL    HW2 2103   1.262   5.196   4.479
  402SOL     OW 2104   5.731   1.796   4.190
  402SOL    HW1 2105   5.739   1.761   4.283
  402SOL    HW2 2106   5.694   1.889   4.192
  403SOL     OW 2107   3.002   1.591   5.021
  403SOL    HW1 2108   3.043   1.612   5.110
  403SOL    HW2 2109   2.908   1.560   5.034
  404SOL     OW 2110   2.998   5.069   3.786
  404SOL    HW1 2111   3.022   5.165   3.801
  404SOL    HW2 2112   2.926   5.062   3.718
  405SOL     OW 2113   2.430   5.278   4.017
  405SOL    HW1 2114   2.456   5.351   3.954
  405SOL    HW2 2115   2.411   5.194   3.965
  406SOL     OW 2116   0.626   6.823   6.302
  406SOL    HW1 2117   0.638   6.724   6.306
  406SOL    HW2 2118   0.539   6.845   6.258
  407SOL     OW 2119   1.799   3.609   3.958
  407SOL    HW1 2120   1.853   3.688   3.988
  407SOL    HW2 2121   1.777   3.551   4.037
  408SOL     OW 2122   2.484   2.519   2.431
  408SOL    HW1 2123   2.403   2.571   2.403
  408SOL    HW2 2124   2.558   2.582   2.454
  409SOL     OW 2125   0.204   2.983   2.449
  409SOL    HW1 2126   0.299   2.957   2.431
  409SOL    HW2 2127   0.154   2.987   2.363
  410SOL     OW 2128   1.829   3.152   1.655
  410SOL    HW1 2129   1.898   3.081   1.640
  410SOL    HW2 2130   1.835   3.221   1.584
  411SOL     OW 2131   6.912   1.977   0.343
  411SOL    HW1 2132   6.814   1.958   0.354
  411SOL    HW2 2133   6.960   1.893   0.319
  412SOL     OW 2134   1.582   4.990   2.741
  412SOL    HW1 2135   1.498   5.037   2.714
  412SOL    HW2 2136   1.605   4.921   2.673
  413SOL     OW 2137   6.050   4.358   2.121
  413SOL    HW1 2138   6.088   4.320   2.206
  413SOL    HW2 2139   6.117   4.350   2.048
  414SOL     OW 2140   2.251   6.530   3.238
  414SOL    HW1 2141   2.282   6.550   3.330
  414SOL    HW2 2142   2.200   6.607   3.202
  415SOL     OW 2143   5.738   1.556   6.782
  415SOL    HW1 2144   5.734   1.656   6.771
  415SOL    HW2 2145   5.681   1.513   6.712
  416SOL     OW 2146   5.896   3.056   6.315
  416SOL    HW1 2147   5.925   2.995   6.389
  416SOL    HW2 2148   5.920   3.015   6.227
  417SOL     OW 2149   2.413   2.744   5.581
  417SOL    HW1 2150   2.423   2.749   5.482
  417SOL    HW2 2151   2.503   2.748   5.624
  418SOL     OW 2152   3.466   6.515   5.950
  418SOL    HW1 2153   3.459   6.590   6.015
  418SOL    HW2 2154   3.415   6.538   5.867
  419SOL     OW 2155   5.971   0.885   6.881
  419SOL    HW1 2156   5.890   0.922   6.927
  419SOL    HW2 2157   5.951   0.874   6.783
  420SOL     OW 2158   3.536   0.175   1.134
  420SOL    HW1 2159   3.621   0.227   1.143
  420SOL    HW2 2160   3.557   0.078   1.123
  421SOL     OW 2161   4.861   4.228   2.641
  421SOL    HW1 2162   4.889   4.315   2.600
  421SOL    HW2 2163   4.794   4.246   2.713
  422SOL     OW 2164   4.035   2.108   1.601
  422SOL    HW1 2165   3.981   2.172   1.656
  422SOL    HW2 2166   4.097   2.057   1.661
  423SOL     OW 2167   3.098   0.882   6.424
  423SOL    HW1 2168   3.165   0.825   6.472
  423SOL    HW2 2169   3.036   0.923   6.491
  424SOL     OW 2170   1.701   3.663   4.283
  424SOL    HW1 2171   1.787   3.705   4.310
  424SOL    HW2 2172   1.717   3.569   4.253
  425SOL     OW 2173   3.097   1.516   0.003
  425SOL    HW1 2174   3.045   1.497   0.087
  425SOL    HW2 2175   3.034   1.531   6.948
  426SOL     OW 2176   2.314   2.309   4.328
  426SOL    HW1 2177   2.286   2.363   4.407
  426SOL    HW2 2178   2.399   2.345   4.291
  427SOL     OW 2179   4.754   1.461   3.625
  427SOL    HW1 2180   4.716   1.423   3.541
  427SOL    HW2 2181   4.770   1.387   3.691
  428SOL     OW 2182   2.400   2.125   6.690
  428SOL    HW1 2183   2.304   2.122   6.715
  428SOL    HW2 2184   2.419   2.055   6.621
  429SOL     OW 2185   0.321   6.122   3.743
  429SOL    HW1 2186   0.236   6.083   3.708
  429SOL    HW2 2187   0.376   6.157   3.666
  430SOL     OW 2188   2.243   0.831   3.907
  430SOL    HW1 2189   2.239   0.858   3.811
  430SOL    HW2 2190   2.296   0.746   3.916
  431SOL     OW 2191   2.888   1.267   1.384
  431SOL    HW1 2192   2.853   1.358   1.409
  431SOL    HW2 2193   2.906   1.214   1.466
  432SOL     OW 2194   4.730   1.865   1.469
  432SOL    HW1 2195   4.649   1.864   1.527
  432SOL    HW2 2196   4.790   1.789   1.493
  433SOL     OW 2197   1.788   4.416   0.494
  433SOL    HW1 2198   1.750   4.339   0.442
  433SOL    HW2 2199   1.713   4.473   0.526
  434SOL     OW 2200   4.546   5.626   2.758
  434SOL    HW1 2201   4.479   5.589   2.693
  434SOL    HW2 2202   4.638   5.611   2.722
  435SOL     OW 2203   3.689   2.582   6.381
  435SOL    HW1 2204   3.718   2.513   6.315
  435SOL    HW2 2205   3.591   2.573   6.398
  436SOL     OW 2206   5.372   5.942   1.867
  436SOL    HW1 2207   5.319   5.944   1.951
  436SOL    HW2 2208   5.456   5.996   1.878
  437SOL     OW 2209   6.951   1.403   4.762
  437SOL    HW1 2210   6.964   1.408   4.861
  437SOL    HW2 2211   6.936   1.308   4.734
  438SOL     OW 2212   0.996   4.374   2.609
  438SOL    HW1 2213   0.932   4.412   2.542
  438SOL    HW2 2214   0.984   4.275   2.614
  439SOL     OW 2215   0.239   0.711   5.979
  439SOL    HW1 2216   0.313   0.735   6.042
  439SOL    HW2 2217   0.268   0.636   5.920
  440SOL     OW 2218   4.115   2.221   0.629
  440SOL    HW1 2219   4.075   2.247   0.716
  440SOL    HW2 2220   4.215   2.214   0.639
  441SOL     OW 2221   0.001   4.807   2.415
  441SOL    HW1 2222   0.051   4.722   2.428
  441SOL    HW2 2223   0.005   4.835   2.319
  442SOL     OW 2224   3.667   3.184   4.882
  442SOL    HW1 2225   3.694   3.271   4.924
  442SOL    HW2 2226   3.567   3.177   4.882
  443SOL     OW 2227   4.805   2.655   3.064
  443SOL    HW1 2228   4.737   2.643   2.991
  443SOL    HW2 2229   4.782   2.595   3.140
  444SOL     OW 2230   4.488   2.145   1.561
  444SOL    HW1 2231   4.446   2.055   1.554
  444SOL    HW2 2232   4.434   2.203   1.622
  445SOL     OW 2233   2.867   5.570   2.566
  445SOL    HW1 2234   2.898   5.486   2.523
  445SOL    HW2 2235   2.767   5.570   2.571
  446SOL     OW 2236   6.244   0.123   1.638
  446SOL    HW1 2237   6.174   0.182   1.677
  446SOL    HW2 2238   6.306   0.178   1.582
  447SOL     OW 2239   6.163   4.155   0.357
  447SOL    HW1 2240   6.085   4.214   0.377
  447SOL    HW2 2241   6.131   4.067   0.321
  448SOL     OW 2242   3.704   6.189   3.749
  448SOL    HW1 2243   3.688   6.265   3.686
  448SOL    HW2 2244   3.780   6.212   3.810
  449SOL     OW 2245   1.010   4.140   4.865
  449SOL    HW1 2246   0.998   4.156   4.963
  449SOL    HW2 2247   1.108   4.133   4.844
  450SOL     OW 2248   6.944   3.986   3.086
  450SOL    HW1 2249   0.010   4.037   3.083
  450SOL    HW2 2250   6.960   3.892   3.056
  451SOL     OW 2251   1.420   2.131   0.292
  451SOL    HW1 2252   1.396   2.097   0.383
  451SOL    HW2 2253   1.483   2.068   0.247
  452SOL     OW 2254   4.127   5.661   1.870
  452SOL    HW1 2255   4.207   5.681   1.813
  452SOL    HW2 2256   4.055   5.727   1.850
  453SOL     OW 2257   4.435   0.762   0.077
  453SOL    HW1 2258   4.377   0.740   0.155
  453SOL    HW2 2259   4.520   0.805   0.109
  454SOL     OW 2260   0.100   3.088   4.115
  454SOL    HW1 2261   0.188   3.126   4.086
  454SOL    HW2 2262   0.064   3.143   4.191
  455SOL     OW 2263   5.465   4.973   6.693
  455SOL    HW1 2264   5.531   5.000   6.622
  455SOL    HW2 2265   5.514   4.955   6.778
  456SOL     OW 2266   2.303   1.046   3.020
  456SOL    HW1 2267   2.294   1.107   3.098
  456SOL    HW2 2268   2.217   0.995   3.007
  457SOL     OW 2269   3.283   5.690   0.004
  457SOL    HW1 2270   3.313   5.721   0.095
  457SOL    HW2 2271   3.258   5.770   6.969
  458SOL     OW 2272   4.160   1.556   3.300
  458SOL    HW1 2273   4.119   1.625   3.241
  458SOL    HW2 2274   4.173   1.471   3.249
  459SOL     OW 2275   3.116   1.468   3.212
  459SOL    HW1 2276   3.175   1.531   3.263
  459SOL    HW2 2277   3.168   1.429   3.136
  460SOL     OW 2278   0.483   1.600   6.709
  460SOL    HW1 2279   0.424   1.521   6.722
  460SOL    HW2 2280   0.559   1.576   6.648
  461SOL     OW 2281   1.441   6.793   5.524
  461SOL    HW1 2282   1.483   6.808   5.434
  461SOL    HW2 2283   1.474   6.863   5.588
  462SOL     OW 2284   3.718   4.023   4.526
  462SOL    HW1 2285   3.717   4.066   4.617
  462SOL    HW2 2286   3.787   3.951   4.524
  463SOL     OW 2287   5.396   5.954   3.070
  463SOL    HW1 2288   5.306   5.990   3.093
  463SOL    HW2 2289   5.461   6.030   3.059
  464SOL     OW 2290   4.315   5.866   5.037
  464SOL    HW1 2291   4.274   5.957   5.044
  464SOL    HW2 2292   4.393   5.860   5.099
  465SOL     OW 2293   0.015   4.801   6.895
  465SOL    HW1 2294   0.009   4.716   6.842
  465SOL    HW2 2295   6.955   4.809   6.954
  466SOL     OW 2296   3.968   4.773   4.015
  466SOL    HW1 2297   3.909   4.853   4.030
  466SOL    HW2 2298   3.924   4.712   3.949
  467SOL     OW 2299   6.788   6.946   2.127
  467SOL    HW1 2300   6.872   6.925   2.177
  467SOL    HW2 2301   6.798   6.919   2.031
  468SOL     OW 2302   2.546   5.965   6.486
  468SOL    HW1 2303   2.631   5.946   6.435
  468SOL    HW2 2304   2.477   6.001   6.423
  469SOL     OW 2305   3.286   4.483   5.321
  469SOL    HW1 2306   3.235   4.399   5.301
  469SOL    HW2 2307   3.225   4.562   5.312
  470SOL     OW 2308   2.161   5.037   2.487
  470SOL    HW1 2309   2.147   5.122   2.538
  470SOL    HW2 2310   2.249   5.040   2.441
  471SOL     OW 2311   1.458   2.268   3.999
  471SOL    HW1 2312   1.461   2.284   3.900
  471SOL    HW2 2313   1.523   2.196   4.024
  472SOL     OW 2314   5.368   4.222   6.471
  472SOL    HW1 2315   5.441   4.170   6.515
  472SOL    HW2 2316   5.374   4.318   6.498
  473SOL     OW 2317   5.465   3.261   2.366
  473SOL    HW1 2318   5.366   3.268   2.355
  473SOL    HW2 2319   5.500   3.189   2.305
  474SOL     OW 2320   5.015   5.364   3.629
  474SOL    HW1 2321   4.937   5.316   3.588
  474SOL    HW2 2322   5.091   5.300   3.643
  475SOL     OW 2323   5.335   1.363   0.329
  475SOL    HW1 2324   5.333   1.412   0.242
  475SOL    HW2 2325   5.331   1.428   0.404
  476SOL     OW 2326   1.288   3.606   0.215
  476SOL    HW1 2327   1.347   3.659   0.154
  476SOL    HW2 2328   1.204   3.658   0.233
  477SOL     OW 2329   6.794   5.098   3.273
  477SOL    HW1 2330   6.848   5.172   3.233
  477SOL    HW2 2331   6.698   5.126   3.277
  478SOL     OW 2332   6.162   5.224   2.442
  478SOL    HW1 2333   6.214   5.164   2.503
  478SOL    HW2 2334   6.107   5.168   2.380
  479SOL     OW 2335   3.050   3.937   2.700
  479SOL    HW1 2336   2.994   3.936   2.617
  479SOL    HW2 2337   3.147   3.948   2.675
  480SOL     OW 2338   0.880   0.942   2.040
  480SOL    HW1 2339   0.850   1.031   2.005
  480SOL    HW2 2340   0.980   0.939   2.042
  481SOL     OW 2341   5.766   6.323   1.097
  481SOL    HW1 2342   5.791   6.373   1.179
  481SOL    HW2 2343   5.766   6.385   1.019
  482SOL     OW 2344   3.537   5.291   2.539
  482SOL    HW1 2345   3.529   5.225   2.613
  482SOL    HW2 2346   3.566   5.379   2.576
  483SOL     OW 2347   5.933   0.729   3.948
  483SOL    HW1 2348   5.840   0.760   3.967
  483SOL    HW2 2349   5.956   0.748   3.853
  484SOL     OW 2350   1.960   4.779   3.169
  484SOL    HW1 2351   1.915   4.703   3.215
  484SOL    HW2 2352   1.911   4.802   3.085
  485SOL     OW 2353   4.836   2.214   0.857
  485SOL    HW1 2354   4.796   2.279   0.922
  485SOL    HW2 2355   4.872   2.135   0.907
  486SOL     OW 2356   6.227   6.618   5.343
  486SOL    HW1 2357   6.267   6.587   5.430
  486SOL    HW2 2358   6.195   6.539   5.291
  487SOL     OW 2359   0.253   0.952   6.779
  487SOL    HW1 2360   0.326   0.998   6.830
  487SOL    HW2 2361   0.189   0.910   6.843
  488SOL     OW 2362   2.171   5.824   3.098
  488SOL    HW1 2363   2.255   5.870   3.125
  488SOL    HW2 2364   2.093   5.867   3.143
  489SOL     OW 2365   3.057   4.659   5.357
  489SOL    HW1 2366   2.999   4.725   5.405
  489SOL    HW2 2367   3.001   4.602   5.297
  490SOL     OW 2368   1.542   3.282   4.812
  490SOL    HW1 2369   1.480   3.292   4.734
  490SOL    HW2 2370   1.636   3.284   4.779
  491SOL     OW 2371   6.150   3.168   1.173
  491SOL    HW1 2372   6.145   3.114   1.089
  491SOL    HW2 2373   6.068   3.225   1.180
  492SOL     OW 2374   1.831   2.438   5.938
  492SOL    HW1 2375   1.863   2.533   5.936
  492SOL    HW2 2376   1.909   2.376   5.926
  493SOL     OW 2377   1.883   5.634   3.684
  493SOL    HW1 2378   1.896   5.601   3.591
  493SOL    HW2 2379   1.968   5.676   3.717
  494SOL     OW 2380   3.021   0.513   4.006
  494SOL    HW1 2381   3.114   0.481   4.024
  494SOL    HW2 2382   3.025   0.602   3.959
  495SOL     OW 2383   3.704   4.507   6.674
  495SOL    HW1 2384   3.798   4.480   6.653
  495SOL    HW2 2385   3.656   4.527   6.589
  496SOL     OW 2386   5.227   0.908   2.906
  496SOL    HW1 2387   5.285   0.966   2.963
  496SOL    HW2 2388   5.132   0.938   2.914
  497SOL     OW 2389   4.109   2.658   1.157
  497SOL    HW1 2390   4.134   2.561   1.166
  497SOL    HW2 2391   4.015   2.670   1.187
  498SOL     OW 2392   0.584   0.112   1.173
  498SOL    HW1 2393   0.573   0.187   1.238
  498SOL    HW2 2394   0.674   0.070   1.188
  499SOL     OW 2395   3.040   6.305   0.250
  499SOL    HW1 2396   2.993   6.393   0.259
  499SOL    HW2 2397   2.998   6.238   0.310
  500SOL     OW 2398   5.837   1.784   6.157
  500SOL    HW1 2399   5.916   1.838   6.129
  500SOL    HW2 2400   5.753   1.833   6.134
  501SOL     OW 2401   1.533   1.916   4.271
  501SOL    HW1 2402   1.569   1.939   4.361
  501SOL    HW2 2403   1.433   1.904   4.277
  502SOL     OW 2404   2.222   3.737   6.698
  502SOL    HW1 2405   2.273   3.682   6.763
  502SOL    HW2 2406   2.267   3.732   6.608
  503SOL     OW 2407   3.427   5.099   0.886
  503SOL    HW1 2408   3.483   5.182   0.875
  503SOL    HW2 2409   3.348   5.104   0.826
  504SOL     OW 2410   6.072   0.130   0.323
  504SOL    HW1 2411   6.093   0.165   0.414
  504SOL    HW2 2412   6.108   0.194   0.254
  505SOL     OW 2413   6.486   4.098   5.534
  505SOL    HW1 2414   6.557   4.166   5.552
  505SOL    HW2 2415   6.428   4.088   5.615
  506SOL     OW 2416   3.127   5.487   3.315
  506SOL    HW1 2417   3.144   5.390   3.296
  506SOL    HW2 2418   3.028   5.503   3.318
  507SOL     OW 2419   3.525   0.330   2.965
  507SOL    HW1 2420   3.427   0.338   2.949
  507SOL    HW2 2421   3.550   0.381   3.048
  508SOL     OW 2422   0.461   5.432   3.774
  508SOL    HW1 2423   0.418   5.428   3.684
  508SOL    HW2 2424   0.475   5.339   3.809
  509SOL     OW 2425   4.434   0.464   6.158
  509SOL    HW1 2426   4.476   0.407   6.229
  509SOL    HW2 2427   4.497   0.474   6.082
  510SOL     OW 2428   6.136   4.127   6.774
  510SOL    HW1 2429   6.064   4.149   6.709
  510SOL    HW2 2430   6.213   4.085   6.726
  511SOL     OW 2431   1.089   1.262   6.958
  511SOL    HW1 2432   1.028   1.184   6.966
  511SOL    HW2 2433   1.043   1.344   6.992
  512SOL     OW 2434   0.287   1.747   4.304
  512SOL    HW1 2435   0.359   1.752   4.374
  512SOL    HW2 2436   0.198   1.736   4.349
  513SOL     OW 2437   5.721   6.236   2.852
  513SOL    HW1 2438   5.785   6.271   2.920
  513SOL    HW2 2439   5.772   6.196   2.776
  514SOL     OW 2440   4.619   1.518   4.699
  514SOL    HW1 2441   4.605   1.595   4.761
  514SOL    HW2 2442   4.709   1.478   4.716
  515SOL     OW 2443   3.091   0.720   0.264
  515SOL    HW1 2444   3.087   0.820   0.262
  515SOL    HW2 2445   3.163   0.691   0.327
  516SOL     OW 2446   1.249   6.124   1.862
  516SOL    HW1 2447   1.311   6.063   1.912
  516SOL    HW2 2448   1.155   6.093   1.875
  517SOL     OW 2449   3.334   5.151   1.352
  517SOL    HW1 2450   3.255   5.132   1.294
  517SOL    HW2 2451   3.307   5.212   1.426
  518SOL     OW 2452   2.280   6.233   3.936
  518SOL    HW1 2453   2.295   6.168   3.862
  518SOL    HW2 2454   2.348   6.307   3.930
  519SOL     OW 2455   6.664   0.365   2.684
  519SOL    HW1 2456   6.676   0.301   2.760
  519SOL    HW2 2457   6.741   0.356   2.621
  520SOL     OW 2458   2.209   5.192   0.947
  520SOL    HW1 2459   2.298   5.237   0.945
  520SOL    HW2 2460   2.153   5.225   0.872
  521SOL     OW 2461   6.372   6.031   5.306
  521SOL    HW1 2462   6.462   6.074   5.297
  521SOL    HW2 2463   6.346   5.989   5.219
  522SOL     OW 2464   3.967   4.518   7.015
  522SOL    HW1 2465   3.913   4.448   0.041
  522SOL    HW2 2466   4.064   4.497   0.003
  523SOL     OW 2467   1.882   6.865   6.031
  523SOL    HW1 2468   1.848   6.861   5.937
  523SOL    HW2 2469   1.832   6.935   6.081
  524SOL     OW 2470   7.009   0.899   0.952
  524SOL    HW1 2471   6.956   0.954   1.017
  524SOL    HW2 2472   6.982   0.924   0.858
  525SOL     OW 2473   0.876   3.335   3.396
  525SOL    HW1 2474   0.975   3.326   3.405
  525SOL    HW2 2475   0.850   3.431   3.401
  526SOL     OW 2476   4.168   6.642   5.218
  526SOL    HW1 2477   4.116   6.587   5.284
  526SOL    HW2 2478   4.265   6.638   5.240
  527SOL     OW 2479   0.566   0.967   0.845
  527SOL    HW1 2480   0.567   0.871   0.876
  527SOL    HW2 2481   0.636   1.018   0.894
  528SOL     OW 2482   6.877   2.046   4.470
  528SOL    HW1 2483   6.806   1.986   4.505
  528SOL    HW2 2484   6.835   2.127   4.429
  529SOL     OW 2485   1.479   1.032   6.045
  529SOL    HW1 2486   1.513   0.939   6.056
  529SOL    HW2 2487   1.473   1.054   5.947
  530SOL     OW 2488   3.006   4.909   1.552
  530SOL    HW1 2489   2.949   4.864   1.621
  530SOL    HW2 2490   3.025   4.845   1.477
  531SOL     OW 2491   0.904   0.888   6.176
  531SOL    HW1 2492   0.966   0.830   6.230
  531SOL    HW2 2493   0.906   0.859   6.081
  532SOL     OW 2494   2.916   0.521   6.683
  532SOL    HW1 2495   2.866   0.521   6.769
  532SOL    HW2 2496   3.004   0.476   6.695
  533SOL     OW 2497   4.314   6.934   4.445
  533SOL    HW1 2498   4.349   0.006   4.456
  533SOL    HW2 2499   4.331   6.903   4.351
  534SOL     OW 2500   2.017   4.217   1.845
  534SOL    HW1 2501   2.044   4.185   1.936
  534SOL    HW2 2502   2.072   4.170   1.776
  535SOL     OW 2503   4.727   4.197   4.622
  535SOL    HW1 2504   4.781   4.163   4.545
  535SOL    HW2 2505   4.640   4.233   4.589
  536SOL     OW 2506   6.611   6.445   1.243
  536SOL    HW1 2507   6.698   6.494   1.237
  536SOL    HW2 2508   6.580   6.422   1.150
  537SOL     OW 2509   2.524   1.924   2.365
  537SOL    HW1 2510   2.479   1.844   2.403
  537SOL    HW2 2511   2.538   1.911   2.267
  538SOL     OW 2512   4.081   4.626   5.353
  538SOL    HW1 2513   3.994   4.591   5.318
  538SOL    HW2 2514   4.156   4.584   5.304
  539SOL     OW 2515   2.510   6.982   6.582
  539SOL    HW1 2516   2.516   6.983   6.682
  539SOL    HW2 2517   2.562   6.905   6.546
  540SOL     OW 2518   2.142   1.303   5.473
  540SOL    HW1 2519   2.060   1.250   5.494
  540SOL    HW2 2520   2.129   1.398   5.503
  541SOL     OW 2521   5.156   6.311   3.597
  541SOL    HW1 2522   5.110   6.222   3.604
  541SOL    HW2 2523   5.088   6.384   3.600
  542SOL     OW 2524   3.499   6.117   5.965
  542SOL    HW1 2525   3.569   6.187   5.949
  542SOL    HW2 2526   3.428   6.154   6.026
  543SOL     OW 2527   6.019   2.856   4.577
  543SOL    HW1 2528   6.015   2.764   4.616
  543SOL    HW2 2529   6.110   2.872   4.539
  544SOL     OW 2530   1.229   3.336   1.053
  544SOL    HW1 2531   1.311   3.365   1.101
  544SOL    HW2 2532   1.244   3.341   0.954
  545SOL     OW 2533   6.784   5.335   0.527
  545SOL    HW1 2534   6.823   5.346   0.618
  545SOL    HW2 2535   6.740   5.420   0.498
  546SOL     OW 2536   0.037   4.534   2.000
  546SOL    HW1 2537   0.020   4.623   1.958
  546SOL    HW2 2538   6.980   4.510   2.059
  547SOL     OW 2539   4.303   0.004   6.789
  547SOL    HW1 2540   4.338   6.971   6.712
  547SOL    HW2 2541   4.349   0.094   6.790
  548SOL     OW 2542   4.145   2.678   6.940
  548SOL    HW1 2543   4.074   2.738   6.979
  548SOL    HW2 2544   4.235   2.718   6.958
  549SOL     OW 2545   5.699   2.319   3.769
  549SOL    HW1 2546   5.750   2.320   3.683
  549SOL    HW2 2547   5.715   2.405   3.818
  550SOL     OW 2548   6.701   5.437   3.536
  550SOL    HW1 2549   6.684   5.530   3.503
  550SOL    HW2 2550   6.622   5.407   3.591
  551SOL     OW 2551   5.260   0.396   0.015
  551SOL    HW1 2552   5.293   0.376   0.107
  551SOL    HW2 2553   5.174   0.447   0.020
  552SOL     OW 2554   0.506   0.064   4.771
  552SOL    HW1 2555   0.493   0.129   4.846
  552SOL    HW2 2556   0.440   0.083   4.698
  553SOL     OW 2557   3.506   2.160   5.952
  553SOL    HW1 2558   3.411   2.165   5.981
  553SOL    HW2 2559   3.525   2.069   5.915
  554SOL     OW 2560   6.635   6.092   0.712
  554SOL    HW1 2561   6.716   6.053   0.669
  554SOL    HW2 2562   6.649   6.098   0.811
  555SOL     OW 2563   2.693   4.153   5.970
  555SOL    HW1 2564   2.713   4.249   5.950
  555SOL    HW2 2565   2.767   4.114   6.026
  556SOL     OW 2566   6.427   6.072   2.777
  556SOL    HW1 2567   6.359   6.129   2.823
  556SOL    HW2 2568   6.417   5.977   2.807
  557SOL     OW 2569   5.461   3.767   6.232
  557SOL    HW1 2570   5.476   3.837   6.303
  557SOL    HW2 2571   5.367   3.773   6.200
  558SOL     OW 2572   3.398   3.648   2.293
  558SOL    HW1 2573   3.468   3.720   2.296
  558SOL    HW2 2574   3.357   3.638   2.384
  559SOL     OW 2575   6.495   1.346   6.506
  559SOL    HW1 2576   6.422   1.407   6.535
  559SOL    HW2 2577   6.488   1.329   6.407
  560SOL     OW 2578   0.134   2.479   3.728
  560SOL    HW1 2579   0.191   2.398   3.741
  560SOL    HW2 2580   0.174   2.537   3.657
  561SOL     OW 2581   0.577   4.189   6.971
  561SOL    HW1 2582   0.586   4.269   6.911
  561SOL    HW2 2583   0.660   4.134   6.965
  562SOL     OW 2584   4.540   6.410   3.603
  562SOL    HW1 2585   4.580   6.357   3.677
  562SOL    HW2 2586   4.611   6.435   3.537
  563SOL     OW 2587   1.201   1.366   3.738
  563SOL    HW1 2588   1.222   1.278   3.696
  563SOL    HW2 2589   1.228   1.364   3.835
  564SOL     OW 2590   5.989   1.780   5.724
  564SOL    HW1 2591   5.910   1.837   5.744
  564SOL    HW2 2592   6.059   1.793   5.794
  565SOL     OW 2593   2.885   3.453   3.644
  565SOL    HW1 2594   2.952   3.457   3.569
  565SOL    HW2 2595   2.812   3.388   3.620
  566SOL     OW 2596   2.046   1.980   3.760
  566SOL    HW1 2597   2.057   2.028   3.847
  566SOL    HW2 2598   2.050   1.881   3.776
  567SOL     OW 2599   2.078   3.272   5.272
  567SOL    HW1 2600   2.177   3.258   5.263
  567SOL    HW2 2601   2.043   3.218   5.349
  568SOL     OW 2602   1.086   6.846   0.041
  568SOL    HW1 2603   1.128   6.882   0.125
  568SOL    HW2 2604   0.996   6.808   0.062
  569SOL     OW 2605   5.207   3.637   5.850
  569SOL    HW1 2606   5.187   3.650   5.753
  569SOL    HW2 2607   5.236   3.725   5.889
  570SOL     OW 2608   3.876   0.625   6.065
  570SOL    HW1 2609   3.840   0.559   5.999
  570SOL    HW2 2610   3.840   0.605   6.156
  571SOL     OW 2611   2.525   4.383   1.730
  571SOL    HW1 2612   2.613   4.338   1.711
  571SOL    HW2 2613   2.542   4.476   1.761
  572SOL     OW 2614   3.133   1.061   4.447
  572SOL    HW1 2615   3.135   1.061   4.347
  572SOL    HW2 2616   3.038   1.057   4.478
  573SOL     OW 2617   0.452   0.698   5.509
  573SOL    HW1 2618   0.473   0.661   5.419
  573SOL    HW2 2619   0.535   0.699   5.565
  574SOL     OW 2620   2.213   1.240   6.206
  574SOL    HW1 2621   2.307   1.243   6.239
  574SOL    HW2 2622   2.212   1.208   6.112
  575SOL     OW 2623   3.802   3.751   0.254
  575SOL    HW1 2624   3.739   3.673   0.256
  575SOL    HW2 2625   3.893   3.720   0.279
  576SOL     OW 2626   0.926   1.087   2.993
  576SOL    HW1 2627   0.878   1.172   2.973
  576SOL    HW2 2628   1.020   1.107   3.020
  577SOL     OW 2629   0.338   0.292   2.002
  577SOL    HW1 2630   0.351   0.279   2.100
  577SOL    HW2 2631   0.339   0.203   1.956
  578SOL     OW 2632   3.981   6.860   0.143
  578SOL    HW1 2633   3.889   6.897   0.157
  578SOL    HW2 2634   3.996   6.842   0.046
  579SOL     OW 2635   1.120   4.012   1.852
  579SOL    HW1 2636   1.104   4.061   1.938
  579SOL    HW2 2637   1.169   4.072   1.789
  580SOL     OW 2638   4.932   5.080   4.361
  580SOL    HW1 2639   4.940   5.151   4.430
  580SOL    HW2 2640   4.959   4.992   4.400
  581SOL     OW 2641   1.912   2.517   4.512
  581SOL    HW1 2642   1.961   2.430   4.515
  581SOL    HW2 2643   1.898   2.545   4.417
  582SOL     OW 2644   5.534   4.357   5.497
  582SOL    HW1 2645   5.462   4.425   5.510
  582SOL    HW2 2646   5.605   4.370   5.567
  583SOL     OW 2647   3.222   6.284   5.628
  583SOL    HW1 2648   3.272   6.335   5.559
  583SOL    HW2 2649   3.206   6.191   5.596
  584SOL     OW 2650   4.222   0.623   5.015
  584SOL    HW1 2651   4.253   0.528   5.022
  584SOL    HW2 2652   4.294   0.684   5.048
  585SOL     OW 2653   3.268   6.621   1.456
  585SOL    HW1 2654   3.277   6.666   1.544
  585SOL    HW2 2655   3.254   6.523   1.469
  586SOL     OW 2656   3.394   0.008   0.495
  586SOL    HW1 2657   3.420   0.101   0.470
  586SOL    HW2 2658   3.397   7.018   0.594
  587SOL     OW 2659   4.990   1.346   2.616
  587SOL    HW1 2660   4.923   1.420   2.627
  587SOL    HW2 2661   5.082   1.385   2.621
  588SOL     OW 2662   2.166   4.415   2.798
  588SOL    HW1 2663   2.145   4.494   2.742
  588SOL    HW2 2664   2.243   4.365   2.759
  589SOL     OW 2665   3.609   5.121   0.545
  589SOL    HW1 2666   3.652   5.031   0.549
  589SOL    HW2 2667   3.598   5.157   0.638
  590SOL     OW 2668   3.061   2.263   6.291
  590SOL    HW1 2669   3.108   2.307   6.367
  590SOL    HW2 2670   2.995   2.327   6.251
  591SOL     OW 2671   2.691   6.766   3.644
  591SOL    HW1 2672   2.679   6.801   3.737
  591SOL    HW2 2673   2.722   6.839   3.584
  592SOL     OW 2674   4.975   2.434   4.919
  592SOL    HW1 2675   5.037   2.373   4.969
  592SOL    HW2 2676   5.028   2.496   4.862
  593SOL     OW 2677   1.713   1.356   6.563
  593SOL    HW1 2678   1.810   1.350   6.588
  593SOL    HW2 2679   1.701   1.324   6.470
  594SOL     OW 2680   3.746   1.032   4.006
  594SOL    HW1 2681   3.837   1.001   3.978
  594SOL    HW2 2682   3.743   1.042   4.105
  595SOL     OW 2683   6.108   3.982   2.273
  595SOL    HW1 2684   6.048   3.936   2.338
  595SOL    HW2 2685   6.147   4.064   2.315
  596SOL     OW 2686   5.934   4.744   4.492
  596SOL    HW1 2687   6.000   4.750   4.417
  596SOL    HW2 2688   5.922   4.648   4.518
  597SOL     OW 2689   2.912   1.879   6.770
  597SOL    HW1 2690   2.925   1.780   6.768
  597SOL    HW2 2691   2.989   1.924   6.726
  598SOL     OW 2692   3.219   3.413   3.197
  598SOL    HW1 2693   3.203   3.346   3.269
  598SOL    HW2 2694   3.131   3.446   3.162
  599SOL     OW 2695   1.706   4.810   1.595
  599SOL    HW1 2696   1.654   4.883   1.639
  599SOL    HW2 2697   1.721   4.832   1.499
  600SOL     OW 2698   0.183   3.705   5.077
  600SOL    HW1 2699   0.274   3.669   5.097
  600SOL    HW2 2700   0.145   3.748   5.160
  601SOL     OW 2701   0.431   6.584   5.978
  601SOL    HW1 2702   0.414   6.513   5.910
  601SOL    HW2 2703   0.350   6.594   6.037
  602SOL     OW 2704   1.495   1.042   3.397
  602SOL    HW1 2705   1.526   1.010   3.487
  602SOL    HW2 2706   1.551   0.999   3.326
  603SOL     OW 2707   1.600   2.063   4.060
  603SOL    HW1 2708   1.570   2.028   4.149
  603SOL    HW2 2709   1.593   1.991   3.991
  604SOL     OW 2710   5.575   2.726   0.972
  604SOL    HW1 2711   5.669   2.759   0.967
  604SOL    HW2 2712   5.559   2.684   1.061
  605SOL     OW 2713   5.863   6.447   1.331
  605SOL    HW1 2714   5.923   6.468   1.409
  605SOL    HW2 2715   5.876   6.516   1.260
  606SOL     OW 2716   3.247   6.494   4.740
  606SOL    HW1 2717   3.272   6.415   4.684
  606SOL    HW2 2718   3.164   6.473   4.792
  607SOL     OW 2719   1.590   2.483   6.100
  607SOL    HW1 2720   1.648   2.419   6.050
  607SOL    HW2 2721   1.617   2.577   6.078
  608SOL     OW 2722   3.274   1.314   6.917
  608SOL    HW1 2723   3.209   1.385   6.947
  608SOL    HW2 2724   3.360   1.324   6.968
  609SOL     OW 2725   3.717   3.103   2.350
  609SOL    HW1 2726   3.689   3.028   2.410
  609SOL    HW2 2727   3.691   3.083   2.256
  610SOL     OW 2728   4.824   3.659   1.821
  610SOL    HW1 2729   4.737   3.638   1.777
  610SOL    HW2 2730   4.834   3.758   1.829
  611SOL     OW 2731   4.245   1.017   2.674
  611SOL    HW1 2732   4.179   0.943   2.668
  611SOL    HW2 2733   4.266   1.036   2.770
  612SOL     OW 2734   4.790   4.514   4.321
  612SOL    HW1 2735   4.862   4.553   4.264
  612SOL    HW2 2736   4.821   4.510   4.416
  613SOL     OW 2737   3.890   5.044   6.385
  613SOL    HW1 2738   3.863   5.140   6.393
  613SOL    HW2 2739   3.966   5.036   6.321
  614SOL     OW 2740   2.844   6.562   6.487
  614SOL    HW1 2741   2.852   6.463   6.500
  614SOL    HW2 2742   2.923   6.595   6.435
  615SOL     OW 2743   0.252   5.014   3.091
  615SOL    HW1 2744   0.183   4.941   3.087
  615SOL    HW2 2745   0.237   5.069   3.173
  616SOL     OW 2746   6.383   3.471   3.954
  616SOL    HW1 2747   6.369   3.387   3.901
  616SOL    HW2 2748   6.301   3.491   4.007
  617SOL     OW 2749   2.663   0.206   5.871
  617SOL    HW1 2750   2.604   0.282   5.843
  617SOL    HW2 2751   2.633   0.122   5.825
  618SOL     OW 2752   1.793   0.621   3.737
  618SOL    HW1 2753   1.869   0.593   3.796
  618SOL    HW2 2754   1.711   0.571   3.764
  619SOL     OW 2755   1.101   1.983   6.785
  619SOL    HW1 2756   1.081   1.888   6.810
  619SOL    HW2 2757   1.070   2.043   6.858
  620SOL     OW 2758   4.823   3.636   0.698
  620SOL    HW1 2759   4.781   3.685   0.622
  620SOL    HW2 2760   4.904   3.587   0.665
  621SOL     OW 2761   0.050   5.927   0.603
  621SOL    HW1 2762   0.015   5.837   0.628
  621SOL    HW2 2763   0.137   5.942   0.651
  622SOL     OW 2764   0.286   1.038   0.218
  622SOL    HW1 2765   0.286   0.952   0.269
  622SOL    HW2 2766   0.379   1.074   0.213
  623SOL     OW 2767   0.601   4.400   4.809
  623SOL    HW1 2768   0.618   4.498   4.818
  623SOL    HW2 2769   0.518   4.386   4.755
  624SOL     OW 2770   0.668   1.682   1.700
  624SOL    HW1 2771   0.675   1.769   1.651
  624SOL    HW2 2772   0.713   1.610   1.646
  625SOL     OW 2773   1.494   1.339   2.872
  625SOL    HW1 2774   1.473   1.390   2.788
  625SOL    HW2 2775   1.569   1.276   2.855
  626SOL     OW 2776   2.863   5.785   4.856
  626SOL    HW1 2777   2.910   5.854   4.913
  626SOL    HW2 2778   2.926   5.709   4.839
  627SOL     OW 2779   5.535   6.669   6.972
  627SOL    HW1 2780   5.474   6.589   6.970
  627SOL    HW2 2781   5.510   6.727   0.030
  628SOL     OW 2782   5.531   3.875   3.027
  628SOL    HW1 2783   5.457   3.939   3.047
  628SOL    HW2 2784   5.500   3.806   2.961
  629SOL     OW 2785   1.344   0.468   0.808
  629SOL    HW1 2786   1.269   0.531   0.790
  629SOL    HW2 2787   1.362   0.465   0.906
  630SOL     OW 2788   2.738   1.164   1.159
  630SOL    HW1 2789   2.798   1.159   1.239
  630SOL    HW2 2790   2.752   1.251   1.112
  631SOL     OW 2791   2.518   0.669   4.485
  631SOL    HW1 2792   2.604   0.625   4.459
  631SOL    HW2 2793   2.454   0.666   4.407
  632SOL     OW 2794   2.918   0.284   0.896
  632SOL    HW1 2795   2.904   0.225   0.817
  632SOL    HW2 2796   2.846   0.267   0.963
  633SOL     OW 2797   2.317   0.116   5.433
  633SOL    HW1 2798   2.235   0.156   5.475
  633SOL    HW2 2799   2.308   0.016   5.430
  634SOL     OW 2800   2.438   5.641   1.759
  634SOL    HW1 2801   2.449   5.733   1.796
  634SOL    HW2 2802   2.513   5.583   1.789
  635SOL     OW 2803   2.903   0.072   2.797
  635SOL    HW1 2804   2.889   0.099   2.893
  635SOL    HW2 2805   2.846   0.128   2.738
  636SOL     OW 2806   4.548   5.489   6.705
  636SOL    HW1 2807   4.467   5.524   6.751
  636SOL    HW2 2808   4.610   5.448   6.773
  637SOL     OW 2809   6.051   4.734   6.723
  637SOL    HW1 2810   6.147   4.757   6.735
  637SOL    HW2 2811   6.019   4.681   6.801
  638SOL     OW 2812   5.108   1.457   3.473
  638SOL    HW1 2813   5.093   1.372   3.522
  638SOL    HW2 2814   5.189   1.448   3.415
  639SOL     OW 2815   4.843   3.744   1.541
  639SOL    HW1 2816   4.801   3.676   1.600
  639SOL    HW2 2817   4.849   3.709   1.447
  640SOL     OW 2818   2.363   3.260   5.288
  640SOL    HW1 2819   2.444   3.306   5.325
  640SOL    HW2 2820   2.390   3.178   5.239
  641SOL     OW 2821   0.104   5.704   5.285
  641SOL    HW1 2822   0.102   5.669   5.192
  641SOL    HW2 2823   0.010   5.716   5.318
  642SOL     OW 2824   1.778   4.587   6.052
  642SOL    HW1 2825   1.697   4.540   6.017
  642SOL    HW2 2826   1.773   4.592   6.152
  643SOL     OW 2827   6.048   5.910   4.938
  643SOL    HW1 2828   5.975   5.884   5.001
  643SOL    HW2 2829   6.044   6.009   4.921
  644SOL     OW 2830   2.131   6.411   1.789
  644SOL    HW1 2831   2.142   6.453   1.699
  644SOL    HW2 2832   2.190   6.458   1.855
  645SOL     OW 2833   0.097   2.355   2.836
  645SOL    HW1 2834   0.141   2.441   2.863
  645SOL    HW2 2835   0.102   2.346   2.737
  646SOL     OW 2836   1.110   3.045   4.616
  646SOL    HW1 2837   1.134   2.975   4.549
  646SOL    HW2 2838   1.031   3.097   4.583
  647SOL     OW 2839   5.475   3.535   0.492
  647SOL    HW1 2840   5.564   3.577   0.510
  647SOL    HW2 2841   5.429   3.517   0.579
  648SOL     OW 2842   4.556   2.436   4.520
  648SOL    HW1 2843   4.605   2.354   4.549
  648SOL    HW2 2844   4.459   2.427   4.542
  649SOL     OW 2845   4.354   4.560   1.815
  649SOL    HW1 2846   4.319   4.575   1.723
  649SOL    HW2 2847   4.365   4.462   1.832
  650SOL     OW 2848   5.090   4.445   0.657
  650SOL    HW1 2849   5.110   4.361   0.707
  650SOL    HW2 2850   5.098   4.428   0.559
  651SOL     OW 2851   1.184   5.665   6.382
  651SOL    HW1 2852   1.085   5.673   6.385
  651SOL    HW2 2853   1.218   5.629   6.469
  652SOL     OW 2854   4.992   1.769   2.649
  652SOL    HW1 2855   4.944   1.687   2.617
  652SOL    HW2 2856   5.088   1.762   2.624
  653SOL     OW 2857   3.671   4.836   2.696
  653SOL    HW1 2858   3.608   4.758   2.697
  653SOL    HW2 2859   3.739   4.823   2.624
  654SOL     OW 2860   6.601   5.791   6.575
  654SOL    HW1 2861   6.544   5.871   6.592
  654SOL    HW2 2862   6.564   5.739   6.498
  655SOL     OW 2863   0.737   1.795   6.937
  655SOL    HW1 2864   0.804   1.754   6.875
  655SOL    HW2 2865   0.785   1.849   7.006
  656SOL     OW 2866   2.306   6.246   1.019
  656SOL    HW1 2867   2.270   6.297   0.941
  656SOL    HW2 2868   2.350   6.162   0.987
  657SOL     OW 2869   4.016   0.962   0.178
  657SOL    HW1 2870   3.930   0.955   0.128
  657SOL    HW2 2871   3.998   0.993   0.271
  658SOL     OW 2872   3.741   5.616   6.446
  658SOL    HW1 2873   3.646   5.620   6.476
  658SOL    HW2 2874   3.764   5.701   6.399
  659SOL     OW 2875   4.020   0.832   5.797
  659SOL    HW1 2876   4.030   0.765   5.871
  659SOL    HW2 2877   3.943   0.805   5.739
  660SOL     OW 2878   3.919   6.069   3.105
  660SOL    HW1 2879   3.893   6.080   3.009
  660SOL    HW2 2880   3.960   6.154   3.138
  661SOL     OW 2881   5.638   4.938   2.349
  661SOL    HW1 2882   5.692   4.961   2.430
  661SOL    HW2 2883   5.550   4.985   2.353
  662SOL     OW 2884   4.060   1.922   0.570
  662SOL    HW1 2885   4.091   1.986   0.499
  662SOL    HW2 2886   4.139   1.885   0.619
  663SOL     OW 2887   1.596   4.342   4.758
  663SOL    HW1 2888   1.596   4.331   4.659
  663SOL    HW2 2889   1.680   4.389   4.786
  664SOL     OW 2890   5.810   0.022   5.991
  664SOL    HW1 2891   5.875   0.062   6.056
  664SOL    HW2 2892   5.793   0.087   5.917
  665SOL     OW 2893   0.986   4.409   1.887
  665SOL    HW1 2894   0.902   4.419   1.941
  665SOL    HW2 2895   0.964   4.420   1.790
  666SOL     OW 2896   4.391   1.242   1.781
  666SOL    HW1 2897   4.399   1.147   1.809
  666SOL    HW2 2898   4.295   1.269   1.779
  667SOL     OW 2899   1.057   0.138   2.309
  667SOL    HW1 2900   1.101   0.048   2.306
  667SOL    HW2 2901   1.106   0.197   2.373
  668SOL     OW 2902   5.655   3.060   6.994
  668SOL    HW1 2903   5.628   3.096   0.063
  668SOL    HW2 2904   5.711   3.128   6.946
  669SOL     OW 2905   5.313   1.799   3.451
  669SOL    HW1 2906   5.251   1.745   3.508
  669SOL    HW2 2907   5.402   1.808   3.497
  670SOL     OW 2908   3.574   1.973   2.377
  670SOL    HW1 2909   3.497   1.947   2.436
  670SOL    HW2 2910   3.547   1.964   2.281
  671SOL     OW 2911   1.920   6.294   1.962
  671SOL    HW1 2912   1.974   6.331   1.886
  671SOL    HW2 2913   1.872   6.368   2.009
  672SOL     OW 2914   0.703   0.116   2.143
  672SOL    HW1 2915   0.694   0.207   2.186
  672SOL    HW2 2916   0.769   0.122   2.068
  673SOL     OW 2917   6.091   6.787   6.538
  673SOL    HW1 2918   6.183   6.825   6.546
  673SOL    HW2 2919   6.033   6.823   6.611
  674SOL     OW 2920   5.066   0.266   3.834
  674SOL    HW1 2921   5.153   0.242   3.877
  674SOL    HW2 2922   5.002   0.299   3.905
  675SOL     OW 2923   0.540   3.749   2.773
  675SOL    HW1 2924   0.465   3.807   2.803
  675SOL    HW2 2925   0.584   3.789   2.693
  676SOL     OW 2926   2.569   6.124   6.720
  676SOL    HW1 2927   2.482   6.166   6.749
  676SOL    HW2 2928   2.550   6.049   6.657
  677SOL     OW 2929   6.092   1.546   1.160
  677SOL    HW1 2930   6.013   1.606   1.177
  677SOL    HW2 2931   6.173   1.601   1.145
  678SOL     OW 2932   1.174   5.423   3.547
  678SOL    HW1 2933   1.139   5.380   3.463
  678SOL    HW2 2934   1.099   5.438   3.610
  679SOL     OW 2935   4.593   1.938   5.206
  679SOL    HW1 2936   4.620   1.870   5.274
  679SOL    HW2 2937   4.617   2.029   5.239
  680SOL     OW 2938   6.387   6.355   3.746
  680SOL    HW1 2939   6.485   6.372   3.754
  680SOL    HW2 2940   6.342   6.379   3.832
  681SOL     OW 2941   4.859   4.804   2.806
  681SOL    HW1 2942   4.804   4.831   2.885
  681SOL    HW2 2943   4.881   4.886   2.752
  682SOL     OW 2944   6.801   1.676   3.104
  682SOL    HW1 2945   6.726   1.734   3.071
  682SOL    HW2 2946   6.869   1.733   3.149
  683SOL     OW 2947   3.148   3.776   0.896
  683SOL    HW1 2948   3.159   3.814   0.988
  683SOL    HW2 2949   3.051   3.774   0.872
  684SOL     OW 2950   6.454   1.266   5.650
  684SOL    HW1 2951   6.395   1.203   5.698
  684SOL    HW2 2952   6.398   1.333   5.600
  685SOL     OW 2953   3.014   6.793   3.012
  685SOL    HW1 2954   2.988   6.845   2.931
  685SOL    HW2 2955   3.000   6.849   3.094
  686SOL     OW 2956   4.052   0.835   5.241
  686SOL    HW1 2957   4.107   0.824   5.159
  686SOL    HW2 2958   4.101   0.893   5.307
  687SOL     OW 2959   0.075   1.318   4.256
  687SOL    HW1 2960   0.066   1.278   4.165
  687SOL    HW2 2961   0.021   1.403   4.261
  688SOL     OW 2962   5.941   1.840   6.884
  688SOL    HW1 2963   5.994   1.808   6.805
  688SOL    HW2 2964   5.847   1.859   6.855
  689SOL     OW 2965   2.114   5.432   0.487
  689SOL    HW1 2966   2.206   5.442   0.525
  689SOL    HW2 2967   2.120   5.417   0.389
  690SOL     OW 2968   5.441   3.851   3.312
  690SOL    HW1 2969   5.525   3.848   3.366
  690SOL    HW2 2970   5.463   3.880   3.219
  691SOL     OW 2971   5.829   1.229   1.317
  691SOL    HW1 2972   5.781   1.155   1.365
  691SOL    HW2 2973   5.928   1.215   1.326
  692SOL     OW 2974   1.527   1.345   3.898
  692SOL    HW1 2975   1.445   1.338   3.955
  692SOL    HW2 2976   1.584   1.420   3.932
  693SOL     OW 2977   5.885   5.060   3.311
  693SOL    HW1 2978   5.974   5.094   3.281
  693SOL    HW2 2979   5.894   4.966   3.343
  694SOL     OW 2980   4.117   5.479   4.273
  694SOL    HW1 2981   4.144   5.575   4.281
  694SOL    HW2 2982   4.023   5.474   4.240
  695SOL     OW 2983   4.941   6.493   3.643
  695SOL    HW1 2984   4.907   6.432   3.715
  695SOL    HW2 2985   4.883   6.485   3.562
  696SOL     OW 2986   5.536   3.959   2.246
  696SOL    HW1 2987   5.450   3.972   2.198
  696SOL    HW2 2988   5.593   4.040   2.236
  697SOL     OW 2989   0.787   6.641   2.544
  697SOL    HW1 2990   0.861   6.624   2.609
  697SOL    HW2 2991   0.788   6.737   2.516
  698SOL     OW 2992   5.684   6.167   6.119
  698SOL    HW1 2993   5.747   6.093   6.144
  698SOL    HW2 2994   5.629   6.192   6.199
  699SOL     OW 2995   4.360   3.720   0.767
  699SOL    HW1 2996   4.454   3.744   0.788
  699SOL    HW2 2997   4.311   3.699   0.851
  700SOL     OW 2998   3.637   6.718   5.440
  700SOL    HW1 2999   3.622   6.673   5.351
  700SOL    HW2 3000   3.617   6.816   5.432
  701SOL     OW 3001   4.472   4.895   1.657
  701SOL    HW1 3002   4.414   4.857   1.729
  701SOL    HW2 3003   4.525   4.820   1.615
  702SOL     OW 3004   4.361   0.359   4.721
  702SOL    HW1 3005   4.289   0.335   4.787
  702SOL    HW2 3006   4.446   0.378   4.770
  703SOL     OW 3007   2.990   2.973   0.085
  703SOL    HW1 3008   3.005   3.064   0.124
  703SOL    HW2 3009   3.068   2.949   0.027
  704SOL     OW 3010   3.745   1.073   6.185
  704SOL    HW1 3011   3.672   1.138   6.165
  704SOL    HW2 3012   3.825   1.094   6.130
  705SOL     OW 3013   0.036   6.342   5.775
  705SOL    HW1 3014   0.022   6.273   5.847
  705SOL    HW2 3015   0.016   6.301   5.686
  706SOL     OW 3016   3.591   0.869   4.695
  706SOL    HW1 3017   3.652   0.890   4.619
  706SOL    HW2 3018   3.524   0.943   4.706
  707SOL     OW 3019   2.758   5.600   4.074
  707SOL    HW1 3020   2.818   5.533   4.030
  707SOL    HW2 3021   2.726   5.564   4.161
  708SOL     OW 3022   3.984   5.963   4.000
  708SOL    HW1 3023   3.938   5.927   3.919
  708SOL    HW2 3024   4.082   5.974   3.981
  709SOL     OW 3025   2.512   0.410   1.748
  709SOL    HW1 3026   2.510   0.498   1.796
  709SOL    HW2 3027   2.479   0.339   1.809
  710SOL     OW 3028   4.924   3.638   2.565
  710SOL    HW1 3029   4.866   3.663   2.643
  710SOL    HW2 3030   4.959   3.720   2.521
  711SOL     OW 3031   0.750   1.756   0.302
  711SOL    HW1 3032   0.799   1.835   0.265
  711SOL    HW2 3033   0.681   1.725   0.237
  712SOL     OW 3034   5.319   3.889   7.004
  712SOL    HW1 3035   5.307   3.822   0.057
  712SOL    HW2 3036   5.230   3.913   6.965
  713SOL     OW 3037   4.060   3.271   6.191
  713SOL    HW1 3038   4.154   3.265   6.225
  713SOL    HW2 3039   4.027   3.179   6.168
  714SOL     OW 3040   5.361   6.392   3.060
  714SOL    HW1 3041   5.328   6.324   3.125
  714SOL    HW2 3042   5.384   6.347   2.974
  715SOL     OW 3043   6.066   5.097   5.192
  715SOL    HW1 3044   6.049   4.999   5.189
  715SOL    HW2 3045   6.116   5.120   5.275
  716SOL     OW 3046   3.239   2.178   3.524
  716SOL    HW1 3047   3.142   2.192   3.501
  716SOL    HW2 3048   3.296   2.218   3.453
  717SOL     OW 3049   5.094   4.920   3.830
  717SOL    HW1 3050   5.160   4.901   3.758
  717SOL    HW2 3051   5.014   4.965   3.790
  718SOL     OW 3052   6.113   2.272   5.057
  718SOL    HW1 3053   6.035   2.210   5.072
  718SOL    HW2 3054   6.198   2.223   5.073
  719SOL     OW 3055   4.732   6.144   3.292
  719SOL    HW1 3056   4.681   6.100   3.218
  719SOL    HW2 3057   4.683   6.131   3.378
  720SOL     OW 3058   3.114   1.352   1.586
  720SOL    HW1 3059   3.049   1.281   1.615
  720SOL    HW2 3060   3.069   1.441   1.588
  721SOL     OW 3061   6.699   3.153   1.923
  721SOL    HW1 3062   6.638   3.079   1.895
  721SOL    HW2 3063   6.665   3.240   1.888
  722SOL     OW 3064   4.801   6.351   1.192
  722SOL    HW1 3065   4.899   6.336   1.198
  722SOL    HW2 3066   4.782   6.424   1.126
  723SOL     OW 3067   2.159   0.743   4.633
  723SOL    HW1 3068   2.061   0.745   4.612
  723SOL    HW2 3069   2.172   0.753   4.732
  724SOL     OW 3070   1.063   2.106   4.522
  724SOL    HW1 3071   1.021   2.051   4.451
  724SOL    HW2 3072   1.004   2.108   4.603
  725SOL     OW 3073   1.820   4.565   2.800
  725SOL    HW1 3074   1.827   4.467   2.819
  725SOL    HW2 3075   1.911   4.604   2.785
  726SOL     OW 3076   2.235   3.917   0.715
  726SOL    HW1 3077   2.280   3.925   0.627
  726SOL    HW2 3078   2.152   3.862   0.706
  727SOL     OW 3079   3.551   5.442   4.802
  727SOL    HW1 3080   3.531   5.434   4.900
  727SOL    HW2 3081   3.497   5.375   4.752
  728SOL     OW 3082   6.864   3.195   3.723
  728SOL    HW1 3083   6.802   3.249   3.666
  728SOL    HW2 3084   6.878   3.105   3.680
  729SOL     OW 3085   0.798   4.286   0.734
  729SOL    HW1 3086   0.740   4.366   0.748
  729SOL    HW2 3087   0.741   4.204   0.729
  730SOL     OW 3088   4.498   1.411   3.093
  730SOL    HW1 3089   4.592   1.411   3.059
  730SOL    HW2 3090   4.475   1.503   3.125
  731SOL     OW 3091   4.638   4.679   4.587
  731SOL    HW1 3092   4.719   4.720   4.629
  731SOL    HW2 3093   4.556   4.710   4.636
  732SOL     OW 3094   3.938   0.459   4.418
  732SOL    HW1 3095   3.926   0.360   4.425
  732SOL    HW2 3096   4.006   0.490   4.484
  733SOL     OW 3097   6.480   5.062   4.064
  733SOL    HW1 3098   6.537   5.134   4.024
  733SOL    HW2 3099   6.473   5.076   4.163
  734SOL     OW 3100   6.428   6.747   2.824
  734SOL    HW1 3101   6.491   6.815   2.787
  734SOL    HW2 3102   6.344   6.745   2.769
  735SOL     OW 3103   4.143   0.221   2.409
  735SOL    HW1 3104   4.076   0.258   2.474
  735SOL    HW2 3105   4.235   0.243   2.440
  736SOL     OW 3106   1.625   1.996   3.542
  736SOL    HW1 3107   1.544   2.027   3.493
  736SOL    HW2 3108   1.704   2.051   3.514
  737SOL     OW 3109   3.395   0.965   6.327
  737SOL    HW1 3110   3.326   0.976   6.256
  737SOL    HW2 3111   3.432   0.872   6.325
  738SOL     OW 3112   1.484   4.700   0.378
  738SOL    HW1 3113   1.475   4.794   0.345
  738SOL    HW2 3114   1.519   4.642   0.303
  739SOL     OW 3115   1.944   0.127   3.692
  739SOL    HW1 3116   1.955   0.123   3.792
  739SOL    HW2 3117   2.030   0.103   3.648
  740SOL     OW 3118   4.985   3.540   3.509
  740SOL    HW1 3119   5.018   3.450   3.536
  740SOL    HW2 3120   5.041   3.610   3.553
  741SOL     OW 3121   3.139   1.153   2.916
  741SOL    HW1 3122   3.039   1.142   2.918
  741SOL    HW2 3123   3.165   1.225   2.981
  742SOL     OW 3124   1.556   7.016   2.372
  742SOL    HW1 3125   1.529   0.089   2.348
  742SOL    HW2 3126   1.474   6.960   2.386
  743SOL     OW 3127   0.315   6.252   2.791
  743SOL    HW1 3128   0.302   6.154   2.806
  743SOL    HW2 3129   0.231   6.290   2.750
  744SOL     OW 3130   5.302   1.525   0.890
  744SOL    HW1 3131   5.365   1.504   0.964
  744SOL    HW2 3132   5.229   1.584   0.924
  745SOL     OW 3133   2.241   6.409   5.064
  745SOL    HW1 3134   2.259   6.492   5.011
  745SOL    HW2 3135   2.312   6.399   5.133
  746SOL     OW 3136   6.959   5.003   4.523
  746SOL    HW1 3137   6.914   4.924   4.566
  746SOL    HW2 3138   6.916   5.087   4.555
  747SOL     OW 3139   4.681   5.277   2.699
  747SOL    HW1 3140   4.780   5.275   2.715
  747SOL    HW2 3141   4.662   5.299   2.604
  748SOL     OW 3142   5.529   4.741   1.098
  748SOL    HW1 3143   5.488   4.729   1.188
  748SOL    HW2 3144   5.512   4.660   1.042
  749SOL     OW 3145   5.103   4.777   5.179
  749SOL    HW1 3146   5.090   4.868   5.217
  749SOL    HW2 3147   5.201   4.758   5.171
  750SOL     OW 3148   2.163   2.143   3.176
  750SOL    HW1 3149   2.152   2.061   3.120
  750SOL    HW2 3150   2.261   2.158   3.193
  751SOL     OW 3151   3.413   1.023   0.618
  751SOL    HW1 3152   3.405   0.992   0.523
  751SOL    HW2 3153   3.504   1.063   0.632
  752SOL     OW 3154   3.219   2.890   5.048
  752SOL    HW1 3155   3.224   2.827   4.970
  752SOL    HW2 3156   3.299   2.879   5.106
  753SOL     OW 3157   3.855   4.052   3.837
  753SOL    HW1 3158   3.919   4.011   3.773
  753SOL    HW2 3159   3.769   4.073   3.790
  754SOL     OW 3160   4.769   0.676   6.748
  754SOL    HW1 3161   4.762   0.644   6.843
  754SOL    HW2 3162   4.861   0.710   6.731
  755SOL     OW 3163   4.498   4.664   5.189
  755SOL    HW1 3164   4.442   4.690   5.267
  755SOL    HW2 3165   4.460   4.583   5.145
  756SOL     OW 3166   3.114   5.115   6.396
  756SOL    HW1 3167   3.186   5.061   6.438
  756SOL    HW2 3168   3.114   5.207   6.435
  757SOL     OW 3169   1.522   0.095   1.761
  757SOL    HW1 3170   1.445   0.095   1.698
  757SOL    HW2 3171   1.607   0.112   1.710
  758SOL     OW 3172   4.537   1.128   4.572
  758SOL    HW1 3173   4.534   1.132   4.672
  758SOL    HW2 3174   4.622   1.084   4.542
  759SOL     OW 3175   0.008   3.445   4.034
  759SOL    HW1 3176   7.002   3.397   4.118
  759SOL    HW2 3177   0.105   3.429   4.016
  760SOL     OW 3178   6.486   5.358   3.702
  760SOL    HW1 3179   6.482   5.441   3.758
  760SOL    HW2 3180   6.416   5.362   3.631
  761SOL     OW 3181   5.122   4.993   6.163
  761SOL    HW1 3182   5.047   4.928   6.172
  761SOL    HW2 3183   5.124   5.029   6.069
  762SOL     OW 3184   3.824   5.432   3.970
  762SOL    HW1 3185   3.743   5.373   3.958
  762SOL    HW2 3186   3.904   5.375   3.985
  763SOL     OW 3187   5.404   0.742   0.781
  763SOL    HW1 3188   5.470   0.810   0.810
  763SOL    HW2 3189   5.368   0.767   0.691
  764SOL     OW 3190   5.104   6.333   5.198
  764SOL    HW1 3191   5.187   6.298   5.154
  764SOL    HW2 3192   5.129   6.382   5.281
  765SOL     OW 3193   5.815   6.560   0.418
  765SOL    HW1 3194   5.793   6.607   0.333
  765SOL    HW2 3195   5.905   6.516   0.409
  766SOL     OW 3196   2.471   1.960   4.096
  766SOL    HW1 3197   2.431   1.959   4.188
  766SOL    HW2 3198   2.494   1.867   4.068
  767SOL     OW 3199   6.764   5.903   4.033
  767SOL    HW1 3200   6.717   5.872   3.950
  767SOL    HW2 3201   6.799   5.824   4.083
  768SOL     OW 3202   2.133   5.334   2.169
  768SOL    HW1 3203   2.057   5.270   2.177
  768SOL    HW2 3204   2.121   5.392   2.089
  769SOL     OW 3205   3.194   2.007   5.406
  769SOL    HW1 3206   3.198   2.101   5.440
  769SOL    HW2 3207   3.189   2.008   5.307
  770SOL     OW 3208   1.219   4.485   5.674
  770SOL    HW1 3209   1.145   4.552   5.684
  770SOL    HW2 3210   1.193   4.416   5.607
  771SOL     OW 3211   1.287   4.788   2.562
  771SOL    HW1 3212   1.297   4.689   2.569
  771SOL    HW2 3213   1.261   4.812   2.468
  772SOL     OW 3214   5.319   4.643   0.419
  772SOL    HW1 3215   5.322   4.646   0.519
  772SOL    HW2 3216   5.410   4.622   0.383
  773SOL     OW 3217   2.357   4.272   3.546
  773SOL    HW1 3218   2.274   4.322   3.520
  773SOL    HW2 3219   2.430   4.294   3.481
  774SOL     OW 3220   2.153   1.732   3.662
  774SOL    HW1 3221   2.219   1.761   3.593
  774SOL    HW2 3222   2.197   1.727   3.751
  775SOL     OW 3223   1.218   4.516   2.603
  775SOL    HW1 3224   1.138   4.460   2.624
  775SOL    HW2 3225   1.301   4.463   2.620
  776SOL     OW 3226   2.782   5.084   6.337
  776SOL    HW1 3227   2.784   4.985   6.326
  776SOL    HW2 3228   2.774   5.127   6.247
  777SOL     OW 3229   2.059   3.781   6.237
  777SOL    HW1 3230   2.010   3.746   6.316
  777SOL    HW2 3231   2.097   3.705   6.184
  778SOL     OW 3232   3.442   5.590   6.452
  778SOL    HW1 3233   3.345   5.596   6.427
  778SOL    HW2 3234   3.451   5.598   6.551
  779SOL     OW 3235   5.863   1.806   3.057
  779SOL    HW1 3236   5.863   1.809   3.157
  779SOL    HW2 3237   5.939   1.748   3.025
  780SOL     OW 3238   6.661   2.065   4.205
  780SOL    HW1 3239   6.697   2.138   4.263
  780SOL    HW2 3240   6.598   2.102   4.138
  781SOL     OW 3241   0.259   4.570   6.564
  781SOL    HW1 3242   0.184   4.505   6.574
  781SOL    HW2 3243   0.306   4.554   6.477
  782SOL     OW 3244   2.455   4.172   5.328
  782SOL    HW1 3245   2.450   4.146   5.424
  782SOL    HW2 3246   2.460   4.090   5.271
  783SOL     OW 3247   6.697   5.249   6.541
  783SOL    HW1 3248   6.764   5.323   6.533
  783SOL    HW2 3249   6.698   5.214   6.634
  784SOL     OW 3250   1.888   5.606   0.623
  784SOL    HW1 3251   1.941   5.584   0.541
  784SOL    HW2 3252   1.914   5.696   0.657
  785SOL     OW 3253   0.379   0.458   4.653
  785SOL    HW1 3254   0.464   0.450   4.706
  785SOL    HW2 3255   0.301   0.438   4.712
  786SOL     OW 3256   5.995   0.780   4.366
  786SOL    HW1 3257   5.937   0.707   4.402
  786SOL    HW2 3258   6.007   0.851   4.435
  787SOL     OW 3259   1.896   6.613   1.412
  787SOL    HW1 3260   1.873   6.589   1.506
  787SOL    HW2 3261   1.993   6.637   1.406
  788SOL     OW 3262   2.123   2.995   2.296
  788SOL    HW1 3263   2.130   2.997   2.196
  788SOL    HW2 3264   2.114   3.088   2.331
  789SOL     OW 3265   3.841   5.089   2.725
  789SOL    HW1 3266   3.879   4.999   2.745
  789SOL    HW2 3267   3.752   5.099   2.769
  790SOL     OW 3268   0.399   3.113   2.154
  790SOL    HW1 3269   0.412   3.167   2.070
  790SOL    HW2 3270   0.301   3.110   2.176
  791SOL     OW 3271   2.995   0.333   3.774
  791SOL    HW1 3272   2.980   0.389   3.856
  791SOL    HW2 3273   3.063   0.262   3.793
  792SOL     OW 3274   2.524   0.462   0.881
  792SOL    HW1 3275   2.516   0.559   0.905
  792SOL    HW2 3276   2.589   0.418   0.943
  793SOL     OW 3277   2.089   5.960   4.692
  793SOL    HW1 3278   2.100   5.941   4.594
  793SOL    HW2 3279   2.147   6.037   4.718
  794SOL     OW 3280   2.903   3.592   2.699
  794SOL    HW1 3281   2.890   3.497   2.728
  794SOL    HW2 3282   2.911   3.651   2.779
  795SOL     OW 3283   4.931   0.679   4.978
  795SOL    HW1 3284   4.998   0.655   4.908
  795SOL    HW2 3285   4.965   0.757   5.032
  796SOL     OW 3286   0.895   1.924   0.105
  796SOL    HW1 3287   0.984   1.971   0.113
  796SOL    HW2 3288   0.822   1.989   0.126
  797SOL     OW 3289   3.382   6.749   1.216
  797SOL    HW1 3290   3.292   6.777   1.181
  797SOL    HW2 3291   3.370   6.685   1.292
  798SOL     OW 3292   5.327   4.413   1.622
  798SOL    HW1 3293   5.251   4.467   1.658
  798SOL    HW2 3294   5.332   4.326   1.671
  799SOL     OW 3295   2.963   2.474   5.926
  799SOL    HW1 3296   3.035   2.532   5.964
  799SOL    HW2 3297   2.883   2.476   5.987
  800SOL     OW 3298   5.607   3.028   3.483
  800SOL    HW1 3299   5.634   3.115   3.441
  800SOL    HW2 3300   5.667   3.009   3.561
  801SOL     OW 3301   1.985   5.857   6.471
  801SOL    HW1 3302   2.011   5.803   6.551
  801SOL    HW2 3303   1.921   5.928   6.498
  802SOL     OW 3304   4.284   2.517   6.321
  802SOL    HW1 3305   4.370   2.524   6.372
  802SOL    HW2 3306   4.209   2.503   6.386
  803SOL     OW 3307   2.076   2.130   3.995
  803SOL    HW1 3308   2.156   2.188   3.985
  803SOL    HW2 3309   1.994   2.187   4.007
  804SOL     OW 3310   4.802   0.325   2.942
  804SOL    HW1 3311   4.724   0.332   3.005
  804SOL    HW2 3312   4.875   0.386   2.973
  805SOL     OW 3313   3.309   0.984   3.894
  805SOL    HW1 3314   3.231   1.041   3.921
  805SOL    HW2 3315   3.333   0.923   3.970
  806SOL     OW 3316   3.117   6.483   5.803
  806SOL    HW1 3317   3.089   6.553   5.737
  806SOL    HW2 3318   3.136   6.398   5.755
  807SOL     OW 3319   1.116   5.935   6.192
  807SOL    HW1 3320   1.167   5.944   6.277
  807SOL    HW2 3321   1.025   5.897   6.211
  808SOL     OW 3322   5.264   2.539   6.138
  808SOL    HW1 3323   5.309   2.558   6.051
  808SOL    HW2 3324   5.322   2.572   6.213
  809SOL     OW 3325   3.086   5.924   6.560
  809SOL    HW1 3326   3.023   5.855   6.524
  809SOL    HW2 3327   3.152   5.949   6.489
  810SOL     OW 3328   3.551   3.740   6.764
  810SOL    HW1 3329   3.501   3.653   6.760
  810SOL    HW2 3330   3.604   3.744   6.849
  811SOL     OW 3331   5.670   5.293   4.170
  811SOL    HW1 3332   5.590   5.353   4.164
  811SOL    HW2 3333   5.690   5.254   4.081
  812SOL     OW 3334   0.864   3.235   1.355
  812SOL    HW1 3335   0.931   3.188   1.413
  812SOL    HW2 3336   0.891   3.226   1.259
  813SOL     OW 3337   2.280   1.858   4.910
  813SOL    HW1 3338   2.294   1.918   4.989
  813SOL    HW2 3339   2.190   1.875   4.870
  814SOL     OW 3340   0.416   4.385   2.080
  814SOL    HW1 3341   0.471   4.464   2.055
  814SOL    HW2 3342   0.329   4.387   2.030
  815SOL     OW 3343   4.860   2.496   4.306
  815SOL    HW1 3344   4.805   2.511   4.225
  815SOL    HW2 3345   4.810   2.526   4.387
  816SOL     OW 3346   5.018   3.827   6.236
  816SOL    HW1 3347   5.045   3.912   6.191
  816SOL    HW2 3348   5.006   3.843   6.334
  817SOL     OW 3349   0.103   5.205   6.450
  817SOL    HW1 3350   0.027   5.168   6.396
  817SOL    HW2 3351   0.163   5.130   6.476
  818SOL     OW 3352   0.203   1.437   4.935
  818SOL    HW1 3353   0.263   1.358   4.947
  818SOL    HW2 3354   0.200   1.462   4.838
  819SOL     OW 3355   5.289   2.739   1.280
  819SOL    HW1 3356   5.199   2.706   1.254
  819SOL    HW2 3357   5.310   2.710   1.373
  820SOL     OW 3358   2.888   1.922   5.092
  820SOL    HW1 3359   2.807   1.980   5.099
  820SOL    HW2 3360   2.870   1.833   5.134
  821SOL     OW 3361   4.793   4.027   6.835
  821SOL    HW1 3362   4.741   3.978   6.765
  821SOL    HW2 3363   4.888   3.996   6.833
  822SOL     OW 3364   0.113   5.253   3.635
  822SOL    HW1 3365   0.034   5.288   3.584
  822SOL    HW2 3366   0.081   5.200   3.713
  823SOL     OW 3367   1.761   2.747   4.756
  823SOL    HW1 3368   1.700   2.682   4.711
  823SOL    HW2 3369   1.815   2.795   4.687
  824SOL     OW 3370   5.338   0.368   6.790
  824SOL    HW1 3371   5.324   0.368   6.889
  824SOL    HW2 3372   5.294   0.448   6.750
  825SOL     OW 3373   6.227   5.598   0.489
  825SOL    HW1 3374   6.324   5.622   0.490
  825SOL    HW2 3375   6.186   5.630   0.404
  826SOL     OW 3376   3.957   1.814   0.292
  826SOL    HW1 3377   3.894   1.785   0.219
  826SOL    HW2 3378   4.009   1.735   0.324
  827SOL     OW 3379   3.162   3.615   4.510
  827SOL    HW1 3380   3.259   3.591   4.520
  827SOL    HW2 3381   3.107   3.532   4.505
  828SOL     OW 3382   0.335   6.846   6.439
  828SOL    HW1 3383   0.400   6.830   6.513
  828SOL    HW2 3384   0.302   6.940   6.444
  829SOL     OW 3385   3.853   3.325   1.861
  829SOL    HW1 3386   3.878   3.300   1.955
  829SOL    HW2 3387   3.778   3.391   1.863
  830SOL     OW 3388   6.598   4.699   5.872
  830SOL    HW1 3389   6.538   4.775   5.897
  830SOL    HW2 3390   6.625   4.649   5.954
  831SOL     OW 3391   5.719   1.379   2.587
  831SOL    HW1 3392   5.776   1.303   2.616
  831SOL    HW2 3393   5.661   1.409   2.663
  832SOL     OW 3394   3.149   1.918   4.254
  832SOL    HW1 3395   3.087   1.863   4.198
  832SOL    HW2 3396   3.097   1.977   4.315
  833SOL     OW 3397   3.918   2.907   7.020
  833SOL    HW1 3398   3.898   2.950   0.087
  833SOL    HW2 3399   3.911   2.975   6.947
  834SOL     OW 3400   5.184   3.079   0.091
  834SOL    HW1 3401   5.229   2.990   0.101
  834SOL    HW2 3402   5.114   3.089   0.160
  835SOL     OW 3403   0.038   0.190   4.579
  835SOL    HW1 3404   0.053   0.137   4.495
  835SOL    HW2 3405   6.961   0.195   4.599
  836SOL     OW 3406   5.484   0.579   4.409
  836SOL    HW1 3407   5.536   0.536   4.335
  836SOL    HW2 3408   5.462   0.510   4.478
  837SOL     OW 3409   1.495   0.696   6.841
  837SOL    HW1 3410   1.491   0.791   6.811
  837SOL    HW2 3411   1.573   0.683   6.903
  838SOL     OW 3412   1.954   5.989   3.201
  838SOL    HW1 3413   1.913   6.069   3.157
  838SOL    HW2 3414   1.953   6.001   3.300
  839SOL     OW 3415   1.215   2.603   0.363
  839SOL    HW1 3416   1.268   2.681   0.395
  839SOL    HW2 3417   1.243   2.521   0.413
  840SOL     OW 3418   4.406   4.860   1.027
  840SOL    HW1 3419   4.469   4.918   0.975
  840SOL    HW2 3420   4.391   4.900   1.117
  841SOL     OW 3421   2.367   5.276   6.704
  841SOL    HW1 3422   2.325   5.320   6.625
  841SOL    HW2 3423   2.361   5.336   6.783
  842SOL     OW 3424   4.433   6.246   0.826
  842SOL    HW1 3425   4.386   6.160   0.844
  842SOL    HW2 3426   4.419   6.308   0.904
  843SOL     OW 3427   1.281   0.632   1.741
  843SOL    HW1 3428   1.242   0.701   1.802
  843SOL    HW2 3429   1.261   0.656   1.646
  844SOL     OW 3430   6.876   0.256   1.755
  844SOL    HW1 3431   6.862   0.167   1.799
  844SOL    HW2 3432   6.949   0.249   1.687
  845SOL     OW 3433   3.872   1.463   2.141
  845SOL    HW1 3434   3.954   1.509   2.175
  845SOL    HW2 3435   3.835   1.403   2.212
  846SOL     OW 3436   2.017   2.217   0.821
  846SOL    HW1 3437   2.080   2.285   0.860
  846SOL    HW2 3438   1.932   2.216   0.874
  847SOL     OW 3439   2.477   3.560   1.446
  847SOL    HW1 3440   2.395   3.592   1.494
  847SOL    HW2 3441   2.554   3.557   1.509
  848SOL     OW 3442   6.431   6.275   0.303
  848SOL    HW1 3443   6.477   6.324   0.230
  848SOL    HW2 3444   6.388   6.340   0.365
  849SOL     OW 3445   5.904   3.214   6.612
  849SOL    HW1 3446   5.901   3.115   6.621
  849SOL    HW2 3447   5.821   3.247   6.567
  850SOL     OW 3448   1.624   0.894   4.430
  850SOL    HW1 3449   1.556   0.934   4.368
  850SOL    HW2 3450   1.708   0.948   4.426
  851SOL     OW 3451   5.023   2.670   6.305
  851SOL    HW1 3452   5.094   2.619   6.256
  851SOL    HW2 3453   5.062   2.755   6.340
  852SOL     OW 3454   6.853   4.836   1.719
  852SOL    HW1 3455   6.775   4.891   1.688
  852SOL    HW2 3456   6.822   4.744   1.743
  853SOL     OW 3457   3.049   3.127   0.598
  853SOL    HW1 3458   3.146   3.107   0.583
  853SOL    HW2 3459   3.018   3.083   0.683
  854SOL     OW 3460   6.757   0.227   5.307
  854SOL    HW1 3461   6.723   0.147   5.256
  854SOL    HW2 3462   6.820   0.197   5.378
  855SOL     OW 3463   5.162   1.834   0.521
  855SOL    HW1 3464   5.094   1.793   0.582
  855SOL    HW2 3465   5.217   1.761   0.479
  856SOL     OW 3466   2.033   5.459   1.922
  856SOL    HW1 3467   2.016   5.366   1.888
  856SOL    HW2 3468   1.949   5.511   1.920
  857SOL     OW 3469   6.796   5.175   4.934
  857SOL    HW1 3470   6.778   5.235   4.856
  857SOL    HW2 3471   6.772   5.222   5.018
  858SOL     OW 3472   4.217   4.078   0.402
  858SOL    HW1 3473   4.252   4.034   0.320
  858SOL    HW2 3474   4.253   4.031   0.483
  859SOL     OW 3475   5.018   5.407   5.359
  859SOL    HW1 3476   4.934   5.401   5.305
  859SOL    HW2 3477   5.073   5.484   5.326
  860SOL     OW 3478   4.638   3.375   5.913
  860SOL    HW1 3479   4.601   3.326   5.834
  860SOL    HW2 3480   4.693   3.453   5.881
  861SOL     OW 3481   1.724   5.603   2.595
  861SOL    HW1 3482   1.702   5.510   2.622
  861SOL    HW2 3483   1.662   5.667   2.639
  862SOL     OW 3484   0.688   4.156   3.909
  862SOL    HW1 3485   0.740   4.073   3.930
  862SOL    HW2 3486   0.673   4.161   3.810
  863SOL     OW 3487   6.315   0.591   1.318
  863SOL    HW1 3488   6.371   0.555   1.392
  863SOL    HW2 3489   6.266   0.672   1.349
  864SOL     OW 3490   6.051   5.783   2.785
  864SOL    HW1 3491   5.987   5.726   2.733
  864SOL    HW2 3492   6.026   5.780   2.882
  865SOL     OW 3493   1.740   5.516   5.073
  865SOL    HW1 3494   1.803   5.440   5.088
  865SOL    HW2 3495   1.682   5.529   5.153
  866SOL     OW 3496   3.453   0.452   1.933
  866SOL    HW1 3497   3.371   0.413   1.974
  866SOL    HW2 3498   3.501   0.508   2.000
  867SOL     OW 3499   5.874   3.000   5.838
  867SOL    HW1 3500   5.903   3.095   5.827
  867SOL    HW2 3501   5.774   2.996   5.841
  868SOL     OW 3502   0.549   2.240   1.680
  868SOL    HW1 3503   0.571   2.220   1.776
  868SOL    HW2 3504   0.629   2.224   1.623
  869SOL     OW 3505   7.007   3.751   2.960
  869SOL    HW1 3506   0.034   3.710   3.038
  869SOL    HW2 3507   6.986   3.681   2.892
  870SOL     OW 3508   3.374   5.389   2.314
  870SOL    HW1 3509   3.463   5.364   2.352
  870SOL    HW2 3510   3.367   5.355   2.220
  871SOL     OW 3511   4.934   2.181   4.151
  871SOL    HW1 3512   4.992   2.249   4.106
  871SOL    HW2 3513   4.846   2.177   4.103
  872SOL     OW 3514   1.310   1.924   5.015
  872SOL    HW1 3515   1.293   1.826   5.028
  872SOL    HW2 3516   1.345   1.940   4.923
  873SOL     OW 3517   4.503   0.376   6.429
  873SOL    HW1 3518   4.591   0.413   6.461
  873SOL    HW2 3519   4.448   0.351   6.509
  874SOL     OW 3520   5.718   3.469   1.445
  874SOL    HW1 3521   5.669   3.413   1.377
  874SOL    HW2 3522   5.814   3.476   1.419
  875SOL     OW 3523   4.948   5.701   1.668
  875SOL    HW1 3524   4.902   5.613   1.667
  875SOL    HW2 3525   5.047   5.687   1.675
  876SOL     OW 3526   5.860   0.624   6.820
  876SOL    HW1 3527   5.955   0.639   6.794
  876SOL    HW2 3528   5.804   0.700   6.788
  877SOL     OW 3529   1.203   3.740   6.861
  877SOL    HW1 3530   1.164   3.680   6.931
  877SOL    HW2 3531   1.246   3.684   6.790
  878SOL     OW 3532   4.227   6.411   4.457
  878SOL    HW1 3533   4.185   6.322   4.474
  878SOL    HW2 3534   4.181   6.480   4.511
  879SOL     OW 3535   5.807   6.612   6.854
  879SOL    HW1 3536   5.721   6.637   6.898
  879SOL    HW2 3537   5.790   6.554   6.775
  880SOL     OW 3538   3.026   3.760   2.905
  880SOL    HW1 3539   3.046   3.806   2.818
  880SOL    HW2 3540   3.072   3.809   2.979
  881SOL     OW 3541   4.739   1.787   0.700
  881SOL    HW1 3542   4.681   1.786   0.781
  881SOL    HW2 3543   4.696   1.842   0.629
  882SOL     OW 3544   1.701   3.012   3.178
  882SOL    HW1 3545   1.736   3.068   3.252
  882SOL    HW2 3546   1.757   2.930   3.168
  883SOL     OW 3547   2.555   0.118   2.953
  883SOL    HW1 3548   2.645   0.147   2.920
  883SOL    HW2 3549   2.563   0.086   3.047
  884SOL     OW 3550   3.164   3.325   5.794
  884SOL    HW1 3551   3.233   3.352   5.861
  884SOL    HW2 3552   3.191   3.359   5.704
  885SOL     OW 3553   4.358   2.562   6.050
  885SOL    HW1 3554   4.300   2.520   5.979
  885SOL    HW2 3555   4.340   2.517   6.138
  886SOL     OW 3556   3.595   2.097   6.892
  886SOL    HW1 3557   3.520   2.049   6.938
  886SOL    HW2 3558   3.593   2.077   6.795
  887SOL     OW 3559   5.306   1.131   5.132
  887SOL    HW1 3560   5.253   1.100   5.053
  887SOL    HW2 3561   5.392   1.172   5.102
  888SOL     OW 3562   6.824   6.277   2.073
  888SOL    HW1 3563   6.796   6.213   2.145
  888SOL    HW2 3564   6.924   6.283   2.072
  889SOL     OW 3565   0.495   3.758   6.929
  889SOL    HW1 3566   0.461   3.710   7.010
  889SOL    HW2 3567   0.532   3.692   6.865
  890SOL     OW 3568   2.605   6.233   4.474
  890SOL    HW1 3569   2.607   6.221   4.374
  890SOL    HW2 3570   2.652   6.157   4.518
  891SOL     OW 3571   5.175   4.986   1.807
  891SOL    HW1 3572   5.191   4.900   1.856
  891SOL    HW2 3573   5.155   4.967   1.711
  892SOL     OW 3574   2.434   4.665   0.601
  892SOL    HW1 3575   2.349   4.661   0.654
  892SOL    HW2 3576   2.436   4.588   0.537
  893SOL     OW 3577   1.066   5.460   2.392
  893SOL    HW1 3578   1.101   5.433   2.302
  893SOL    HW2 3579   1.091   5.555   2.411
  894SOL     OW 3580   1.150   4.120   0.768
  894SOL    HW1 3581   1.247   4.111   0.746
  894SOL    HW2 3582   1.097   4.062   0.707
  895SOL     OW 3583   0.242   5.784   4.629
  895SOL    HW1 3584   0.328   5.819   4.592
  895SOL    HW2 3585   0.217   5.700   4.582
  896SOL     OW 3586   0.797   0.818   6.671
  896SOL    HW1 3587   0.820   0.856   6.582
  896SOL    HW2 3588   0.837   0.726   6.680
  897SOL     OW 3589   4.503   1.036   0.603
  897SOL    HW1 3590   4.510   0.992   0.514
  897SOL    HW2 3591   4.410   1.067   0.618
  898SOL     OW 3592   4.405   0.385   3.164
  898SOL    HW1 3593   4.399   0.390   3.064
  898SOL    HW2 3594   4.431   0.474   3.201
  899SOL     OW 3595   6.776   5.880   0.084
  899SOL    HW1 3596   6.722   5.919   0.159
  899SOL    HW2 3597   6.866   5.923   0.081
  900SOL     OW 3598   5.337   5.401   1.023
  900SOL    HW1 3599   5.256   5.395   1.082
  900SOL    HW2 3600   5.419   5.389   1.078
  901SOL     OW 3601   1.318   0.435   2.863
  901SOL    HW1 3602   1.378   0.505   2.900
  901SOL    HW2 3603   1.238   0.424   2.923
  902SOL     OW 3604   6.479   2.638   1.604
  902SOL    HW1 3605   6.484   2.697   1.523
  902SOL    HW2 3606   6.571   2.613   1.633
  903SOL     OW 3607   0.217   1.341   1.025
  903SOL    HW1 3608   0.230   1.433   0.988
  903SOL    HW2 3609   0.127   1.306   0.997
  904SOL     OW 3610   2.644   1.192   2.469
  904SOL    HW1 3611   2.743   1.201   2.455
  904SOL    HW2 3612   2.605   1.141   2.393
  905SOL     OW 3613   6.026   2.003   6.463
  905SOL    HW1 3614   5.933   2.034   6.480
  905SOL    HW2 3615   6.076   1.998   6.550
  906SOL     OW 3616   5.369   2.345   6.812
  906SOL    HW1 3617   5.355   2.441   6.836
  906SOL    HW2 3618   5.327   2.327   6.723
  907SOL     OW 3619   5.260   4.454   6.771
  907SOL    HW1 3620   5.174   4.414   6.738
  907SOL    HW2 3621   5.292   4.522   6.705
  908SOL     OW 3622   0.978   4.631   2.962
  908SOL    HW1 3623   1.024   4.594   3.043
  908SOL    HW2 3624   1.045   4.675   2.903
  909SOL     OW 3625   5.383   5.561   6.169
  909SOL    HW1 3626   5.391   5.508   6.254
  909SOL    HW2 3627   5.395   5.658   6.190
  910SOL     OW 3628   2.903   4.764   0.655
  910SOL    HW1 3629   2.958   4.834   0.611
  910SOL    HW2 3630   2.958   4.681   0.667
  911SOL     OW 3631   1.064   4.599   6.109
  911SOL    HW1 3632   0.976   4.632   6.142
  911SOL    HW2 3633   1.136   4.630   6.171
  912SOL     OW 3634   5.220   1.788   4.557
  912SOL    HW1 3635   5.123   1.762   4.553
  912SOL    HW2 3636   5.228   1.887   4.552
  913SOL     OW 3637   5.556   6.579   2.890
  913SOL    HW1 3638   5.554   6.500   2.829
  913SOL    HW2 3639   5.594   6.552   2.979
  914SOL     OW 3640   3.406   6.563   6.725
  914SOL    HW1 3641   3.376   6.540   6.633
  914SOL    HW2 3642   3.349   6.636   6.762
  915SOL     OW 3643   4.838   5.807   1.440
  915SOL    HW1 3644   4.844   5.762   1.530
  915SOL    HW2 3645   4.929   5.810   1.399
  916SOL     OW 3646   1.577   3.343   2.479
  916SOL    HW1 3647   1.544   3.378   2.567
  916SOL    HW2 3648   1.672   3.314   2.488
  917SOL     OW 3649   0.167   6.666   0.418
  917SOL    HW1 3650   0.171   6.594   0.349
  917SOL    HW2 3651   0.253   6.669   0.469
  918SOL     OW 3652   3.130   6.311   7.017
  918SOL    HW1 3653   3.211   6.258   6.991
  918SOL    HW2 3654   3.117   6.306   0.096
  919SOL     OW 3655   5.038   1.447   5.959
  919SOL    HW1 3656   5.052   1.367   6.019
  919SOL    HW2 3657   4.940   1.460   5.943
  920SOL     OW 3658   3.024   5.040   1.945
  920SOL    HW1 3659   2.950   5.071   1.886
  920SOL    HW2 3660   3.063   4.955   1.908
  921SOL     OW 3661   4.876   5.490   4.808
  921SOL    HW1 3662   4.786   5.523   4.836
  921SOL    HW2 3663   4.939   5.568   4.798
  922SOL     OW 3664   3.186   2.963   4.008
  922SOL    HW1 3665   3.179   2.879   3.955
  922SOL    HW2 3666   3.274   2.964   4.056
  923SOL     OW 3667   2.225   3.423   5.691
  923SOL    HW1 3668   2.238   3.507   5.744
  923SOL    HW2 3669   2.313   3.394   5.653
  924SOL     OW 3670   6.904   3.070   1.473
  924SOL    HW1 3671   6.837   3.016   1.523
  924SOL    HW2 3672   6.988   3.079   1.528
  925SOL     OW 3673   0.960   1.793   0.559
  925SOL    HW1 3674   1.007   1.881   0.566
  925SOL    HW2 3675   0.862   1.808   0.546
  926SOL     OW 3676   1.987   1.707   1.871
  926SOL    HW1 3677   2.036   1.620   1.866
  926SOL    HW2 3678   1.929   1.717   1.790
  927SOL     OW 3679   6.864   3.705   4.333
  927SOL    HW1 3680   6.938   3.707   4.266
  927SOL    HW2 3681   6.796   3.637   4.306
  928SOL     OW 3682   3.317   4.357   5.671
  928SOL    HW1 3683   3.327   4.453   5.646
  928SOL    HW2 3684   3.358   4.342   5.762
  929SOL     OW 3685   0.189   1.512   4.003
  929SOL    HW1 3686   0.186   1.608   3.977
  929SOL    HW2 3687   0.195   1.504   4.103
  930SOL     OW 3688   5.191   5.322   5.099
  930SOL    HW1 3689   5.246   5.290   5.176
  930SOL    HW2 3690   5.119   5.382   5.132
  931SOL     OW 3691   6.058   0.571   3.225
  931SOL    HW1 3692   6.007   0.497   3.182
  931SOL    HW2 3693   6.148   0.578   3.182
  932SOL     OW 3694   3.693   0.942   3.754
  932SOL    HW1 3695   3.650   1.011   3.696
  932SOL    HW2 3696   3.691   0.972   3.849
  933SOL     OW 3697   1.481   5.716   1.823
  933SOL    HW1 3698   1.563   5.774   1.823
  933SOL    HW2 3699   1.488   5.650   1.898
  934SOL     OW 3700   1.788   3.385   0.688
  934SOL    HW1 3701   1.744   3.392   0.778
  934SOL    HW2 3702   1.879   3.427   0.692
  935SOL     OW 3703   5.873   2.575   5.752
  935SOL    HW1 3704   5.920   2.591   5.839
  935SOL    HW2 3705   5.940   2.550   5.683
  936SOL     OW 3706   2.060   0.640   6.013
  936SOL    HW1 3707   2.150   0.672   6.043
  936SOL    HW2 3708   2.062   0.622   5.915
  937SOL     OW 3709   3.376   1.644   6.192
  937SOL    HW1 3710   3.330   1.561   6.159
  937SOL    HW2 3711   3.425   1.687   6.117
  938SOL     OW 3712   5.468   5.963   4.351
  938SOL    HW1 3713   5.421   6.024   4.287
  938SOL    HW2 3714   5.541   6.013   4.398
  939SOL     OW 3715   1.103   0.092   5.692
  939SOL    HW1 3716   1.154   0.175   5.669
  939SOL    HW2 3717   1.139   0.016   5.638
  940SOL     OW 3718   1.693   5.057   0.581
  940SOL    HW1 3719   1.619   5.106   0.627
  940SOL    HW2 3720   1.757   5.123   0.541
  941SOL     OW 3721   3.477   0.286   0.445
  941SOL    HW1 3722   3.524   0.374   0.435
  941SOL    HW2 3723   3.416   0.272   0.367
  942SOL     OW 3724   6.552   4.948   6.831
  942SOL    HW1 3725   6.619   4.874   6.827
  942SOL    HW2 3726   6.597   5.032   6.862
  943SOL     OW 3727   3.806   5.609   1.064
  943SOL    HW1 3728   3.890   5.581   1.110
  943SOL    HW2 3729   3.726   5.576   1.115
  944SOL     OW 3730   6.568   6.172   3.510
  944SOL    HW1 3731   6.475   6.190   3.480
  944SOL    HW2 3732   6.570   6.165   3.610
  945SOL     OW 3733   0.334   5.514   6.234
  945SOL    HW1 3734   0.308   5.422   6.207
  945SOL    HW2 3735   0.307   5.579   6.163
  946SOL     OW 3736   5.867   2.404   4.184
  946SOL    HW1 3737   5.888   2.341   4.110
  946SOL    HW2 3738   5.827   2.353   4.261
  947SOL     OW 3739   3.697   3.786   3.658
  947SOL    HW1 3740   3.676   3.712   3.594
  947SOL    HW2 3741   3.769   3.844   3.620
  948SOL     OW 3742   3.235   1.216   3.559
  948SOL    HW1 3743   3.247   1.289   3.492
  948SOL    HW2 3744   3.321   1.201   3.608
  949SOL     OW 3745   2.940   0.319   5.743
  949SOL    HW1 3746   2.849   0.316   5.783
  949SOL    HW2 3747   2.990   0.399   5.778
  950SOL     OW 3748   0.108   0.401   2.252
  950SOL    HW1 3749   0.083   0.367   2.161
  950SOL    HW2 3750   0.200   0.369   2.275
  951SOL     OW 3751   1.586   0.116   3.296
  951SOL    HW1 3752   1.650   0.190   3.321
  951SOL    HW2 3753   1.519   0.151   3.231
  952SOL     OW 3754   3.857   1.787   3.440
  952SOL    HW1 3755   3.922   1.741   3.501
  952SOL    HW2 3756   3.857   1.885   3.459
  953SOL     OW 3757   0.361   4.709   5.908
  953SOL    HW1 3758   0.402   4.760   5.833
  953SOL    HW2 3759   0.283   4.657   5.874
  954SOL     OW 3760   5.000   6.430   2.084
  954SOL    HW1 3761   4.978   6.353   2.144
  954SOL    HW2 3762   4.921   6.453   2.028
  955SOL     OW 3763   2.110   5.283   1.194
  955SOL    HW1 3764   2.026   5.330   1.221
  955SOL    HW2 3765   2.101   5.246   1.102
  956SOL     OW 3766   4.517   0.910   1.067
  956SOL    HW1 3767   4.444   0.862   1.117
  956SOL    HW2 3768   4.504   0.898   0.969
  957SOL     OW 3769   5.782   6.976   3.108
  957SOL    HW1 3770   5.732   7.008   3.026
  957SOL    HW2 3771   5.729   6.999   3.189
  958SOL     OW 3772   5.068   6.307   1.211
  958SOL    HW1 3773   5.113   6.395   1.197
  958SOL    HW2 3774   5.130   6.233   1.182
  959SOL     OW 3775   5.172   6.815   3.108
  959SOL    HW1 3776   5.216   6.884   3.051
  959SOL    HW2 3777   5.077   6.841   3.125
  960SOL     OW 3778   1.380   6.458   6.529
  960SOL    HW1 3779   1.433   6.485   6.610
  960SOL    HW2 3780   1.341   6.367   6.544
  961SOL     OW 3781   3.892   1.483   3.412
  961SOL    HW1 3782   3.888   1.441   3.503
  961SOL    HW2 3783   3.986   1.478   3.377
  962SOL     OW 3784   0.115   0.386   4.768
  962SOL    HW1 3785   0.105   0.352   4.862
  962SOL    HW2 3786   0.077   0.318   4.704
  963SOL     OW 3787   5.681   3.021   1.059
  963SOL    HW1 3788   5.707   3.108   1.018
  963SOL    HW2 3789   5.760   2.960   1.062
  964SOL     OW 3790   4.029   6.384   4.748
  964SOL    HW1 3791   4.054   6.464   4.803
  964SOL    HW2 3792   4.044   6.301   4.800
  965SOL     OW 3793   5.976   2.188   3.736
  965SOL    HW1 3794   5.895   2.205   3.793
  965SOL    HW2 3795   6.004   2.092   3.746
  966SOL     OW 3796   5.239   1.017   4.393
  966SOL    HW1 3797   5.161   1.070   4.425
  966SOL    HW2 3798   5.282   1.063   4.316
  967SOL     OW 3799   4.192   5.109   6.515
  967SOL    HW1 3800   4.231   5.115   6.423
  967SOL    HW2 3801   4.217   5.191   6.566
  968SOL     OW 3802   3.500   0.582   1.350
  968SOL    HW1 3803   3.437   0.539   1.414
  968SOL    HW2 3804   3.476   0.554   1.256
  969SOL     OW 3805   2.776   3.777   6.273
  969SOL    HW1 3806   2.870   3.741   6.274
  969SOL    HW2 3807   2.771   3.859   6.330
  970SOL     OW 3808   5.223   6.555   5.860
  970SOL    HW1 3809   5.242   6.637   5.915
  970SOL    HW2 3810   5.299   6.490   5.870
  971SOL     OW 3811   5.138   3.768   3.621
  971SOL    HW1 3812   5.153   3.745   3.525
  971SOL    HW2 3813   5.204   3.838   3.649
  972SOL     OW 3814   0.373   2.822   0.647
  972SOL    HW1 3815   0.395   2.788   0.738
  972SOL    HW2 3816   0.398   2.753   0.579
  973SOL     OW 3817   0.253   2.572   5.348
  973SOL    HW1 3818   0.297   2.580   5.437
  973SOL    HW2 3819   0.320   2.546   5.279
  974SOL     OW 3820   0.774   4.215   2.333
  974SOL    HW1 3821   0.848   4.147   2.334
  974SOL    HW2 3822   0.743   4.227   2.239
  975SOL     OW 3823   3.151   0.363   2.428
  975SOL    HW1 3824   3.209   0.329   2.501
  975SOL    HW2 3825   3.096   0.440   2.462
  976SOL     OW 3826   0.123   3.122   3.167
  976SOL    HW1 3827   0.211   3.118   3.214
  976SOL    HW2 3828   0.085   3.029   3.159
  977SOL     OW 3829   6.335   1.364   1.919
  977SOL    HW1 3830   6.417   1.415   1.946
  977SOL    HW2 3831   6.314   1.384   1.824
  978SOL     OW 3832   4.984   2.722   0.612
  978SOL    HW1 3833   4.968   2.687   0.704
  978SOL    HW2 3834   4.999   2.646   0.549
  979SOL     OW 3835   0.312   5.003   6.502
  979SOL    HW1 3836   0.343   5.056   6.580
  979SOL    HW2 3837   0.390   4.981   6.443
  980SOL     OW 3838   4.240   0.771   4.584
  980SOL    HW1 3839   4.330   0.734   4.605
  980SOL    HW2 3840   4.212   0.742   4.493
  981SOL     OW 3841   0.777   6.561   5.507
  981SOL    HW1 3842   0.791   6.538   5.411
  981SOL    HW2 3843   0.679   6.559   5.528
  982SOL     OW 3844   0.040   1.212   6.726
  982SOL    HW1 3845   0.121   1.262   6.756
  982SOL    HW2 3846   6.980   1.249   6.772
  983SOL     OW 3847   0.511   3.903   3.302
  983SOL    HW1 3848   0.425   3.946   3.329
  983SOL    HW2 3849   0.506   3.876   3.206
  984SOL     OW 3850   0.320   3.677   3.869
  984SOL    HW1 3851   0.418   3.657   3.869
  984SOL    HW2 3852   0.306   3.775   3.885
  985SOL     OW 3853   6.015   5.611   4.978
  985SOL    HW1 3854   5.950   5.686   4.990
  985SOL    HW2 3855   5.965   5.528   4.951
  986SOL     OW 3856   4.334   5.646   1.561
  986SOL    HW1 3857   4.402   5.584   1.598
  986SOL    HW2 3858   4.372   5.738   1.554
  987SOL     OW 3859   4.745   4.644   4.906
  987SOL    HW1 3860   4.664   4.590   4.881
  987SOL    HW2 3861   4.816   4.583   4.942
  988SOL     OW 3862   2.769   4.737   2.118
  988SOL    HW1 3863   2.851   4.777   2.158
  988SOL    HW2 3864   2.795   4.677   2.042
  989SOL     OW 3865   1.016   2.748   0.955
  989SOL    HW1 3866   1.073   2.828   0.937
  989SOL    HW2 3867   0.924   2.765   0.920
  990SOL     OW 3868   3.639   6.820   4.918
  990SOL    HW1 3869   3.579   6.831   4.838
  990SOL    HW2 3870   3.709   6.752   4.899
  991SOL     OW 3871   1.068   5.690   4.249
  991SOL    HW1 3872   1.041   5.641   4.166
  991SOL    HW2 3873   1.018   5.777   4.255
  992SOL     OW 3874   6.782   2.705   0.069
  992SOL    HW1 3875   6.762   2.654   0.154
  992SOL    HW2 3876   6.737   2.660   7.013
  993SOL     OW 3877   1.582   4.527   0.148
  993SOL    HW1 3878   1.522   4.453   0.179
  993SOL    HW2 3879   1.580   4.532   0.048
  994SOL     OW 3880   3.153   6.932   0.811
  994SOL    HW1 3881   3.163   6.840   0.775
  994SOL    HW2 3882   3.240   6.981   0.801
  995SOL     OW 3883   5.989   3.891   5.463
  995SOL    HW1 3884   5.988   3.955   5.541
  995SOL    HW2 3885   6.022   3.802   5.494
  996SOL     OW 3886   4.226   6.796   4.836
  996SOL    HW1 3887   4.292   6.796   4.761
  996SOL    HW2 3888   4.203   6.702   4.861
  997SOL     OW 3889   1.551   6.308   3.311
  997SOL    HW1 3890   1.526   6.251   3.390
  997SOL    HW2 3891   1.528   6.404   3.330
  998SOL     OW 3892   4.728   0.471   6.539
  998SOL    HW1 3893   4.809   0.416   6.559
  998SOL    HW2 3894   4.727   0.551   6.599
  999SOL     OW 3895   5.552   2.984   2.756
  999SOL    HW1 3896   5.477   2.996   2.691
  999SOL    HW2 3897   5.637   3.020   2.715
 1000SOL     OW 3898   5.396   1.490   2.009
 1000SOL    HW1 3899   5.430   1.458   1.921
 1000SOL    HW2 3900   5.439   1.577   2.032
 1001SOL     OW 3901   2.794   6.646   2.729
 1001SOL    HW1 3902   2.733   6.725   2.741
 1001SOL    HW2 3903   2.762   6.571   2.787
 1002SOL     OW 3904   4.286   2.900   1.177
 1002SOL    HW1 3905   4.258   2.994   1.161
 1002SOL    HW2 3906   4.208   2.839   1.164
 1003SOL     OW 3907   1.261   0.096   3.054
 1003SOL    HW1 3908   1.170   0.132   3.034
 1003SOL    HW2 3909   1.329   0.168   3.044
 1004SOL     OW 3910   4.877   1.425   4.822
 1004SOL    HW1 3911   4.958   1.484   4.825
 1004SOL    HW2 3912   4.894   1.349   4.759
 1005SOL     OW 3913   0.677   4.804   2.161
 1005SOL    HW1 3914   0.615   4.727   2.145
 1005SOL    HW2 3915   0.676   4.864   2.081
 1006SOL     OW 3916   2.143   4.085   1.654
 1006SOL    HW1 3917   2.197   4.008   1.689
 1006SOL    HW2 3918   2.077   4.052   1.586
 1007SOL     OW 3919   4.927   0.606   6.258
 1007SOL    HW1 3920   4.892   0.542   6.189
 1007SOL    HW2 3921   5.004   0.658   6.220
 1008SOL     OW 3922   0.610   4.899   5.132
 1008SOL    HW1 3923   0.518   4.935   5.121
 1008SOL    HW2 3924   0.632   4.893   5.229
 1009SOL     OW 3925   6.950   5.970   6.131
 1009SOL    HW1 3926   7.008   5.993   6.209
 1009SOL    HW2 3927   6.856   5.955   6.162
 1010SOL     OW 3928   3.004   3.653   0.260
 1010SOL    HW1 3929   2.905   3.644   0.275
 1010SOL    HW2 3930   3.026   3.621   0.168
 1011SOL     OW 3931   6.556   4.712   3.113
 1011SOL    HW1 3932   6.517   4.802   3.095
 1011SOL    HW2 3933   6.652   4.721   3.139
 1012SOL     OW 3934   5.571   6.402   2.653
 1012SOL    HW1 3935   5.587   6.363   2.563
 1012SOL    HW2 3936   5.628   6.355   2.720
 1013SOL     OW 3937   0.390   0.259   6.424
 1013SOL    HW1 3938   0.385   0.346   6.472
 1013SOL    HW2 3939   0.485   0.230   6.414
 1014SOL     OW 3940   1.120   4.817   4.572
 1014SOL    HW1 3941   1.108   4.866   4.658
 1014SOL    HW2 3942   1.033   4.776   4.545
 1015SOL     OW 3943   2.082   6.253   0.355
 1015SOL    HW1 3944   2.020   6.322   0.393
 1015SOL    HW2 3945   2.162   6.299   0.315
 1016SOL     OW 3946   6.981   3.969   0.921
 1016SOL    HW1 3947   0.010   4.038   0.868
 1016SOL    HW2 3948   0.025   3.897   0.949
 1017SOL     OW 3949   2.390   1.208   2.793
 1017SOL    HW1 3950   2.346   1.164   2.872
 1017SOL    HW2 3951   2.334   1.284   2.762
 1018SOL     OW 3952   6.226   6.317   4.138
 1018SOL    HW1 3953   6.245   6.277   4.227
 1018SOL    HW2 3954   6.169   6.255   4.085
 1019SOL     OW 3955   5.935   3.989   1.053
 1019SOL    HW1 3956   6.030   3.975   1.025
 1019SOL    HW2 3957   5.904   3.912   1.108
 1020SOL     OW 3958   5.135   1.301   1.255
 1020SOL    HW1 3959   5.114   1.235   1.183
 1020SOL    HW2 3960   5.076   1.381   1.244
 1021SOL     OW 3961   0.948   6.698   1.129
 1021SOL    HW1 3962   0.981   6.674   1.038
 1021SOL    HW2 3963   1.016   6.756   1.175
 1022SOL     OW 3964   2.519   5.381   6.349
 1022SOL    HW1 3965   2.518   5.476   6.318
 1022SOL    HW2 3966   2.590   5.331   6.299
 1023SOL     OW 3967   0.808   1.768   2.549
 1023SOL    HW1 3968   0.768   1.842   2.494
 1023SOL    HW2 3969   0.857   1.808   2.626
 1024SOL     OW 3970   1.623   2.287   4.417
 1024SOL    HW1 3971   1.689   2.316   4.347
 1024SOL    HW2 3972   1.543   2.347   4.414
 1025SOL     OW 3973   4.829   4.473   1.229
 1025SOL    HW1 3974   4.778   4.518   1.156
 1025SOL    HW2 3975   4.773   4.472   1.312
 1026SOL     OW 3976   3.055   2.936   1.839
 1026SOL    HW1 3977   2.966   2.946   1.883
 1026SOL    HW2 3978   3.090   3.026   1.813
 1027SOL     OW 3979   6.808   6.845   0.192
 1027SOL    HW1 3980   6.714   6.858   0.159
 1027SOL    HW2 3981   6.853   6.934   0.196
 1028SOL     OW 3982   1.151   5.453   2.744
 1028SOL    HW1 3983   1.074   5.513   2.723
 1028SOL    HW2 3984   1.119   5.358   2.751
 1029SOL     OW 3985   1.524   1.175   4.893
 1029SOL    HW1 3986   1.560   1.129   4.973
 1029SOL    HW2 3987   1.462   1.113   4.844
 1030SOL     OW 3988   3.977   3.223   0.554
 1030SOL    HW1 3989   4.030   3.236   0.471
 1030SOL    HW2 3990   3.992   3.131   0.590
 1031SOL     OW 3991   4.318   3.515   0.592
 1031SOL    HW1 3992   4.324   3.598   0.647
 1031SOL    HW2 3993   4.279   3.441   0.647
 1032SOL     OW 3994   1.834   1.469   0.596
 1032SOL    HW1 3995   1.783   1.399   0.545
 1032SOL    HW2 3996   1.927   1.437   0.611
 1033SOL     OW 3997   0.169   0.966   2.010
 1033SOL    HW1 3998   0.153   0.869   1.996
 1033SOL    HW2 3999   0.099   1.019   1.962
 1034SOL     OW 4000   3.227   0.641   4.771
 1034SOL    HW1 4001   3.258   0.710   4.837
 1034SOL    HW2 4002   3.217   0.684   4.681
 1035SOL     OW 4003   1.402   0.680   0.234
 1035SOL    HW1 4004   1.322   0.736   0.250
 1035SOL    HW2 4005   1.472   0.734   0.186
 1036SOL     OW 4006   4.441   1.560   1.703
 1036SOL    HW1 4007   4.374   1.616   1.751
 1036SOL    HW2 4008   4.419   1.463   1.713
 1037SOL     OW 4009   1.366   3.561   2.385
 1037SOL    HW1 4010   1.449   3.505   2.393
 1037SOL    HW2 4011   1.313   3.553   2.470
 1038SOL     OW 4012   1.970   5.747   0.302
 1038SOL    HW1 4013   1.889   5.689   0.288
 1038SOL    HW2 4014   1.942   5.843   0.302
 1039SOL     OW 4015   3.290   3.924   3.343
 1039SOL    HW1 4016   3.293   4.019   3.373
 1039SOL    HW2 4017   3.283   3.863   3.423
 1040SOL     OW 4018   3.674   1.824   3.248
 1040SOL    HW1 4019   3.646   1.920   3.244
 1040SOL    HW2 4020   3.751   1.814   3.311
 1041SOL     OW 4021   6.486   6.536   6.543
 1041SOL    HW1 4022   6.585   6.547   6.552
 1041SOL    HW2 4023   6.446   6.517   6.632
 1042SOL     OW 4024   5.460   4.077   3.669
 1042SOL    HW1 4025   5.395   4.122   3.608
 1042SOL    HW2 4026   5.544   4.055   3.619
 1043SOL     OW 4027   2.538   1.669   4.043
 1043SOL    HW1 4028   2.625   1.641   4.084
 1043SOL    HW2 4029   2.470   1.596   4.055
 1044SOL     OW 4030   5.900   4.949   1.882
 1044SOL    HW1 4031   5.848   4.914   1.804
 1044SOL    HW2 4032   5.890   4.886   1.960
 1045SOL     OW 4033   2.288   0.757   2.246
 1045SOL    HW1 4034   2.233   0.715   2.318
 1045SOL    HW2 4035   2.275   0.705   2.161
 1046SOL     OW 4036   3.003   2.011   1.431
 1046SOL    HW1 4037   2.937   1.985   1.361
 1046SOL    HW2 4038   3.070   2.075   1.393
 1047SOL     OW 4039   4.104   0.245   3.269
 1047SOL    HW1 4040   4.136   0.151   3.277
 1047SOL    HW2 4041   4.058   0.257   3.180
 1048SOL     OW 4042   0.970   0.303   1.921
 1048SOL    HW1 4043   0.960   0.209   1.956
 1048SOL    HW2 4044   0.903   0.362   1.965
 1049SOL     OW 4045   4.319   6.339   6.807
 1049SOL    HW1 4046   4.312   6.425   6.857
 1049SOL    HW2 4047   4.262   6.344   6.724
 1050SOL     OW 4048   3.376   0.017   4.024
 1050SOL    HW1 4049   3.458   0.074   4.017
 1050SOL    HW2 4050   3.296   0.072   4.001
 1051SOL     OW 4051   1.942   1.751   5.509
 1051SOL    HW1 4052   1.847   1.776   5.486
 1051SOL    HW2 4053   1.941   1.683   5.582
 1052SOL     OW 4054   3.883   1.421   0.369
 1052SOL    HW1 4055   3.975   1.435   0.332
 1052SOL    HW2 4056   3.815   1.455   0.304
 1053SOL     OW 4057   5.494   2.538   4.677
 1053SOL    HW1 4058   5.421   2.487   4.723
 1053SOL    HW2 4059   5.454   2.594   4.605
 1054SOL     OW 4060   4.313   5.333   6.581
 1054SOL    HW1 4061   4.294   5.416   6.528
 1054SOL    HW2 4062   4.403   5.340   6.622
 1055SOL     OW 4063   4.833   5.898   6.476
 1055SOL    HW1 4064   4.869   5.808   6.499
 1055SOL    HW2 4065   4.751   5.916   6.531
 1056SOL     OW 4066   3.782   3.750   6.601
 1056SOL    HW1 4067   3.829   3.836   6.616
 1056SOL    HW2 4068   3.692   3.752   6.646
 1057SOL     OW 4069   3.336   2.957   6.604
 1057SOL    HW1 4070   3.243   2.938   6.573
 1057SOL    HW2 4071   3.387   2.872   6.613
 1058SOL     OW 4072   3.097   2.118   1.915
 1058SOL    HW1 4073   3.028   2.183   1.949
 1058SOL    HW2 4074   3.164   2.166   1.859
 1059SOL     OW 4075   2.446   6.297   2.218
 1059SOL    HW1 4076   2.426   6.334   2.309
 1059SOL    HW2 4077   2.535   6.331   2.187
 1060SOL     OW 4078   6.530   0.871   5.143
 1060SOL    HW1 4079   6.526   0.778   5.181
 1060SOL    HW2 4080   6.618   0.912   5.166
 1061SOL     OW 4081   0.415   3.498   5.960
 1061SOL    HW1 4082   0.480   3.431   5.924
 1061SOL    HW2 4083   0.353   3.526   5.887
 1062SOL     OW 4084   3.218   5.186   4.928
 1062SOL    HW1 4085   3.258   5.097   4.907
 1062SOL    HW2 4086   3.221   5.201   5.027
 1063SOL     OW 4087   3.087   6.672   4.091
 1063SOL    HW1 4088   3.123   6.580   4.104
 1063SOL    HW2 4089   3.158   6.739   4.113
 1064SOL     OW 4090   1.008   3.115   0.132
 1064SOL    HW1 4091   1.064   3.107   0.050
 1064SOL    HW2 4092   0.919   3.073   0.116
 1065SOL     OW 4093   6.061   1.119   4.469
 1065SOL    HW1 4094   6.044   1.055   4.544
 1065SOL    HW2 4095   5.989   1.188   4.467
 1066SOL     OW 4096   5.118   6.410   0.951
 1066SOL    HW1 4097   5.174   6.343   0.902
 1066SOL    HW2 4098   5.027   6.372   0.969
 1067SOL     OW 4099   2.333   1.702   0.264
 1067SOL    HW1 4100   2.355   1.766   0.191
 1067SOL    HW2 4101   2.367   1.611   0.240
 1068SOL     OW 4102   6.481   2.790   1.379
 1068SOL    HW1 4103   6.427   2.874   1.388
 1068SOL    HW2 4104   6.487   2.765   1.282
 1069SOL     OW 4105   6.566   3.026   2.718
 1069SOL    HW1 4106   6.574   3.102   2.654
 1069SOL    HW2 4107   6.472   3.021   2.752
 1070SOL     OW 4108   0.952   0.554   2.302
 1070SOL    HW1 4109   0.977   0.651   2.298
 1070SOL    HW2 4110   0.902   0.536   2.387
 1071SOL     OW 4111   0.810   3.076   6.193
 1071SOL    HW1 4112   0.827   3.072   6.095
 1071SOL    HW2 4113   0.723   3.123   6.210
 1072SOL     OW 4114   1.719   1.561   2.051
 1072SOL    HW1 4115   1.689   1.575   2.146
 1072SOL    HW2 4116   1.762   1.644   2.017
 1073SOL     OW 4117   5.552   2.513   3.119
 1073SOL    HW1 4118   5.500   2.545   3.040
 1073SOL    HW2 4119   5.631   2.572   3.132
 1074SOL     OW 4120   3.000   5.187   1.521
 1074SOL    HW1 4121   2.997   5.092   1.552
 1074SOL    HW2 4122   3.040   5.244   1.592
 1075SOL     OW 4123   6.814   3.878   5.256
 1075SOL    HW1 4124   6.882   3.949   5.273
 1075SOL    HW2 4125   6.726   3.906   5.293
 1076SOL     OW 4126   2.071   4.320   5.060
 1076SOL    HW1 4127   2.074   4.416   5.031
 1076SOL    HW2 4128   2.022   4.313   5.147
 1077SOL     OW 4129   6.872   6.389   0.131
 1077SOL    HW1 4130   6.843   6.463   0.192
 1077SOL    HW2 4131   6.873   6.303   0.182
 1078SOL     OW 4132   6.501   6.088   4.442
 1078SOL    HW1 4133   6.526   6.161   4.506
 1078SOL    HW2 4134   6.404   6.096   4.420
 1079SOL     OW 4135   0.718   6.554   1.188
 1079SOL    HW1 4136   0.804   6.602   1.172
 1079SOL    HW2 4137   0.648   6.589   1.125
 1080SOL     OW 4138   4.008   6.727   0.688
 1080SOL    HW1 4139   4.014   6.780   0.604
 1080SOL    HW2 4140   3.972   6.636   0.668
 1081SOL     OW 4141   6.395   6.613   3.629
 1081SOL    HW1 4142   6.478   6.669   3.627
 1081SOL    HW2 4143   6.419   6.517   3.616
 1082SOL     OW 4144   4.155   6.789   0.890
 1082SOL    HW1 4145   4.224   6.851   0.852
 1082SOL    HW2 4146   4.087   6.768   0.820
 1083SOL     OW 4147   6.078   3.891   1.993
 1083SOL    HW1 4148   6.116   3.924   2.080
 1083SOL    HW2 4149   6.014   3.816   2.012
 1084SOL     OW 4150   5.464   0.354   5.721
 1084SOL    HW1 4151   5.411   0.290   5.665
 1084SOL    HW2 4152   5.438   0.342   5.817
 1085SOL     OW 4153   2.159   3.678   4.828
 1085SOL    HW1 4154   2.153   3.722   4.917
 1085SOL    HW2 4155   2.166   3.579   4.840
 1086SOL     OW 4156   5.476   4.948   0.950
 1086SOL    HW1 4157   5.516   4.874   1.005
 1086SOL    HW2 4158   5.376   4.942   0.956
 1087SOL     OW 4159   4.060   0.002   5.854
 1087SOL    HW1 4160   4.002   6.967   5.795
 1087SOL    HW2 4161   4.082   0.088   5.807
 1088SOL     OW 4162   6.522   5.398   4.347
 1088SOL    HW1 4163   6.514   5.312   4.297
 1088SOL    HW2 4164   6.592   5.455   4.305
 1089SOL     OW 4165   5.400   5.014   4.041
 1089SOL    HW1 4166   5.469   5.070   3.995
 1089SOL    HW2 4167   5.441   4.967   4.119
 1090SOL     OW 4168   5.585   2.456   5.407
 1090SOL    HW1 4169   5.556   2.507   5.488
 1090SOL    HW2 4170   5.615   2.521   5.337
 1091SOL     OW 4171   2.114   3.439   3.423
 1091SOL    HW1 4172   2.090   3.495   3.503
 1091SOL    HW2 4173   2.131   3.498   3.345
 1092SOL     OW 4174   0.706   6.030   0.748
 1092SOL    HW1 4175   0.774   5.957   0.734
 1092SOL    HW2 4176   0.631   6.017   0.682
 1093SOL     OW 4177   1.539   0.633   3.406
 1093SOL    HW1 4178   1.493   0.556   3.451
 1093SOL    HW2 4179   1.476   0.677   3.342
 1094SOL     OW 4180   0.427   0.257   2.711
 1094SOL    HW1 4181   0.388   0.283   2.799
 1094SOL    HW2 4182   0.355   0.248   2.643
 1095SOL     OW 4183   5.850   3.745   0.167
 1095SOL    HW1 4184   5.765   3.776   0.208
 1095SOL    HW2 4185   5.842   3.648   0.142
 1096SOL     OW 4186   1.784   5.612   1.895
 1096SOL    HW1 4187   1.797   5.711   1.894
 1096SOL    HW2 4188   1.742   5.583   1.809
 1097SOL     OW 4189   3.081   6.321   4.384
 1097SOL    HW1 4190   3.109   6.225   4.372
 1097SOL    HW2 4191   3.049   6.358   4.297
 1098SOL     OW 4192   6.803   3.811   0.454
 1098SOL    HW1 4193   6.715   3.790   0.410
 1098SOL    HW2 4194   6.822   3.908   0.446
 1099SOL     OW 4195   5.234   0.163   6.641
 1099SOL    HW1 4196   5.154   0.196   6.591
 1099SOL    HW2 4197   5.275   0.239   6.692
 1100SOL     OW 4198   4.575   2.083   4.380
 1100SOL    HW1 4199   4.500   2.103   4.317
 1100SOL    HW2 4200   4.624   2.001   4.349
 1101SOL     OW 4201   4.708   2.762   6.644
 1101SOL    HW1 4202   4.646   2.839   6.628
 1101SOL    HW2 4203   4.746   2.732   6.556
 1102SOL     OW 4204   2.756   0.595   3.256
 1102SOL    HW1 4205   2.749   0.584   3.356
 1102SOL    HW2 4206   2.830   0.658   3.235
 1103SOL     OW 4207   3.556   5.968   0.945
 1103SOL    HW1 4208   3.524   6.043   1.002
 1103SOL    HW2 4209   3.480   5.905   0.926
 1104SOL     OW 4210   6.611   2.770   3.880
 1104SOL    HW1 4211   6.698   2.819   3.870
 1104SOL    HW2 4212   6.557   2.781   3.796
 1105SOL     OW 4213   5.145   1.522   6.376
 1105SOL    HW1 4214   5.217   1.458   6.345
 1105SOL    HW2 4215   5.137   1.597   6.311
 1106SOL     OW 4216   6.465   1.509   0.956
 1106SOL    HW1 4217   6.556   1.469   0.945
 1106SOL    HW2 4218   6.401   1.463   0.894
 1107SOL     OW 4219   0.685   1.390   6.835
 1107SOL    HW1 4220   0.660   1.383   6.738
 1107SOL    HW2 4221   0.647   1.474   6.872
 1108SOL     OW 4222   2.228   0.904   3.650
 1108SOL    HW1 4223   2.266   0.994   3.627
 1108SOL    HW2 4224   2.158   0.879   3.583
 1109SOL     OW 4225   4.817   2.403   5.123
 1109SOL    HW1 4226   4.877   2.435   5.049
 1109SOL    HW2 4227   4.727   2.383   5.086
 1110SOL     OW 4228   1.520   1.355   2.361
 1110SOL    HW1 4229   1.441   1.359   2.422
 1110SOL    HW2 4230   1.490   1.324   2.270
 1111SOL     OW 4231   5.747   3.540   6.494
 1111SOL    HW1 4232   5.663   3.489   6.508
 1111SOL    HW2 4233   5.793   3.554   6.582
 1112SOL     OW 4234   5.765   0.220   2.570
 1112SOL    HW1 4235   5.669   0.244   2.576
 1112SOL    HW2 4236   5.784   0.179   2.481
 1113SOL     OW 4237   6.563   3.249   2.434
 1113SOL    HW1 4238   6.487   3.222   2.375
 1113SOL    HW2 4239   6.649   3.213   2.397
 1114SOL     OW 4240   3.688   3.656   4.750
 1114SOL    HW1 4241   3.714   3.752   4.763
 1114SOL    HW2 4242   3.734   3.599   4.818
 1115SOL     OW 4243   2.662   4.904   5.645
 1115SOL    HW1 4244   2.584   4.906   5.708
 1115SOL    HW2 4245   2.669   4.814   5.602
 1116SOL     OW 4246   4.090   0.158   0.438
 1116SOL    HW1 4247   4.129   0.098   0.368
 1116SOL    HW2 4248   3.991   0.148   0.439
 1117SOL     OW 4249   1.992   2.216   1.593
 1117SOL    HW1 4250   2.064   2.268   1.549
 1117SOL    HW2 4251   2.026   2.125   1.617
 1118SOL     OW 4252   4.525   5.805   0.075
 1118SOL    HW1 4253   4.445   5.744   0.069
 1118SOL    HW2 4254   4.497   5.899   0.056
 1119SOL     OW 4255   3.319   4.894   3.647
 1119SOL    HW1 4256   3.229   4.867   3.613
 1119SOL    HW2 4257   3.347   4.832   3.720
 1120SOL     OW 4258   6.933   2.852   1.257
 1120SOL    HW1 4259   7.004   2.792   1.292
 1120SOL    HW2 4260   6.900   2.911   1.330
 1121SOL     OW 4261   6.614   4.868   5.001
 1121SOL    HW1 4262   6.696   4.924   4.996
 1121SOL    HW2 4263   6.549   4.909   5.064
 1122SOL     OW 4264   6.041   1.447   1.946
 1122SOL    HW1 4265   6.096   1.450   2.030
 1122SOL    HW2 4266   6.031   1.540   1.910
 1123SOL     OW 4267   3.737   1.511   4.509
 1123SOL    HW1 4268   3.640   1.488   4.497
 1123SOL    HW2 4269   3.758   1.514   4.607
 1124SOL     OW 4270   2.331   2.774   4.016
 1124SOL    HW1 4271   2.383   2.851   3.979
 1124SOL    HW2 4272   2.234   2.799   4.022
 1125SOL     OW 4273   1.826   3.458   3.491
 1125SOL    HW1 4274   1.785   3.549   3.489
 1125SOL    HW2 4275   1.861   3.435   3.400
 1126SOL     OW 4276   4.106   4.760   4.447
 1126SOL    HW1 4277   4.180   4.799   4.393
 1126SOL    HW2 4278   4.088   4.667   4.417
 1127SOL     OW 4279   6.688   6.734   1.783
 1127SOL    HW1 4280   6.787   6.718   1.783
 1127SOL    HW2 4281   6.641   6.651   1.755
 1128SOL     OW 4282   4.383   1.405   4.625
 1128SOL    HW1 4283   4.395   1.340   4.549
 1128SOL    HW2 4284   4.469   1.452   4.642
 1129SOL     OW 4285   1.171   0.396   6.974
 1129SOL    HW1 4286   1.072   0.382   6.977
 1129SOL    HW2 4287   1.191   0.494   6.984
 1130SOL     OW 4288   2.103   4.642   1.993
 1130SOL    HW1 4289   2.042   4.656   2.071
 1130SOL    HW2 4290   2.164   4.721   1.984
 1131SOL     OW 4291   2.446   5.486   3.470
 1131SOL    HW1 4292   2.541   5.516   3.460
 1131SOL    HW2 4293   2.403   5.538   3.544
 1132SOL     OW 4294   1.704   1.820   2.448
 1132SOL    HW1 4295   1.786   1.852   2.402
 1132SOL    HW2 4296   1.698   1.863   2.539
 1133SOL     OW 4297   1.020   6.310   6.343
 1133SOL    HW1 4298   1.072   6.247   6.402
 1133SOL    HW2 4299   0.956   6.258   6.288
 1134SOL     OW 4300   3.752   6.145   1.138
 1134SOL    HW1 4301   3.847   6.174   1.122
 1134SOL    HW2 4302   3.719   6.091   1.061
 1135SOL     OW 4303   1.676   6.628   3.117
 1135SOL    HW1 4304   1.770   6.616   3.149
 1135SOL    HW2 4305   1.651   6.551   3.058
 1136SOL     OW 4306   1.224   5.062   2.422
 1136SOL    HW1 4307   1.290   5.020   2.484
 1136SOL    HW2 4308   1.272   5.115   2.352
 1137SOL     OW 4309   1.336   6.025   4.548
 1137SOL    HW1 4310   1.384   6.033   4.461
 1137SOL    HW2 4311   1.339   5.930   4.580
 1138SOL     OW 4312   1.634   4.333   5.269
 1138SOL    HW1 4313   1.563   4.310   5.335
 1138SOL    HW2 4314   1.671   4.249   5.229
 1139SOL     OW 4315   2.641   5.081   5.021
 1139SOL    HW1 4316   2.639   5.181   5.034
 1139SOL    HW2 4317   2.551   5.043   5.041
 1140SOL     OW 4318   1.744   2.254   1.541
 1140SOL    HW1 4319   1.842   2.240   1.556
 1140SOL    HW2 4320   1.705   2.302   1.620
 1141SOL     OW 4321   0.093   4.862   5.590
 1141SOL    HW1 4322   0.118   4.905   5.504
 1141SOL    HW2 4323   0.105   4.927   5.665
 1142SOL     OW 4324   1.399   5.955   2.003
 1142SOL    HW1 4325   1.397   5.940   2.102
 1142SOL    HW2 4326   1.436   5.874   1.957
 1143SOL     OW 4327   6.937   4.156   1.701
 1143SOL    HW1 4328   6.953   4.133   1.605
 1143SOL    HW2 4329   6.978   4.086   1.759
 1144SOL     OW 4330   5.491   4.320   0.222
 1144SOL    HW1 4331   5.484   4.400   0.282
 1144SOL    HW2 4332   5.578   4.324   0.172
 1145SOL     OW 4333   5.589   0.004   0.500
 1145SOL    HW1 4334   5.605   6.933   0.461
 1145SOL    HW2 4335   5.648   0.070   0.454
 1146SOL     OW 4336   0.933   0.947   1.137
 1146SOL    HW1 4337   1.027   0.953   1.103
 1146SOL    HW2 4338   0.876   1.012   1.087
 1147SOL     OW 4339   1.898   6.398   0.459
 1147SOL    HW1 4340   1.873   6.395   0.555
 1147SOL    HW2 4341   1.817   6.381   0.402
 1148SOL     OW 4342   4.444   5.774   3.215
 1148SOL    HW1 4343   4.436   5.872   3.193
 1148SOL    HW2 4344   4.418   5.720   3.136
 1149SOL     OW 4345   4.993   3.192   1.742
 1149SOL    HW1 4346   4.899   3.211   1.716
 1149SOL    HW2 4347   5.003   3.195   1.841
 1150SOL     OW 4348   0.988   3.304   0.308
 1150SOL    HW1 4349   1.076   3.346   0.290
 1150SOL    HW2 4350   0.976   3.225   0.247
 1151SOL     OW 4351   5.818   5.195   4.386
 1151SOL    HW1 4352   5.907   5.239   4.372
 1151SOL    HW2 4353   5.759   5.213   4.306
 1152SOL     OW 4354   3.645   6.552   6.453
 1152SOL    HW1 4355   3.678   6.595   6.537
 1152SOL    HW2 4356   3.549   6.576   6.439
 1153SOL     OW 4357   5.718   6.539   1.961
 1153SOL    HW1 4358   5.807   6.572   1.931
 1153SOL    HW2 4359   5.656   6.533   1.883
 1154SOL     OW 4360   2.452   2.818   0.746
 1154SOL    HW1 4361   2.532   2.871   0.718
 1154SOL    HW2 4362   2.381   2.825   0.676
 1155SOL     OW 4363   3.633   5.733   4.020
 1155SOL    HW1 4364   3.646   5.808   3.955
 1155SOL    HW2 4365   3.720   5.710   4.063
 1156SOL     OW 4366   2.520   1.541   2.762
 1156SOL    HW1 4367   2.611   1.580   2.773
 1156SOL    HW2 4368   2.452   1.614   2.767
 1157SOL     OW 4369   2.885   1.336   0.647
 1157SOL    HW1 4370   2.825   1.312   0.571
 1157SOL    HW2 4371   2.837   1.321   0.733
 1158SOL     OW 4372   5.814   4.223   3.203
 1158SOL    HW1 4373   5.795   4.148   3.139
 1158SOL    HW2 4374   5.874   4.191   3.276
 1159SOL     OW 4375   6.281   5.102   0.672
 1159SOL    HW1 4376   6.305   5.195   0.646
 1159SOL    HW2 4377   6.193   5.077   0.630
 1160SOL     OW 4378   4.735   2.349   0.354
 1160SOL    HW1 4379   4.706   2.324   0.261
 1160SOL    HW2 4380   4.691   2.435   0.380
 1161SOL     OW 4381   6.442   5.355   0.997
 1161SOL    HW1 4382   6.364   5.398   0.951
 1161SOL    HW2 4383   6.408   5.292   1.068
 1162SOL     OW 4384   2.763   2.257   4.583
 1162SOL    HW1 4385   2.833   2.284   4.650
 1162SOL    HW2 4386   2.711   2.180   4.619
 1163SOL     OW 4387   5.915   2.676   1.284
 1163SOL    HW1 4388   5.936   2.582   1.258
 1163SOL    HW2 4389   5.895   2.680   1.382
 1164SOL     OW 4390   4.092   2.936   5.989
 1164SOL    HW1 4391   4.065   2.863   5.927
 1164SOL    HW2 4392   4.190   2.927   6.010
 1165SOL     OW 4393   4.607   6.750   3.367
 1165SOL    HW1 4394   4.514   6.771   3.337
 1165SOL    HW2 4395   4.633   6.814   3.440
 1166SOL     OW 4396   3.060   4.519   6.567
 1166SOL    HW1 4397   2.964   4.527   6.543
 1166SOL    HW2 4398   3.114   4.585   6.514
 1167SOL     OW 4399   4.901   4.488   2.597
 1167SOL    HW1 4400   4.867   4.493   2.503
 1167SOL    HW2 4401   4.942   4.575   2.622
 1168SOL     OW 4402   0.065   0.063   2.030
 1168SOL    HW1 4403   0.040   0.015   2.114
 1168SOL    HW2 4404   0.031   0.157   2.034
 1169SOL     OW 4405   4.572   1.485   5.649
 1169SOL    HW1 4406   4.522   1.402   5.676
 1169SOL    HW2 4407   4.566   1.496   5.549
 1170SOL     OW 4408   5.027   4.996   2.644
 1170SOL    HW1 4409   5.124   5.019   2.647
 1170SOL    HW2 4410   5.010   4.934   2.568
 1171SOL     OW 4411   0.021   6.185   0.552
 1171SOL    HW1 4412   0.022   6.091   0.584
 1171SOL    HW2 4413   6.972   6.237   0.603
 1172SOL     OW 4414   6.528   3.528   6.280
 1172SOL    HW1 4415   6.484   3.465   6.217
 1172SOL    HW2 4416   6.513   3.498   6.374
 1173SOL     OW 4417   3.636   2.653   0.623
 1173SOL    HW1 4418   3.722   2.616   0.660
 1173SOL    HW2 4419   3.621   2.618   0.531
 1174SOL     OW 4420   1.982   4.610   0.444
 1174SOL    HW1 4421   1.940   4.535   0.494
 1174SOL    HW2 4422   1.943   4.614   0.352
 1175SOL     OW 4423   3.197   3.259   4.206
 1175SOL    HW1 4424   3.283   3.277   4.255
 1175SOL    HW2 4425   3.144   3.343   4.200
 1176SOL     OW 4426   5.150   2.709   6.921
 1176SOL    HW1 4427   5.135   2.802   6.885
 1176SOL    HW2 4428   5.083   2.647   6.881
 1177SOL     OW 4429   1.095   1.571   4.174
 1177SOL    HW1 4430   1.081   1.532   4.083
 1177SOL    HW2 4431   1.127   1.665   4.165
 1178SOL     OW 4432   4.611   6.056   6.830
 1178SOL    HW1 4433   4.589   6.007   6.746
 1178SOL    HW2 4434   4.533   6.053   6.892
 1179SOL     OW 4435   0.908   5.694   0.267
 1179SOL    HW1 4436   0.992   5.708   0.214
 1179SOL    HW2 4437   0.881   5.780   0.311
 1180SOL     OW 4438   3.773   6.394   0.558
 1180SOL    HW1 4439   3.868   6.367   0.545
 1180SOL    HW2 4440   3.734   6.343   0.634
 1181SOL     OW 4441   6.339   6.893   6.564
 1181SOL    HW1 4442   6.349   6.930   6.656
 1181SOL    HW2 4443   6.414   6.829   6.546
 1182SOL     OW 4444   4.468   4.529   2.523
 1182SOL    HW1 4445   4.470   4.491   2.430
 1182SOL    HW2 4446   4.552   4.580   2.540
 1183SOL     OW 4447   1.873   3.842   5.943
 1183SOL    HW1 4448   1.936   3.855   6.019
 1183SOL    HW2 4449   1.921   3.861   5.857
 1184SOL     OW 4450   0.203   0.294   5.634
 1184SOL    HW1 4451   0.282   0.241   5.665
 1184SOL    HW2 4452   0.187   0.277   5.537
 1185SOL     OW 4453   6.582   1.359   0.203
 1185SOL    HW1 4454   6.604   1.263   0.187
 1185SOL    HW2 4455   6.633   1.417   0.139
 1186SOL     OW 4456   5.912   6.374   4.689
 1186SOL    HW1 4457   5.843   6.420   4.634
 1186SOL    HW2 4458   5.975   6.442   4.726
 1187SOL     OW 4459   6.686   1.213   5.764
 1187SOL    HW1 4460   6.755   1.201   5.692
 1187SOL    HW2 4461   6.600   1.244   5.724
 1188SOL     OW 4462   2.791   0.539   6.905
 1188SOL    HW1 4463   2.744   0.625   6.921
 1188SOL    HW2 4464   2.816   0.497   6.993
 1189SOL     OW 4465   5.468   3.464   3.925
 1189SOL    HW1 4466   5.396   3.510   3.873
 1189SOL    HW2 4467   5.455   3.365   3.919
 1190SOL     OW 4468   2.365   6.760   3.488
 1190SOL    HW1 4469   2.432   6.765   3.415
 1190SOL    HW2 4470   2.350   6.664   3.513
 1191SOL     OW 4471   4.254   6.283   2.481
 1191SOL    HW1 4472   4.252   6.200   2.427
 1191SOL    HW2 4473   4.309   6.268   2.564
 1192SOL     OW 4474   6.016   5.973   3.386
 1192SOL    HW1 4475   5.990   5.943   3.295
 1192SOL    HW2 4476   6.056   6.065   3.381
 1193SOL     OW 4477   0.359   5.677   4.193
 1193SOL    HW1 4478   0.344   5.606   4.262
 1193SOL    HW2 4479   0.453   5.709   4.198
 1194SOL     OW 4480   3.694   0.207   1.409
 1194SOL    HW1 4481   3.716   0.249   1.322
 1194SOL    HW2 4482   3.686   0.278   1.479
 1195SOL     OW 4483   5.356   2.457   3.708
 1195SOL    HW1 4484   5.382   2.427   3.799
 1195SOL    HW2 4485   5.265   2.422   3.685
 1196SOL     OW 4486   0.032   6.525   4.784
 1196SOL    HW1 4487   6.993   6.450   4.814
 1196SOL    HW2 4488   6.997   6.606   4.766
 1197SOL     OW 4489   2.195   6.078   0.529
 1197SOL    HW1 4490   2.147   6.148   0.475
 1197SOL    HW2 4491   2.154   6.072   0.620
 1198SOL     OW 4492   1.561   2.604   6.773
 1198SOL    HW1 4493   1.553   2.567   6.865
 1198SOL    HW2 4494   1.477   2.654   6.750
 1199SOL     OW 4495   6.195   4.041   1.794
 1199SOL    HW1 4496   6.146   3.987   1.863
 1199SOL    HW2 4497   6.188   3.997   1.705
 1200SOL     OW 4498   2.935   3.616   2.433
 1200SOL    HW1 4499   2.936   3.523   2.396
 1200SOL    HW2 4500   2.905   3.613   2.529
 1201SOL     OW 4501   1.750   2.023   4.749
 1201SOL    HW1 4502   1.811   1.953   4.785
 1201SOL    HW2 4503   1.791   2.113   4.762
 1202SOL     OW 4504   1.496   5.619   5.608
 1202SOL    HW1 4505   1.523   5.532   5.567
 1202SOL    HW2 4506   1.430   5.603   5.681
 1203SOL     OW 4507   3.558   5.856   5.377
 1203SOL    HW1 4508   3.601   5.801   5.448
 1203SOL    HW2 4509   3.521   5.796   5.306
 1204SOL     OW 4510   2.011   0.046   2.843
 1204SOL    HW1 4511   2.019   0.118   2.775
 1204SOL    HW2 4512   1.921   0.050   2.887
 1205SOL     OW 4513   5.629   3.979   1.962
 1205SOL    HW1 4514   5.540   4.023   1.947
 1205SOL    HW2 4515   5.626   3.923   2.045
 1206SOL     OW 4516   3.423   3.686   4.681
 1206SOL    HW1 4517   3.518   3.670   4.708
 1206SOL    HW2 4518   3.375   3.734   4.754
 1207SOL     OW 4519   1.245   5.781   2.788
 1207SOL    HW1 4520   1.188   5.861   2.805
 1207SOL    HW2 4521   1.205   5.701   2.833
 1208SOL     OW 4522   3.157   3.608   5.689
 1208SOL    HW1 4523   3.064   3.577   5.668
 1208SOL    HW2 4524   3.223   3.552   5.639
 1209SOL     OW 4525   3.548   6.247   5.670
 1209SOL    HW1 4526   3.471   6.188   5.645
 1209SOL    HW2 4527   3.517   6.316   5.735
 1210SOL     OW 4528   3.416   1.065   3.285
 1210SOL    HW1 4529   3.332   1.011   3.280
 1210SOL    HW2 4530   3.395   1.161   3.269
 1211SOL     OW 4531   1.172   2.912   0.230
 1211SOL    HW1 4532   1.217   2.871   0.151
 1211SOL    HW2 4533   1.165   3.011   0.216
 1212SOL     OW 4534   1.554   0.130   0.128
 1212SOL    HW1 4535   1.599   0.084   0.204
 1212SOL    HW2 4536   1.577   0.227   0.130
 1213SOL     OW 4537   5.407   3.069   1.086
 1213SOL    HW1 4538   5.336   2.998   1.087
 1213SOL    HW2 4539   5.496   3.027   1.074
 1214SOL     OW 4540   6.827   2.624   1.465
 1214SOL    HW1 4541   6.907   2.664   1.419
 1214SOL    HW2 4542   6.823   2.526   1.445
 1215SOL     OW 4543   1.691   5.978   3.366
 1215SOL    HW1 4544   1.704   5.885   3.330
 1215SOL    HW2 4545   1.706   6.044   3.292
 1216SOL     OW 4546   3.614   6.859   1.646
 1216SOL    HW1 4547   3.607   6.760   1.644
 1216SOL    HW2 4548   3.610   6.895   1.552
 1217SOL     OW 4549   3.011   4.744   0.075
 1217SOL    HW1 4550   3.077   4.724   0.147
 1217SOL    HW2 4551   2.918   4.737   0.111
 1218SOL     OW 4552   2.455   5.525   3.851
 1218SOL    HW1 4553   2.414   5.551   3.764
 1218SOL    HW2 4554   2.471   5.607   3.907
 1219SOL     OW 4555   3.636   6.613   2.467
 1219SOL    HW1 4556   3.616   6.548   2.393
 1219SOL    HW2 4557   3.609   6.705   2.438
 1220SOL     OW 4558   0.842   4.750   2.726
 1220SOL    HW1 4559   0.860   4.708   2.815
 1220SOL    HW2 4560   0.922   4.802   2.696
 1221SOL     OW 4561   4.914   4.632   6.897
 1221SOL    HW1 4562   4.867   4.589   6.974
 1221SOL    HW2 4563   5.004   4.664   6.925
 1222SOL     OW 4564   6.687   0.625   6.194
 1222SOL    HW1 4565   6.644   0.538   6.215
 1222SOL    HW2 4566   6.692   0.637   6.095
 1223SOL     OW 4567   3.708   6.569   0.844
 1223SOL    HW1 4568   3.738   6.623   0.922
 1223SOL    HW2 4569   3.744   6.476   0.852
 1224SOL     OW 4570   2.776   0.351   1.951
 1224SOL    HW1 4571   2.723   0.394   2.025
 1224SOL    HW2 4572   2.760   0.253   1.951
 1225SOL     OW 4573   2.834   3.722   5.440
 1225SOL    HW1 4574   2.812   3.782   5.364
 1225SOL    HW2 4575   2.762   3.727   5.509
 1226SOL     OW 4576   2.049   4.775   0.655
 1226SOL    HW1 4577   2.081   4.735   0.741
 1226SOL    HW2 4578   2.066   4.712   0.580
 1227SOL     OW 4579   1.107   3.122   5.811
 1227SOL    HW1 4580   1.146   3.049   5.754
 1227SOL    HW2 4581   1.135   3.211   5.775
 1228SOL     OW 4582   3.839   1.963   6.901
 1228SOL    HW1 4583   3.833   1.894   6.829
 1228SOL    HW2 4584   3.758   2.022   6.897
 1229SOL     OW 4585   2.909   4.224   6.698
 1229SOL    HW1 4586   2.852   4.304   6.717
 1229SOL    HW2 4587   2.893   4.154   6.768
 1230SOL     OW 4588   4.491   0.667   3.323
 1230SOL    HW1 4589   4.422   0.615   3.374
 1230SOL    HW2 4590   4.541   0.726   3.387
 1231SOL     OW 4591   1.315   4.577   4.624
 1231SOL    HW1 4592   1.288   4.671   4.607
 1231SOL    HW2 4593   1.403   4.576   4.673
 1232SOL     OW 4594   1.825   2.599   3.511
 1232SOL    HW1 4595   1.828   2.545   3.595
 1232SOL    HW2 4596   1.903   2.576   3.454
 1233SOL     OW 4597   0.682   3.073   4.319
 1233SOL    HW1 4598   0.744   3.137   4.275
 1233SOL    HW2 4599   0.595   3.120   4.339
 1234SOL     OW 4600   6.701   3.969   4.202
 1234SOL    HW1 4601   6.762   3.929   4.269
 1234SOL    HW2 4602   6.607   3.966   4.236
 1235SOL     OW 4603   6.900   5.692   4.158
 1235SOL    HW1 4604   6.996   5.713   4.178
 1235SOL    HW2 4605   6.896   5.627   4.082
 1236SOL     OW 4606   5.617   1.019   5.961
 1236SOL    HW1 4607   5.564   1.088   6.010
 1236SOL    HW2 4608   5.572   0.997   5.874
 1237SOL     OW 4609   2.660   4.629   6.639
 1237SOL    HW1 4610   2.640   4.724   6.665
 1237SOL    HW2 4611   2.606   4.605   6.559
 1238SOL     OW 4612   1.599   1.712   0.563
 1238SOL    HW1 4613   1.647   1.773   0.626
 1238SOL    HW2 4614   1.501   1.716   0.582
 1239SOL     OW 4615   0.880   0.050   5.499
 1239SOL    HW1 4616   0.854   6.987   5.549
 1239SOL    HW2 4617   0.971   0.079   5.527
 1240SOL     OW 4618   4.245   6.105   2.292
 1240SOL    HW1 4619   4.183   6.179   2.266
 1240SOL    HW2 4620   4.219   6.022   2.242
 1241SOL     OW 4621   0.490   2.413   4.423
 1241SOL    HW1 4622   0.406   2.464   4.405
 1241SOL    HW2 4623   0.510   2.353   4.345
 1242SOL     OW 4624   2.278   3.383   6.448
 1242SOL    HW1 4625   2.347   3.395   6.520
 1242SOL    HW2 4626   2.279   3.288   6.417
 1243SOL     OW 4627   2.363   5.299   5.297
 1243SOL    HW1 4628   2.360   5.206   5.334
 1243SOL    HW2 4629   2.334   5.297   5.201
 1244SOL     OW 4630   0.275   1.051   3.227
 1244SOL    HW1 4631   0.320   0.974   3.273
 1244SOL    HW2 4632   0.342   1.100   3.171
 1245SOL     OW 4633   3.119   2.801   6.240
 1245SOL    HW1 4634   3.217   2.804   6.223
 1245SOL    HW2 4635   3.080   2.893   6.230
 1246SOL     OW 4636   0.791   7.007   1.327
 1246SOL    HW1 4637   0.837   0.021   1.408
 1246SOL    HW2 4638   0.728   6.933   1.353
 1247SOL     OW 4639   1.137   6.513   6.775
 1247SOL    HW1 4640   1.106   6.492   6.682
 1247SOL    HW2 4641   1.062   6.555   6.826
 1248SOL     OW 4642   1.997   6.312   3.107
 1248SOL    HW1 4643   2.024   6.375   3.180
 1248SOL    HW2 4644   2.011   6.356   3.018
 1249SOL     OW 4645   5.830   3.003   3.642
 1249SOL    HW1 4646   5.830   3.102   3.627
 1249SOL    HW2 4647   5.817   2.984   3.739
 1250SOL     OW 4648   0.316   4.292   4.395
 1250SOL    HW1 4649   0.307   4.246   4.307
 1250SOL    HW2 4650   0.339   4.388   4.380
 1251SOL     OW 4651   3.309   6.920   6.281
 1251SOL    HW1 4652   3.339   6.962   6.367
 1251SOL    HW2 4653   3.217   6.951   6.259
 1252SOL     OW 4654   3.448   3.468   6.870
 1252SOL    HW1 4655   3.525   3.406   6.886
 1252SOL    HW2 4656   3.383   3.425   6.808
 1253SOL     OW 4657   4.239   6.905   2.709
 1253SOL    HW1 4658   4.156   6.904   2.765
 1253SOL    HW2 4659   4.219   6.868   2.618
 1254SOL     OW 4660   6.020   1.478   2.588
 1254SOL    HW1 4661   6.094   1.543   2.571
 1254SOL    HW2 4662   6.029   1.401   2.525
 1255SOL     OW 4663   6.220   0.627   0.401
 1255SOL    HW1 4664   6.272   0.662   0.479
 1255SOL    HW2 4665   6.269   0.647   0.317
 1256SOL     OW 4666   5.138   2.227   3.855
 1256SOL    HW1 4667   5.185   2.160   3.912
 1256SOL    HW2 4668   5.189   2.241   3.770
 1257SOL     OW 4669   6.128   1.517   4.064
 1257SOL    HW1 4670   6.048   1.570   4.090
 1257SOL    HW2 4671   6.145   1.527   3.966
 1258SOL     OW 4672   0.407   5.769   3.905
 1258SOL    HW1 4673   0.324   5.803   3.861
 1258SOL    HW2 4674   0.469   5.732   3.835
 1259SOL     OW 4675   4.341   2.054   5.369
 1259SOL    HW1 4676   4.287   2.085   5.448
 1259SOL    HW2 4677   4.375   2.133   5.319
 1260SOL     OW 4678   0.740   1.541   5.045
 1260SOL    HW1 4679   0.692   1.581   4.966
 1260SOL    HW2 4680   0.788   1.613   5.094
 1261SOL     OW 4681   6.639   3.610   0.798
 1261SOL    HW1 4682   6.737   3.616   0.783
 1261SOL    HW2 4683   6.592   3.678   0.741
 1262SOL     OW 4684   5.077   5.968   2.456
 1262SOL    HW1 4685   5.083   6.064   2.428
 1262SOL    HW2 4686   5.047   5.963   2.551
 1263SOL     OW 4687   6.638   2.608   3.634
 1263SOL    HW1 4688   6.723   2.638   3.590
 1263SOL    HW2 4689   6.656   2.591   3.732
 1264SOL     OW 4690   1.116   2.725   5.446
 1264SOL    HW1 4691   1.091   2.732   5.350
 1264SOL    HW2 4692   1.142   2.630   5.467
 1265SOL     OW 4693   5.810   0.136   5.585
 1265SOL    HW1 4694   5.781   0.044   5.614
 1265SOL    HW2 4695   5.813   0.141   5.485
 1266SOL     OW 4696   2.353   1.146   5.395
 1266SOL    HW1 4697   2.273   1.199   5.424
 1266SOL    HW2 4698   2.366   1.068   5.456
 1267SOL     OW 4699   3.567   0.419   2.717
 1267SOL    HW1 4700   3.633   0.484   2.680
 1267SOL    HW2 4701   3.598   0.386   2.806
 1268SOL     OW 4702   3.957   2.446   5.389
 1268SOL    HW1 4703   4.027   2.486   5.329
 1268SOL    HW2 4704   3.885   2.513   5.406
 1269SOL     OW 4705   6.080   1.871   3.757
 1269SOL    HW1 4706   5.987   1.883   3.793
 1269SOL    HW2 4707   6.146   1.908   3.822
 1270SOL     OW 4708   6.285   5.050   2.616
 1270SOL    HW1 4709   6.320   4.973   2.563
 1270SOL    HW2 4710   6.252   5.018   2.705
 1271SOL     OW 4711   2.388   1.221   0.991
 1271SOL    HW1 4712   2.411   1.265   0.904
 1271SOL    HW2 4713   2.409   1.283   1.066
 1272SOL     OW 4714   5.722   2.011   0.472
 1272SOL    HW1 4715   5.674   1.924   0.464
 1272SOL    HW2 4716   5.757   2.039   0.383
 1273SOL     OW 4717   2.217   4.439   5.833
 1273SOL    HW1 4718   2.307   4.420   5.792
 1273SOL    HW2 4719   2.157   4.479   5.763
 1274SOL     OW 4720   0.013   4.586   4.019
 1274SOL    HW1 4721   6.975   4.652   3.971
 1274SOL    HW2 4722   6.979   4.532   4.082
 1275SOL     OW 4723   2.063   1.771   2.728
 1275SOL    HW1 4724   2.016   1.827   2.796
 1275SOL    HW2 4725   2.025   1.789   2.638
 1276SOL     OW 4726   5.719   4.374   3.438
 1276SOL    HW1 4727   5.685   4.455   3.390
 1276SOL    HW2 4728   5.757   4.309   3.371
 1277SOL     OW 4729   0.597   6.401   6.759
 1277SOL    HW1 4730   0.673   6.437   6.706
 1277SOL    HW2 4731   0.573   6.465   6.832
 1278SOL     OW 4732   0.392   5.605   2.711
 1278SOL    HW1 4733   0.354   5.513   2.701
 1278SOL    HW2 4734   0.322   5.667   2.747
 1279SOL     OW 4735   2.616   3.126   0.994
 1279SOL    HW1 4736   2.711   3.154   1.006
 1279SOL    HW2 4737   2.610   3.026   0.988
 1280SOL     OW 4738   2.724   2.289   4.050
 1280SOL    HW1 4739   2.714   2.291   3.951
 1280SOL    HW2 4740   2.818   2.311   4.074
 1281SOL     OW 4741   6.303   6.324   4.759
 1281SOL    HW1 4742   6.236   6.259   4.794
 1281SOL    HW2 4743   6.257   6.408   4.730
 1282SOL     OW 4744   0.660   2.494   1.348
 1282SOL    HW1 4745   0.611   2.570   1.305
 1282SOL    HW2 4746   0.711   2.529   1.427
 1283SOL     OW 4747   6.843   1.755   3.979
 1283SOL    HW1 4748   6.864   1.793   4.069
 1283SOL    HW2 4749   6.843   1.829   3.912
 1284SOL     OW 4750   3.793   2.019   2.109
 1284SOL    HW1 4751   3.738   1.935   2.105
 1284SOL    HW2 4752   3.741   2.095   2.068
 1285SOL     OW 4753   4.517   0.916   4.268
 1285SOL    HW1 4754   4.516   0.823   4.305
 1285SOL    HW2 4755   4.447   0.971   4.313
 1286SOL     OW 4756   4.880   1.663   1.548
 1286SOL    HW1 4757   4.977   1.687   1.542
 1286SOL    HW2 4758   4.861   1.622   1.637
 1287SOL     OW 4759   5.620   5.022   5.541
 1287SOL    HW1 4760   5.709   4.992   5.505
 1287SOL    HW2 4761   5.549   5.007   5.472
 1288SOL     OW 4762   4.627   4.714   0.010
 1288SOL    HW1 4763   4.565   4.688   6.956
 1288SOL    HW2 4764   4.681   4.634   0.038
 1289SOL     OW 4765   6.669   6.902   0.566
 1289SOL    HW1 4766   6.644   6.829   0.502
 1289SOL    HW2 4767   6.730   6.866   0.636
 1290SOL     OW 4768   1.616   6.551   6.019
 1290SOL    HW1 4769   1.547   6.496   5.972
 1290SOL    HW2 4770   1.570   6.621   6.075
 1291SOL     OW 4771   5.941   5.038   3.737
 1291SOL    HW1 4772   6.020   5.043   3.675
 1291SOL    HW2 4773   5.972   5.024   3.830
 1292SOL     OW 4774   0.820   6.930   2.381
 1292SOL    HW1 4775   0.782   6.946   2.291
 1292SOL    HW2 4776   0.748   6.936   2.450
 1293SOL     OW 4777   4.917   1.142   0.788
 1293SOL    HW1 4778   4.977   1.173   0.714
 1293SOL    HW2 4779   4.947   1.052   0.819
 1294SOL     OW 4780   2.108   4.578   4.904
 1294SOL    HW1 4781   2.197   4.542   4.879
 1294SOL    HW2 4782   2.047   4.576   4.825
 1295SOL     OW 4783   7.012   4.480   0.424
 1295SOL    HW1 4784   6.982   4.385   0.411
 1295SOL    HW2 4785   0.024   4.493   0.518
 1296SOL     OW 4786   5.120   6.904   5.881
 1296SOL    HW1 4787   5.060   6.878   5.957
 1296SOL    HW2 4788   5.190   6.834   5.869
 1297SOL     OW 4789   6.395   6.980   0.393
 1297SOL    HW1 4790   6.337   6.935   0.325
 1297SOL    HW2 4791   6.464   6.915   0.425
 1298SOL     OW 4792   5.096   0.658   3.026
 1298SOL    HW1 4793   5.130   0.564   3.021
 1298SOL    HW2 4794   5.130   0.710   2.947
 1299SOL     OW 4795   0.981   3.475   4.473
 1299SOL    HW1 4796   1.030   3.548   4.521
 1299SOL    HW2 4797   0.883   3.494   4.474
 1300SOL     OW 4798   0.604   5.670   0.796
 1300SOL    HW1 4799   0.611   5.594   0.732
 1300SOL    HW2 4800   0.694   5.688   0.837
 1301SOL     OW 4801   6.526   0.229   0.104
 1301SOL    HW1 4802   6.552   0.236   0.201
 1301SOL    HW2 4803   6.428   0.244   0.096
 1302SOL     OW 4804   6.637   6.995   5.185
 1302SOL    HW1 4805   6.576   6.929   5.229
 1302SOL    HW2 4806   6.687   6.949   5.112
 1303SOL     OW 4807   2.775   6.727   1.567
 1303SOL    HW1 4808   2.845   6.692   1.504
 1303SOL    HW2 4809   2.792   6.692   1.659
 1304SOL     OW 4810   0.268   0.647   0.928
 1304SOL    HW1 4811   0.334   0.640   0.853
 1304SOL    HW2 4812   0.262   0.742   0.959
 1305SOL     OW 4813   4.086   4.709   6.264
 1305SOL    HW1 4814   4.155   4.641   6.238
 1305SOL    HW2 4815   4.004   4.696   6.208
 1306SOL     OW 4816   3.139   6.095   3.622
 1306SOL    HW1 4817   3.179   6.146   3.699
 1306SOL    HW2 4818   3.152   6.147   3.538
 1307SOL     OW 4819   1.926   3.165   4.230
 1307SOL    HW1 4820   1.837   3.162   4.276
 1307SOL    HW2 4821   1.985   3.232   4.276
 1308SOL     OW 4822   6.648   3.700   6.115
 1308SOL    HW1 4823   6.745   3.718   6.131
 1308SOL    HW2 4824   6.613   3.639   6.186
 1309SOL     OW 4825   5.850   3.633   6.742
 1309SOL    HW1 4826   5.854   3.573   6.821
 1309SOL    HW2 4827   5.925   3.699   6.745
 1310SOL     OW 4828   1.831   4.004   3.261
 1310SOL    HW1 4829   1.734   4.025   3.267
 1310SOL    HW2 4830   1.871   4.001   3.353
 1311SOL     OW 4831   5.468   5.254   0.540
 1311SOL    HW1 4832   5.386   5.255   0.482
 1311SOL    HW2 4833   5.457   5.322   0.613
 1312SOL     OW 4834   2.478   1.195   6.263
 1312SOL    HW1 4835   2.547   1.219   6.331
 1312SOL    HW2 4836   2.495   1.103   6.229
 1313SOL     OW 4837   6.355   5.740   1.276
 1313SOL    HW1 4838   6.314   5.813   1.329
 1313SOL    HW2 4839   6.283   5.681   1.239
 1314SOL     OW 4840   1.783   1.718   4.157
 1314SOL    HW1 4841   1.883   1.722   4.162
 1314SOL    HW2 4842   1.745   1.809   4.177
 1315SOL     OW 4843   6.215   1.014   2.863
 1315SOL    HW1 4844   6.264   0.948   2.805
 1315SOL    HW2 4845   6.117   0.996   2.857
 1316SOL     OW 4846   5.255   6.969   6.430
 1316SOL    HW1 4847   5.338   6.964   6.374
 1316SOL    HW2 4848   5.269   0.017   6.502
 1317SOL     OW 4849   3.100   3.071   5.457
 1317SOL    HW1 4850   3.195   3.082   5.489
 1317SOL    HW2 4851   3.089   2.980   5.419
 1318SOL     OW 4852   1.754   1.680   6.015
 1318SOL    HW1 4853   1.726   1.771   6.045
 1318SOL    HW2 4854   1.775   1.624   6.095
 1319SOL     OW 4855   0.078   0.615   0.304
 1319SOL    HW1 4856   0.121   0.532   0.268
 1319SOL    HW2 4857   0.136   0.694   0.283
 1320SOL     OW 4858   3.051   3.146   6.466
 1320SOL    HW1 4859   3.045   3.110   6.373
 1320SOL    HW2 4860   3.040   3.245   6.465
 1321SOL     OW 4861   0.086   2.539   0.861
 1321SOL    HW1 4862   7.007   2.533   0.856
 1321SOL    HW2 4863   0.127   2.470   0.801
 1322SOL     OW 4864   3.380   2.607   0.201
 1322SOL    HW1 4865   3.295   2.554   0.197
 1322SOL    HW2 4866   3.387   2.654   0.289
 1323SOL     OW 4867   4.043   0.199   1.368
 1323SOL    HW1 4868   4.009   0.260   1.440
 1323SOL    HW2 4869   4.080   0.253   1.293
 1324SOL     OW 4870   2.459   4.330   5.783
 1324SOL    HW1 4871   2.461   4.260   5.855
 1324SOL    HW2 4872   2.474   4.287   5.694
 1325SOL     OW 4873   3.448   6.035   5.049
 1325SOL    HW1 4874   3.467   6.044   4.951
 1325SOL    HW2 4875   3.534   6.027   5.099
 1326SOL     OW 4876   5.345   1.600   5.138
 1326SOL    HW1 4877   5.350   1.669   5.210
 1326SOL    HW2 4878   5.302   1.517   5.173
 1327SOL     OW 4879   5.283   5.306   2.441
 1327SOL    HW1 4880   5.267   5.378   2.373
 1327SOL    HW2 4881   5.212   5.310   2.511
 1328SOL     OW 4882   2.433   2.020   6.204
 1328SOL    HW1 4883   2.476   1.930   6.190
 1328SOL    HW2 4884   2.334   2.009   6.210
 1329SOL     OW 4885   1.087   2.921   3.616
 1329SOL    HW1 4886   0.992   2.902   3.643
 1329SOL    HW2 4887   1.149   2.888   3.687
 1330SOL     OW 4888   5.986   3.056   2.926
 1330SOL    HW1 4889   5.963   2.963   2.895
 1330SOL    HW2 4890   5.964   3.065   3.023
 1331SOL     OW 4891   4.858   2.389   3.614
 1331SOL    HW1 4892   4.885   2.376   3.519
 1331SOL    HW2 4893   4.879   2.307   3.667
 1332SOL     OW 4894   1.947   5.580   0.987
 1332SOL    HW1 4895   1.925   5.524   1.067
 1332SOL    HW2 4896   1.865   5.626   0.955
 1333SOL     OW 4897   3.405   3.864   3.100
 1333SOL    HW1 4898   3.357   3.890   3.184
 1333SOL    HW2 4899   3.383   3.769   3.078
 1334SOL     OW 4900   6.796   3.515   1.746
 1334SOL    HW1 4901   6.865   3.444   1.759
 1334SOL    HW2 4902   6.796   3.576   1.825
 1335SOL     OW 4903   0.205   3.654   3.603
 1335SOL    HW1 4904   0.127   3.592   3.609
 1335SOL    HW2 4905   0.259   3.648   3.687
 1336SOL     OW 4906   1.825   0.164   5.495
 1336SOL    HW1 4907   1.925   0.163   5.498
 1336SOL    HW2 4908   1.788   0.137   5.584
 1337SOL     OW 4909   0.209   6.637   2.196
 1337SOL    HW1 4910   0.169   6.556   2.238
 1337SOL    HW2 4911   0.271   6.681   2.261
 1338SOL     OW 4912   6.629   4.109   5.117
 1338SOL    HW1 4913   6.719   4.131   5.081
 1338SOL    HW2 4914   6.565   4.096   5.042
 1339SOL     OW 4915   6.077   0.983   6.480
 1339SOL    HW1 4916   6.017   1.038   6.422
 1339SOL    HW2 4917   6.117   1.041   6.551
 1340SOL     OW 4918   3.662   3.095   1.768
 1340SOL    HW1 4919   3.594   3.131   1.704
 1340SOL    HW2 4920   3.725   3.034   1.720
 1341SOL     OW 4921   4.997   5.393   6.788
 1341SOL    HW1 4922   5.065   5.465   6.771
 1341SOL    HW2 4923   4.982   5.341   6.704
 1342SOL     OW 4924   1.727   6.375   1.274
 1342SOL    HW1 4925   1.743   6.316   1.353
 1342SOL    HW2 4926   1.741   6.470   1.300
 1343SOL     OW 4927   5.180   5.579   2.931
 1343SOL    HW1 4928   5.099   5.631   2.960
 1343SOL    HW2 4929   5.154   5.515   2.859
 1344SOL     OW 4930   0.689   0.548   4.550
 1344SOL    HW1 4931   0.623   0.542   4.625
 1344SOL    HW2 4932   0.666   0.626   4.492
 1345SOL     OW 4933   1.089   6.788   6.399
 1345SOL    HW1 4934   1.143   6.861   6.357
 1345SOL    HW2 4935   1.048   6.732   6.327
 1346SOL     OW 4936   3.021   4.898   4.653
 1346SOL    HW1 4937   3.054   4.867   4.742
 1346SOL    HW2 4938   3.058   4.988   4.633
 1347SOL     OW 4939   1.906   0.429   6.612
 1347SOL    HW1 4940   1.892   0.331   6.622
 1347SOL    HW2 4941   1.982   0.447   6.550
 1348SOL     OW 4942   1.219   6.230   5.405
 1348SOL    HW1 4943   1.255   6.297   5.470
 1348SOL    HW2 4944   1.122   6.249   5.388
 1349SOL     OW 4945   5.141   3.906   4.124
 1349SOL    HW1 4946   5.236   3.898   4.096
 1349SOL    HW2 4947   5.135   3.905   4.224
 1350SOL     OW 4948   4.541   4.883   6.761
 1350SOL    HW1 4949   4.508   4.791   6.743
 1350SOL    HW2 4950   4.483   4.927   6.830
 1351SOL     OW 4951   6.871   2.617   5.995
 1351SOL    HW1 4952   6.952   2.602   6.052
 1351SOL    HW2 4953   6.855   2.537   5.937
 1352SOL     OW 4954   0.113   1.015   2.826
 1352SOL    HW1 4955   0.190   0.958   2.856
 1352SOL    HW2 4956   0.035   0.957   2.803
 1353SOL     OW 4957   6.919   1.305   0.169
 1353SOL    HW1 4958   6.883   1.219   0.206
 1353SOL    HW2 4959   6.846   1.354   0.121
 1354SOL     OW 4960   5.159   4.816   2.070
 1354SOL    HW1 4961   5.084   4.881   2.082
 1354SOL    HW2 4962   5.199   4.795   2.160
 1355SOL     OW 4963   4.379   3.547   5.277
 1355SOL    HW1 4964   4.462   3.573   5.228
 1355SOL    HW2 4965   4.401   3.477   5.345
 1356SOL     OW 4966   2.746   3.103   0.090
 1356SOL    HW1 4967   2.703   3.097   7.020
 1356SOL    HW2 4968   2.832   3.052   0.089
 1357SOL     OW 4969   1.372   2.490   5.865
 1357SOL    HW1 4970   1.439   2.420   5.844
 1357SOL    HW2 4971   1.407   2.580   5.837
 1358SOL     OW 4972   2.066   6.448   6.832
 1358SOL    HW1 4973   2.083   6.366   6.886
 1358SOL    HW2 4974   1.969   6.452   6.807
 1359SOL     OW 4975   6.217   3.991   0.838
 1359SOL    HW1 4976   6.237   4.086   0.861
 1359SOL    HW2 4977   6.300   3.936   0.849
 1360SOL     OW 4978   2.367   2.426   0.276
 1360SOL    HW1 4979   2.293   2.376   0.322
 1360SOL    HW2 4980   2.414   2.484   0.343
 1361SOL     OW 4981   6.756   4.561   4.737
 1361SOL    HW1 4982   6.682   4.570   4.804
 1361SOL    HW2 4983   6.793   4.651   4.715
 1362SOL     OW 4984   3.302   4.132   3.484
 1362SOL    HW1 4985   3.248   4.110   3.566
 1362SOL    HW2 4986   3.396   4.149   3.511
 1363SOL     OW 4987   0.835   6.623   4.348
 1363SOL    HW1 4988   0.794   6.551   4.404
 1363SOL    HW2 4989   0.786   6.709   4.363
 1364SOL     OW 4990   4.602   4.040   0.534
 1364SOL    HW1 4991   4.596   4.133   0.497
 1364SOL    HW2 4992   4.666   4.039   0.611
 1365SOL     OW 4993   6.131   2.817   6.695
 1365SOL    HW1 4994   6.129   2.727   6.651
 1365SOL    HW2 4995   6.175   2.809   6.785
 1366SOL     OW 4996   2.076   0.061   5.772
 1366SOL    HW1 4997   2.093   0.151   5.810
 1366SOL    HW2 4998   1.998   0.019   5.819
 1367SOL     OW 4999   2.858   1.812   2.086
 1367SOL    HW1 5000   2.927   1.746   2.116
 1367SOL    HW2 5001   2.890   1.905   2.108
 1368SOL     OW 5002   6.245   6.987   3.495
 1368SOL    HW1 5003   6.293   0.031   3.555
 1368SOL    HW2 5004   6.291   6.985   3.406
 1369SOL     OW 5005   1.000   0.400   2.622
 1369SOL    HW1 5006   1.007   0.475   2.688
 1369SOL    HW2 5007   1.091   0.366   2.600
 1370SOL     OW 5008   2.444   1.369   2.175
 1370SOL    HW1 5009   2.461   1.454   2.225
 1370SOL    HW2 5010   2.518   1.305   2.194
 1371SOL     OW 5011   3.808   0.572   6.468
 1371SOL    HW1 5012   3.708   0.582   6.475
 1371SOL    HW2 5013   3.850   0.661   6.451
 1372SOL     OW 5014   2.767   2.322   1.753
 1372SOL    HW1 5015   2.845   2.274   1.712
 1372SOL    HW2 5016   2.795   2.362   1.840
 1373SOL     OW 5017   1.584   5.698   6.706
 1373SOL    HW1 5018   1.598   5.772   6.772
 1373SOL    HW2 5019   1.538   5.734   6.624
 1374SOL     OW 5020   5.007   4.369   7.000
 1374SOL    HW1 5021   5.035   4.307   0.053
 1374SOL    HW2 5022   5.075   4.441   6.989
 1375SOL     OW 5023   1.140   4.584   4.833
 1375SOL    HW1 5024   1.063   4.522   4.821
 1375SOL    HW2 5025   1.199   4.580   4.753
 1376SOL     OW 5026   5.198   0.645   2.553
 1376SOL    HW1 5027   5.104   0.645   2.588
 1376SOL    HW2 5028   5.256   0.701   2.612
 1377SOL     OW 5029   0.876   4.703   4.481
 1377SOL    HW1 5030   0.856   4.799   4.462
 1377SOL    HW2 5031   0.863   4.649   4.399
 1378SOL     OW 5032   1.989   2.634   0.151
 1378SOL    HW1 5033   1.959   2.730   0.143
 1378SOL    HW2 5034   1.926   2.576   0.099
 1379SOL     OW 5035   3.725   6.311   1.350
 1379SOL    HW1 5036   3.670   6.296   1.432
 1379SOL    HW2 5037   3.716   6.232   1.289
 1380SOL     OW 5038   5.816   5.007   2.559
 1380SOL    HW1 5039   5.869   4.924   2.539
 1380SOL    HW2 5040   5.845   5.045   2.647
 1381SOL     OW 5041   5.864   6.670   2.296
 1381SOL    HW1 5042   5.778   6.646   2.250
 1381SOL    HW2 5043   5.933   6.600   2.276
 1382SOL     OW 5044   0.295   4.261   6.368
 1382SOL    HW1 5045   0.392   4.265   6.390
 1382SOL    HW2 5046   0.262   4.352   6.342
 1383SOL     OW 5047   2.301   0.206   0.398
 1383SOL    HW1 5048   2.396   0.238   0.393
 1383SOL    HW2 5049   2.277   0.160   0.312
 1384SOL     OW 5050   1.083   1.766   2.179
 1384SOL    HW1 5051   1.024   1.730   2.251
 1384SOL    HW2 5052   1.118   1.690   2.124
 1385SOL     OW 5053   5.119   3.328   4.073
 1385SOL    HW1 5054   5.027   3.291   4.056
 1385SOL    HW2 5055   5.178   3.306   3.995
 1386SOL     OW 5056   2.457   2.616   3.703
 1386SOL    HW1 5057   2.484   2.563   3.622
 1386SOL    HW2 5058   2.439   2.554   3.779
 1387SOL     OW 5059   3.299   0.439   4.110
 1387SOL    HW1 5060   3.398   0.457   4.113
 1387SOL    HW2 5061   3.271   0.396   4.195
 1388SOL     OW 5062   5.378   1.390   3.989
 1388SOL    HW1 5063   5.340   1.459   3.927
 1388SOL    HW2 5064   5.428   1.435   4.063
 1389SOL     OW 5065   6.685   0.266   3.680
 1389SOL    HW1 5066   6.729   0.217   3.604
 1389SOL    HW2 5067   6.689   0.209   3.762
 1390SOL     OW 5068   4.592   2.348   2.981
 1390SOL    HW1 5069   4.655   2.295   3.038
 1390SOL    HW2 5070   4.576   2.299   2.895
 1391SOL     OW 5071   5.495   0.776   4.670
 1391SOL    HW1 5072   5.556   0.827   4.610
 1391SOL    HW2 5073   5.467   0.691   4.625
 1392SOL     OW 5074   3.997   6.735   5.677
 1392SOL    HW1 5075   3.962   6.657   5.729
 1392SOL    HW2 5076   3.930   6.809   5.679
 1393SOL     OW 5077   4.816   0.136   6.981
 1393SOL    HW1 5078   4.805   0.203   6.908
 1393SOL    HW2 5079   4.908   0.095   6.974
 1394SOL     OW 5080   4.208   0.301   4.291
 1394SOL    HW1 5081   4.112   0.301   4.318
 1394SOL    HW2 5082   4.223   0.232   4.220
 1395SOL     OW 5083   0.211   5.019   2.359
 1395SOL    HW1 5084   0.156   4.989   2.281
 1395SOL    HW2 5085   0.240   4.940   2.412
 1396SOL     OW 5086   1.102   2.230   3.682
 1396SOL    HW1 5087   1.075   2.236   3.778
 1396SOL    HW2 5088   1.102   2.321   3.641
 1397SOL     OW 5089   1.982   5.030   4.685
 1397SOL    HW1 5090   2.029   5.032   4.773
 1397SOL    HW2 5091   1.897   4.978   4.693
 1398SOL     OW 5092   2.822   6.979   6.611
 1398SOL    HW1 5093   2.779   6.907   6.557
 1398SOL    HW2 5094   2.773   6.990   6.697
 1399SOL     OW 5095   3.726   6.951   6.771
 1399SOL    HW1 5096   3.751   0.001   6.837
 1399SOL    HW2 5097   3.808   6.917   6.726
 1400SOL     OW 5098   0.637   0.829   5.667
 1400SOL    HW1 5099   0.576   0.888   5.720
 1400SOL    HW2 5100   0.712   0.884   5.629
 1401SOL     OW 5101   5.854   6.889   2.149
 1401SOL    HW1 5102   5.870   6.824   2.224
 1401SOL    HW2 5103   5.913   6.864   2.072
 1402SOL     OW 5104   5.798   4.860   2.147
 1402SOL    HW1 5105   5.783   4.764   2.127
 1402SOL    HW2 5106   5.719   4.897   2.196
 1403SOL     OW 5107   2.918   3.961   6.519
 1403SOL    HW1 5108   2.944   4.057   6.513
 1403SOL    HW2 5109   2.991   3.910   6.565
 1404SOL     OW 5110   3.858   6.315   0.903
 1404SOL    HW1 5111   3.944   6.279   0.868
 1404SOL    HW2 5112   3.781   6.268   0.858
 1405SOL     OW 5113   0.832   3.655   6.879
 1405SOL    HW1 5114   0.806   3.712   6.956
 1405SOL    HW2 5115   0.922   3.614   6.897
 1406SOL     OW 5116   2.181   2.358   6.800
 1406SOL    HW1 5117   2.234   2.373   6.883
 1406SOL    HW2 5118   2.243   2.345   6.722
 1407SOL     OW 5119   0.286   2.340   1.328
 1407SOL    HW1 5120   0.312   2.263   1.271
 1407SOL    HW2 5121   0.188   2.337   1.346
 1408SOL     OW 5122   5.583   6.378   0.444
 1408SOL    HW1 5123   5.575   6.291   0.492
 1408SOL    HW2 5124   5.673   6.418   0.462
 1409SOL     OW 5125   6.229   1.458   5.579
 1409SOL    HW1 5126   6.132   1.469   5.603
 1409SOL    HW2 5127   6.237   1.400   5.498
 1410SOL     OW 5128   2.834   0.729   0.328
 1410SOL    HW1 5129   2.928   0.706   0.303
 1410SOL    HW2 5130   2.812   0.686   0.416
 1411SOL     OW 5131   3.717   5.778   6.798
 1411SOL    HW1 5132   3.619   5.785   6.783
 1411SOL    HW2 5133   3.740   5.812   6.889
 1412SOL     OW 5134   2.453   2.076   0.545
 1412SOL    HW1 5135   2.390   2.104   0.617
 1412SOL    HW2 5136   2.445   1.978   0.530
 1413SOL     OW 5137   2.325   1.642   5.374
 1413SOL    HW1 5138   2.256   1.575   5.346
 1413SOL    HW2 5139   2.303   1.675   5.467
 1414SOL     OW 5140   0.117   5.077   1.951
 1414SOL    HW1 5141   0.180   5.141   1.995
 1414SOL    HW2 5142   0.023   5.112   1.960
 1415SOL     OW 5143   3.689   1.814   4.798
 1415SOL    HW1 5144   3.685   1.910   4.826
 1415SOL    HW2 5145   3.597   1.779   4.785
 1416SOL     OW 5146   4.842   0.324   4.620
 1416SOL    HW1 5147   4.821   0.411   4.576
 1416SOL    HW2 5148   4.922   0.336   4.680
 1417SOL     OW 5149   3.580   3.586   4.421
 1417SOL    HW1 5150   3.655   3.521   4.416
 1417SOL    HW2 5151   3.541   3.585   4.513
 1418SOL     OW 5152   2.892   3.782   4.740
 1418SOL    HW1 5153   2.807   3.834   4.736
 1418SOL    HW2 5154   2.938   3.785   4.651
 1419SOL     OW 5155   0.977   6.060   1.886
 1419SOL    HW1 5156   0.894   6.085   1.837
 1419SOL    HW2 5157   0.985   6.118   1.968
 1420SOL     OW 5158   2.978   6.298   3.218
 1420SOL    HW1 5159   2.971   6.364   3.143
 1420SOL    HW2 5160   2.994   6.207   3.181
 1421SOL     OW 5161   1.769   5.399   0.717
 1421SOL    HW1 5162   1.831   5.473   0.691
 1421SOL    HW2 5163   1.823   5.317   0.740
 1422SOL     OW 5164   1.738   3.916   6.917
 1422SOL    HW1 5165   1.793   3.876   6.843
 1422SOL    HW2 5166   1.799   3.951   6.988
 1423SOL     OW 5167   4.805   0.990   4.609
 1423SOL    HW1 5168   4.779   0.894   4.616
 1423SOL    HW2 5169   4.789   1.035   4.697
 1424SOL     OW 5170   6.675   2.470   1.739
 1424SOL    HW1 5171   6.692   2.413   1.659
 1424SOL    HW2 5172   6.585   2.448   1.778
 1425SOL     OW 5173   5.648   6.613   3.189
 1425SOL    HW1 5174   5.697   6.666   3.120
 1425SOL    HW2 5175   5.550   6.627   3.178
 1426SOL     OW 5176   4.015   0.985   0.805
 1426SOL    HW1 5177   4.083   0.994   0.878
 1426SOL    HW2 5178   3.980   0.891   0.804
 1427SOL     OW 5179   0.998   0.363   4.174
 1427SOL    HW1 5180   0.951   0.388   4.258
 1427SOL    HW2 5181   0.947   0.398   4.095
 1428SOL     OW 5182   2.196   3.966   3.769
 1428SOL    HW1 5183   2.224   3.966   3.673
 1428SOL    HW2 5184   2.131   3.891   3.784
 1429SOL     OW 5185   6.199   0.047   2.084
 1429SOL    HW1 5186   6.206   0.115   2.157
 1429SOL    HW2 5187   6.277   0.058   2.022
 1430SOL     OW 5188   2.207   4.201   4.532
 1430SOL    HW1 5189   2.261   4.284   4.537
 1430SOL    HW2 5190   2.214   4.150   4.618
 1431SOL     OW 5191   3.345   2.026   0.608
 1431SOL    HW1 5192   3.290   1.946   0.587
 1431SOL    HW2 5193   3.368   2.028   0.705
 1432SOL     OW 5194   4.483   6.990   2.781
 1432SOL    HW1 5195   4.469   0.050   2.839
 1432SOL    HW2 5196   4.394   6.957   2.748
 1433SOL     OW 5197   2.979   2.128   3.868
 1433SOL    HW1 5198   3.009   2.167   3.955
 1433SOL    HW2 5199   3.059   2.100   3.814
 1434SOL     OW 5200   5.351   3.532   0.751
 1434SOL    HW1 5201   5.382   3.497   0.840
 1434SOL    HW2 5202   5.257   3.566   0.761
 1435SOL     OW 5203   0.601   6.354   4.199
 1435SOL    HW1 5204   0.508   6.390   4.211
 1435SOL    HW2 5205   0.618   6.283   4.268
 1436SOL     OW 5206   4.938   0.977   0.150
 1436SOL    HW1 5207   5.019   0.929   0.117
 1436SOL    HW2 5208   4.865   0.912   0.166
 1437SOL     OW 5209   4.446   1.327   0.858
 1437SOL    HW1 5210   4.545   1.313   0.849
 1437SOL    HW2 5211   4.400   1.297   0.775
 1438SOL     OW 5212   2.299   0.290   2.594
 1438SOL    HW1 5213   2.209   0.333   2.584
 1438SOL    HW2 5214   2.316   0.272   2.691
 1439SOL     OW 5215   0.849   5.375   5.180
 1439SOL    HW1 5216   0.849   5.325   5.267
 1439SOL    HW2 5217   0.762   5.361   5.133
 1440SOL     OW 5218   3.492   3.396   2.247
 1440SOL    HW1 5219   3.452   3.349   2.168
 1440SOL    HW2 5220   3.450   3.486   2.257
 1441SOL     OW 5221   0.172   2.052   5.967
 1441SOL    HW1 5222   0.124   2.048   6.055
 1441SOL    HW2 5223   0.183   1.959   5.932
 1442SOL     OW 5224   5.208   6.111   0.170
 1442SOL    HW1 5225   5.113   6.128   0.194
 1442SOL    HW2 5226   5.226   6.147   0.078
 1443SOL     OW 5227   1.680   2.829   3.513
 1443SOL    HW1 5228   1.716   2.899   3.451
 1443SOL    HW2 5229   1.735   2.746   3.504
 1444SOL     OW 5230   5.172   6.607   4.823
 1444SOL    HW1 5231   5.110   6.529   4.834
 1444SOL    HW2 5232   5.138   6.684   4.876
 1445SOL     OW 5233   7.001   2.382   0.026
 1445SOL    HW1 5234   6.912   2.416   0.058
 1445SOL    HW2 5235   7.003   2.282   0.035
 1446SOL     OW 5236   3.875   6.062   2.120
 1446SOL    HW1 5237   3.790   6.051   2.170
 1446SOL    HW2 5238   3.861   6.124   2.043
 1447SOL     OW 5239   6.916   0.505   4.410
 1447SOL    HW1 5240   6.953   0.540   4.496
 1447SOL    HW2 5241   6.888   0.582   4.353
 1448SOL     OW 5242   5.183   0.801   0.092
 1448SOL    HW1 5243   5.240   0.721   0.106
 1448SOL    HW2 5244   5.182   0.825   7.016
 1449SOL     OW 5245   4.613   5.600   0.339
 1449SOL    HW1 5246   4.689   5.601   0.275
 1449SOL    HW2 5247   4.553   5.522   0.319
 1450SOL     OW 5248   5.749   1.541   3.863
 1450SOL    HW1 5249   5.669   1.601   3.864
 1450SOL    HW2 5250   5.744   1.480   3.785
 1451SOL     OW 5251   1.167   6.830   1.516
 1451SOL    HW1 5252   1.102   6.755   1.499
 1451SOL    HW2 5253   1.172   6.847   1.615
 1452SOL     OW 5254   2.724   0.150   6.146
 1452SOL    HW1 5255   2.690   0.170   6.054
 1452SOL    HW2 5256   2.708   0.229   6.205
 1453SOL     OW 5257   5.217   4.174   4.344
 1453SOL    HW1 5258   5.258   4.085   4.365
 1453SOL    HW2 5259   5.145   4.194   4.411
 1454SOL     OW 5260   5.550   3.694   1.102
 1454SOL    HW1 5261   5.553   3.692   1.202
 1454SOL    HW2 5262   5.454   3.699   1.072
 1455SOL     OW 5263   1.670   1.951   1.533
 1455SOL    HW1 5264   1.659   2.050   1.524
 1455SOL    HW2 5265   1.593   1.905   1.488
 1456SOL     OW 5266   6.111   5.499   5.274
 1456SOL    HW1 5267   6.048   5.577   5.281
 1456SOL    HW2 5268   6.175   5.514   5.199
 1457SOL     OW 5269   1.701   0.549   4.327
 1457SOL    HW1 5270   1.716   0.505   4.416
 1457SOL    HW2 5271   1.605   0.579   4.321
 1458SOL     OW 5272   0.401   5.231   6.673
 1458SOL    HW1 5273   0.435   5.180   6.752
 1458SOL    HW2 5274   0.301   5.240   6.680
 1459SOL     OW 5275   2.510   0.146   1.275
 1459SOL    HW1 5276   2.553   0.089   1.205
 1459SOL    HW2 5277   2.581   0.182   1.336
 1460SOL     OW 5278   0.273   0.070   6.997
 1460SOL    HW1 5279   0.223   0.157   6.996
 1460SOL    HW2 5280   0.342   0.070   6.924
 1461SOL     OW 5281   4.640   5.381   2.079
 1461SOL    HW1 5282   4.689   5.326   2.012
 1461SOL    HW2 5283   4.543   5.356   2.079
 1462SOL     OW 5284   5.120   0.033   4.961
 1462SOL    HW1 5285   5.189   0.073   5.021
 1462SOL    HW2 5286   5.126   0.073   4.870
 1463SOL     OW 5287   0.609   2.414   5.513
 1463SOL    HW1 5288   0.625   2.420   5.612
 1463SOL    HW2 5289   0.560   2.329   5.492
 1464SOL     OW 5290   0.618   0.837   1.432
 1464SOL    HW1 5291   0.576   0.904   1.370
 1464SOL    HW2 5292   0.584   0.852   1.525
 1465SOL     OW 5293   1.464   1.318   3.362
 1465SOL    HW1 5294   1.495   1.351   3.452
 1465SOL    HW2 5295   1.458   1.218   3.363
 1466SOL     OW 5296   5.737   5.436   4.546
 1466SOL    HW1 5297   5.779   5.370   4.484
 1466SOL    HW2 5298   5.789   5.521   4.544
 1467SOL     OW 5299   6.674   3.864   3.889
 1467SOL    HW1 5300   6.691   3.860   3.987
 1467SOL    HW2 5301   6.581   3.834   3.870
 1468SOL     OW 5302   4.824   0.538   2.450
 1468SOL    HW1 5303   4.783   0.447   2.463
 1468SOL    HW2 5304   4.752   0.605   2.431
 1469SOL     OW 5305   0.814   0.497   2.083
 1469SOL    HW1 5306   0.873   0.505   2.163
 1469SOL    HW2 5307   0.722   0.526   2.106
 1470SOL     OW 5308   0.457   0.031   2.450
 1470SOL    HW1 5309   0.521   0.070   2.515
 1470SOL    HW2 5310   0.405   6.978   2.493
 1471SOL     OW 5311   6.010   0.962   1.305
 1471SOL    HW1 5312   6.030   1.044   1.251
 1471SOL    HW2 5313   5.925   0.920   1.272
 1472SOL     OW 5314   4.887   5.232   4.664
 1472SOL    HW1 5315   4.946   5.161   4.701
 1472SOL    HW2 5316   4.883   5.309   4.728
 1473SOL     OW 5317   6.394   3.616   3.553
 1473SOL    HW1 5318   6.409   3.671   3.635
 1473SOL    HW2 5319   6.466   3.547   3.545
 1474SOL     OW 5320   4.545   5.332   2.976
 1474SOL    HW1 5321   4.603   5.389   3.035
 1474SOL    HW2 5322   4.587   5.324   2.886
 1475SOL     OW 5323   6.231   6.510   3.285
 1475SOL    HW1 5324   6.250   6.480   3.192
 1475SOL    HW2 5325   6.205   6.607   3.285
 1476SOL     OW 5326   0.843   2.517   1.596
 1476SOL    HW1 5327   0.930   2.492   1.639
 1476SOL    HW2 5328   0.793   2.578   1.656
 1477SOL     OW 5329   2.696   6.554   4.456
 1477SOL    HW1 5330   2.716   6.476   4.397
 1477SOL    HW2 5331   2.602   6.584   4.440
 1478SOL     OW 5332   6.797   3.204   1.281
 1478SOL    HW1 5333   6.776   3.291   1.325
 1478SOL    HW2 5334   6.853   3.148   1.342
 1479SOL     OW 5335   1.128   5.451   0.296
 1479SOL    HW1 5336   1.112   5.377   0.361
 1479SOL    HW2 5337   1.040   5.481   0.257
 1480SOL     OW 5338   2.625   0.812   6.877
 1480SOL    HW1 5339   2.555   0.849   6.939
 1480SOL    HW2 5340   2.712   0.857   6.894
 1481SOL     OW 5341   0.315   3.528   0.054
 1481SOL    HW1 5342   0.321   3.464   0.130
 1481SOL    HW2 5343   0.223   3.525   0.014
 1482SOL     OW 5344   5.787   0.378   6.283
 1482SOL    HW1 5345   5.885   0.367   6.299
 1482SOL    HW2 5346   5.740   0.293   6.308
 1483SOL     OW 5347   6.292   1.723   6.419
 1483SOL    HW1 5348   6.295   1.817   6.383
 1483SOL    HW2 5349   6.313   1.659   6.346
 1484SOL     OW 5350   6.174   6.729   2.653
 1484SOL    HW1 5351   6.182   6.662   2.580
 1484SOL    HW2 5352   6.112   6.803   2.625
 1485SOL     OW 5353   5.167   3.530   4.275
 1485SOL    HW1 5354   5.166   3.479   4.188
 1485SOL    HW2 5355   5.073   3.548   4.304
 1486SOL     OW 5356   5.272   2.475   2.231
 1486SOL    HW1 5357   5.236   2.408   2.296
 1486SOL    HW2 5358   5.196   2.517   2.181
 1487SOL     OW 5359   7.007   0.215   5.796
 1487SOL    HW1 5360   0.077   0.217   5.756
 1487SOL    HW2 5361   6.981   0.307   5.827
 1488SOL     OW 5362   5.224   2.061   4.560
 1488SOL    HW1 5363   5.298   2.060   4.627
 1488SOL    HW2 5364   5.143   2.105   4.600
 1489SOL     OW 5365   3.461   4.992   4.554
 1489SOL    HW1 5366   3.558   4.971   4.559
 1489SOL    HW2 5367   3.427   4.971   4.462
 1490SOL     OW 5368   2.521   2.145   1.358
 1490SOL    HW1 5369   2.593   2.113   1.420
 1490SOL    HW2 5370   2.561   2.165   1.268
 1491SOL     OW 5371   0.163   2.286   4.912
 1491SOL    HW1 5372   0.118   2.226   4.978
 1491SOL    HW2 5373   0.128   2.267   4.820
 1492SOL     OW 5374   6.988   2.205   1.665
 1492SOL    HW1 5375   0.014   2.216   1.753
 1492SOL    HW2 5376   0.013   2.133   1.613
 1493SOL     OW 5377   6.094   1.892   5.396
 1493SOL    HW1 5378   6.124   1.878   5.490
 1493SOL    HW2 5379   5.994   1.899   5.394
 1494SOL     OW 5380   5.306   1.501   4.263
 1494SOL    HW1 5381   5.360   1.419   4.246
 1494SOL    HW2 5382   5.361   1.582   4.244
 1495SOL     OW 5383   1.295   3.744   2.185
 1495SOL    HW1 5384   1.323   3.660   2.232
 1495SOL    HW2 5385   1.195   3.743   2.174
 1496SOL     OW 5386   1.140   0.548   2.074
 1496SOL    HW1 5387   1.076   0.561   2.149
 1496SOL    HW2 5388   1.091   0.556   1.987
 1497SOL     OW 5389   5.597   5.367   6.087
 1497SOL    HW1 5390   5.651   5.443   6.124
 1497SOL    HW2 5391   5.535   5.332   6.158
 1498SOL     OW 5392   2.636   5.506   0.543
 1498SOL    HW1 5393   2.693   5.456   0.478
 1498SOL    HW2 5394   2.573   5.566   0.494
 1499SOL     OW 5395   0.850   4.260   4.638
 1499SOL    HW1 5396   0.930   4.225   4.686
 1499SOL    HW2 5397   0.873   4.275   4.542
 1500SOL     OW 5398   3.394   6.652   5.670
 1500SOL    HW1 5399   3.360   6.610   5.586
 1500SOL    HW2 5400   3.494   6.652   5.670
 1501SOL     OW 5401   3.491   0.481   0.827
 1501SOL    HW1 5402   3.534   0.493   0.738
 1501SOL    HW2 5403   3.462   0.386   0.838
 1502SOL     OW 5404   0.804   6.838   5.605
 1502SOL    HW1 5405   0.827   6.810   5.699
 1502SOL    HW2 5406   0.800   6.757   5.547
 1503SOL     OW 5407   3.208   3.793   4.878
 1503SOL    HW1 5408   3.210   3.892   4.863
 1503SOL    HW2 5409   3.116   3.758   4.860
 1504SOL     OW 5410   2.973   6.798   3.878
 1504SOL    HW1 5411   3.003   6.720   3.932
 1504SOL    HW2 5412   3.029   6.804   3.795
 1505SOL     OW 5413   5.070   6.918   2.559
 1505SOL    HW1 5414   5.053   6.890   2.465
 1505SOL    HW2 5415   4.983   6.924   2.608
 1506SOL     OW 5416   1.183   6.245   3.938
 1506SOL    HW1 5417   1.213   6.249   3.843
 1506SOL    HW2 5418   1.139   6.331   3.963
 1507SOL     OW 5419   1.834   2.287   6.861
 1507SOL    HW1 5420   1.782   2.202   6.853
 1507SOL    HW2 5421   1.867   2.315   6.771
 1508SOL     OW 5422   4.609   6.901   1.193
 1508SOL    HW1 5423   4.525   6.849   1.209
 1508SOL    HW2 5424   4.660   6.908   1.278
 1509SOL     OW 5425   5.660   1.576   6.318
 1509SOL    HW1 5426   5.716   1.592   6.237
 1509SOL    HW2 5427   5.686   1.489   6.359
 1510SOL     OW 5428   6.539   1.333   2.713
 1510SOL    HW1 5429   6.526   1.427   2.682
 1510SOL    HW2 5430   6.452   1.297   2.748
 1511SOL     OW 5431   1.154   3.062   6.916
 1511SOL    HW1 5432   1.254   3.059   6.917
 1511SOL    HW2 5433   1.124   3.150   6.880
 1512SOL     OW 5434   6.948   1.478   1.777
 1512SOL    HW1 5435   6.992   1.555   1.731
 1512SOL    HW2 5436   7.019   1.415   1.811
 1513SOL     OW 5437   2.629   0.894   2.787
 1513SOL    HW1 5438   2.603   0.838   2.708
 1513SOL    HW2 5439   2.651   0.987   2.756
 1514SOL     OW 5440   4.597   0.533   5.959
 1514SOL    HW1 5441   4.631   0.626   5.976
 1514SOL    HW2 5442   4.667   0.467   5.985
 1515SOL     OW 5443   5.227   5.264   5.668
 1515SOL    HW1 5444   5.233   5.292   5.572
 1515SOL    HW2 5445   5.288   5.321   5.723
 1516SOL     OW 5446   0.263   1.542   0.817
 1516SOL    HW1 5447   0.355   1.578   0.800
 1516SOL    HW2 5448   0.196   1.598   0.768
 1517SOL     OW 5449   3.296   5.763   2.534
 1517SOL    HW1 5450   3.288   5.675   2.582
 1517SOL    HW2 5451   3.349   5.750   2.450
 1518SOL     OW 5452   0.379   4.693   0.646
 1518SOL    HW1 5453   0.475   4.673   0.667
 1518SOL    HW2 5454   0.374   4.764   0.576
 1519SOL     OW 5455   0.515   4.125   0.896
 1519SOL    HW1 5456   0.607   4.124   0.935
 1519SOL    HW2 5457   0.511   4.193   0.823
 1520SOL     OW 5458   1.228   3.360   2.847
 1520SOL    HW1 5459   1.156   3.420   2.882
 1520SOL    HW2 5460   1.212   3.267   2.880
 1521SOL     OW 5461   2.470   4.659   5.196
 1521SOL    HW1 5462   2.459   4.560   5.192
 1521SOL    HW2 5463   2.552   4.681   5.248
 1522SOL     OW 5464   1.472   1.483   6.420
 1522SOL    HW1 5465   1.558   1.534   6.411
 1522SOL    HW2 5466   1.414   1.527   6.488
 1523SOL     OW 5467   5.885   1.726   1.407
 1523SOL    HW1 5468   5.844   1.721   1.316
 1523SOL    HW2 5469   5.964   1.787   1.406
 1524SOL     OW 5470   0.217   1.284   1.327
 1524SOL    HW1 5471   0.168   1.197   1.332
 1524SOL    HW2 5472   0.230   1.309   1.231
 1525SOL     OW 5473   4.760   1.450   5.955
 1525SOL    HW1 5474   4.740   1.545   5.979
 1525SOL    HW2 5475   4.675   1.403   5.933
 1526SOL     OW 5476   5.816   1.429   0.515
 1526SOL    HW1 5477   5.865   1.421   0.428
 1526SOL    HW2 5478   5.829   1.521   0.552
 1527SOL     OW 5479   3.097   1.035   5.793
 1527SOL    HW1 5480   3.107   0.967   5.720
 1527SOL    HW2 5481   3.094   0.988   5.881
 1528SOL     OW 5482   5.428   5.642   3.767
 1528SOL    HW1 5483   5.374   5.687   3.696
 1528SOL    HW2 5484   5.524   5.639   3.739
 1529SOL     OW 5485   1.730   6.948   5.391
 1529SOL    HW1 5486   1.635   6.937   5.363
 1529SOL    HW2 5487   1.744   0.020   5.426
 1530SOL     OW 5488   2.410   6.624   1.372
 1530SOL    HW1 5489   2.395   6.722   1.388
 1530SOL    HW2 5490   2.438   6.611   1.277
 1531SOL     OW 5491   5.569   0.730   6.586
 1531SOL    HW1 5492   5.580   0.632   6.573
 1531SOL    HW2 5493   5.580   0.752   6.683
 1532SOL     OW 5494   3.033   1.774   5.462
 1532SOL    HW1 5495   2.995   1.789   5.553
 1532SOL    HW2 5496   3.076   1.859   5.430
 1533SOL     OW 5497   4.549   3.169   6.783
 1533SOL    HW1 5498   4.648   3.184   6.782
 1533SOL    HW2 5499   4.507   3.236   6.845
 1534SOL     OW 5500   6.595   0.355   0.892
 1534SOL    HW1 5501   6.557   0.434   0.940
 1534SOL    HW2 5502   6.525   0.316   0.832
 1535SOL     OW 5503   4.988   4.426   4.860
 1535SOL    HW1 5504   5.000   4.476   4.774
 1535SOL    HW2 5505   4.909   4.365   4.851
 1536SOL     OW 5506   3.195   6.638   3.121
 1536SOL    HW1 5507   3.134   6.699   3.071
 1536SOL    HW2 5508   3.289   6.656   3.095
 1537SOL     OW 5509   2.855   5.696   4.581
 1537SOL    HW1 5510   2.842   5.747   4.667
 1537SOL    HW2 5511   2.769   5.654   4.554
 1538SOL     OW 5512   3.284   5.894   6.824
 1538SOL    HW1 5513   3.198   5.891   6.774
 1538SOL    HW2 5514   3.296   5.984   6.866
 1539SOL     OW 5515   2.556   6.568   1.930
 1539SOL    HW1 5516   2.492   6.493   1.944
 1539SOL    HW2 5517   2.508   6.655   1.941
 1540SOL     OW 5518   5.904   6.751   5.087
 1540SOL    HW1 5519   5.939   6.834   5.043
 1540SOL    HW2 5520   5.869   6.774   5.178
 1541SOL     OW 5521   5.176   1.370   1.584
 1541SOL    HW1 5522   5.144   1.345   1.493
 1541SOL    HW2 5523   5.135   1.309   1.652
 1542SOL     OW 5524   6.936   6.455   1.188
 1542SOL    HW1 5525   6.974   6.369   1.224
 1542SOL    HW2 5526   6.922   6.519   1.264
 1543SOL     OW 5527   3.489   3.446   3.323
 1543SOL    HW1 5528   3.414   3.421   3.261
 1543SOL    HW2 5529   3.570   3.468   3.270
 1544SOL     OW 5530   3.553   3.854   2.285
 1544SOL    HW1 5531   3.536   3.888   2.377
 1544SOL    HW2 5532   3.600   3.925   2.231
 1545SOL     OW 5533   0.026   7.014   4.810
 1545SOL    HW1 5534   0.117   6.973   4.810
 1545SOL    HW2 5535   0.021   0.064   4.739
 1546SOL     OW 5536   6.780   6.475   6.504
 1546SOL    HW1 5537   6.817   6.437   6.588
 1546SOL    HW2 5538   6.842   6.547   6.470
 1547SOL     OW 5539   3.457   5.756   0.299
 1547SOL    HW1 5540   3.440   5.661   0.326
 1547SOL    HW2 5541   3.555   5.776   0.309
 1548SOL     OW 5542   6.716   3.923   3.231
 1548SOL    HW1 5543   6.748   3.946   3.322
 1548SOL    HW2 5544   6.795   3.915   3.169
 1549SOL     OW 5545   6.776   2.368   0.816
 1549SOL    HW1 5546   6.831   2.388   0.897
 1549SOL    HW2 5547   6.680   2.355   0.843
 1550SOL     OW 5548   2.864   5.144   2.344
 1550SOL    HW1 5549   2.898   5.182   2.257
 1550SOL    HW2 5550   2.900   5.198   2.420
 1551SOL     OW 5551   0.389   2.465   1.602
 1551SOL    HW1 5552   0.306   2.446   1.549
 1551SOL    HW2 5553   0.453   2.389   1.590
 1552SOL     OW 5554   1.334   6.730   2.176
 1552SOL    HW1 5555   1.416   6.672   2.182
 1552SOL    HW2 5556   1.335   6.796   2.251
 1553SOL     OW 5557   5.889   1.079   5.839
 1553SOL    HW1 5558   5.954   1.012   5.876
 1553SOL    HW2 5559   5.798   1.060   5.875
 1554SOL     OW 5560   2.651   2.971   0.616
 1554SOL    HW1 5561   2.746   2.958   0.644
 1554SOL    HW2 5562   2.645   2.971   0.516
 1555SOL     OW 5563   3.995   1.260   0.554
 1555SOL    HW1 5564   3.947   1.341   0.518
 1555SOL    HW2 5565   3.985   1.258   0.654
 1556SOL     OW 5566   3.132   2.324   0.385
 1556SOL    HW1 5567   3.197   2.261   0.341
 1556SOL    HW2 5568   3.115   2.293   0.478
 1557SOL     OW 5569   1.743   3.054   0.343
 1557SOL    HW1 5570   1.836   3.046   0.379
 1557SOL    HW2 5571   1.687   3.104   0.408
 1558SOL     OW 5572   5.003   2.607   6.603
 1558SOL    HW1 5573   4.943   2.527   6.598
 1558SOL    HW2 5574   5.024   2.638   6.510
 1559SOL     OW 5575   2.849   6.398   3.437
 1559SOL    HW1 5576   2.896   6.474   3.482
 1559SOL    HW2 5577   2.896   6.375   3.352
 1560SOL     OW 5578   4.626   3.159   1.351
 1560SOL    HW1 5579   4.601   3.063   1.360
 1560SOL    HW2 5580   4.556   3.207   1.298
 1561SOL     OW 5581   5.308   6.229   0.481
 1561SOL    HW1 5582   5.322   6.131   0.491
 1561SOL    HW2 5583   5.393   6.272   0.450
 1562SOL     OW 5584   2.374   0.319   2.293
 1562SOL    HW1 5585   2.330   0.384   2.231
 1562SOL    HW2 5586   2.376   0.357   2.386
 1563SOL     OW 5587   2.037   3.449   3.833
 1563SOL    HW1 5588   2.059   3.353   3.846
 1563SOL    HW2 5589   1.956   3.472   3.888
 1564SOL     OW 5590   0.884   2.105   2.684
 1564SOL    HW1 5591   0.956   2.170   2.704
 1564SOL    HW2 5592   0.810   2.151   2.635
 1565SOL     OW 5593   4.930   1.763   4.941
 1565SOL    HW1 5594   5.000   1.694   4.921
 1565SOL    HW2 5595   4.840   1.726   4.921
 1566SOL     OW 5596   0.563   3.771   3.717
 1566SOL    HW1 5597   0.525   3.859   3.745
 1566SOL    HW2 5598   0.516   3.739   3.635
 1567SOL     OW 5599   5.309   0.186   5.086
 1567SOL    HW1 5600   5.349   0.192   5.178
 1567SOL    HW2 5601   5.329   0.270   5.036
 1568SOL     OW 5602   2.180   4.519   0.751
 1568SOL    HW1 5603   2.090   4.503   0.792
 1568SOL    HW2 5604   2.248   4.464   0.799
 1569SOL     OW 5605   1.983   1.209   2.484
 1569SOL    HW1 5606   1.888   1.235   2.502
 1569SOL    HW2 5607   2.034   1.288   2.451
 1570SOL     OW 5608   2.741   5.744   6.682
 1570SOL    HW1 5609   2.660   5.707   6.727
 1570SOL    HW2 5610   2.781   5.816   6.739
 1571SOL     OW 5611   6.784   2.292   4.323
 1571SOL    HW1 5612   6.792   2.347   4.241
 1571SOL    HW2 5613   6.729   2.340   4.391
 1572SOL     OW 5614   2.245   6.135   3.003
 1572SOL    HW1 5615   2.287   6.224   2.989
 1572SOL    HW2 5616   2.244   6.114   3.101
 1573SOL     OW 5617   5.477   5.517   0.333
 1573SOL    HW1 5618   5.404   5.531   0.266
 1573SOL    HW2 5619   5.538   5.444   0.301
 1574SOL     OW 5620   0.615   4.528   3.249
 1574SOL    HW1 5621   0.610   4.445   3.193
 1574SOL    HW2 5622   0.549   4.521   3.324
 1575SOL     OW 5623   6.978   2.372   0.348
 1575SOL    HW1 5624   0.048   2.361   0.306
 1575SOL    HW2 5625   6.981   2.338   0.442
 1576SOL     OW 5626   1.499   6.249   1.971
 1576SOL    HW1 5627   1.405   6.236   2.005
 1576SOL    HW2 5628   1.561   6.189   2.021
 1577SOL     OW 5629   4.543   5.873   4.145
 1577SOL    HW1 5630   4.607   5.830   4.081
 1577SOL    HW2 5631   4.508   5.804   4.208
 1578SOL     OW 5632   5.703   1.885   1.720
 1578SOL    HW1 5633   5.701   1.789   1.747
 1578SOL    HW2 5634   5.615   1.909   1.678
 1579SOL     OW 5635   1.720   3.004   2.082
 1579SOL    HW1 5636   1.715   3.096   2.044
 1579SOL    HW2 5637   1.675   3.002   2.171
 1580SOL     OW 5638   3.401   4.184   3.138
 1580SOL    HW1 5639   3.391   4.237   3.222
 1580SOL    HW2 5640   3.319   4.196   3.081
 1581SOL     OW 5641   5.554   4.332   5.240
 1581SOL    HW1 5642   5.542   4.326   5.339
 1581SOL    HW2 5643   5.465   4.330   5.195
 1582SOL     OW 5644   4.242   6.127   4.773
 1582SOL    HW1 5645   4.290   6.115   4.687
 1582SOL    HW2 5646   4.177   6.052   4.785
 1583SOL     OW 5647   1.228   4.847   5.399
 1583SOL    HW1 5648   1.307   4.835   5.339
 1583SOL    HW2 5649   1.259   4.868   5.492
 1584SOL     OW 5650   0.205   3.895   0.184
 1584SOL    HW1 5651   0.161   3.942   0.260
 1584SOL    HW2 5652   0.276   3.954   0.145
 1585SOL     OW 5653   5.057   6.181   4.591
 1585SOL    HW1 5654   5.107   6.180   4.505
 1585SOL    HW2 5655   5.030   6.275   4.613
 1586SOL     OW 5656   2.497   5.848   3.700
 1586SOL    HW1 5657   2.512   5.873   3.795
 1586SOL    HW2 5658   2.582   5.862   3.648
 1587SOL     OW 5659   3.569   6.333   0.035
 1587SOL    HW1 5660   3.470   6.339   0.029
 1587SOL    HW2 5661   3.595   6.266   0.104
 1588SOL     OW 5662   6.234   2.054   3.333
 1588SOL    HW1 5663   6.225   1.960   3.366
 1588SOL    HW2 5664   6.177   2.066   3.252
 1589SOL     OW 5665   0.038   2.240   4.672
 1589SOL    HW1 5666   0.044   2.337   4.650
 1589SOL    HW2 5667   6.980   2.200   4.625
 1590SOL     OW 5668   5.079   0.620   3.866
 1590SOL    HW1 5669   5.073   0.572   3.779
 1590SOL    HW2 5670   5.032   0.708   3.859
 1591SOL     OW 5671   0.555   5.509   0.341
 1591SOL    HW1 5672   0.533   5.476   0.250
 1591SOL    HW2 5673   0.471   5.518   0.395
 1592SOL     OW 5674   0.055   3.952   4.969
 1592SOL    HW1 5675   0.080   3.961   4.873
 1592SOL    HW2 5676   0.096   3.868   5.006
 1593SOL     OW 5677   3.724   5.895   1.348
 1593SOL    HW1 5678   3.808   5.886   1.401
 1593SOL    HW2 5679   3.744   5.884   1.251
 1594SOL     OW 5680   4.807   0.730   2.925
 1594SOL    HW1 5681   4.902   0.707   2.945
 1594SOL    HW2 5682   4.776   0.802   2.987
 1595SOL     OW 5683   0.963   3.499   6.402
 1595SOL    HW1 5684   0.890   3.433   6.384
 1595SOL    HW2 5685   0.935   3.590   6.373
 1596SOL     OW 5686   4.987   4.181   4.146
 1596SOL    HW1 5687   5.056   4.126   4.194
 1596SOL    HW2 5688   5.012   4.189   4.050
 1597SOL     OW 5689   3.680   6.146   0.194
 1597SOL    HW1 5690   3.758   6.185   0.146
 1597SOL    HW2 5691   3.707   6.122   0.288
 1598SOL     OW 5692   1.198   4.371   6.625
 1598SOL    HW1 5693   1.183   4.398   6.720
 1598SOL    HW2 5694   1.170   4.277   6.611
 1599SOL     OW 5695   4.463   5.586   3.883
 1599SOL    HW1 5696   4.377   5.629   3.910
 1599SOL    HW2 5697   4.539   5.635   3.926
 1600SOL     OW 5698   4.544   0.498   1.452
 1600SOL    HW1 5699   4.533   0.517   1.549
 1600SOL    HW2 5700   4.641   0.490   1.430
 1601SOL     OW 5701   6.362   1.001   4.748
 1601SOL    HW1 5702   6.392   0.960   4.662
 1601SOL    HW2 5703   6.323   1.092   4.729
 1602SOL     OW 5704   4.336   5.332   3.592
 1602SOL    HW1 5705   4.384   5.276   3.659
 1602SOL    HW2 5706   4.274   5.275   3.538
 1603SOL     OW 5707   3.255   4.995   2.223
 1603SOL    HW1 5708   3.193   5.073   2.223
 1603SOL    HW2 5709   3.259   4.956   2.131
 1604SOL     OW 5710   4.178   5.124   2.699
 1604SOL    HW1 5711   4.263   5.172   2.717
 1604SOL    HW2 5712   4.150   5.072   2.780
 1605SOL     OW 5713   4.631   5.286   0.304
 1605SOL    HW1 5714   4.553   5.251   0.356
 1605SOL    HW2 5715   4.681   5.210   0.263
 1606SOL     OW 5716   3.232   5.867   5.058
 1606SOL    HW1 5717   3.245   5.812   4.976
 1606SOL    HW2 5718   3.299   5.941   5.060
 1607SOL     OW 5719   4.890   3.778   3.734
 1607SOL    HW1 5720   4.876   3.692   3.784
 1607SOL    HW2 5721   4.975   3.774   3.683
 1608SOL     OW 5722   5.556   2.859   3.980
 1608SOL    HW1 5723   5.494   2.828   3.909
 1608SOL    HW2 5724   5.505   2.907   4.051
 1609SOL     OW 5725   1.683   0.003   0.696
 1609SOL    HW1 5726   1.628   0.072   0.741
 1609SOL    HW2 5727   1.760   6.998   0.755
 1610SOL     OW 5728   5.804   6.505   0.904
 1610SOL    HW1 5729   5.852   6.453   0.833
 1610SOL    HW2 5730   5.753   6.580   0.862
 1611SOL     OW 5731   0.814   4.048   6.977
 1611SOL    HW1 5732   0.829   4.142   7.009
 1611SOL    HW2 5733   0.893   4.019   6.923
 1612SOL     OW 5734   4.674   1.075   2.058
 1612SOL    HW1 5735   4.755   1.114   2.101
 1612SOL    HW2 5736   4.685   1.077   1.958
 1613SOL     OW 5737   0.278   5.975   2.779
 1613SOL    HW1 5738   0.225   5.892   2.798
 1613SOL    HW2 5739   0.314   5.971   2.686
 1614SOL     OW 5740   6.473   1.678   5.346
 1614SOL    HW1 5741   6.454   1.748   5.276
 1614SOL    HW2 5742   6.463   1.587   5.305
 1615SOL     OW 5743   6.919   3.457   5.322
 1615SOL    HW1 5744   6.854   3.519   5.279
 1615SOL    HW2 5745   6.952   3.391   5.254
 1616SOL     OW 5746   0.836   1.383   3.201
 1616SOL    HW1 5747   0.802   1.460   3.255
 1616SOL    HW2 5748   0.929   1.361   3.229
 1617SOL     OW 5749   6.549   5.607   3.833
 1617SOL    HW1 5750   6.598   5.690   3.810
 1617SOL    HW2 5751   6.495   5.622   3.916
 1618SOL     OW 5752   3.408   5.933   2.928
 1618SOL    HW1 5753   3.331   5.870   2.921
 1618SOL    HW2 5754   3.375   6.027   2.913
 1619SOL     OW 5755   1.177   3.694   6.527
 1619SOL    HW1 5756   1.094   3.743   6.557
 1619SOL    HW2 5757   1.164   3.660   6.434
 1620SOL     OW 5758   3.247   6.856   4.206
 1620SOL    HW1 5759   3.305   6.787   4.248
 1620SOL    HW2 5760   3.301   6.912   4.143
 1621SOL     OW 5761   5.000   5.366   1.035
 1621SOL    HW1 5762   4.904   5.338   1.040
 1621SOL    HW2 5763   5.005   5.465   1.026
 1622SOL     OW 5764   6.260   4.263   3.614
 1622SOL    HW1 5765   6.317   4.192   3.570
 1622SOL    HW2 5766   6.317   4.341   3.637
 1623SOL     OW 5767   0.629   2.457   3.962
 1623SOL    HW1 5768   0.590   2.431   3.874
 1623SOL    HW2 5769   0.707   2.518   3.947
 1624SOL     OW 5770   3.836   3.036   0.886
 1624SOL    HW1 5771   3.825   3.104   0.958
 1624SOL    HW2 5772   3.891   3.075   0.812
 1625SOL     OW 5773   0.830   6.290   0.276
 1625SOL    HW1 5774   0.802   6.297   0.180
 1625SOL    HW2 5775   0.880   6.373   0.302
 1626SOL     OW 5776   2.381   1.956   1.932
 1626SOL    HW1 5777   2.403   1.859   1.923
 1626SOL    HW2 5778   2.462   2.011   1.910
 1627SOL     OW 5779   4.152   1.780   6.156
 1627SOL    HW1 5780   4.122   1.868   6.194
 1627SOL    HW2 5781   4.132   1.779   6.058
 1628SOL     OW 5782   5.401   6.448   1.121
 1628SOL    HW1 5783   5.318   6.463   1.068
 1628SOL    HW2 5784   5.404   6.353   1.152
 1629SOL     OW 5785   1.736   6.964   3.650
 1629SOL    HW1 5786   1.804   0.011   3.623
 1629SOL    HW2 5787   1.689   6.929   3.569
 1630SOL     OW 5788   0.572   3.870   5.828
 1630SOL    HW1 5789   0.612   3.863   5.737
 1630SOL    HW2 5790   0.604   3.954   5.872
 1631SOL     OW 5791   5.592   3.440   0.278
 1631SOL    HW1 5792   5.531   3.395   0.212
 1631SOL    HW2 5793   5.538   3.491   0.344
 1632SOL     OW 5794   6.225   6.097   2.436
 1632SOL    HW1 5795   6.170   6.017   2.461
 1632SOL    HW2 5796   6.186   6.179   2.478
 1633SOL     OW 5797   5.567   3.871   4.886
 1633SOL    HW1 5798   5.647   3.926   4.862
 1633SOL    HW2 5799   5.545   3.885   4.982
 1634SOL     OW 5800   1.383   3.457   5.802
 1634SOL    HW1 5801   1.424   3.371   5.832
 1634SOL    HW2 5802   1.307   3.439   5.740
 1635SOL     OW 5803   2.568   0.236   3.515
 1635SOL    HW1 5804   2.661   0.270   3.523
 1635SOL    HW2 5805   2.563   0.166   3.444
 1636SOL     OW 5806   6.994   5.875   1.606
 1636SOL    HW1 5807   6.937   5.930   1.546
 1636SOL    HW2 5808   0.059   5.923   1.625
 1637SOL     OW 5809   1.240   1.633   2.489
 1637SOL    HW1 5810   1.245   1.731   2.508
 1637SOL    HW2 5811   1.211   1.584   2.571
 1638SOL     OW 5812   5.409   2.701   3.374
 1638SOL    HW1 5813   5.444   2.608   3.384
 1638SOL    HW2 5814   5.329   2.714   3.432
 1639SOL     OW 5815   4.758   2.124   1.812
 1639SOL    HW1 5816   4.721   2.216   1.799
 1639SOL    HW2 5817   4.857   2.129   1.824
 1640SOL     OW 5818   6.079   0.481   6.568
 1640SOL    HW1 5819   6.053   0.557   6.509
 1640SOL    HW2 5820   6.165   0.441   6.536
 1641SOL     OW 5821   5.710   1.256   3.095
 1641SOL    HW1 5822   5.810   1.251   3.101
 1641SOL    HW2 5823   5.669   1.184   3.150
 1642SOL     OW 5824   0.040   3.502   6.076
 1642SOL    HW1 5825   0.082   3.472   5.990
 1642SOL    HW2 5826   6.962   3.511   6.063
 1643SOL     OW 5827   2.074   5.286   3.644
 1643SOL    HW1 5828   2.075   5.269   3.546
 1643SOL    HW2 5829   2.167   5.283   3.680
 1644SOL     OW 5830   6.307   1.370   1.649
 1644SOL    HW1 5831   6.208   1.375   1.643
 1644SOL    HW2 5832   6.342   1.312   1.575
 1645SOL     OW 5833   2.611   0.777   4.887
 1645SOL    HW1 5834   2.536   0.731   4.840
 1645SOL    HW2 5835   2.686   0.712   4.901
 1646SOL     OW 5836   0.201   5.300   1.285
 1646SOL    HW1 5837   0.126   5.338   1.340
 1646SOL    HW2 5838   0.286   5.303   1.338
 1647SOL     OW 5839   5.880   3.216   5.034
 1647SOL    HW1 5840   5.956   3.255   5.085
 1647SOL    HW2 5841   5.915   3.153   4.964
 1648SOL     OW 5842   5.524   6.005   1.412
 1648SOL    HW1 5843   5.464   5.960   1.478
 1648SOL    HW2 5844   5.522   5.956   1.326
 1649SOL     OW 5845   3.527   1.249   2.850
 1649SOL    HW1 5846   3.616   1.209   2.827
 1649SOL    HW2 5847   3.519   1.256   2.949
 1650SOL     OW 5848   2.504   2.489   5.225
 1650SOL    HW1 5849   2.602   2.473   5.225
 1650SOL    HW2 5850   2.486   2.587   5.217
 1651SOL     OW 5851   1.009   1.872   4.155
 1651SOL    HW1 5852   1.053   1.928   4.085
 1651SOL    HW2 5853   0.918   1.843   4.123
 1652SOL     OW 5854   0.345   3.978   1.589
 1652SOL    HW1 5855   0.304   3.910   1.528
 1652SOL    HW2 5856   0.445   3.971   1.584
 1653SOL     OW 5857   6.732   4.338   1.681
 1653SOL    HW1 5858   6.791   4.257   1.688
 1653SOL    HW2 5859   6.666   4.325   1.607
 1654SOL     OW 5860   0.612   3.934   1.491
 1654SOL    HW1 5861   0.684   3.966   1.553
 1654SOL    HW2 5862   0.627   3.838   1.470
 1655SOL     OW 5863   7.010   0.812   5.924
 1655SOL    HW1 5864   0.065   0.751   5.949
 1655SOL    HW2 5865   0.025   0.895   5.882
 1656SOL     OW 5866   2.229   4.148   3.241
 1656SOL    HW1 5867   2.178   4.220   3.289
 1656SOL    HW2 5868   2.301   4.190   3.185
 1657SOL     OW 5869   0.621   0.251   5.866
 1657SOL    HW1 5870   0.600   0.225   5.960
 1657SOL    HW2 5871   0.622   0.351   5.859
 1658SOL     OW 5872   5.479   6.577   6.264
 1658SOL    HW1 5873   5.446   6.669   6.284
 1658SOL    HW2 5874   5.524   6.576   6.175
 1659SOL     OW 5875   3.784   0.187   6.060
 1659SOL    HW1 5876   3.722   0.264   6.042
 1659SOL    HW2 5877   3.743   0.103   6.025
 1660SOL     OW 5878   2.474   0.606   1.952
 1660SOL    HW1 5879   2.426   0.676   1.898
 1660SOL    HW2 5880   2.564   0.641   1.978
 1661SOL     OW 5881   4.940   4.181   3.067
 1661SOL    HW1 5882   4.896   4.127   2.995
 1661SOL    HW2 5883   4.870   4.232   3.116
 1662SOL     OW 5884   0.113   1.747   3.444
 1662SOL    HW1 5885   0.184   1.813   3.419
 1662SOL    HW2 5886   0.026   1.794   3.458
 1663SOL     OW 5887   5.278   3.998   1.431
 1663SOL    HW1 5888   5.330   3.939   1.493
 1663SOL    HW2 5889   5.253   4.082   1.478
 1664SOL     OW 5890   1.215   1.017   6.142
 1664SOL    HW1 5891   1.130   0.968   6.121
 1664SOL    HW2 5892   1.278   1.009   6.065
 1665SOL     OW 5893   2.367   3.778   6.388
 1665SOL    HW1 5894   2.424   3.840   6.335
 1665SOL    HW2 5895   2.282   3.759   6.337
 1666SOL     OW 5896   5.579   6.154   6.374
 1666SOL    HW1 5897   5.601   6.086   6.445
 1666SOL    HW2 5898   5.483   6.181   6.383
 1667SOL     OW 5899   0.106   5.352   0.621
 1667SOL    HW1 5900   0.126   5.263   0.661
 1667SOL    HW2 5901   0.018   5.385   0.656
 1668SOL     OW 5902   5.840   2.980   2.160
 1668SOL    HW1 5903   5.883   3.062   2.122
 1668SOL    HW2 5904   5.897   2.944   2.234
 1669SOL     OW 5905   6.266   2.548   5.562
 1669SOL    HW1 5906   6.219   2.630   5.528
 1669SOL    HW2 5907   6.329   2.515   5.493
 1670SOL     OW 5908   3.273   4.667   5.700
 1670SOL    HW1 5909   3.190   4.618   5.673
 1670SOL    HW2 5910   3.250   4.762   5.721
 1671SOL     OW 5911   5.378   2.031   0.505
 1671SOL    HW1 5912   5.305   1.963   0.517
 1671SOL    HW2 5913   5.391   2.081   0.590
 1672SOL     OW 5914   0.399   1.900   1.321
 1672SOL    HW1 5915   0.314   1.857   1.350
 1672SOL    HW2 5916   0.378   1.977   1.260
 1673SOL     OW 5917   1.436   0.485   4.762
 1673SOL    HW1 5918   1.370   0.435   4.818
 1673SOL    HW2 5919   1.394   0.569   4.728
 1674SOL     OW 5920   4.866   2.198   3.840
 1674SOL    HW1 5921   4.873   2.099   3.830
 1674SOL    HW2 5922   4.955   2.236   3.863
 1675SOL     OW 5923   5.699   0.283   2.044
 1675SOL    HW1 5924   5.666   0.334   2.123
 1675SOL    HW2 5925   5.695   0.340   1.962
 1676SOL     OW 5926   0.783   2.454   3.367
 1676SOL    HW1 5927   0.842   2.439   3.287
 1676SOL    HW2 5928   0.831   2.511   3.433
 1677SOL     OW 5929   2.967   3.530   3.025
 1677SOL    HW1 5930   2.987   3.623   2.994
 1677SOL    HW2 5931   2.945   3.473   2.945
 1678SOL     OW 5932   0.455   6.355   0.043
 1678SOL    HW1 5933   0.436   6.451   0.022
 1678SOL    HW2 5934   0.520   6.349   0.118
 1679SOL     OW 5935   6.095   1.536   0.268
 1679SOL    HW1 5936   6.044   1.586   0.198
 1679SOL    HW2 5937   6.192   1.536   0.245
 1680SOL     OW 5938   6.318   2.880   3.030
 1680SOL    HW1 5939   6.253   2.837   3.092
 1680SOL    HW2 5940   6.340   2.972   3.063
 1681SOL     OW 5941   3.307   6.020   4.644
 1681SOL    HW1 5942   3.402   6.005   4.669
 1681SOL    HW2 5943   3.264   5.932   4.621
 1682SOL     OW 5944   4.468   0.628   4.648
 1682SOL    HW1 5945   4.426   0.538   4.661
 1682SOL    HW2 5946   4.528   0.648   4.726
 1683SOL     OW 5947   0.329   2.573   2.961
 1683SOL    HW1 5948   0.403   2.519   3.002
 1683SOL    HW2 5949   0.338   2.669   2.990
 1684SOL     OW 5950   2.733   5.370   1.070
 1684SOL    HW1 5951   2.660   5.411   1.016
 1684SOL    HW2 5952   2.707   5.371   1.167
 1685SOL     OW 5953   0.143   1.230   5.274
 1685SOL    HW1 5954   0.114   1.237   5.369
 1685SOL    HW2 5955   0.105   1.147   5.233
 1686SOL     OW 5956   3.631   5.240   2.036
 1686SOL    HW1 5957   3.596   5.147   2.039
 1686SOL    HW2 5958   3.613   5.279   1.945
 1687SOL     OW 5959   5.194   4.003   0.906
 1687SOL    HW1 5960   5.213   4.011   1.004
 1687SOL    HW2 5961   5.263   3.944   0.864
 1688SOL     OW 5962   2.727   0.318   2.797
 1688SOL    HW1 5963   2.736   0.382   2.873
 1688SOL    HW2 5964   2.665   0.357   2.728
 1689SOL     OW 5965   3.705   0.673   1.941
 1689SOL    HW1 5966   3.686   0.764   1.906
 1689SOL    HW2 5967   3.638   0.649   2.011
 1690SOL     OW 5968   6.325   4.839   4.264
 1690SOL    HW1 5969   6.291   4.748   4.240
 1690SOL    HW2 5970   6.381   4.875   4.189
 1691SOL     OW 5971   4.062   2.809   5.352
 1691SOL    HW1 5972   3.984   2.853   5.309
 1691SOL    HW2 5973   4.078   2.720   5.308
 1692SOL     OW 5974   5.694   5.134   1.168
 1692SOL    HW1 5975   5.743   5.081   1.099
 1692SOL    HW2 5976   5.628   5.076   1.215
 1693SOL     OW 5977   5.387   6.799   5.929
 1693SOL    HW1 5978   5.460   6.736   5.957
 1693SOL    HW2 5979   5.420   6.856   5.854
 1694SOL     OW 5980   4.737   1.189   6.457
 1694SOL    HW1 5981   4.799   1.157   6.528
 1694SOL    HW2 5982   4.778   1.266   6.408
 1695SOL     OW 5983   3.971   0.447   5.260
 1695SOL    HW1 5984   3.968   0.520   5.329
 1695SOL    HW2 5985   3.963   0.488   5.169
 1696SOL     OW 5986   4.709   0.249   0.841
 1696SOL    HW1 5987   4.743   0.212   0.927
 1696SOL    HW2 5988   4.662   0.335   0.859
 1697SOL     OW 5989   4.456   2.545   1.650
 1697SOL    HW1 5990   4.424   2.638   1.667
 1697SOL    HW2 5991   4.397   2.480   1.699
 1698SOL     OW 5992   4.061   1.365   1.888
 1698SOL    HW1 5993   3.991   1.419   1.935
 1698SOL    HW2 5994   4.092   1.292   1.948
 1699SOL     OW 5995   2.115   0.656   0.519
 1699SOL    HW1 5996   2.117   0.754   0.500
 1699SOL    HW2 5997   2.181   0.610   0.460
 1700SOL     OW 5998   5.501   3.267   2.890
 1700SOL    HW1 5999   5.494   3.178   2.844
 1700SOL    HW2 6000   5.469   3.339   2.828
 1701SOL     OW 6001   1.289   5.679   5.037
 1701SOL    HW1 6002   1.295   5.714   4.944
 1701SOL    HW2 6003   1.241   5.591   5.036
 1702SOL     OW 6004   2.266   2.712   6.641
 1702SOL    HW1 6005   2.179   2.726   6.593
 1702SOL    HW2 6006   2.247   2.676   6.733
 1703SOL     OW 6007   1.194   2.227   2.021
 1703SOL    HW1 6008   1.267   2.250   1.956
 1703SOL    HW2 6009   1.232   2.223   2.113
 1704SOL     OW 6010   2.924   2.853   6.805
 1704SOL    HW1 6011   2.832   2.816   6.812
 1704SOL    HW2 6012   2.927   2.944   6.846
 1705SOL     OW 6013   5.272   3.258   0.793
 1705SOL    HW1 6014   5.276   3.353   0.760
 1705SOL    HW2 6015   5.365   3.224   0.806
 1706SOL     OW 6016   5.475   1.218   6.061
 1706SOL    HW1 6017   5.544   1.289   6.075
 1706SOL    HW2 6018   5.386   1.260   6.046
 1707SOL     OW 6019   3.885   1.053   2.191
 1707SOL    HW1 6020   3.924   1.017   2.276
 1707SOL    HW2 6021   3.948   1.037   2.115
 1708SOL     OW 6022   2.581   4.626   1.902
 1708SOL    HW1 6023   2.675   4.597   1.914
 1708SOL    HW2 6024   2.579   4.722   1.874
 1709SOL     OW 6025   5.313   4.381   1.241
 1709SOL    HW1 6026   5.294   4.475   1.269
 1709SOL    HW2 6027   5.229   4.328   1.243
 1710SOL     OW 6028   4.839   3.017   2.268
 1710SOL    HW1 6029   4.803   3.047   2.180
 1710SOL    HW2 6030   4.828   3.089   2.336
 1711SOL     OW 6031   3.952   5.631   0.136
 1711SOL    HW1 6032   3.998   5.636   0.225
 1711SOL    HW2 6033   3.924   5.537   0.119
 1712SOL     OW 6034   0.224   1.778   2.083
 1712SOL    HW1 6035   0.276   1.851   2.040
 1712SOL    HW2 6036   0.226   1.696   2.026
 1713SOL     OW 6037   2.990   1.617   2.606
 1713SOL    HW1 6038   3.015   1.539   2.548
 1713SOL    HW2 6039   2.955   1.691   2.549
 1714SOL     OW 6040   2.619   4.331   0.636
 1714SOL    HW1 6041   2.551   4.375   0.579
 1714SOL    HW2 6042   2.628   4.382   0.722
 1715SOL     OW 6043   0.849   5.733   0.887
 1715SOL    HW1 6044   0.901   5.805   0.931
 1715SOL    HW2 6045   0.889   5.713   0.797
 1716SOL     OW 6046   5.123   1.834   3.251
 1716SOL    HW1 6047   5.195   1.853   3.318
 1716SOL    HW2 6048   5.153   1.761   3.190
 1717SOL     OW 6049   4.043   6.479   3.719
 1717SOL    HW1 6050   4.096   6.399   3.692
 1717SOL    HW2 6051   3.956   6.480   3.669
 1718SOL     OW 6052   1.628   3.582   1.692
 1718SOL    HW1 6053   1.727   3.591   1.704
 1718SOL    HW2 6054   1.609   3.521   1.615
 1719SOL     OW 6055   1.540   5.605   2.814
 1719SOL    HW1 6056   1.585   5.667   2.879
 1719SOL    HW2 6057   1.443   5.597   2.838
 1720SOL     OW 6058   0.746   3.072   5.480
 1720SOL    HW1 6059   0.801   3.004   5.529
 1720SOL    HW2 6060   0.656   3.034   5.459
 1721SOL     OW 6061   2.162   2.294   0.370
 1721SOL    HW1 6062   2.082   2.329   0.418
 1721SOL    HW2 6063   2.194   2.210   0.415
 1722SOL     OW 6064   2.478   2.405   3.479
 1722SOL    HW1 6065   2.574   2.385   3.463
 1722SOL    HW2 6066   2.442   2.343   3.549
 1723SOL     OW 6067   6.048   4.474   1.227
 1723SOL    HW1 6068   6.123   4.534   1.256
 1723SOL    HW2 6069   6.071   4.379   1.249
 1724SOL     OW 6070   5.821   3.258   0.856
 1724SOL    HW1 6071   5.876   3.177   0.839
 1724SOL    HW2 6072   5.866   3.338   0.815
 1725SOL     OW 6073   2.343   6.717   5.920
 1725SOL    HW1 6074   2.386   6.644   5.972
 1725SOL    HW2 6075   2.283   6.677   5.850
 1726SOL     OW 6076   4.565   4.468   3.501
 1726SOL    HW1 6077   4.607   4.513   3.580
 1726SOL    HW2 6078   4.615   4.384   3.481
 1727SOL     OW 6079   3.348   3.186   3.089
 1727SOL    HW1 6080   3.342   3.111   3.154
 1727SOL    HW2 6081   3.288   3.260   3.117
 1728SOL     OW 6082   5.650   2.061   4.218
 1728SOL    HW1 6083   5.697   2.095   4.300
 1728SOL    HW2 6084   5.566   2.112   4.203
 1729SOL     OW 6085   1.058   2.878   2.710
 1729SOL    HW1 6086   0.978   2.824   2.684
 1729SOL    HW2 6087   1.105   2.834   2.787
 1730SOL     OW 6088   2.528   7.019   5.049
 1730SOL    HW1 6089   2.503   0.084   5.094
 1730SOL    HW2 6090   2.624   6.998   5.067
 1731SOL     OW 6091   4.836   4.197   3.889
 1731SOL    HW1 6092   4.857   4.104   3.920
 1731SOL    HW2 6093   4.879   4.213   3.801
 1732SOL     OW 6094   3.900   3.530   4.931
 1732SOL    HW1 6095   3.856   3.477   5.003
 1732SOL    HW2 6096   3.998   3.535   4.947
 1733SOL     OW 6097   1.570   2.365   6.648
 1733SOL    HW1 6098   1.560   2.459   6.681
 1733SOL    HW2 6099   1.498   2.345   6.583
 1734SOL     OW 6100   0.312   3.940   0.875
 1734SOL    HW1 6101   0.266   3.923   0.962
 1734SOL    HW2 6102   0.397   3.990   0.891
 1735SOL     OW 6103   2.811   5.229   6.102
 1735SOL    HW1 6104   2.907   5.259   6.104
 1735SOL    HW2 6105   2.803   5.146   6.046
 1736SOL     OW 6106   5.242   2.296   6.553
 1736SOL    HW1 6107   5.260   2.388   6.518
 1736SOL    HW2 6108   5.190   2.244   6.485
 1737SOL     OW 6109   2.731   0.810   5.992
 1737SOL    HW1 6110   2.661   0.741   6.007
 1737SOL    HW2 6111   2.818   0.777   6.029
 1738SOL     OW 6112   1.596   4.068   2.241
 1738SOL    HW1 6113   1.528   4.011   2.288
 1738SOL    HW2 6114   1.609   4.034   2.148
 1739SOL     OW 6115   5.141   5.274   2.658
 1739SOL    HW1 6116   5.190   5.266   2.745
 1739SOL    HW2 6117   5.061   5.332   2.669
 1740SOL     OW 6118   0.005   2.748   4.845
 1740SOL    HW1 6119   6.985   2.835   4.872
 1740SOL    HW2 6120   7.014   2.681   4.918
 1741SOL     OW 6121   1.007   2.819   4.750
 1741SOL    HW1 6122   1.051   2.905   4.725
 1741SOL    HW2 6123   0.931   2.838   4.812
 1742SOL     OW 6124   6.087   0.018   7.003
 1742SOL    HW1 6125   6.048   0.088   0.043
 1742SOL    HW2 6126   6.054   0.032   6.910
 1743SOL     OW 6127   1.482   2.503   1.663
 1743SOL    HW1 6128   1.464   2.597   1.693
 1743SOL    HW2 6129   1.568   2.471   1.703
 1744SOL     OW 6130   3.119   2.264   5.420
 1744SOL    HW1 6131   3.041   2.216   5.379
 1744SOL    HW2 6132   3.162   2.322   5.351
 1745SOL     OW 6133   6.773   6.589   0.290
 1745SOL    HW1 6134   6.803   6.683   0.273
 1745SOL    HW2 6135   6.804   6.560   0.380
 1746SOL     OW 6136   2.629   4.931   2.864
 1746SOL    HW1 6137   2.569   4.963   2.791
 1746SOL    HW2 6138   2.625   4.831   2.869
 1747SOL     OW 6139   3.424   0.176   2.287
 1747SOL    HW1 6140   3.484   0.240   2.335
 1747SOL    HW2 6141   3.414   0.093   2.342
 1748SOL     OW 6142   6.861   1.964   3.834
 1748SOL    HW1 6143   6.842   2.055   3.872
 1748SOL    HW2 6144   6.923   1.973   3.755
 1749SOL     OW 6145   6.463   5.397   1.836
 1749SOL    HW1 6146   6.443   5.314   1.889
 1749SOL    HW2 6147   6.390   5.463   1.851
 1750SOL     OW 6148   3.146   1.559   0.723
 1750SOL    HW1 6149   3.152   1.498   0.802
 1750SOL    HW2 6150   3.135   1.504   0.640
 1751SOL     OW 6151   6.072   4.180   5.106
 1751SOL    HW1 6152   6.143   4.244   5.078
 1751SOL    HW2 6153   6.105   4.125   5.183
 1752SOL     OW 6154   6.473   0.550   2.315
 1752SOL    HW1 6155   6.466   0.518   2.221
 1752SOL    HW2 6156   6.487   0.472   2.376
 1753SOL     OW 6157   6.821   1.900   1.868
 1753SOL    HW1 6158   6.840   1.803   1.885
 1753SOL    HW2 6159   6.876   1.956   1.929
 1754SOL     OW 6160   3.102   5.831   3.658
 1754SOL    HW1 6161   3.008   5.846   3.689
 1754SOL    HW2 6162   3.144   5.919   3.635
 1755SOL     OW 6163   6.490   0.285   4.992
 1755SOL    HW1 6164   6.395   0.263   5.011
 1755SOL    HW2 6165   6.523   0.230   4.915
 1756SOL     OW 6166   4.141   6.268   1.521
 1756SOL    HW1 6167   4.171   6.174   1.540
 1756SOL    HW2 6168   4.209   6.333   1.556
 1757SOL     OW 6169   3.105   4.834   4.911
 1757SOL    HW1 6170   3.034   4.827   4.980
 1757SOL    HW2 6171   3.195   4.830   4.955
 1758SOL     OW 6172   1.253   6.242   3.670
 1758SOL    HW1 6173   1.210   6.197   3.592
 1758SOL    HW2 6174   1.335   6.191   3.697
 1759SOL     OW 6175   1.549   5.070   6.736
 1759SOL    HW1 6176   1.612   5.147   6.727
 1759SOL    HW2 6177   1.601   4.986   6.752
 1760SOL     OW 6178   6.083   1.880   4.185
 1760SOL    HW1 6179   6.082   1.904   4.282
 1760SOL    HW2 6180   6.006   1.819   4.165
 1761SOL     OW 6181   5.293   1.614   3.847
 1761SOL    HW1 6182   5.235   1.641   3.770
 1761SOL    HW2 6183   5.385   1.651   3.834
 1762SOL     OW 6184   0.956   1.444   5.765
 1762SOL    HW1 6185   0.944   1.542   5.780
 1762SOL    HW2 6186   0.885   1.394   5.815
 1763SOL     OW 6187   1.837   5.059   3.530
 1763SOL    HW1 6188   1.806   5.085   3.621
 1763SOL    HW2 6189   1.921   5.006   3.537
 1764SOL     OW 6190   1.135   6.127   3.468
 1764SOL    HW1 6191   1.042   6.160   3.449
 1764SOL    HW2 6192   1.193   6.144   3.389
 1765SOL     OW 6193   5.352   4.077   2.092
 1765SOL    HW1 6194   5.295   4.022   2.031
 1765SOL    HW2 6195   5.301   4.097   2.176
 1766SOL     OW 6196   4.564   4.679   4.257
 1766SOL    HW1 6197   4.618   4.604   4.296
 1766SOL    HW2 6198   4.607   4.766   4.280
 1767SOL     OW 6199   0.666   4.506   1.743
 1767SOL    HW1 6200   0.738   4.562   1.702
 1767SOL    HW2 6201   0.597   4.485   1.674
 1768SOL     OW 6202   3.856   4.834   2.482
 1768SOL    HW1 6203   3.928   4.903   2.484
 1768SOL    HW2 6204   3.799   4.847   2.401
 1769SOL     OW 6205   5.265   0.616   0.971
 1769SOL    HW1 6206   5.279   0.669   1.055
 1769SOL    HW2 6207   5.307   0.664   0.894
 1770SOL     OW 6208   1.911   5.207   0.494
 1770SOL    HW1 6209   1.973   5.141   0.535
 1770SOL    HW2 6210   1.961   5.291   0.472
 1771SOL     OW 6211   1.129   2.649   6.306
 1771SOL    HW1 6212   1.052   2.702   6.269
 1771SOL    HW2 6213   1.201   2.642   6.237
 1772SOL     OW 6214   2.093   4.449   3.049
 1772SOL    HW1 6215   2.113   4.427   2.953
 1772SOL    HW2 6216   1.997   4.432   3.067
 1773SOL     OW 6217   2.411   6.417   5.287
 1773SOL    HW1 6218   2.387   6.498   5.341
 1773SOL    HW2 6219   2.509   6.420   5.267
 1774SOL     OW 6220   5.712   5.718   1.785
 1774SOL    HW1 6221   5.695   5.621   1.802
 1774SOL    HW2 6222   5.697   5.738   1.689
 1775SOL     OW 6223   1.197   6.285   0.511
 1775SOL    HW1 6224   1.148   6.254   0.592
 1775SOL    HW2 6225   1.158   6.371   0.479
 1776SOL     OW 6226   4.409   3.606   6.155
 1776SOL    HW1 6227   4.371   3.577   6.067
 1776SOL    HW2 6228   4.343   3.666   6.201
 1777SOL     OW 6229   4.407   6.352   0.151
 1777SOL    HW1 6230   4.507   6.355   0.158
 1777SOL    HW2 6231   4.373   6.440   0.117
 1778SOL     OW 6232   6.767   0.072   3.510
 1778SOL    HW1 6233   6.867   0.072   3.503
 1778SOL    HW2 6234   6.734   6.998   3.510
 1779SOL     OW 6235   5.991   0.230   4.840
 1779SOL    HW1 6236   5.945   0.186   4.763
 1779SOL    HW2 6237   5.992   0.329   4.826
 1780SOL     OW 6238   3.098   6.149   4.845
 1780SOL    HW1 6239   3.163   6.090   4.797
 1780SOL    HW2 6240   3.016   6.160   4.789
 1781SOL     OW 6241   4.457   1.593   5.858
 1781SOL    HW1 6242   4.517   1.646   5.919
 1781SOL    HW2 6243   4.509   1.563   5.778
 1782SOL     OW 6244   5.155   0.550   2.266
 1782SOL    HW1 6245   5.199   0.598   2.342
 1782SOL    HW2 6246   5.224   0.500   2.214
 1783SOL     OW 6247   1.550   3.592   6.440
 1783SOL    HW1 6248   1.497   3.591   6.525
 1783SOL    HW2 6249   1.560   3.686   6.408
 1784SOL     OW 6250   2.187   6.470   1.456
 1784SOL    HW1 6251   2.218   6.564   1.440
 1784SOL    HW2 6252   2.257   6.406   1.422
 1785SOL     OW 6253   1.692   6.008   4.439
 1785SOL    HW1 6254   1.690   6.088   4.498
 1785SOL    HW2 6255   1.613   6.009   4.378
 1786SOL     OW 6256   0.720   6.144   1.721
 1786SOL    HW1 6257   0.711   6.050   1.688
 1786SOL    HW2 6258   0.743   6.205   1.645
 1787SOL     OW 6259   2.063   2.217   5.896
 1787SOL    HW1 6260   2.141   2.164   5.929
 1787SOL    HW2 6261   2.095   2.284   5.828
 1788SOL     OW 6262   3.703   3.921   0.521
 1788SOL    HW1 6263   3.668   3.868   0.598
 1788SOL    HW2 6264   3.756   3.861   0.461
 1789SOL     OW 6265   5.892   2.966   1.667
 1789SOL    HW1 6266   5.823   2.944   1.736
 1789SOL    HW2 6267   5.860   3.039   1.608
 1790SOL     OW 6268   2.388   1.754   4.659
 1790SOL    HW1 6269   2.355   1.806   4.737
 1790SOL    HW2 6270   2.482   1.724   4.676
 1791SOL     OW 6271   5.845   0.403   3.962
 1791SOL    HW1 6272   5.839   0.324   3.900
 1791SOL    HW2 6273   5.925   0.393   4.021
 1792SOL     OW 6274   0.042   2.446   6.478
 1792SOL    HW1 6275   6.998   2.522   6.481
 1792SOL    HW2 6276   0.088   2.436   6.566
 1793SOL     OW 6277   0.218   1.186   4.418
 1793SOL    HW1 6278   0.268   1.252   4.475
 1793SOL    HW2 6279   0.157   1.236   4.356
 1794SOL     OW 6280   0.069   1.550   6.647
 1794SOL    HW1 6281   0.054   1.649   6.642
 1794SOL    HW2 6282   7.007   1.502   6.617
 1795SOL     OW 6283   5.439   4.961   0.566
 1795SOL    HW1 6284   5.469   5.056   0.577
 1795SOL    HW2 6285   5.516   4.904   0.537
 1796SOL     OW 6286   6.000   6.737   0.595
 1796SOL    HW1 6287   5.915   6.790   0.599
 1796SOL    HW2 6288   5.986   6.648   0.639
 1797SOL     OW 6289   2.774   5.936   5.594
 1797SOL    HW1 6290   2.870   5.909   5.603
 1797SOL    HW2 6291   2.760   5.979   5.505
 1798SOL     OW 6292   2.352   3.500   5.923
 1798SOL    HW1 6293   2.443   3.539   5.932
 1798SOL    HW2 6294   2.338   3.429   5.993
 1799SOL     OW 6295   3.547   1.286   2.176
 1799SOL    HW1 6296   3.528   1.383   2.188
 1799SOL    HW2 6297   3.567   1.267   2.080
 1800SOL     OW 6298   6.436   2.721   5.791
 1800SOL    HW1 6299   6.378   2.688   5.717
 1800SOL    HW2 6300   6.531   2.696   5.773
 1801SOL     OW 6301   6.918   1.236   2.584
 1801SOL    HW1 6302   6.927   1.276   2.493
 1801SOL    HW2 6303   6.882   1.143   2.576
 1802SOL     OW 6304   5.973   4.570   4.247
 1802SOL    HW1 6305   5.919   4.636   4.196
 1802SOL    HW2 6306   6.065   4.563   4.206
 1803SOL     OW 6307   0.206   6.438   4.065
 1803SOL    HW1 6308   0.251   6.527   4.072
 1803SOL    HW2 6309   0.208   6.408   3.969
 1804SOL     OW 6310   1.162   2.681   6.579
 1804SOL    HW1 6311   1.158   2.664   6.480
 1804SOL    HW2 6312   1.085   2.739   6.605
 1805SOL     OW 6313   5.678   4.678   6.577
 1805SOL    HW1 6314   5.587   4.681   6.534
 1805SOL    HW2 6315   5.722   4.767   6.567
 1806SOL     OW 6316   0.610   1.879   1.498
 1806SOL    HW1 6317   0.533   1.880   1.435
 1806SOL    HW2 6318   0.660   1.966   1.491
 1807SOL     OW 6319   6.026   2.691   2.213
 1807SOL    HW1 6320   6.123   2.710   2.196
 1807SOL    HW2 6321   5.975   2.698   2.127
 1808SOL     OW 6322   5.640   0.849   6.325
 1808SOL    HW1 6323   5.605   0.820   6.414
 1808SOL    HW2 6324   5.711   0.785   6.295
 1809SOL     OW 6325   5.110   0.466   5.018
 1809SOL    HW1 6326   5.158   0.553   5.023
 1809SOL    HW2 6327   5.125   0.415   5.103
 1810SOL     OW 6328   1.154   0.998   4.429
 1810SOL    HW1 6329   1.161   1.096   4.407
 1810SOL    HW2 6330   1.167   0.986   4.527
 1811SOL     OW 6331   3.226   5.775   2.028
 1811SOL    HW1 6332   3.264   5.779   1.936
 1811SOL    HW2 6333   3.126   5.770   2.022
 1812SOL     OW 6334   4.304   0.577   6.373
 1812SOL    HW1 6335   4.353   0.664   6.383
 1812SOL    HW2 6336   4.346   0.522   6.301
 1813SOL     OW 6337   5.287   3.398   2.009
 1813SOL    HW1 6338   5.261   3.344   1.929
 1813SOL    HW2 6339   5.232   3.370   2.088
 1814SOL     OW 6340   6.923   5.871   0.899
 1814SOL    HW1 6341   6.903   5.843   0.805
 1814SOL    HW2 6342   6.987   5.805   0.940
 1815SOL     OW 6343   6.027   5.237   1.015
 1815SOL    HW1 6344   6.020   5.164   1.084
 1815SOL    HW2 6345   5.940   5.287   1.012
 1816SOL     OW 6346   3.690   4.955   4.270
 1816SOL    HW1 6347   3.605   4.904   4.260
 1816SOL    HW2 6348   3.730   4.972   4.180
 1817SOL     OW 6349   6.899   2.984   3.547
 1817SOL    HW1 6350   6.852   2.896   3.537
 1817SOL    HW2 6351   6.997   2.970   3.539
 1818SOL     OW 6352   2.093   1.476   0.654
 1818SOL    HW1 6353   2.169   1.447   0.597
 1818SOL    HW2 6354   2.128   1.522   0.736
 1819SOL     OW 6355   0.829   3.815   1.225
 1819SOL    HW1 6356   0.856   3.732   1.176
 1819SOL    HW2 6357   0.762   3.791   1.296
 1820SOL     OW 6358   3.896   0.043   5.405
 1820SOL    HW1 6359   3.867   7.018   5.489
 1820SOL    HW2 6360   3.995   0.035   5.396
 1821SOL     OW 6361   3.964   1.450   2.928
 1821SOL    HW1 6362   3.866   1.467   2.914
 1821SOL    HW2 6363   4.012   1.538   2.934
 1822SOL     OW 6364   1.853   3.876   4.385
 1822SOL    HW1 6365   1.825   3.931   4.307
 1822SOL    HW2 6366   1.953   3.882   4.397
 1823SOL     OW 6367   3.753   6.806   3.502
 1823SOL    HW1 6368   3.744   6.708   3.488
 1823SOL    HW2 6369   3.663   6.849   3.502
 1824SOL     OW 6370   4.686   2.912   1.639
 1824SOL    HW1 6371   4.623   2.953   1.573
 1824SOL    HW2 6372   4.658   2.937   1.732
 1825SOL     OW 6373   1.433   3.713   0.007
 1825SOL    HW1 6374   1.372   3.748   6.956
 1825SOL    HW2 6375   1.499   3.649   6.986
 1826SOL     OW 6376   3.420   2.803   0.678
 1826SOL    HW1 6377   3.435   2.847   0.766
 1826SOL    HW2 6378   3.498   2.744   0.657
 1827SOL     OW 6379   4.998   4.365   0.337
 1827SOL    HW1 6380   5.028   4.454   0.303
 1827SOL    HW2 6381   5.042   4.292   0.284
 1828SOL     OW 6382   2.708   4.746   4.826
 1828SOL    HW1 6383   2.756   4.732   4.913
 1828SOL    HW2 6384   2.693   4.657   4.782
 1829SOL     OW 6385   2.294   6.446   2.005
 1829SOL    HW1 6386   2.276   6.518   2.072
 1829SOL    HW2 6387   2.327   6.364   2.052
 1830SOL     OW 6388   4.354   1.348   6.536
 1830SOL    HW1 6389   4.290   1.423   6.553
 1830SOL    HW2 6390   4.341   1.276   6.604
 1831SOL     OW 6391   3.730   4.724   0.303
 1831SOL    HW1 6392   3.772   4.651   0.357
 1831SOL    HW2 6393   3.783   4.737   0.219
 1832SOL     OW 6394   1.916   3.501   5.581
 1832SOL    HW1 6395   1.908   3.597   5.607
 1832SOL    HW2 6396   2.012   3.475   5.579
 1833SOL     OW 6397   5.771   1.019   7.014
 1833SOL    HW1 6398   5.696   1.078   6.984
 1833SOL    HW2 6399   5.743   0.970   0.077
 1834SOL     OW 6400   1.586   3.784   6.080
 1834SOL    HW1 6401   1.679   3.791   6.044
 1834SOL    HW2 6402   1.560   3.688   6.087
 1835SOL     OW 6403   6.505   6.445   0.781
 1835SOL    HW1 6404   6.580   6.463   0.845
 1835SOL    HW2 6405   6.469   6.353   0.797
 1836SOL     OW 6406   6.193   2.223   3.560
 1836SOL    HW1 6407   6.122   2.195   3.625
 1836SOL    HW2 6408   6.207   2.150   3.493
 1837SOL     OW 6409   1.241   1.656   0.323
 1837SOL    HW1 6410   1.322   1.614   0.366
 1837SOL    HW2 6411   1.248   1.647   0.224
 1838SOL     OW 6412   5.022   0.509   0.545
 1838SOL    HW1 6413   5.099   0.483   0.604
 1838SOL    HW2 6414   5.048   0.585   0.486
 1839SOL     OW 6415   6.775   0.956   6.478
 1839SOL    HW1 6416   6.729   1.029   6.428
 1839SOL    HW2 6417   6.835   0.905   6.416
 1840SOL     OW 6418   3.264   0.088   5.250
 1840SOL    HW1 6419   3.339   0.033   5.213
 1840SOL    HW2 6420   3.261   0.176   5.205
 1841SOL     OW 6421   2.009   0.714   1.333
 1841SOL    HW1 6422   2.065   0.796   1.338
 1841SOL    HW2 6423   2.065   0.639   1.297
 1842SOL     OW 6424   6.908   5.202   1.049
 1842SOL    HW1 6425   6.845   5.147   0.995
 1842SOL    HW2 6426   6.858   5.248   1.122
 1843SOL     OW 6427   2.892   1.544   6.848
 1843SOL    HW1 6428   2.809   1.581   6.890
 1843SOL    HW2 6429   2.868   1.493   6.765
 1844SOL     OW 6430   5.240   3.385   0.469
 1844SOL    HW1 6431   5.330   3.425   0.455
 1844SOL    HW2 6432   5.170   3.456   0.455
 1845SOL     OW 6433   1.037   2.679   4.286
 1845SOL    HW1 6434   0.939   2.688   4.305
 1845SOL    HW2 6435   1.056   2.586   4.256
 1846SOL     OW 6436   3.528   1.538   2.218
 1846SOL    HW1 6437   3.581   1.594   2.281
 1846SOL    HW2 6438   3.543   1.570   2.125
 1847SOL     OW 6439   2.393   6.018   0.156
 1847SOL    HW1 6440   2.300   5.997   0.126
 1847SOL    HW2 6441   2.454   6.024   0.077
 1848SOL     OW 6442   3.925   6.229   3.889
 1848SOL    HW1 6443   3.931   6.178   3.975
 1848SOL    HW2 6444   3.977   6.181   3.818
 1849SOL     OW 6445   4.818   3.001   2.684
 1849SOL    HW1 6446   4.843   3.053   2.602
 1849SOL    HW2 6447   4.833   3.058   2.765
 1850SOL     OW 6448   4.519   1.725   0.863
 1850SOL    HW1 6449   4.554   1.643   0.907
 1850SOL    HW2 6450   4.427   1.745   0.897
 1851SOL     OW 6451   0.707   5.145   4.152
 1851SOL    HW1 6452   0.805   5.131   4.158
 1851SOL    HW2 6453   0.686   5.242   4.166
 1852SOL     OW 6454   0.345   6.582   3.670
 1852SOL    HW1 6455   0.445   6.578   3.678
 1852SOL    HW2 6456   0.307   6.624   3.752
 1853SOL     OW 6457   0.884   1.716   5.762
 1853SOL    HW1 6458   0.917   1.752   5.849
 1853SOL    HW2 6459   0.803   1.767   5.734
 1854SOL     OW 6460   0.543   0.105   4.441
 1854SOL    HW1 6461   0.462   0.105   4.499
 1854SOL    HW2 6462   0.522   0.058   4.355
 1855SOL     OW 6463   6.544   1.454   4.733
 1855SOL    HW1 6464   6.539   1.359   4.702
 1855SOL    HW2 6465   6.458   1.501   4.712
 1856SOL     OW 6466   4.997   4.391   6.732
 1856SOL    HW1 6467   4.921   4.414   6.671
 1856SOL    HW2 6468   4.963   4.377   6.825
 1857SOL     OW 6469   4.131   1.000   6.513
 1857SOL    HW1 6470   4.175   1.040   6.433
 1857SOL    HW2 6471   4.123   1.070   6.584
 1858SOL     OW 6472   5.585   1.802   5.102
 1858SOL    HW1 6473   5.598   1.703   5.107
 1858SOL    HW2 6474   5.501   1.822   5.052
 1859SOL     OW 6475   6.967   6.901   2.493
 1859SOL    HW1 6476   0.032   6.898   2.545
 1859SOL    HW2 6477   6.908   6.973   2.530
 1860SOL     OW 6478   2.534   0.925   6.223
 1860SOL    HW1 6479   2.453   0.883   6.264
 1860SOL    HW2 6480   2.615   0.869   6.245
 1861SOL     OW 6481   6.717   6.720   5.223
 1861SOL    HW1 6482   6.735   6.636   5.274
 1861SOL    HW2 6483   6.629   6.758   5.251
 1862SOL     OW 6484   3.415   5.911   6.146
 1862SOL    HW1 6485   3.469   5.965   6.081
 1862SOL    HW2 6486   3.466   5.900   6.231
 1863SOL     OW 6487   6.956   1.318   1.524
 1863SOL    HW1 6488   7.002   1.249   1.578
 1863SOL    HW2 6489   6.905   1.380   1.584
 1864SOL     OW 6490   2.081   6.802   2.303
 1864SOL    HW1 6491   2.025   6.720   2.313
 1864SOL    HW2 6492   2.177   6.777   2.293
 1865SOL     OW 6493   6.492   1.985   6.053
 1865SOL    HW1 6494   6.499   1.927   5.972
 1865SOL    HW2 6495   6.438   1.939   6.123
 1866SOL     OW 6496   6.629   4.456   4.065
 1866SOL    HW1 6497   6.694   4.483   4.136
 1866SOL    HW2 6498   6.677   4.405   3.994
 1867SOL     OW 6499   1.080   1.206   1.436
 1867SOL    HW1 6500   1.077   1.305   1.449
 1867SOL    HW2 6501   1.176   1.176   1.434
 1868SOL     OW 6502   4.875   4.022   5.900
 1868SOL    HW1 6503   4.859   4.087   5.974
 1868SOL    HW2 6504   4.791   3.972   5.880
 1869SOL     OW 6505   5.403   0.878   5.188
 1869SOL    HW1 6506   5.388   0.975   5.202
 1869SOL    HW2 6507   5.476   0.864   5.121
 1870SOL     OW 6508   6.096   0.441   6.037
 1870SOL    HW1 6509   6.063   0.412   6.127
 1870SOL    HW2 6510   6.184   0.398   6.018
 1871SOL     OW 6511   1.732   5.172   6.975
 1871SOL    HW1 6512   1.671   5.250   6.961
 1871SOL    HW2 6513   1.763   5.136   6.887
 1872SOL     OW 6514   2.369   3.237   0.984
 1872SOL    HW1 6515   2.327   3.181   1.055
 1872SOL    HW2 6516   2.466   3.214   0.976
 1873SOL     OW 6517   5.592   1.963   2.435
 1873SOL    HW1 6518   5.576   1.876   2.388
 1873SOL    HW2 6519   5.647   2.023   2.377
 1874SOL     OW 6520   1.545   5.781   6.461
 1874SOL    HW1 6521   1.630   5.759   6.414
 1874SOL    HW2 6522   1.519   5.875   6.441
 1875SOL     OW 6523   0.869   6.243   2.336
 1875SOL    HW1 6524   0.831   6.207   2.420
 1875SOL    HW2 6525   0.943   6.307   2.358
 1876SOL     OW 6526   0.811   4.796   0.282
 1876SOL    HW1 6527   0.847   4.794   0.189
 1876SOL    HW2 6528   0.883   4.773   0.347
 1877SOL     OW 6529   1.233   1.095   3.034
 1877SOL    HW1 6530   1.328   1.072   3.013
 1877SOL    HW2 6531   1.214   1.072   3.129
 1878SOL     OW 6532   5.591   3.807   4.432
 1878SOL    HW1 6533   5.650   3.864   4.489
 1878SOL    HW2 6534   5.530   3.754   4.491
 1879SOL     OW 6535   4.321   6.492   5.458
 1879SOL    HW1 6536   4.404   6.501   5.402
 1879SOL    HW2 6537   4.307   6.576   5.510
 1880SOL     OW 6538   1.154   2.835   4.464
 1880SOL    HW1 6539   1.111   2.789   4.386
 1880SOL    HW2 6540   1.182   2.767   4.532
 1881SOL     OW 6541   2.155   1.334   3.672
 1881SOL    HW1 6542   2.123   1.364   3.762
 1881SOL    HW2 6543   2.132   1.403   3.604
 1882SOL     OW 6544   3.717   5.496   0.829
 1882SOL    HW1 6545   3.625   5.534   0.828
 1882SOL    HW2 6546   3.763   5.521   0.914
 1883SOL     OW 6547   2.154   3.391   2.462
 1883SOL    HW1 6548   2.061   3.354   2.464
 1883SOL    HW2 6549   2.212   3.341   2.526
 1884SOL     OW 6550   5.002   0.705   0.350
 1884SOL    HW1 6551   5.091   0.698   0.306
 1884SOL    HW2 6552   5.002   0.781   0.415
 1885SOL     OW 6553   0.265   1.561   0.363
 1885SOL    HW1 6554   0.171   1.548   0.333
 1885SOL    HW2 6555   0.323   1.582   0.283
 1886SOL     OW 6556   3.369   2.895   5.547
 1886SOL    HW1 6557   3.322   2.931   5.628
 1886SOL    HW2 6558   3.419   2.969   5.501
 1887SOL     OW 6559   0.760   5.856   5.109
 1887SOL    HW1 6560   0.796   5.842   5.017
 1887SOL    HW2 6561   0.828   5.825   5.176
 1888SOL     OW 6562   1.898   1.501   6.172
 1888SOL    HW1 6563   1.852   1.539   6.252
 1888SOL    HW2 6564   1.961   1.569   6.135
 1889SOL     OW 6565   3.628   3.250   6.940
 1889SOL    HW1 6566   3.605   3.230   6.844
 1889SOL    HW2 6567   3.714   3.206   6.963
 1890SOL     OW 6568   6.341   5.743   6.332
 1890SOL    HW1 6569   6.382   5.809   6.269
 1890SOL    HW2 6570   6.336   5.653   6.287
 1891SOL     OW 6571   5.349   3.596   6.854
 1891SOL    HW1 6572   5.388   3.648   6.930
 1891SOL    HW2 6573   5.397   3.508   6.846
 1892SOL     OW 6574   4.613   0.194   3.121
 1892SOL    HW1 6575   4.674   0.189   3.200
 1892SOL    HW2 6576   4.576   0.287   3.114
 1893SOL     OW 6577   2.722   1.127   6.573
 1893SOL    HW1 6578   2.768   1.152   6.488
 1893SOL    HW2 6579   2.641   1.072   6.552
 1894SOL     OW 6580   5.009   3.249   0.617
 1894SOL    HW1 6581   5.098   3.204   0.622
 1894SOL    HW2 6582   5.018   3.336   0.569
 1895SOL     OW 6583   4.678   5.249   3.511
 1895SOL    HW1 6584   4.679   5.346   3.485
 1895SOL    HW2 6585   4.694   5.240   3.609
 1896SOL     OW 6586   6.670   1.582   5.003
 1896SOL    HW1 6587   6.578   1.556   4.974
 1896SOL    HW2 6588   6.727   1.599   4.922
 1897SOL     OW 6589   4.985   4.983   3.489
 1897SOL    HW1 6590   5.036   4.898   3.501
 1897SOL    HW2 6591   4.944   5.009   3.576
 1898SOL     OW 6592   5.543   6.313   6.966
 1898SOL    HW1 6593   5.639   6.330   6.987
 1898SOL    HW2 6594   5.486   6.348   0.020
 1899SOL     OW 6595   2.364   2.809   3.404
 1899SOL    HW1 6596   2.331   2.887   3.351
 1899SOL    HW2 6597   2.350   2.828   3.501
 1900SOL     OW 6598   2.109   5.702   1.804
 1900SOL    HW1 6599   2.100   5.610   1.843
 1900SOL    HW2 6600   2.180   5.701   1.733
 1901SOL     OW 6601   1.585   0.889   5.424
 1901SOL    HW1 6602   1.502   0.835   5.407
 1901SOL    HW2 6603   1.660   0.851   5.370
 1902SOL     OW 6604   0.896   2.948   4.076
 1902SOL    HW1 6605   0.955   3.006   4.133
 1902SOL    HW2 6606   0.835   2.895   4.135
 1903SOL     OW 6607   6.537   4.772   3.793
 1903SOL    HW1 6608   6.575   4.796   3.883
 1903SOL    HW2 6609   6.462   4.835   3.771
 1904SOL     OW 6610   0.987   0.413   3.888
 1904SOL    HW1 6611   1.042   0.331   3.870
 1904SOL    HW2 6612   0.998   0.477   3.812
 1905SOL     OW 6613   6.351   2.929   5.218
 1905SOL    HW1 6614   6.277   2.969   5.273
 1905SOL    HW2 6615   6.380   2.993   5.148
 1906SOL     OW 6616   2.158   6.864   5.429
 1906SOL    HW1 6617   2.059   6.846   5.430
 1906SOL    HW2 6618   2.188   6.891   5.521
 1907SOL     OW 6619   4.445   6.656   2.883
 1907SOL    HW1 6620   4.367   6.618   2.833
 1907SOL    HW2 6621   4.424   6.750   2.912
 1908SOL     OW 6622   4.722   5.735   1.054
 1908SOL    HW1 6623   4.741   5.793   1.134
 1908SOL    HW2 6624   4.807   5.692   1.024
 1909SOL     OW 6625   5.211   5.175   3.677
 1909SOL    HW1 6626   5.252   5.087   3.653
 1909SOL    HW2 6627   5.274   5.227   3.734
 1910SOL     OW 6628   4.905   3.702   4.585
 1910SOL    HW1 6629   4.901   3.667   4.678
 1910SOL    HW2 6630   4.932   3.628   4.523
 1911SOL     OW 6631   0.668   2.459   5.763
 1911SOL    HW1 6632   0.670   2.510   5.849
 1911SOL    HW2 6633   0.702   2.366   5.778
 1912SOL     OW 6634   3.506   6.558   2.977
 1912SOL    HW1 6635   3.532   6.544   2.881
 1912SOL    HW2 6636   3.474   6.651   2.990
 1913SOL     OW 6637   2.619   3.983   5.740
 1913SOL    HW1 6638   2.616   3.966   5.838
 1913SOL    HW2 6639   2.684   4.057   5.720
 1914SOL     OW 6640   4.327   1.427   4.892
 1914SOL    HW1 6641   4.229   1.405   4.889
 1914SOL    HW2 6642   4.370   1.402   4.805
 1915SOL     OW 6643   2.969   6.970   5.524
 1915SOL    HW1 6644   3.019   6.891   5.489
 1915SOL    HW2 6645   2.991   6.984   5.620
 1916SOL     OW 6646   3.345   6.259   2.642
 1916SOL    HW1 6647   3.321   6.194   2.569
 1916SOL    HW2 6648   3.422   6.223   2.693
 1917SOL     OW 6649   3.697   3.774   3.951
 1917SOL    HW1 6650   3.689   3.812   3.859
 1917SOL    HW2 6651   3.615   3.796   4.004
 1918SOL     OW 6652   0.139   6.582   5.061
 1918SOL    HW1 6653   0.092   6.563   4.975
 1918SOL    HW2 6654   0.148   6.680   5.073
 1919SOL     OW 6655   6.196   0.852   2.584
 1919SOL    HW1 6656   6.283   0.860   2.632
 1919SOL    HW2 6657   6.212   0.820   2.490
 1920SOL     OW 6658   6.575   6.570   5.007
 1920SOL    HW1 6659   6.571   6.586   5.106
 1920SOL    HW2 6660   6.502   6.621   4.962
 1921SOL     OW 6661   2.383   6.501   6.914
 1921SOL    HW1 6662   2.297   6.550   6.928
 1921SOL    HW2 6663   2.428   6.536   6.832
 1922SOL     OW 6664   3.481   4.091   0.596
 1922SOL    HW1 6665   3.408   4.025   0.611
 1922SOL    HW2 6666   3.563   4.044   0.562
 1923SOL     OW 6667   1.654   3.184   0.559
 1923SOL    HW1 6668   1.645   3.122   0.638
 1923SOL    HW2 6669   1.729   3.248   0.577
 1924SOL     OW 6670   0.391   3.590   1.131
 1924SOL    HW1 6671   0.475   3.537   1.138
 1924SOL    HW2 6672   0.354   3.607   1.222
 1925SOL     OW 6673   3.173   4.257   0.355
 1925SOL    HW1 6674   3.151   4.160   0.344
 1925SOL    HW2 6675   3.192   4.297   0.265
 1926SOL     OW 6676   0.702   0.801   3.830
 1926SOL    HW1 6677   0.760   0.725   3.861
 1926SOL    HW2 6678   0.713   0.878   3.893
 1927SOL     OW 6679   5.191   2.974   1.352
 1927SOL    HW1 6680   5.211   2.895   1.294
 1927SOL    HW2 6681   5.132   2.946   1.428
 1928SOL     OW 6682   0.345   5.478   4.389
 1928SOL    HW1 6683   0.279   5.502   4.460
 1928SOL    HW2 6684   0.385   5.389   4.409
 1929SOL     OW 6685   1.051   5.597   3.010
 1929SOL    HW1 6686   0.983   5.666   2.985
 1929SOL    HW2 6687   1.015   5.506   2.991
 1930SOL     OW 6688   6.822   5.323   6.030
 1930SOL    HW1 6689   6.817   5.380   6.112
 1930SOL    HW2 6690   6.866   5.236   6.052
 1931SOL     OW 6691   0.850   2.100   4.303
 1931SOL    HW1 6692   0.818   2.152   4.223
 1931SOL    HW2 6693   0.776   2.040   4.334
 1932SOL     OW 6694   5.929   3.427   2.702
 1932SOL    HW1 6695   5.864   3.367   2.749
 1932SOL    HW2 6696   5.999   3.371   2.657
 1933SOL     OW 6697   2.995   5.033   0.302
 1933SOL    HW1 6698   3.047   5.023   0.387
 1933SOL    HW2 6699   3.053   5.007   0.224
 1934SOL     OW 6700   6.863   5.914   2.881
 1934SOL    HW1 6701   6.803   5.922   2.802
 1934SOL    HW2 6702   6.953   5.952   2.858
 1935SOL     OW 6703   1.692   1.071   3.198
 1935SOL    HW1 6704   1.643   1.145   3.153
 1935SOL    HW2 6705   1.778   1.107   3.236
 1936SOL     OW 6706   0.125   6.198   4.977
 1936SOL    HW1 6707   0.114   6.100   4.988
 1936SOL    HW2 6708   0.044   6.245   5.011
 1937SOL     OW 6709   3.991   1.175   2.909
 1937SOL    HW1 6710   4.078   1.129   2.928
 1937SOL    HW2 6711   4.001   1.273   2.927
 1938SOL     OW 6712   5.821   0.119   4.628
 1938SOL    HW1 6713   5.816   0.080   4.536
 1938SOL    HW2 6714   5.823   0.045   4.696
 1939SOL     OW 6715   3.243   0.289   4.353
 1939SOL    HW1 6716   3.224   0.345   4.434
 1939SOL    HW2 6717   3.181   0.211   4.351
 1940SOL     OW 6718   6.360   6.217   6.431
 1940SOL    HW1 6719   6.274   6.176   6.400
 1940SOL    HW2 6720   6.341   6.305   6.474
 1941SOL     OW 6721   4.730   5.136   2.322
 1941SOL    HW1 6722   4.775   5.223   2.305
 1941SOL    HW2 6723   4.677   5.109   2.241
 1942SOL     OW 6724   0.286   3.546   2.986
 1942SOL    HW1 6725   0.272   3.524   2.890
 1942SOL    HW2 6726   0.208   3.514   3.040
 1943SOL     OW 6727   2.838   5.890   3.384
 1943SOL    HW1 6728   2.901   5.899   3.308
 1943SOL    HW2 6729   2.820   5.980   3.424
 1944SOL     OW 6730   6.868   6.483   1.835
 1944SOL    HW1 6731   6.810   6.494   1.916
 1944SOL    HW2 6732   6.947   6.427   1.857
 1945SOL     OW 6733   3.286   4.967   3.259
 1945SOL    HW1 6734   3.220   4.896   3.283
 1945SOL    HW2 6735   3.373   4.924   3.235
 1946SOL     OW 6736   1.339   6.701   6.797
 1946SOL    HW1 6737   1.292   6.788   6.806
 1946SOL    HW2 6738   1.271   6.628   6.781
 1947SOL     OW 6739   4.676   6.978   2.973
 1947SOL    HW1 6740   4.604   6.959   2.907
 1947SOL    HW2 6741   4.659   0.046   3.016
 1948SOL     OW 6742   6.212   3.600   5.257
 1948SOL    HW1 6743   6.192   3.505   5.234
 1948SOL    HW2 6744   6.229   3.652   5.174
 1949SOL     OW 6745   4.220   4.457   6.711
 1949SOL    HW1 6746   4.156   4.531   6.728
 1949SOL    HW2 6747   4.255   4.422   6.798
 1950SOL     OW 6748   3.650   5.247   0.790
 1950SOL    HW1 6749   3.728   5.189   0.815
 1950SOL    HW2 6750   3.674   5.343   0.805
 1951SOL     OW 6751   6.347   2.360   0.486
 1951SOL    HW1 6752   6.250   2.359   0.511
 1951SOL    HW2 6753   6.399   2.413   0.553
 1952SOL     OW 6754   3.328   2.900   4.439
 1952SOL    HW1 6755   3.250   2.925   4.382
 1952SOL    HW2 6756   3.409   2.952   4.410
 1953SOL     OW 6757   0.618   2.798   4.780
 1953SOL    HW1 6758   0.570   2.720   4.820
 1953SOL    HW2 6759   0.701   2.815   4.834
 1954SOL     OW 6760   2.323   1.681   3.871
 1954SOL    HW1 6761   2.408   1.732   3.887
 1954SOL    HW2 6762   2.287   1.647   3.957
 1955SOL     OW 6763   5.942   5.690   2.037
 1955SOL    HW1 6764   5.842   5.697   2.028
 1955SOL    HW2 6765   5.973   5.603   2.001
 1956SOL     OW 6766   4.899   5.957   2.785
 1956SOL    HW1 6767   4.981   5.919   2.829
 1956SOL    HW2 6768   4.838   5.993   2.855
 1957SOL     OW 6769   1.617   6.473   4.694
 1957SOL    HW1 6770   1.713   6.462   4.719
 1957SOL    HW2 6771   1.609   6.532   4.614
 1958SOL     OW 6772   3.783   3.884   5.775
 1958SOL    HW1 6773   3.720   3.811   5.748
 1958SOL    HW2 6774   3.744   3.973   5.751
 1959SOL     OW 6775   2.252   0.955   0.245
 1959SOL    HW1 6776   2.300   0.946   0.158
 1959SOL    HW2 6777   2.307   0.913   0.318
 1960SOL     OW 6778   5.405   5.720   2.905
 1960SOL    HW1 6779   5.393   5.798   2.966
 1960SOL    HW2 6780   5.335   5.652   2.925
 1961SOL     OW 6781   5.763   5.285   5.481
 1961SOL    HW1 6782   5.718   5.196   5.484
 1961SOL    HW2 6783   5.821   5.291   5.400
 1962SOL     OW 6784   0.005   6.744   3.939
 1962SOL    HW1 6785   6.994   6.651   3.918
 1962SOL    HW2 6786   0.104   6.749   3.925
 1963SOL     OW 6787   1.912   1.163   3.673
 1963SOL    HW1 6788   1.896   1.162   3.772
 1963SOL    HW2 6789   2.004   1.198   3.655
 1964SOL     OW 6790   6.052   3.112   2.667
 1964SOL    HW1 6791   6.049   3.117   2.767
 1964SOL    HW2 6792   6.124   3.172   2.632
 1965SOL     OW 6793   1.972   6.563   2.961
 1965SOL    HW1 6794   1.936   6.624   2.891
 1965SOL    HW2 6795   1.975   6.612   3.048
 1966SOL     OW 6796   6.292   0.246   6.766
 1966SOL    HW1 6797   6.201   0.205   6.779
 1966SOL    HW2 6798   6.360   0.190   6.815
 1967SOL     OW 6799   5.259   3.660   5.160
 1967SOL    HW1 6800   5.342   3.714   5.147
 1967SOL    HW2 6801   5.201   3.703   5.229
 1968SOL     OW 6802   3.726   5.181   4.770
 1968SOL    HW1 6803   3.739   5.274   4.737
 1968SOL    HW2 6804   3.677   5.127   4.700
 1969SOL     OW 6805   6.724   1.467   1.582
 1969SOL    HW1 6806   6.725   1.562   1.612
 1969SOL    HW2 6807   6.679   1.410   1.651
 1970SOL     OW 6808   1.796   0.695   3.472
 1970SOL    HW1 6809   1.707   0.681   3.428
 1970SOL    HW2 6810   1.794   0.656   3.564
 1971SOL     OW 6811   0.633   1.386   6.038
 1971SOL    HW1 6812   0.588   1.396   6.127
 1971SOL    HW2 6813   0.638   1.474   5.992
 1972SOL     OW 6814   1.481   0.373   3.496
 1972SOL    HW1 6815   1.490   0.348   3.592
 1972SOL    HW2 6816   1.570   0.366   3.451
 1973SOL     OW 6817   2.644   3.329   0.214
 1973SOL    HW1 6818   2.706   3.279   0.154
 1973SOL    HW2 6819   2.610   3.267   0.285
 1974SOL     OW 6820   5.912   6.990   4.407
 1974SOL    HW1 6821   5.992   0.028   4.417
 1974SOL    HW2 6822   5.933   6.918   4.341
 1975SOL     OW 6823   2.810   0.459   3.023
 1975SOL    HW1 6824   2.759   0.508   3.093
 1975SOL    HW2 6825   2.898   0.429   3.061
 1976SOL     OW 6826   6.360   3.747   6.371
 1976SOL    HW1 6827   6.458   3.727   6.364
 1976SOL    HW2 6828   6.308   3.670   6.337
 1977SOL     OW 6829   3.276   1.971   5.663
 1977SOL    HW1 6830   3.260   1.968   5.564
 1977SOL    HW2 6831   3.188   1.961   5.711
 1978SOL     OW 6832   6.998   2.584   5.266
 1978SOL    HW1 6833   6.928   2.640   5.310
 1978SOL    HW2 6834   0.068   2.610   5.302
 1979SOL     OW 6835   6.159   4.219   2.389
 1979SOL    HW1 6836   6.079   4.254   2.439
 1979SOL    HW2 6837   6.237   4.279   2.406
 1980SOL     OW 6838   2.723   1.290   2.201
 1980SOL    HW1 6839   2.785   1.362   2.232
 1980SOL    HW2 6840   2.767   1.201   2.216
 1981SOL     OW 6841   4.987   3.178   2.019
 1981SOL    HW1 6842   4.912   3.112   2.022
 1981SOL    HW2 6843   5.065   3.143   2.072
 1982SOL     OW 6844   0.061   0.041   5.083
 1982SOL    HW1 6845   0.058   6.980   5.141
 1982SOL    HW2 6846   0.050   0.014   4.987
 1983SOL     OW 6847   0.332   4.446   2.471
 1983SOL    HW1 6848   0.429   4.464   2.455
 1983SOL    HW2 6849   0.307   4.475   2.563
 1984SOL     OW 6850   4.777   0.737   4.707
 1984SOL    HW1 6851   4.838   0.723   4.785
 1984SOL    HW2 6852   4.757   0.649   4.663
 1985SOL     OW 6853   1.350   6.143   1.089
 1985SOL    HW1 6854   1.361   6.077   1.163
 1985SOL    HW2 6855   1.397   6.228   1.113
 1986SOL     OW 6856   0.120   2.748   0.254
 1986SOL    HW1 6857   0.210   2.769   0.292
 1986SOL    HW2 6858   0.052   2.813   0.288
 1987SOL     OW 6859   2.376   4.399   6.483
 1987SOL    HW1 6860   2.396   4.492   6.451
 1987SOL    HW2 6861   2.450   4.367   6.541
 1988SOL     OW 6862   4.792   3.124   0.485
 1988SOL    HW1 6863   4.874   3.164   0.526
 1988SOL    HW2 6864   4.763   3.181   0.407
 1989SOL     OW 6865   2.068   2.298   4.510
 1989SOL    HW1 6866   2.029   2.211   4.479
 1989SOL    HW2 6867   2.144   2.279   4.573
 1990SOL     OW 6868   1.448   0.640   3.003
 1990SOL    HW1 6869   1.522   0.687   3.052
 1990SOL    HW2 6870   1.365   0.695   3.008
 1991SOL     OW 6871   4.716   5.883   2.616
 1991SOL    HW1 6872   4.627   5.877   2.662
 1991SOL    HW2 6873   4.787   5.902   2.683
 1992SOL     OW 6874   2.286   6.185   5.422
 1992SOL    HW1 6875   2.318   6.266   5.373
 1992SOL    HW2 6876   2.354   6.159   5.490
 1993SOL     OW 6877   2.869   3.512   4.057
 1993SOL    HW1 6878   2.854   3.563   4.142
 1993SOL    HW2 6879   2.794   3.448   4.043
 1994SOL     OW 6880   6.407   2.216   2.177
 1994SOL    HW1 6881   6.482   2.261   2.226
 1994SOL    HW2 6882   6.344   2.176   2.244
 1995SOL     OW 6883   3.971   2.185   1.338
 1995SOL    HW1 6884   3.891   2.127   1.319
 1995SOL    HW2 6885   3.996   2.178   1.435
 1996SOL     OW 6886   2.840   4.366   5.434
 1996SOL    HW1 6887   2.806   4.280   5.397
 1996SOL    HW2 6888   2.862   4.428   5.359
 1997SOL     OW 6889   5.653   6.233   3.491
 1997SOL    HW1 6890   5.582   6.170   3.522
 1997SOL    HW2 6891   5.732   6.228   3.553
 1998SOL     OW 6892   3.237   4.922   5.200
 1998SOL    HW1 6893   3.336   4.937   5.206
 1998SOL    HW2 6894   3.205   4.877   5.283
 1999SOL     OW 6895   2.467   1.676   1.915
 1999SOL    HW1 6896   2.438   1.581   1.918
 1999SOL    HW2 6897   2.510   1.700   2.002
 2000SOL     OW 6898   3.300   0.927   5.029
 2000SOL    HW1 6899   3.375   0.865   5.004
 2000SOL    HW2 6900   3.255   0.960   4.946
 2001SOL     OW 6901   2.335   3.167   0.094
 2001SOL    HW1 6902   2.241   3.173   0.128
 2001SOL    HW2 6903   2.356   3.248   0.039
 2002SOL     OW 6904   1.277   5.287   4.998
 2002SOL    HW1 6905   1.319   5.286   4.908
 2002SOL    HW2 6906   1.179   5.272   4.990
 2003SOL     OW 6907   6.611   4.343   3.396
 2003SOL    HW1 6908   6.558   4.369   3.315
 2003SOL    HW2 6909   6.605   4.416   3.464
 2004SOL     OW 6910   3.276   6.924   6.693
 2004SOL    HW1 6911   3.202   6.927   6.626
 2004SOL    HW2 6912   3.245   6.876   6.775
 2005SOL     OW 6913   2.897   6.591   5.272
 2005SOL    HW1 6914   2.991   6.597   5.236
 2005SOL    HW2 6915   2.898   6.542   5.359
 2006SOL     OW 6916   4.948   6.347   3.289
 2006SOL    HW1 6917   4.871   6.286   3.311
 2006SOL    HW2 6918   4.970   6.339   3.192
 2007SOL     OW 6919   6.318   5.718   6.757
 2007SOL    HW1 6920   6.371   5.768   6.825
 2007SOL    HW2 6921   6.378   5.654   6.709
 2008SOL     OW 6922   0.322   6.165   5.266
 2008SOL    HW1 6923   0.411   6.120   5.273
 2008SOL    HW2 6924   0.252   6.097   5.245
 2009SOL     OW 6925   1.123   0.261   6.710
 2009SOL    HW1 6926   1.056   0.205   6.760
 2009SOL    HW2 6927   1.161   0.331   6.770
 2010SOL     OW 6928   1.716   1.014   1.128
 2010SOL    HW1 6929   1.731   0.921   1.160
 2010SOL    HW2 6930   1.737   1.019   1.030
 2011SOL     OW 6931   0.018   2.062   5.128
 2011SOL    HW1 6932   6.948   2.070   5.085
 2011SOL    HW2 6933   0.060   1.975   5.102
 2012SOL     OW 6934   6.701   2.852   0.803
 2012SOL    HW1 6935   6.736   2.878   0.894
 2012SOL    HW2 6936   6.779   2.833   0.743
 2013SOL     OW 6937   4.277   2.296   1.988
 2013SOL    HW1 6938   4.325   2.297   2.076
 2013SOL    HW2 6939   4.192   2.244   1.997
 2014SOL     OW 6940   3.319   6.008   3.297
 2014SOL    HW1 6941   3.275   5.935   3.348
 2014SOL    HW2 6942   3.383   5.968   3.230
 2015SOL     OW 6943   3.526   6.482   0.448
 2015SOL    HW1 6944   3.571   6.525   0.370
 2015SOL    HW2 6945   3.508   6.386   0.428
 2016SOL     OW 6946   6.376   5.945   4.072
 2016SOL    HW1 6947   6.454   6.007   4.087
 2016SOL    HW2 6948   6.354   5.943   3.974
 2017SOL     OW 6949   2.250   4.882   2.026
 2017SOL    HW1 6950   2.346   4.912   2.027
 2017SOL    HW2 6951   2.192   4.958   2.056
 2018SOL     OW 6952   0.556   3.716   6.030
 2018SOL    HW1 6953   0.565   3.781   5.955
 2018SOL    HW2 6954   0.504   3.636   5.998
 2019SOL     OW 6955   5.571   1.487   2.792
 2019SOL    HW1 6956   5.499   1.553   2.768
 2019SOL    HW2 6957   5.532   1.415   2.849
 2020SOL     OW 6958   2.170   5.457   3.083
 2020SOL    HW1 6959   2.079   5.418   3.096
 2020SOL    HW2 6960   2.163   5.553   3.056
 2021SOL     OW 6961   2.135   0.343   1.864
 2021SOL    HW1 6962   2.088   0.417   1.816
 2021SOL    HW2 6963   2.189   0.290   1.798
 2022SOL     OW 6964   2.858   4.943   1.057
 2022SOL    HW1 6965   2.947   4.904   1.033
 2022SOL    HW2 6966   2.794   4.929   0.981
 2023SOL     OW 6967   6.301   1.583   6.191
 2023SOL    HW1 6968   6.316   1.602   6.094
 2023SOL    HW2 6969   6.226   1.517   6.201
 2024SOL     OW 6970   6.036   0.409   2.984
 2024SOL    HW1 6971   6.095   0.333   3.011
 2024SOL    HW2 6972   6.030   0.413   2.884
 2025SOL     OW 6973   6.168   0.718   0.878
 2025SOL    HW1 6974   6.175   0.798   0.938
 2025SOL    HW2 6975   6.154   0.636   0.934
 2026SOL     OW 6976   1.856   1.867   5.062
 2026SOL    HW1 6977   1.825   1.791   5.005
 2026SOL    HW2 6978   1.776   1.915   5.098
 2027SOL     OW 6979   0.284   0.944   2.303
 2027SOL    HW1 6980   0.234   0.988   2.230
 2027SOL    HW2 6981   0.226   0.936   2.384
 2028SOL     OW 6982   3.606   4.127   5.815
 2028SOL    HW1 6983   3.679   4.189   5.787
 2028SOL    HW2 6984   3.541   4.177   5.873
 2029SOL     OW 6985   1.682   0.431   0.437
 2029SOL    HW1 6986   1.615   0.413   0.509
 2029SOL    HW2 6987   1.772   0.442   0.479
 2030SOL     OW 6988   1.814   2.750   3.148
 2030SOL    HW1 6989   1.768   2.665   3.174
 2030SOL    HW2 6990   1.900   2.758   3.200
 2031SOL     OW 6991   5.787   0.330   2.923
 2031SOL    HW1 6992   5.874   0.348   2.970
 2031SOL    HW2 6993   5.805   0.275   2.841
 2032SOL     OW 6994   4.446   6.238   1.752
 2032SOL    HW1 6995   4.355   6.197   1.748
 2032SOL    HW2 6996   4.478   6.238   1.847
 2033SOL     OW 6997   0.037   5.069   6.868
 2033SOL    HW1 6998   0.024   5.097   6.963
 2033SOL    HW2 6999   0.034   4.969   6.862
 2034SOL     OW 7000   2.074   6.396   3.407
 2034SOL    HW1 7001   2.148   6.440   3.356
 2034SOL    HW2 7002   2.112   6.353   3.490
 2035SOL     OW 7003   0.496   2.272   1.965
 2035SOL    HW1 7004   0.405   2.306   1.941
 2035SOL    HW2 7005   0.497   2.242   2.060
 2036SOL     OW 7006   0.532   4.297   0.656
 2036SOL    HW1 7007   0.578   4.308   0.568
 2036SOL    HW2 7008   0.539   4.382   0.708
 2037SOL     OW 7009   0.391   1.835   6.610
 2037SOL    HW1 7010   0.427   1.742   6.625
 2037SOL    HW2 7011   0.316   1.852   6.674
 2038SOL     OW 7012   1.045   0.144   4.801
 2038SOL    HW1 7013   1.018   0.076   4.869
 2038SOL    HW2 7014   1.140   0.127   4.773
 2039SOL     OW 7015   1.233   5.371   1.919
 2039SOL    HW1 7016   1.178   5.420   1.851
 2039SOL    HW2 7017   1.179   5.358   2.002
 2040SOL     OW 7018   3.821   3.737   4.324
 2040SOL    HW1 7019   3.767   3.755   4.242
 2040SOL    HW2 7020   3.897   3.677   4.301
 2041SOL     OW 7021   5.515   2.818   6.986
 2041SOL    HW1 7022   5.560   2.907   6.993
 2041SOL    HW2 7023   5.516   2.787   6.891
 2042SOL     OW 7024   3.301   5.962   0.390
 2042SOL    HW1 7025   3.218   5.929   0.436
 2042SOL    HW2 7026   3.352   5.885   0.353
 2043SOL     OW 7027   4.443   5.086   2.632
 2043SOL    HW1 7028   4.417   5.054   2.540
 2043SOL    HW2 7029   4.531   5.133   2.626
 2044SOL     OW 7030   6.579   0.603   1.841
 2044SOL    HW1 7031   6.558   0.699   1.820
 2044SOL    HW2 7032   6.596   0.553   1.756
 2045SOL     OW 7033   2.704   6.162   6.304
 2045SOL    HW1 7034   2.718   6.067   6.276
 2045SOL    HW2 7035   2.750   6.223   6.240
 2046SOL     OW 7036   6.433   0.166   5.353
 2046SOL    HW1 7037   6.431   0.254   5.400
 2046SOL    HW2 7038   6.504   0.167   5.283
 2047SOL     OW 7039   4.919   2.615   0.319
 2047SOL    HW1 7040   4.948   2.680   0.250
 2047SOL    HW2 7041   4.821   2.626   0.337
 2048SOL     OW 7042   4.896   6.305   5.572
 2048SOL    HW1 7043   4.834   6.250   5.516
 2048SOL    HW2 7044   4.845   6.344   5.648
 2049SOL     OW 7045   4.926   6.091   0.164
 2049SOL    HW1 7046   4.908   6.187   0.186
 2049SOL    HW2 7047   4.845   6.036   0.183
 2050SOL     OW 7048   5.391   0.375   4.119
 2050SOL    HW1 7049   5.480   0.407   4.089
 2050SOL    HW2 7050   5.325   0.450   4.113
 2051SOL     OW 7051   2.919   5.204   0.670
 2051SOL    HW1 7052   2.881   5.133   0.611
 2051SOL    HW2 7053   2.845   5.255   0.713
 2052SOL     OW 7054   1.247   3.194   0.573
 2052SOL    HW1 7055   1.266   3.233   0.662
 2052SOL    HW2 7056   1.148   3.187   0.560
 2053SOL     OW 7057   5.425   1.704   0.709
 2053SOL    HW1 7058   5.368   1.659   0.778
 2053SOL    HW2 7059   5.521   1.697   0.736
 2054SOL     OW 7060   6.869   3.453   1.450
 2054SOL    HW1 7061   6.832   3.496   1.532
 2054SOL    HW2 7062   6.941   3.388   1.475
 2055SOL     OW 7063   6.460   1.901   3.901
 2055SOL    HW1 7064   6.510   1.861   3.978
 2055SOL    HW2 7065   6.504   1.986   3.872
 2056SOL     OW 7066   1.116   6.918   1.770
 2056SOL    HW1 7067   1.056   6.859   1.824
 2056SOL    HW2 7068   1.197   6.941   1.824
 2057SOL     OW 7069   5.698   2.393   4.532
 2057SOL    HW1 7070   5.627   2.435   4.588
 2057SOL    HW2 7071   5.782   2.386   4.585
 2058SOL     OW 7072   0.595   1.838   1.925
 2058SOL    HW1 7073   0.639   1.789   1.850
 2058SOL    HW2 7074   0.624   1.934   1.923
 2059SOL     OW 7075   1.651   0.562   6.611
 2059SOL    HW1 7076   1.730   0.506   6.637
 2059SOL    HW2 7077   1.613   0.605   6.693
 2060SOL     OW 7078   0.097   5.341   2.084
 2060SOL    HW1 7079   0.023   5.367   2.021
 2060SOL    HW2 7080   0.085   5.390   2.171
 2061SOL     OW 7081   0.848   1.073   1.407
 2061SOL    HW1 7082   0.938   1.115   1.414
 2061SOL    HW2 7083   0.851   1.000   1.339
 2062SOL     OW 7084   4.171   0.295   3.875
 2062SOL    HW1 7085   4.167   0.382   3.924
 2062SOL    HW2 7086   4.195   0.221   3.938
 2063SOL     OW 7087   2.056   1.825   0.838
 2063SOL    HW1 7088   2.103   1.837   0.750
 2063SOL    HW2 7089   1.959   1.805   0.822
 2064SOL     OW 7090   1.203   1.943   0.283
 2064SOL    HW1 7091   1.279   1.996   0.245
 2064SOL    HW2 7092   1.231   1.847   0.293
 2065SOL     OW 7093   6.828   3.670   2.644
 2065SOL    HW1 7094   6.749   3.659   2.584
 2065SOL    HW2 7095   6.816   3.751   2.701
 2066SOL     OW 7096   1.240   6.497   3.135
 2066SOL    HW1 7097   1.249   6.567   3.064
 2066SOL    HW2 7098   1.327   6.489   3.184
 2067SOL     OW 7099   6.975   0.087   0.785
 2067SOL    HW1 7100   6.938   7.017   0.806
 2067SOL    HW2 7101   0.013   0.081   0.704
 2068SOL     OW 7102   2.049   1.545   5.332
 2068SOL    HW1 7103   2.016   1.618   5.392
 2068SOL    HW2 7104   1.972   1.504   5.283
 2069SOL     OW 7105   1.299   2.115   1.578
 2069SOL    HW1 7106   1.393   2.092   1.605
 2069SOL    HW2 7107   1.238   2.039   1.602
 2070SOL     OW 7108   0.782   0.912   2.650
 2070SOL    HW1 7109   0.774   1.010   2.633
 2070SOL    HW2 7110   0.859   0.874   2.599
 2071SOL     OW 7111   2.208   6.148   5.059
 2071SOL    HW1 7112   2.225   6.240   5.094
 2071SOL    HW2 7113   2.139   6.153   4.986
 2072SOL     OW 7114   4.932   4.691   2.206
 2072SOL    HW1 7115   4.977   4.750   2.140
 2072SOL    HW2 7116   4.979   4.602   2.209
 2073SOL     OW 7117   3.315   6.461   5.073
 2073SOL    HW1 7118   3.366   6.522   5.133
 2073SOL    HW2 7119   3.335   6.484   4.978
 2074SOL     OW 7120   6.076   2.521   2.746
 2074SOL    HW1 7121   6.149   2.497   2.811
 2074SOL    HW2 7122   6.037   2.437   2.707
 2075SOL     OW 7123   3.354   3.732   5.853
 2075SOL    HW1 7124   3.363   3.702   5.948
 2075SOL    HW2 7125   3.279   3.682   5.809
 2076SOL     OW 7126   5.113   0.432   1.083
 2076SOL    HW1 7127   5.035   0.479   1.125
 2076SOL    HW2 7128   5.164   0.497   1.027
 2077SOL     OW 7129   5.009   1.176   3.687
 2077SOL    HW1 7130   5.103   1.142   3.676
 2077SOL    HW2 7131   5.001   1.223   3.774
 2078SOL     OW 7132   3.892   5.511   4.922
 2078SOL    HW1 7133   3.815   5.500   4.986
 2078SOL    HW2 7134   3.856   5.514   4.829
 2079SOL     OW 7135   5.407   0.484   3.752
 2079SOL    HW1 7136   5.501   0.451   3.744
 2079SOL    HW2 7137   5.407   0.580   3.779
 2080SOL     OW 7138   2.915   1.785   4.181
 2080SOL    HW1 7139   2.862   1.866   4.159
 2080SOL    HW2 7140   2.896   1.713   4.115
 2081SOL     OW 7141   1.183   6.332   4.304
 2081SOL    HW1 7142   1.222   6.271   4.235
 2081SOL    HW2 7143   1.231   6.320   4.391
 2082SOL     OW 7144   4.940   0.591   2.019
 2082SOL    HW1 7145   4.867   0.647   2.057
 2082SOL    HW2 7146   4.905   0.538   1.942
 2083SOL     OW 7147   3.708   4.753   5.817
 2083SOL    HW1 7148   3.721   4.744   5.718
 2083SOL    HW2 7149   3.730   4.666   5.861
 2084SOL     OW 7150   6.829   2.102   2.613
 2084SOL    HW1 7151   6.896   2.039   2.653
 2084SOL    HW2 7152   6.750   2.049   2.580
 2085SOL     OW 7153   5.742   5.846   6.876
 2085SOL    HW1 7154   5.690   5.902   6.810
 2085SOL    HW2 7155   5.832   5.886   6.889
 2086SOL     OW 7156   3.835   5.385   0.127
 2086SOL    HW1 7157   3.738   5.398   0.147
 2086SOL    HW2 7158   3.868   5.304   0.174
 2087SOL     OW 7159   6.363   5.710   3.587
 2087SOL    HW1 7160   6.286   5.729   3.648
 2087SOL    HW2 7161   6.369   5.612   3.570
 2088SOL     OW 7162   2.190   0.322   0.963
 2088SOL    HW1 7163   2.212   0.405   1.015
 2088SOL    HW2 7164   2.167   0.348   0.869
 2089SOL     OW 7165   2.686   0.896   0.189
 2089SOL    HW1 7166   2.724   0.818   0.238
 2089SOL    HW2 7167   2.749   0.925   0.117
 2090SOL     OW 7168   3.046   3.136   3.837
 2090SOL    HW1 7169   3.093   3.223   3.854
 2090SOL    HW2 7170   3.095   3.062   3.883
 2091SOL     OW 7171   2.444   4.915   0.714
 2091SOL    HW1 7172   2.380   4.992   0.704
 2091SOL    HW2 7173   2.405   4.834   0.670
 2092SOL     OW 7174   0.001   6.203   1.247
 2092SOL    HW1 7175   0.049   6.125   1.207
 2092SOL    HW2 7176   0.045   6.229   1.333
 2093SOL     OW 7177   1.233   2.792   1.255
 2093SOL    HW1 7178   1.286   2.774   1.172
 2093SOL    HW2 7179   1.144   2.749   1.248
 2094SOL     OW 7180   6.256   0.539   1.711
 2094SOL    HW1 7181   6.244   0.616   1.773
 2094SOL    HW2 7182   6.177   0.478   1.717
 2095SOL     OW 7183   6.794   4.851   4.691
 2095SOL    HW1 7184   6.726   4.923   4.703
 2095SOL    HW2 7185   6.877   4.875   4.742
 2096SOL     OW 7186   4.937   3.769   3.305
 2096SOL    HW1 7187   4.950   3.708   3.382
 2096SOL    HW2 7188   4.925   3.716   3.221
 2097SOL     OW 7189   6.329   3.757   6.657
 2097SOL    HW1 7190   6.392   3.695   6.704
 2097SOL    HW2 7191   6.336   3.743   6.559
 2098SOL     OW 7192   4.195   6.908   3.975
 2098SOL    HW1 7193   4.220   6.964   3.896
 2098SOL    HW2 7194   4.161   6.820   3.943
 2099SOL     OW 7195   2.876   1.803   3.028
 2099SOL    HW1 7196   2.798   1.862   3.049
 2099SOL    HW2 7197   2.890   1.738   3.103
 2100SOL     OW 7198   3.475   4.828   6.927
 2100SOL    HW1 7199   3.502   4.893   6.856
 2100SOL    HW2 7200   3.476   4.873   7.016
 2101SOL     OW 7201   0.130   0.675   2.072
 2101SOL    HW1 7202   0.145   0.618   1.992
 2101SOL    HW2 7203   0.203   0.660   2.138
 2102SOL     OW 7204   0.344   5.021   1.802
 2102SOL    HW1 7205   0.257   5.013   1.850
 2102SOL    HW2 7206   0.391   4.932   1.804
 2103SOL     OW 7207   2.817   3.439   6.017
 2103SOL    HW1 7208   2.772   3.448   6.106
 2103SOL    HW2 7209   2.912   3.469   6.025
 2104SOL     OW 7210   1.409   3.840   5.764
 2104SOL    HW1 7211   1.381   3.848   5.859
 2104SOL    HW2 7212   1.352   3.772   5.717
 2105SOL     OW 7213   5.924   5.707   1.428
 2105SOL    HW1 7214   5.908   5.657   1.343
 2105SOL    HW2 7215   6.022   5.722   1.441
 2106SOL     OW 7216   6.028   5.371   6.640
 2106SOL    HW1 7217   5.931   5.383   6.619
 2106SOL    HW2 7218   6.050   5.423   6.722
 2107SOL     OW 7219   2.824   4.523   0.339
 2107SOL    HW1 7220   2.765   4.595   0.377
 2107SOL    HW2 7221   2.855   4.463   0.414
 2108SOL     OW 7222   5.589   4.057   6.079
 2108SOL    HW1 7223   5.615   3.971   6.036
 2108SOL    HW2 7224   5.645   4.131   6.043
 2109SOL     OW 7225   5.636   5.902   2.875
 2109SOL    HW1 7226   5.569   5.966   2.838
 2109SOL    HW2 7227   5.590   5.818   2.903
 2110SOL     OW 7228   1.936   4.730   4.700
 2110SOL    HW1 7229   1.876   4.710   4.777
 2110SOL    HW2 7230   1.895   4.695   4.616
 2111SOL     OW 7231   1.919   2.903   0.134
 2111SOL    HW1 7232   1.921   2.955   0.219
 2111SOL    HW2 7233   1.987   2.940   0.071
 2112SOL     OW 7234   5.795   3.422   0.526
 2112SOL    HW1 7235   5.720   3.369   0.486
 2112SOL    HW2 7236   5.767   3.517   0.534
 2113SOL     OW 7237   6.484   1.500   3.056
 2113SOL    HW1 7238   6.441   1.564   2.993
 2113SOL    HW2 7239   6.565   1.460   3.013
 2114SOL     OW 7240   2.080   3.194   0.173
 2114SOL    HW1 7241   2.045   3.151   0.256
 2114SOL    HW2 7242   2.004   3.207   0.109
 2115SOL     OW 7243   3.088   5.811   1.506
 2115SOL    HW1 7244   3.169   5.794   1.450
 2115SOL    HW2 7245   3.013   5.751   1.475
 2116SOL     OW 7246   0.407   4.171   3.556
 2116SOL    HW1 7247   0.412   4.084   3.605
 2116SOL    HW2 7248   0.439   4.158   3.462
 2117SOL     OW 7249   0.309   5.966   6.215
 2117SOL    HW1 7250   0.240   6.011   6.271
 2117SOL    HW2 7251   0.393   6.021   6.214
 2118SOL     OW 7252   0.151   3.303   2.134
 2118SOL    HW1 7253   0.157   3.337   2.228
 2118SOL    HW2 7254   0.057   3.274   2.116
 2119SOL     OW 7255   3.695   6.693   1.134
 2119SOL    HW1 7256   3.628   6.652   1.195
 2119SOL    HW2 7257   3.768   6.628   1.115
 2120SOL     OW 7258   6.525   4.558   2.629
 2120SOL    HW1 7259   6.572   4.479   2.667
 2120SOL    HW2 7260   6.515   4.629   2.699
 2121SOL     OW 7261   0.716   3.895   4.693
 2121SOL    HW1 7262   0.813   3.874   4.705
 2121SOL    HW2 7263   0.696   3.982   4.738
 2122SOL     OW 7264   4.620   4.895   5.580
 2122SOL    HW1 7265   4.522   4.874   5.580
 2122SOL    HW2 7266   4.632   4.994   5.573
 2123SOL     OW 7267   4.303   4.634   3.840
 2123SOL    HW1 7268   4.395   4.610   3.872
 2123SOL    HW2 7269   4.241   4.558   3.856
 2124SOL     OW 7270   3.339   1.811   1.673
 2124SOL    HW1 7271   3.400   1.794   1.595
 2124SOL    HW2 7272   3.250   1.771   1.654
 2125SOL     OW 7273   4.538   6.654   0.576
 2125SOL    HW1 7274   4.478   6.730   0.600
 2125SOL    HW2 7275   4.494   6.568   0.602
 2126SOL     OW 7276   3.118   1.198   1.859
 2126SOL    HW1 7277   3.019   1.210   1.847
 2126SOL    HW2 7278   3.148   1.252   1.937
 2127SOL     OW 7279   5.800   2.986   5.305
 2127SOL    HW1 7280   5.788   3.078   5.344
 2127SOL    HW2 7281   5.745   2.977   5.223
 2128SOL     OW 7282   0.754   4.519   4.330
 2128SOL    HW1 7283   0.717   4.512   4.237
 2128SOL    HW2 7284   0.798   4.433   4.355
 2129SOL     OW 7285   4.114   1.913   5.801
 2129SOL    HW1 7286   4.177   1.979   5.760
 2129SOL    HW2 7287   4.149   1.820   5.788
 2130SOL     OW 7288   5.109   0.810   3.244
 2130SOL    HW1 7289   5.015   0.840   3.261
 2130SOL    HW2 7290   5.111   0.750   3.165
 2131SOL     OW 7291   5.348   1.508   6.665
 2131SOL    HW1 7292   5.357   1.563   6.748
 2131SOL    HW2 7293   5.252   1.505   6.638
 2132SOL     OW 7294   1.623   3.743   0.796
 2132SOL    HW1 7295   1.701   3.795   0.761
 2132SOL    HW2 7296   1.538   3.793   0.774
 2133SOL     OW 7297   2.275   3.944   5.877
 2133SOL    HW1 7298   2.290   3.900   5.788
 2133SOL    HW2 7299   2.355   3.928   5.935
 2134SOL     OW 7300   0.117   6.767   1.215
 2134SOL    HW1 7301   0.127   6.683   1.161
 2134SOL    HW2 7302   0.126   6.744   1.312
 2135SOL     OW 7303   6.847   4.378   5.182
 2135SOL    HW1 7304   6.916   4.451   5.182
 2135SOL    HW2 7305   6.858   4.322   5.100
 2136SOL     OW 7306   1.045   5.235   0.427
 2136SOL    HW1 7307   0.959   5.244   0.479
 2136SOL    HW2 7308   1.040   5.153   0.370
 2137SOL     OW 7309   1.566   6.220   4.156
 2137SOL    HW1 7310   1.562   6.299   4.217
 2137SOL    HW2 7311   1.658   6.179   4.160
 2138SOL     OW 7312   4.946   1.965   2.301
 2138SOL    HW1 7313   4.987   2.009   2.381
 2138SOL    HW2 7314   4.915   2.035   2.236
 2139SOL     OW 7315   2.776   0.013   5.170
 2139SOL    HW1 7316   2.745   0.084   5.233
 2139SOL    HW2 7317   2.765   6.944   5.213
 2140SOL     OW 7318   2.371   1.453   4.094
 2140SOL    HW1 7319   2.429   1.374   4.074
 2140SOL    HW2 7320   2.341   1.450   4.189
 2141SOL     OW 7321   6.712   3.231   3.125
 2141SOL    HW1 7322   6.716   3.205   3.028
 2141SOL    HW2 7323   6.689   3.328   3.132
 2142SOL     OW 7324   1.283   2.484   2.440
 2142SOL    HW1 7325   1.245   2.507   2.351
 2142SOL    HW2 7326   1.381   2.469   2.432
 2143SOL     OW 7327   0.483   5.097   5.846
 2143SOL    HW1 7328   0.455   5.174   5.789
 2143SOL    HW2 7329   0.478   5.013   5.794
 2144SOL     OW 7330   6.354   4.552   3.167
 2144SOL    HW1 7331   6.385   4.459   3.147
 2144SOL    HW2 7332   6.429   4.616   3.155
 2145SOL     OW 7333   4.259   1.199   3.649
 2145SOL    HW1 7334   4.357   1.218   3.647
 2145SOL    HW2 7335   4.213   1.267   3.706
 2146SOL     OW 7336   2.375   2.397   6.566
 2146SOL    HW1 7337   2.464   2.353   6.562
 2146SOL    HW2 7338   2.384   2.494   6.541
 2147SOL     OW 7339   6.076   6.563   4.181
 2147SOL    HW1 7340   6.026   6.514   4.110
 2147SOL    HW2 7341   6.156   6.509   4.209
 2148SOL     OW 7342   0.447   2.626   5.524
 2148SOL    HW1 7343   0.501   2.542   5.514
 2148SOL    HW2 7344   0.505   2.705   5.507
 2149SOL     OW 7345   0.845   6.664   0.101
 2149SOL    HW1 7346   0.765   6.715   0.132
 2149SOL    HW2 7347   0.887   6.617   0.179
 2150SOL     OW 7348   1.639   3.485   0.912
 2150SOL    HW1 7349   1.548   3.468   0.948
 2150SOL    HW2 7350   1.640   3.572   0.863
 2151SOL     OW 7351   0.933   4.828   0.045
 2151SOL    HW1 7352   1.023   4.863   0.018
 2151SOL    HW2 7353   0.862   4.872   7.011
 2152SOL     OW 7354   5.473   6.079   3.937
 2152SOL    HW1 7355   5.572   6.075   3.953
 2152SOL    HW2 7356   5.454   6.065   3.840
 2153SOL     OW 7357   5.120   6.779   4.414
 2153SOL    HW1 7358   5.076   6.809   4.499
 2153SOL    HW2 7359   5.066   6.705   4.374
 2154SOL     OW 7360   2.383   0.044   2.390
 2154SOL    HW1 7361   2.378   0.141   2.365
 2154SOL    HW2 7362   2.319   0.025   2.465
 2155SOL     OW 7363   4.144   0.548   0.881
 2155SOL    HW1 7364   4.146   0.471   0.944
 2155SOL    HW2 7365   4.090   0.623   0.921
 2156SOL     OW 7366   5.638   2.397   5.030
 2156SOL    HW1 7367   5.654   2.314   5.083
 2156SOL    HW2 7368   5.700   2.399   4.952
 2157SOL     OW 7369   3.870   6.479   4.546
 2157SOL    HW1 7370   3.927   6.432   4.613
 2157SOL    HW2 7371   3.882   6.578   4.554
 2158SOL     OW 7372   3.018   6.713   0.494
 2158SOL    HW1 7373   2.939   6.663   0.531
 2158SOL    HW2 7374   3.011   6.717   0.395
 2159SOL     OW 7375   0.685   1.216   5.555
 2159SOL    HW1 7376   0.587   1.235   5.544
 2159SOL    HW2 7377   0.737   1.300   5.541
 2160SOL     OW 7378   5.593   0.084   0.141
 2160SOL    HW1 7379   5.649   0.070   0.223
 2160SOL    HW2 7380   5.630   0.160   0.088
 2161SOL     OW 7381   1.687   3.630   0.289
 2161SOL    HW1 7382   1.722   3.564   0.355
 2161SOL    HW2 7383   1.655   3.582   0.207
 2162SOL     OW 7384   1.812   0.478   1.300
 2162SOL    HW1 7385   1.726   0.428   1.285
 2162SOL    HW2 7386   1.798   0.547   1.370
 2163SOL     OW 7387   1.857   3.652   3.189
 2163SOL    HW1 7388   1.810   3.565   3.208
 2163SOL    HW2 7389   1.951   3.634   3.163
 2164SOL     OW 7390   2.086   3.530   2.195
 2164SOL    HW1 7391   2.145   3.507   2.118
 2164SOL    HW2 7392   2.119   3.485   2.278
 2165SOL     OW 7393   6.556   1.186   4.585
 2165SOL    HW1 7394   6.620   1.113   4.561
 2165SOL    HW2 7395   6.489   1.197   4.511
 2166SOL     OW 7396   6.935   3.166   2.076
 2166SOL    HW1 7397   6.852   3.174   2.020
 2166SOL    HW2 7398   6.953   3.070   2.095
 2167SOL     OW 7399   1.561   2.005   3.033
 2167SOL    HW1 7400   1.613   1.920   3.029
 2167SOL    HW2 7401   1.486   1.996   3.098
 2168SOL     OW 7402   1.881   1.987   3.315
 2168SOL    HW1 7403   1.880   2.054   3.389
 2168SOL    HW2 7404   1.918   1.900   3.349
 2169SOL     OW 7405   6.608   6.825   1.265
 2169SOL    HW1 7406   6.514   6.823   1.300
 2169SOL    HW2 7407   6.629   6.918   1.233
 2170SOL     OW 7408   1.461   3.537   6.059
 2170SOL    HW1 7409   1.430   3.511   5.967
 2170SOL    HW2 7410   1.407   3.488   6.127
 2171SOL     OW 7411   6.716   6.035   0.967
 2171SOL    HW1 7412   6.626   5.992   0.978
 2171SOL    HW2 7413   6.784   5.965   0.946
 2172SOL     OW 7414   2.621   1.722   5.382
 2172SOL    HW1 7415   2.539   1.680   5.421
 2172SOL    HW2 7416   2.595   1.794   5.318
 2173SOL     OW 7417   5.090   0.466   4.467
 2173SOL    HW1 7418   5.175   0.461   4.415
 2173SOL    HW2 7419   5.079   0.384   4.523
 2174SOL     OW 7420   5.746   0.418   6.029
 2174SOL    HW1 7421   5.835   0.454   5.999
 2174SOL    HW2 7422   5.754   0.380   6.121
 2175SOL     OW 7423   3.090   3.646   5.393
 2175SOL    HW1 7424   3.152   3.718   5.424
 2175SOL    HW2 7425   2.995   3.679   5.398
 2176SOL     OW 7426   5.783   2.071   3.142
 2176SOL    HW1 7427   5.802   1.978   3.109
 2176SOL    HW2 7428   5.787   2.135   3.065
 2177SOL     OW 7429   1.268   1.296   4.987
 2177SOL    HW1 7430   1.185   1.256   4.947
 2177SOL    HW2 7431   1.346   1.237   4.969
 2178SOL     OW 7432   1.219   2.584   2.719
 2178SOL    HW1 7433   1.249   2.518   2.787
 2178SOL    HW2 7434   1.233   2.546   2.627
 2179SOL     OW 7435   1.533   3.819   6.731
 2179SOL    HW1 7436   1.569   3.878   6.659
 2179SOL    HW2 7437   1.575   3.844   6.819
 2180SOL     OW 7438   0.603   5.776   2.759
 2180SOL    HW1 7439   0.635   5.813   2.672
 2180SOL    HW2 7440   0.535   5.705   2.742
 2181SOL     OW 7441   3.963   4.896   4.661
 2181SOL    HW1 7442   4.022   4.850   4.594
 2181SOL    HW2 7443   3.989   4.866   4.753
 2182SOL     OW 7444   0.153   6.646   1.459
 2182SOL    HW1 7445   0.245   6.626   1.425
 2182SOL    HW2 7446   0.152   6.640   1.558
 2183SOL     OW 7447   3.313   3.217   6.555
 2183SOL    HW1 7448   3.215   3.233   6.543
 2183SOL    HW2 7449   3.331   3.118   6.555
 2184SOL     OW 7450   6.598   1.180   0.834
 2184SOL    HW1 7451   6.666   1.245   0.867
 2184SOL    HW2 7452   6.514   1.228   0.809
 2185SOL     OW 7453   0.831   0.928   5.900
 2185SOL    HW1 7454   0.755   0.876   5.939
 2185SOL    HW2 7455   0.798   1.015   5.864
 2186SOL     OW 7456   6.722   6.494   5.348
 2186SOL    HW1 7457   6.760   6.460   5.434
 2186SOL    HW2 7458   6.653   6.431   5.315
 2187SOL     OW 7459   5.782   5.143   1.559
 2187SOL    HW1 7460   5.800   5.209   1.486
 2187SOL    HW2 7461   5.772   5.052   1.519
 2188SOL     OW 7462   2.778   0.910   0.567
 2188SOL    HW1 7463   2.824   0.918   0.656
 2188SOL    HW2 7464   2.690   0.865   0.579
 2189SOL     OW 7465   1.775   1.063   1.820
 2189SOL    HW1 7466   1.788   0.999   1.744
 2189SOL    HW2 7467   1.752   1.153   1.784
 2190SOL     OW 7468   6.741   4.596   1.795
 2190SOL    HW1 7469   6.725   4.504   1.759
 2190SOL    HW2 7470   6.707   4.601   1.889
 2191SOL     OW 7471   3.386   0.381   6.813
 2191SOL    HW1 7472   3.369   0.390   6.911
 2191SOL    HW2 7473   3.463   0.439   6.787
 2192SOL     OW 7474   4.792   1.777   2.405
 2192SOL    HW1 7475   4.846   1.849   2.362
 2192SOL    HW2 7476   4.709   1.761   2.351
 2193SOL     OW 7477   2.490   0.232   5.184
 2193SOL    HW1 7478   2.404   0.211   5.230
 2193SOL    HW2 7479   2.474   0.300   5.113
 2194SOL     OW 7480   0.590   4.058   6.452
 2194SOL    HW1 7481   0.603   4.152   6.420
 2194SOL    HW2 7482   0.540   4.007   6.383
 2195SOL     OW 7483   0.267   3.948   4.508
 2195SOL    HW1 7484   0.340   4.013   4.488
 2195SOL    HW2 7485   0.249   3.892   4.427
 2196SOL     OW 7486   3.660   1.021   6.891
 2196SOL    HW1 7487   3.576   1.026   6.945
 2196SOL    HW2 7488   3.641   0.977   6.803
 2197SOL     OW 7489   3.420   5.563   5.974
 2197SOL    HW1 7490   3.470   5.535   6.056
 2197SOL    HW2 7491   3.482   5.610   5.912
 2198SOL     OW 7492   1.037   1.127   6.555
 2198SOL    HW1 7493   1.089   1.057   6.604
 2198SOL    HW2 7494   1.054   1.216   6.596
 2199SOL     OW 7495   4.130   6.694   3.547
 2199SOL    HW1 7496   4.102   6.624   3.613
 2199SOL    HW2 7497   4.217   6.733   3.575
 2200SOL     OW 7498   2.556   2.367   3.814
 2200SOL    HW1 7499   2.502   2.286   3.794
 2200SOL    HW2 7500   2.644   2.361   3.767
 2201SOL     OW 7501   5.511   3.808   5.174
 2201SOL    HW1 7502   5.489   3.897   5.135
 2201SOL    HW2 7503   5.603   3.810   5.213
 2202SOL     OW 7504   3.513   0.062   3.275
 2202SOL    HW1 7505   3.456   0.137   3.241
 2202SOL    HW2 7506   3.609   0.083   3.257
 2203SOL     OW 7507   1.617   5.383   1.292
 2203SOL    HW1 7508   1.519   5.403   1.290
 2203SOL    HW2 7509   1.643   5.352   1.384
 2204SOL     OW 7510   5.935   2.358   1.161
 2204SOL    HW1 7511   6.012   2.362   1.098
 2204SOL    HW2 7512   5.928   2.266   1.199
 2205SOL     OW 7513   6.585   5.424   1.211
 2205SOL    HW1 7514   6.628   5.513   1.192
 2205SOL    HW2 7515   6.510   5.409   1.147
 2206SOL     OW 7516   3.545   2.383   5.750
 2206SOL    HW1 7517   3.565   2.350   5.658
 2206SOL    HW2 7518   3.562   2.311   5.817
 2207SOL     OW 7519   4.620   5.877   1.777
 2207SOL    HW1 7520   4.612   5.786   1.818
 2207SOL    HW2 7521   4.716   5.901   1.768
 2208SOL     OW 7522   6.890   6.868   3.295
 2208SOL    HW1 7523   6.900   6.769   3.293
 2208SOL    HW2 7524   6.795   6.891   3.319
 2209SOL     OW 7525   3.185   5.656   3.867
 2209SOL    HW1 7526   3.128   5.720   3.919
 2209SOL    HW2 7527   3.179   5.679   3.770
 2210SOL     OW 7528   5.009   0.252   1.742
 2210SOL    HW1 7529   4.964   0.188   1.679
 2210SOL    HW2 7530   4.940   0.291   1.803
 2211SOL     OW 7531   1.644   1.915   1.025
 2211SOL    HW1 7532   1.560   1.921   0.971
 2211SOL    HW2 7533   1.638   1.977   1.103
 2212SOL     OW 7534   2.870   5.513   6.276
 2212SOL    HW1 7535   2.936   5.440   6.260
 2212SOL    HW2 7536   2.876   5.581   6.202
 2213SOL     OW 7537   3.571   1.834   5.092
 2213SOL    HW1 7538   3.594   1.860   5.186
 2213SOL    HW2 7539   3.656   1.817   5.041
 2214SOL     OW 7540   4.029   4.268   6.569
 2214SOL    HW1 7541   4.067   4.276   6.477
 2214SOL    HW2 7542   4.089   4.315   6.634
 2215SOL     OW 7543   4.880   6.459   0.648
 2215SOL    HW1 7544   4.895   6.398   0.725
 2215SOL    HW2 7545   4.831   6.540   0.678
 2216SOL     OW 7546   0.469   6.139   6.749
 2216SOL    HW1 7547   0.507   6.111   6.661
 2216SOL    HW2 7548   0.502   6.230   6.772
 2217SOL     OW 7549   4.491   1.326   3.870
 2217SOL    HW1 7550   4.446   1.261   3.931
 2217SOL    HW2 7551   4.590   1.317   3.879
 2218SOL     OW 7552   6.952   5.366   5.261
 2218SOL    HW1 7553   6.899   5.292   5.303
 2218SOL    HW2 7554   7.017   5.402   5.328
 2219SOL     OW 7555   5.501   1.518   1.073
 2219SOL    HW1 7556   5.482   1.605   1.119
 2219SOL    HW2 7557   5.596   1.491   1.091
 2220SOL     OW 7558   0.008   6.052   4.174
 2220SOL    HW1 7559   6.989   6.050   4.266
 2220SOL    HW2 7560   0.066   5.972   4.160
 2221SOL     OW 7561   5.829   1.289   4.377
 2221SOL    HW1 7562   5.755   1.345   4.415
 2221SOL    HW2 7563   5.790   1.210   4.331
 2222SOL     OW 7564   4.364   0.113   3.018
 2222SOL    HW1 7565   4.453   0.131   3.059
 2222SOL    HW2 7566   4.299   0.185   3.045
 2223SOL     OW 7567   0.939   0.019   5.238
 2223SOL    HW1 7568   1.036   0.002   5.225
 2223SOL    HW2 7569   0.920   0.037   5.335
 2224SOL     OW 7570   5.126   4.192   0.165
 2224SOL    HW1 7571   5.082   4.102   0.159
 2224SOL    HW2 7572   5.213   4.189   0.116
 2225SOL     OW 7573   6.771   6.639   1.377
 2225SOL    HW1 7574   6.700   6.699   1.341
 2225SOL    HW2 7575   6.732   6.579   1.447
 2226SOL     OW 7576   2.336   4.118   6.987
 2226SOL    HW1 7577   2.337   4.202   0.021
 2226SOL    HW2 7578   2.425   4.105   6.944
 2227SOL     OW 7579   3.981   2.152   2.262
 2227SOL    HW1 7580   3.893   2.126   2.303
 2227SOL    HW2 7581   3.974   2.147   2.162
 2228SOL     OW 7582   5.759   5.349   6.565
 2228SOL    HW1 7583   5.746   5.373   6.469
 2228SOL    HW2 7584   5.771   5.251   6.574
 2229SOL     OW 7585   3.046   3.410   3.873
 2229SOL    HW1 7586   2.972   3.406   3.806
 2229SOL    HW2 7587   3.012   3.454   3.957
 2230SOL     OW 7588   6.136   0.677   6.397
 2230SOL    HW1 7589   6.121   0.770   6.429
 2230SOL    HW2 7590   6.097   0.666   6.305
 2231SOL     OW 7591   1.878   0.310   6.181
 2231SOL    HW1 7592   1.975   0.286   6.192
 2231SOL    HW2 7593   1.870   0.395   6.130
 2232SOL     OW 7594   1.808   0.511   6.032
 2232SOL    HW1 7595   1.734   0.572   6.059
 2232SOL    HW2 7596   1.895   0.562   6.033
 2233SOL     OW 7597   3.150   4.840   0.886
 2233SOL    HW1 7598   3.139   4.845   0.986
 2233SOL    HW2 7599   3.230   4.893   0.859
 2234SOL     OW 7600   5.013   2.119   1.916
 2234SOL    HW1 7601   5.080   2.192   1.925
 2234SOL    HW2 7602   5.041   2.056   1.844
 2235SOL     OW 7603   0.551   1.804   2.877
 2235SOL    HW1 7604   0.527   1.885   2.824
 2235SOL    HW2 7605   0.507   1.723   2.838
 2236SOL     OW 7606   2.641   5.171   5.525
 2236SOL    HW1 7607   2.693   5.095   5.486
 2236SOL    HW2 7608   2.579   5.137   5.596
 2237SOL     OW 7609   6.097   6.197   5.780
 2237SOL    HW1 7610   6.007   6.199   5.823
 2237SOL    HW2 7611   6.089   6.171   5.684
 2238SOL     OW 7612   6.167   3.571   2.263
 2238SOL    HW1 7613   6.100   3.585   2.335
 2238SOL    HW2 7614   6.184   3.473   2.252
 2239SOL     OW 7615   4.669   6.520   2.717
 2239SOL    HW1 7616   4.573   6.496   2.734
 2239SOL    HW2 7617   4.678   6.619   2.710
 2240SOL     OW 7618   5.043   5.271   2.163
 2240SOL    HW1 7619   5.004   5.321   2.240
 2240SOL    HW2 7620   5.102   5.332   2.110
 2241SOL     OW 7621   0.151   1.589   2.797
 2241SOL    HW1 7622   0.112   1.573   2.706
 2241SOL    HW2 7623   0.251   1.581   2.793
 2242SOL     OW 7624   5.256   2.226   4.316
 2242SOL    HW1 7625   5.350   2.261   4.326
 2242SOL    HW2 7626   5.229   2.179   4.400
 2243SOL     OW 7627   2.282   6.684   0.594
 2243SOL    HW1 7628   2.247   6.777   0.606
 2243SOL    HW2 7629   2.227   6.636   0.525
 2244SOL     OW 7630   2.210   1.594   0.882
 2244SOL    HW1 7631   2.299   1.631   0.855
 2244SOL    HW2 7632   2.141   1.667   0.882
 2245SOL     OW 7633   0.302   0.785   0.314
 2245SOL    HW1 7634   0.377   0.720   0.307
 2245SOL    HW2 7635   0.280   0.801   0.410
 2246SOL     OW 7636   3.941   1.819   5.161
 2246SOL    HW1 7637   3.995   1.736   5.149
 2246SOL    HW2 7638   3.886   1.811   5.244
 2247SOL     OW 7639   2.889   3.177   2.048
 2247SOL    HW1 7640   2.832   3.144   1.972
 2247SOL    HW2 7641   2.883   3.277   2.052
 2248SOL     OW 7642   4.887   4.002   5.328
 2248SOL    HW1 7643   4.821   3.941   5.372
 2248SOL    HW2 7644   4.891   3.981   5.230
 2249SOL     OW 7645   2.219   6.805   3.143
 2249SOL    HW1 7646   2.236   6.854   3.058
 2249SOL    HW2 7647   2.305   6.771   3.180
 2250SOL     OW 7648   4.578   6.109   6.449
 2250SOL    HW1 7649   4.619   6.175   6.386
 2250SOL    HW2 7650   4.514   6.156   6.510
 2251SOL     OW 7651   4.824   6.225   4.771
 2251SOL    HW1 7652   4.833   6.319   4.804
 2251SOL    HW2 7653   4.816   6.226   4.671
 2252SOL     OW 7654   3.788   0.727   2.683
 2252SOL    HW1 7655   3.741   0.785   2.750
 2252SOL    HW2 7656   3.747   0.739   2.593
 2253SOL     OW 7657   0.101   3.193   1.567
 2253SOL    HW1 7658   0.129   3.222   1.475
 2253SOL    HW2 7659   0.167   3.127   1.602
 2254SOL     OW 7660   4.133   3.359   2.824
 2254SOL    HW1 7661   4.225   3.321   2.829
 2254SOL    HW2 7662   4.086   3.343   2.910
 2255SOL     OW 7663   1.661   2.598   6.362
 2255SOL    HW1 7664   1.607   2.544   6.298
 2255SOL    HW2 7665   1.748   2.624   6.320
 2256SOL     OW 7666   5.747   0.254   1.045
 2256SOL    HW1 7667   5.697   0.193   0.984
 2256SOL    HW2 7668   5.697   0.263   1.131
 2257SOL     OW 7669   6.770   0.504   5.232
 2257SOL    HW1 7670   6.750   0.414   5.272
 2257SOL    HW2 7671   6.867   0.525   5.244
 2258SOL     OW 7672   2.238   6.822   3.970
 2258SOL    HW1 7673   2.261   6.829   3.873
 2258SOL    HW2 7674   2.138   6.819   3.981
 2259SOL     OW 7675   6.255   1.941   4.770
 2259SOL    HW1 7676   6.323   1.903   4.832
 2259SOL    HW2 7677   6.295   2.017   4.719
 2260SOL     OW 7678   0.943   3.590   1.126
 2260SOL    HW1 7679   0.984   3.570   1.215
 2260SOL    HW2 7680   0.904   3.507   1.087
 2261SOL     OW 7681   5.380   4.155   0.037
 2261SOL    HW1 7682   5.402   4.058   0.043
 2261SOL    HW2 7683   5.437   4.207   0.101
 2262SOL     OW 7684   6.543   6.797   4.463
 2262SOL    HW1 7685   6.590   6.737   4.398
 2262SOL    HW2 7686   6.452   6.819   4.428
 2263SOL     OW 7687   2.390   4.145   6.392
 2263SOL    HW1 7688   2.295   4.120   6.369
 2263SOL    HW2 7689   2.392   4.237   6.429
 2264SOL     OW 7690   2.494   0.330   5.514
 2264SOL    HW1 7691   2.422   0.264   5.492
 2264SOL    HW2 7692   2.511   0.331   5.612
 2265SOL     OW 7693   6.974   6.289   4.036
 2265SOL    HW1 7694   0.033   6.342   4.067
 2265SOL    HW2 7695   6.959   6.213   4.099
 2266SOL     OW 7696   4.064   2.753   6.598
 2266SOL    HW1 7697   4.063   2.672   6.656
 2266SOL    HW2 7698   4.158   2.776   6.574
 2267SOL     OW 7699   5.609   3.011   4.765
 2267SOL    HW1 7700   5.687   2.951   4.747
 2267SOL    HW2 7701   5.548   2.968   4.832
 2268SOL     OW 7702   1.532   6.366   4.935
 2268SOL    HW1 7703   1.614   6.312   4.953
 2268SOL    HW2 7704   1.553   6.438   4.868
 2269SOL     OW 7705   1.640   2.268   5.561
 2269SOL    HW1 7706   1.595   2.277   5.472
 2269SOL    HW2 7707   1.727   2.317   5.559
 2270SOL     OW 7708   4.828   1.152   6.151
 2270SOL    HW1 7709   4.839   1.217   6.226
 2270SOL    HW2 7710   4.739   1.166   6.108
 2271SOL     OW 7711   4.413   5.571   5.248
 2271SOL    HW1 7712   4.368   5.598   5.333
 2271SOL    HW2 7713   4.396   5.641   5.178
 2272SOL     OW 7714   5.282   1.321   5.775
 2272SOL    HW1 7715   5.380   1.320   5.797
 2272SOL    HW2 7716   5.229   1.334   5.858
 2273SOL     OW 7717   1.060   2.841   3.359
 2273SOL    HW1 7718   1.150   2.811   3.329
 2273SOL    HW2 7719   1.067   2.882   3.450
 2274SOL     OW 7720   1.438   1.274   6.961
 2274SOL    HW1 7721   1.376   1.351   6.978
 2274SOL    HW2 7722   1.443   1.256   6.863
 2275SOL     OW 7723   5.518   4.112   2.760
 2275SOL    HW1 7724   5.466   4.029   2.781
 2275SOL    HW2 7725   5.538   4.161   2.845
 2276SOL     OW 7726   2.070   1.817   1.136
 2276SOL    HW1 7727   1.985   1.854   1.173
 2276SOL    HW2 7728   2.082   1.849   1.042
 2277SOL     OW 7729   3.607   2.930   3.604
 2277SOL    HW1 7730   3.559   2.993   3.544
 2277SOL    HW2 7731   3.543   2.894   3.672
 2278SOL     OW 7732   0.309   2.700   4.168
 2278SOL    HW1 7733   0.387   2.701   4.105
 2278SOL    HW2 7734   0.280   2.605   4.182
 2279SOL     OW 7735   1.006   5.730   5.737
 2279SOL    HW1 7736   1.046   5.746   5.646
 2279SOL    HW2 7737   0.913   5.695   5.727
 2280SOL     OW 7738   4.823   1.751   5.730
 2280SOL    HW1 7739   4.766   1.823   5.771
 2280SOL    HW2 7740   4.849   1.778   5.638
 2281SOL     OW 7741   5.762   6.667   2.596
 2281SOL    HW1 7742   5.669   6.642   2.571
 2281SOL    HW2 7743   5.804   6.715   2.519
 2282SOL     OW 7744   3.708   6.352   5.969
 2282SOL    HW1 7745   3.614   6.385   5.970
 2282SOL    HW2 7746   3.751   6.370   6.058
 2283SOL     OW 7747   0.084   0.914   4.289
 2283SOL    HW1 7748   0.069   0.996   4.234
 2283SOL    HW2 7749   0.143   0.936   4.367
 2284SOL     OW 7750   1.287   2.826   6.782
 2284SOL    HW1 7751   1.211   2.883   6.815
 2284SOL    HW2 7752   1.251   2.755   6.722
 2285SOL     OW 7753   1.821   4.411   6.497
 2285SOL    HW1 7754   1.736   4.443   6.456
 2285SOL    HW2 7755   1.814   4.413   6.596
 2286SOL     OW 7756   4.769   4.886   3.092
 2286SOL    HW1 7757   4.862   4.849   3.092
 2286SOL    HW2 7758   4.768   4.973   3.142
 2287SOL     OW 7759   1.237   1.436   3.468
 2287SOL    HW1 7760   1.220   1.401   3.560
 2287SOL    HW2 7761   1.315   1.389   3.427
 2288SOL     OW 7762   0.261   5.333   2.718
 2288SOL    HW1 7763   0.283   5.320   2.815
 2288SOL    HW2 7764   0.174   5.381   2.709
 2289SOL     OW 7765   0.455   5.692   1.034
 2289SOL    HW1 7766   0.388   5.620   1.049
 2289SOL    HW2 7767   0.496   5.681   0.943
 2290SOL     OW 7768   1.381   5.218   0.151
 2290SOL    HW1 7769   1.304   5.230   0.089
 2290SOL    HW2 7770   1.356   5.154   0.223
 2291SOL     OW 7771   2.031   1.464   6.843
 2291SOL    HW1 7772   2.003   1.547   6.795
 2291SOL    HW2 7773   1.954   1.428   6.896
 2292SOL     OW 7774   2.497   1.321   4.482
 2292SOL    HW1 7775   2.491   1.361   4.573
 2292SOL    HW2 7776   2.567   1.370   4.429
 2293SOL     OW 7777   5.543   3.787   2.469
 2293SOL    HW1 7778   5.539   3.820   2.563
 2293SOL    HW2 7779   5.515   3.859   2.406
 2294SOL     OW 7780   3.902   6.236   0.037
 2294SOL    HW1 7781   3.922   6.184   6.974
 2294SOL    HW2 7782   3.904   6.334   0.017
 2295SOL     OW 7783   0.421   1.947   1.684
 2295SOL    HW1 7784   0.493   1.905   1.629
 2295SOL    HW2 7785   0.449   2.040   1.710
 2296SOL     OW 7786   3.424   7.020   0.774
 2296SOL    HW1 7787   3.447   6.946   0.838
 2296SOL    HW2 7788   3.420   0.086   0.823
 2297SOL     OW 7789   4.614   6.559   6.669
 2297SOL    HW1 7790   4.660   6.502   6.737
 2297SOL    HW2 7791   4.521   6.526   6.656
 2298SOL     OW 7792   4.348   3.209   6.010
 2298SOL    HW1 7793   4.429   3.265   5.991
 2298SOL    HW2 7794   4.268   3.250   5.966
 2299SOL     OW 7795   4.402   0.017   0.028
 2299SOL    HW1 7796   4.386   6.996   6.959
 2299SOL    HW2 7797   4.487   0.070   0.025
 2300SOL     OW 7798   0.908   4.517   1.065
 2300SOL    HW1 7799   0.886   4.462   1.145
 2300SOL    HW2 7800   0.935   4.458   0.990
 2301SOL     OW 7801   4.083   3.510   1.823
 2301SOL    HW1 7802   4.095   3.563   1.907
 2301SOL    HW2 7803   4.035   3.425   1.844
 2302SOL     OW 7804   2.572   5.518   3.033
 2302SOL    HW1 7805   2.663   5.477   3.033
 2302SOL    HW2 7806   2.580   5.618   3.039
 2303SOL     OW 7807   0.242   3.417   4.880
 2303SOL    HW1 7808   0.151   3.456   4.894
 2303SOL    HW2 7809   0.306   3.456   4.947
 2304SOL     OW 7810   2.430   0.932   4.578
 2304SOL    HW1 7811   2.450   0.836   4.557
 2304SOL    HW2 7812   2.513   0.977   4.612
 2305SOL     OW 7813   4.256   4.810   1.835
 2305SOL    HW1 7814   4.191   4.813   1.759
 2305SOL    HW2 7815   4.292   4.717   1.844
 2306SOL     OW 7816   0.118   4.072   0.412
 2306SOL    HW1 7817   0.212   4.093   0.439
 2306SOL    HW2 7818   0.093   3.983   0.448
 2307SOL     OW 7819   0.017   1.484   3.020
 2307SOL    HW1 7820   0.066   1.507   2.936
 2307SOL    HW2 7821   6.990   1.566   3.054
 2308SOL     OW 7822   0.168   6.947   0.402
 2308SOL    HW1 7823   0.181   6.989   0.492
 2308SOL    HW2 7824   0.152   6.849   0.413
 2309SOL     OW 7825   3.092   5.248   6.070
 2309SOL    HW1 7826   3.174   5.232   6.124
 2309SOL    HW2 7827   3.109   5.224   5.975
 2310SOL     OW 7828   5.752   1.889   2.807
 2310SOL    HW1 7829   5.773   1.881   2.905
 2310SOL    HW2 7830   5.778   1.804   2.761
 2311SOL     OW 7831   2.767   0.630   2.585
 2311SOL    HW1 7832   2.801   0.659   2.675
 2311SOL    HW2 7833   2.726   0.539   2.593
 2312SOL     OW 7834   2.682   1.143   2.741
 2312SOL    HW1 7835   2.676   1.167   2.644
 2312SOL    HW2 7836   2.597   1.166   2.787
 2313SOL     OW 7837   4.992   3.961   1.586
 2313SOL    HW1 7838   4.933   3.883   1.564
 2313SOL    HW2 7839   5.054   3.978   1.509
 2314SOL     OW 7840   6.504   6.601   3.302
 2314SOL    HW1 7841   6.526   6.628   3.208
 2314SOL    HW2 7842   6.405   6.597   3.314
 2315SOL     OW 7843   4.021   5.947   4.835
 2315SOL    HW1 7844   4.052   5.877   4.898
 2315SOL    HW2 7845   3.921   5.942   4.826
 2316SOL     OW 7846   2.798   1.785   6.150
 2316SOL    HW1 7847   2.788   1.804   6.248
 2316SOL    HW2 7848   2.863   1.710   6.137
 2317SOL     OW 7849   6.704   5.500   3.131
 2317SOL    HW1 7850   6.739   5.429   3.069
 2317SOL    HW2 7851   6.739   5.589   3.102
 2318SOL     OW 7852   1.477   4.555   5.612
 2318SOL    HW1 7853   1.391   4.507   5.632
 2318SOL    HW2 7854   1.549   4.487   5.594
 2319SOL     OW 7855   2.056   5.026   3.269
 2319SOL    HW1 7856   2.036   4.948   3.210
 2319SOL    HW2 7857   2.131   5.079   3.230
 2320SOL     OW 7858   1.029   2.052   4.981
 2320SOL    HW1 7859   1.118   2.008   4.987
 2320SOL    HW2 7860   1.024   2.128   5.046
 2321SOL     OW 7861   2.415   4.908   5.792
 2321SOL    HW1 7862   2.436   4.865   5.879
 2321SOL    HW2 7863   2.330   4.869   5.755
 2322SOL     OW 7864   1.801   3.933   1.630
 2322SOL    HW1 7865   1.871   3.908   1.697
 2322SOL    HW2 7866   1.843   3.987   1.557
 2323SOL     OW 7867   2.411   5.202   1.165
 2323SOL    HW1 7868   2.457   5.268   1.105
 2323SOL    HW2 7869   2.312   5.206   1.148
 2324SOL     OW 7870   6.819   5.275   2.946
 2324SOL    HW1 7871   6.828   5.179   2.917
 2324SOL    HW2 7872   6.743   5.317   2.895
 2325SOL     OW 7873   6.626   5.331   1.628
 2325SOL    HW1 7874   6.564   5.354   1.702
 2325SOL    HW2 7875   6.615   5.234   1.605
 2326SOL     OW 7876   1.767   0.835   0.095
 2326SOL    HW1 7877   1.676   0.869   0.119
 2326SOL    HW2 7878   1.836   0.898   0.130
 2327SOL     OW 7879   0.196   0.253   2.523
 2327SOL    HW1 7880   0.262   0.229   2.452
 2327SOL    HW2 7881   0.175   0.173   2.578
 2328SOL     OW 7882   2.052   3.199   2.990
 2328SOL    HW1 7883   2.101   3.203   3.077
 2328SOL    HW2 7884   1.976   3.265   2.991
 2329SOL     OW 7885   0.597   5.267   2.804
 2329SOL    HW1 7886   0.516   5.209   2.792
 2329SOL    HW2 7887   0.597   5.339   2.735
 2330SOL     OW 7888   6.408   2.966   0.517
 2330SOL    HW1 7889   6.310   2.981   0.504
 2330SOL    HW2 7890   6.459   3.010   0.443
 2331SOL     OW 7891   4.616   5.882   1.296
 2331SOL    HW1 7892   4.708   5.864   1.330
 2331SOL    HW2 7893   4.608   5.977   1.268
 2332SOL     OW 7894   5.729   6.812   5.884
 2332SOL    HW1 7895   5.768   6.886   5.940
 2332SOL    HW2 7896   5.716   6.844   5.791
 2333SOL     OW 7897   0.128   4.576   2.343
 2333SOL    HW1 7898   0.069   4.497   2.327
 2333SOL    HW2 7899   0.220   4.544   2.366
 2334SOL     OW 7900   2.957   1.660   6.495
 2334SOL    HW1 7901   3.022   1.683   6.423
 2334SOL    HW2 7902   2.899   1.739   6.515
 2335SOL     OW 7903   6.344   1.324   3.214
 2335SOL    HW1 7904   6.392   1.397   3.165
 2335SOL    HW2 7905   6.389   1.307   3.302
 2336SOL     OW 7906   1.724   1.963   2.701
 2336SOL    HW1 7907   1.809   1.934   2.745
 2336SOL    HW2 7908   1.724   2.063   2.692
 2337SOL     OW 7909   4.502   1.799   1.595
 2337SOL    HW1 7910   4.474   1.834   1.685
 2337SOL    HW2 7911   4.483   1.702   1.590
 2338SOL     OW 7912   6.967   3.737   3.344
 2338SOL    HW1 7913   6.949   3.831   3.374
 2338SOL    HW2 7914   6.962   3.676   3.423
 2339SOL     OW 7915   3.582   2.982   3.045
 2339SOL    HW1 7916   3.673   2.961   3.008
 2339SOL    HW2 7917   3.574   3.080   3.061
 2340SOL     OW 7918   2.168   4.981   6.536
 2340SOL    HW1 7919   2.130   5.053   6.478
 2340SOL    HW2 7920   2.151   5.003   6.632
 2341SOL     OW 7921   2.558   4.475   3.311
 2341SOL    HW1 7922   2.521   4.415   3.240
 2341SOL    HW2 7923   2.560   4.569   3.276
 2342SOL     OW 7924   3.246   0.248   3.898
 2342SOL    HW1 7925   3.263   0.323   3.962
 2342SOL    HW2 7926   3.297   0.264   3.813
 2343SOL     OW 7927   1.146   0.397   1.731
 2343SOL    HW1 7928   1.108   0.357   1.814
 2343SOL    HW2 7929   1.192   0.483   1.754
 2344SOL     OW 7930   5.689   3.681   0.613
 2344SOL    HW1 7931   5.752   3.744   0.569
 2344SOL    HW2 7932   5.710   3.677   0.711
 2345SOL     OW 7933   2.680   5.427   4.761
 2345SOL    HW1 7934   2.706   5.425   4.858
 2345SOL    HW2 7935   2.680   5.522   4.729
 2346SOL     OW 7936   3.925   4.003   6.644
 2346SOL    HW1 7937   3.966   3.982   6.555
 2346SOL    HW2 7938   3.909   4.101   6.652
 2347SOL     OW 7939   1.013   2.030   2.114
 2347SOL    HW1 7940   1.090   2.070   2.065
 2347SOL    HW2 7941   1.035   1.936   2.139
 2348SOL     OW 7942   0.095   5.024   2.740
 2348SOL    HW1 7943   0.175   5.052   2.795
 2348SOL    HW2 7944   0.087   5.084   2.661
 2349SOL     OW 7945   0.624   4.119   5.963
 2349SOL    HW1 7946   0.586   4.164   6.044
 2349SOL    HW2 7947   0.717   4.088   5.982
 2350SOL     OW 7948   5.936   3.458   6.960
 2350SOL    HW1 7949   6.034   3.444   6.946
 2350SOL    HW2 7950   5.915   3.450   0.036
 2351SOL     OW 7951   2.960   5.308   2.553
 2351SOL    HW1 7952   2.928   5.284   2.645
 2351SOL    HW2 7953   3.058   5.324   2.554
 2352SOL     OW 7954   0.148   2.970   3.474
 2352SOL    HW1 7955   0.175   2.920   3.392
 2352SOL    HW2 7956   0.199   2.936   3.552
 2353SOL     OW 7957   3.502   5.651   4.664
 2353SOL    HW1 7958   3.536   5.737   4.701
 2353SOL    HW2 7959   3.513   5.579   4.732
 2354SOL     OW 7960   2.152   2.460   3.701
 2354SOL    HW1 7961   2.169   2.483   3.797
 2354SOL    HW2 7962   2.239   2.449   3.654
 2355SOL     OW 7963   2.402   5.848   5.298
 2355SOL    HW1 7964   2.480   5.906   5.273
 2355SOL    HW2 7965   2.329   5.859   5.231
 2356SOL     OW 7966   6.582   3.352   0.037
 2356SOL    HW1 7967   6.508   3.334   6.992
 2356SOL    HW2 7968   6.547   3.337   0.130
 2357SOL     OW 7969   2.425   6.502   2.423
 2357SOL    HW1 7970   2.381   6.587   2.396
 2357SOL    HW2 7971   2.524   6.516   2.432
 2358SOL     OW 7972   3.739   4.965   6.709
 2358SOL    HW1 7973   3.707   4.946   6.617
 2358SOL    HW2 7974   3.711   5.058   6.736
 2359SOL     OW 7975   1.672   0.092   4.820
 2359SOL    HW1 7976   1.634   7.020   4.822
 2359SOL    HW2 7977   1.649   0.140   4.904
 2360SOL     OW 7978   6.594   3.526   0.463
 2360SOL    HW1 7979   6.574   3.603   0.402
 2360SOL    HW2 7980   6.693   3.513   0.469
 2361SOL     OW 7981   3.381   1.144   6.525
 2361SOL    HW1 7982   3.370   1.082   6.448
 2361SOL    HW2 7983   3.406   1.235   6.491
 2362SOL     OW 7984   3.569   5.827   3.161
 2362SOL    HW1 7985   3.629   5.752   3.136
 2362SOL    HW2 7986   3.525   5.864   3.079
 2363SOL     OW 7987   3.829   0.716   4.452
 2363SOL    HW1 7988   3.879   0.762   4.526
 2363SOL    HW2 7989   3.875   0.629   4.431
 2364SOL     OW 7990   1.308   2.936   0.843
 2364SOL    HW1 7991   1.215   2.972   0.833
 2364SOL    HW2 7992   1.372   3.012   0.857
 2365SOL     OW 7993   5.745   2.107   6.485
 2365SOL    HW1 7994   5.676   2.124   6.415
 2365SOL    HW2 7995   5.705   2.120   6.576
 2366SOL     OW 7996   4.110   5.432   0.459
 2366SOL    HW1 7997   4.097   5.512   0.401
 2366SOL    HW2 7998   4.099   5.458   0.555
 2367SOL     OW 7999   2.683   2.997   6.170
 2367SOL    HW1 8000   2.768   2.968   6.127
 2367SOL    HW2 8001   2.642   2.920   6.219
 2368SOL     OW 8002   6.752   5.866   2.611
 2368SOL    HW1 8003   6.683   5.796   2.630
 2368SOL    HW2 8004   6.816   5.833   2.542
 2369SOL     OW 8005   2.241   0.849   3.279
 2369SOL    HW1 8006   2.311   0.785   3.310
 2369SOL    HW2 8007   2.203   0.897   3.358
 2370SOL     OW 8008   6.186   1.924   6.681
 2370SOL    HW1 8009   6.283   1.948   6.680
 2370SOL    HW2 8010   6.176   1.825   6.679
 2371SOL     OW 8011   2.647   6.515   1.456
 2371SOL    HW1 8012   2.549   6.531   1.444
 2371SOL    HW2 8013   2.687   6.588   1.512
 2372SOL     OW 8014   6.665   3.467   2.818
 2372SOL    HW1 8015   6.640   3.564   2.822
 2372SOL    HW2 8016   6.582   3.412   2.809
 2373SOL     OW 8017   2.326   3.103   6.381
 2373SOL    HW1 8018   2.250   3.044   6.409
 2373SOL    HW2 8019   2.412   3.063   6.414
 2374SOL     OW 8020   5.658   3.047   5.087
 2374SOL    HW1 8021   5.576   3.083   5.042
 2374SOL    HW2 8022   5.735   3.109   5.070
 2375SOL     OW 8023   3.352   6.205   5.232
 2375SOL    HW1 8024   3.348   6.296   5.192
 2375SOL    HW2 8025   3.379   6.139   5.163
 2376SOL     OW 8026   6.614   3.191   4.743
 2376SOL    HW1 8027   6.677   3.178   4.819
 2376SOL    HW2 8028   6.555   3.269   4.761
 2377SOL     OW 8029   3.536   3.432   3.866
 2377SOL    HW1 8030   3.477   3.468   3.793
 2377SOL    HW2 8031   3.632   3.439   3.837
 2378SOL     OW 8032   5.284   2.608   6.604
 2378SOL    HW1 8033   5.184   2.614   6.607
 2378SOL    HW2 8034   5.324   2.686   6.651
 2379SOL     OW 8035   6.644   0.195   0.362
 2379SOL    HW1 8036   6.590   0.123   0.406
 2379SOL    HW2 8037   6.741   0.172   0.367
 2380SOL     OW 8038   5.974   1.540   2.241
 2380SOL    HW1 8039   6.016   1.452   2.219
 2380SOL    HW2 8040   6.031   1.614   2.205
 2381SOL     OW 8041   1.913   6.587   3.273
 2381SOL    HW1 8042   1.906   6.669   3.329
 2381SOL    HW2 8043   1.962   6.516   3.323
 2382SOL     OW 8044   1.900   3.741   5.128
 2382SOL    HW1 8045   1.994   3.711   5.116
 2382SOL    HW2 8046   1.839   3.662   5.129
 2383SOL     OW 8047   6.166   5.793   1.493
 2383SOL    HW1 8048   6.159   5.879   1.543
 2383SOL    HW2 8049   6.246   5.742   1.526
 2384SOL     OW 8050   4.495   1.995   1.866
 2384SOL    HW1 8051   4.466   2.011   1.961
 2384SOL    HW2 8052   4.584   2.037   1.851
 2385SOL     OW 8053   0.816   2.037   6.066
 2385SOL    HW1 8054   0.725   2.003   6.092
 2385SOL    HW2 8055   0.837   2.119   6.119
 2386SOL     OW 8056   4.727   5.661   3.997
 2386SOL    HW1 8057   4.789   5.693   4.068
 2386SOL    HW2 8058   4.752   5.568   3.970
 2387SOL     OW 8059   1.966   1.456   3.511
 2387SOL    HW1 8060   1.962   1.496   3.419
 2387SOL    HW2 8061   1.873   1.449   3.549
 2388SOL     OW 8062   6.384   1.786   4.439
 2388SOL    HW1 8063   6.386   1.706   4.380
 2388SOL    HW2 8064   6.396   1.758   4.534
 2389SOL     OW 8065   4.361   5.699   2.925
 2389SOL    HW1 8066   4.438   5.671   2.867
 2389SOL    HW2 8067   4.341   5.626   2.990
 2390SOL     OW 8068   3.174   4.324   1.499
 2390SOL    HW1 8069   3.115   4.371   1.434
 2390SOL    HW2 8070   3.241   4.267   1.450
 2391SOL     OW 8071   4.061   5.048   5.369
 2391SOL    HW1 8072   4.106   5.048   5.280
 2391SOL    HW2 8073   3.973   5.002   5.362
 2392SOL     OW 8074   3.698   1.355   6.856
 2392SOL    HW1 8075   3.643   1.322   6.933
 2392SOL    HW2 8076   3.705   1.454   6.861
 2393SOL     OW 8077   4.126   5.019   5.634
 2393SOL    HW1 8078   4.083   5.052   5.550
 2393SOL    HW2 8079   4.203   5.078   5.657
 2394SOL     OW 8080   0.367   4.394   5.156
 2394SOL    HW1 8081   0.453   4.361   5.117
 2394SOL    HW2 8082   0.356   4.491   5.136
 2395SOL     OW 8083   4.003   0.335   6.104
 2395SOL    HW1 8084   3.918   0.283   6.096
 2395SOL    HW2 8085   4.018   0.360   6.200
 2396SOL     OW 8086   4.051   4.318   0.769
 2396SOL    HW1 8087   4.148   4.296   0.761
 2396SOL    HW2 8088   4.026   4.387   0.701
 2397SOL     OW 8089   0.028   3.733   4.130
 2397SOL    HW1 8090   0.113   3.734   4.183
 2397SOL    HW2 8091   0.030   3.657   4.066
 2398SOL     OW 8092   4.014   4.940   5.863
 2398SOL    HW1 8093   4.035   4.960   5.768
 2398SOL    HW2 8094   3.989   4.843   5.872
 2399SOL     OW 8095   4.231   2.044   1.778
 2399SOL    HW1 8096   4.199   2.086   1.863
 2399SOL    HW2 8097   4.324   2.010   1.791
 2400SOL     OW 8098   2.295   5.384   1.417
 2400SOL    HW1 8099   2.250   5.314   1.472
 2400SOL    HW2 8100   2.254   5.386   1.326
 2401SOL     OW 8101   6.908   6.380   6.090
 2401SOL    HW1 8102   6.942   6.399   6.182
 2401SOL    HW2 8103   6.954   6.299   6.054
 2402SOL     OW 8104   6.933   6.650   4.464
 2402SOL    HW1 8105   6.905   6.679   4.556
 2402SOL    HW2 8106   6.946   6.551   4.463
 2403SOL     OW 8107   0.471   1.602   4.897
 2403SOL    HW1 8108   0.536   1.668   4.858
 2403SOL    HW2 8109   0.391   1.651   4.931
 2404SOL     OW 8110   1.156   0.285   0.221
 2404SOL    HW1 8111   1.178   0.187   0.217
 2404SOL    HW2 8112   1.162   0.324   0.129
 2405SOL     OW 8113   2.800   3.998   1.641
 2405SOL    HW1 8114   2.773   4.094   1.655
 2405SOL    HW2 8115   2.890   3.995   1.599
 2406SOL     OW 8116   4.906   1.077   1.406
 2406SOL    HW1 8117   4.816   1.056   1.368
 2406SOL    HW2 8118   4.945   1.156   1.360
 2407SOL     OW 8119   4.878   0.752   3.696
 2407SOL    HW1 8120   4.819   0.832   3.682
 2407SOL    HW2 8121   4.897   0.708   3.608
 2408SOL     OW 8122   4.484   4.457   2.258
 2408SOL    HW1 8123   4.486   4.549   2.220
 2408SOL    HW2 8124   4.469   4.391   2.185
 2409SOL     OW 8125   1.334   4.177   0.502
 2409SOL    HW1 8126   1.267   4.124   0.450
 2409SOL    HW2 8127   1.381   4.117   0.567
 2410SOL     OW 8128   3.477   2.875   2.700
 2410SOL    HW1 8129   3.544   2.943   2.731
 2410SOL    HW2 8130   3.425   2.841   2.778
 2411SOL     OW 8131   4.909   6.587   4.315
 2411SOL    HW1 8132   4.843   6.659   4.337
 2411SOL    HW2 8133   4.928   6.587   4.217
 2412SOL     OW 8134   4.448   3.285   1.147
 2412SOL    HW1 8135   4.450   3.385   1.150
 2412SOL    HW2 8136   4.485   3.254   1.059
 2413SOL     OW 8137   4.932   6.962   2.311
 2413SOL    HW1 8138   4.862   0.010   2.295
 2413SOL    HW2 8139   4.891   6.879   2.348
 2414SOL     OW 8140   5.610   3.839   4.163
 2414SOL    HW1 8141   5.691   3.899   4.161
 2414SOL    HW2 8142   5.582   3.823   4.257
 2415SOL     OW 8143   4.484   1.119   3.125
 2415SOL    HW1 8144   4.429   1.110   3.208
 2415SOL    HW2 8145   4.478   1.213   3.092
 2416SOL     OW 8146   5.412   1.824   6.164
 2416SOL    HW1 8147   5.320   1.863   6.158
 2416SOL    HW2 8148   5.415   1.756   6.237
 2417SOL     OW 8149   3.338   4.115   4.282
 2417SOL    HW1 8150   3.336   4.208   4.245
 2417SOL    HW2 8151   3.429   4.095   4.317
 2418SOL     OW 8152   3.337   2.878   2.976
 2418SOL    HW1 8153   3.420   2.924   3.008
 2418SOL    HW2 8154   3.280   2.854   3.054
 2419SOL     OW 8155   0.157   0.076   2.930
 2419SOL    HW1 8156   0.147   0.166   2.888
 2419SOL    HW2 8157   0.098   0.071   3.011
 2420SOL     OW 8158   1.912   0.215   2.033
 2420SOL    HW1 8159   1.815   0.231   2.015
 2420SOL    HW2 8160   1.968   0.267   1.969
 2421SOL     OW 8161   3.388   2.094   3.731
 2421SOL    HW1 8162   3.471   2.061   3.685
 2421SOL    HW2 8163   3.330   2.142   3.666
 2422SOL     OW 8164   4.993   1.476   0.846
 2422SOL    HW1 8165   4.927   1.457   0.918
 2422SOL    HW2 8166   5.070   1.412   0.853
 2423SOL     OW 8167   2.033   4.961   2.212
 2423SOL    HW1 8168   1.983   4.875   2.219
 2423SOL    HW2 8169   2.095   4.970   2.290
 2424SOL     OW 8170   6.293   0.120   1.287
 2424SOL    HW1 8171   6.220   0.187   1.274
 2424SOL    HW2 8172   6.382   0.166   1.284
 2425SOL     OW 8173   0.029   6.841   4.303
 2425SOL    HW1 8174   0.023   6.765   4.368
 2425SOL    HW2 8175   6.974   6.836   4.238
 2426SOL     OW 8176   2.560   4.506   4.052
 2426SOL    HW1 8177   2.556   4.438   3.978
 2426SOL    HW2 8178   2.487   4.489   4.117
 2427SOL     OW 8179   6.066   0.317   5.649
 2427SOL    HW1 8180   5.983   0.261   5.643
 2427SOL    HW2 8181   6.138   0.264   5.694
 2428SOL     OW 8182   6.328   0.727   0.640
 2428SOL    HW1 8183   6.362   0.817   0.668
 2428SOL    HW2 8184   6.247   0.704   0.694
 2429SOL     OW 8185   5.135   5.443   1.951
 2429SOL    HW1 8186   5.049   5.493   1.943
 2429SOL    HW2 8187   5.211   5.507   1.957
 2430SOL     OW 8188   5.214   0.287   2.566
 2430SOL    HW1 8189   5.175   0.233   2.492
 2430SOL    HW2 8190   5.260   0.367   2.527
 2431SOL     OW 8191   4.467   0.229   2.271
 2431SOL    HW1 8192   4.451   0.263   2.363
 2431SOL    HW2 8193   4.467   0.129   2.272
 2432SOL     OW 8194   2.479   6.132   2.691
 2432SOL    HW1 8195   2.453   6.077   2.771
 2432SOL    HW2 8196   2.529   6.074   2.626
 2433SOL     OW 8197   4.283   0.195   0.666
 2433SOL    HW1 8198   4.219   0.174   0.592
 2433SOL    HW2 8199   4.376   0.196   0.630
 2434SOL     OW 8200   3.897   3.152   5.231
 2434SOL    HW1 8201   3.980   3.188   5.189
 2434SOL    HW2 8202   3.882   3.058   5.201
 2435SOL     OW 8203   6.305   5.904   5.533
 2435SOL    HW1 8204   6.337   5.944   5.447
 2435SOL    HW2 8205   6.375   5.843   5.569
 2436SOL     OW 8206   3.225   5.114   0.714
 2436SOL    HW1 8207   3.132   5.110   0.751
 2436SOL    HW2 8208   3.226   5.074   0.623
 2437SOL     OW 8209   6.942   0.180   6.113
 2437SOL    HW1 8210   6.856   0.130   6.104
 2437SOL    HW2 8211   6.973   0.207   6.022
 2438SOL     OW 8212   2.872   3.198   1.008
 2438SOL    HW1 8213   2.924   3.147   0.939
 2438SOL    HW2 8214   2.850   3.289   0.972
 2439SOL     OW 8215   5.734   4.016   5.824
 2439SOL    HW1 8216   5.781   3.931   5.847
 2439SOL    HW2 8217   5.801   4.085   5.797
 2440SOL     OW 8218   5.871   5.096   5.738
 2440SOL    HW1 8219   5.811   5.095   5.658
 2440SOL    HW2 8220   5.851   5.176   5.794
 2441SOL     OW 8221   6.629   2.064   0.855
 2441SOL    HW1 8222   6.717   2.036   0.816
 2441SOL    HW2 8223   6.627   2.163   0.865
 2442SOL     OW 8224   0.113   2.354   5.511
 2442SOL    HW1 8225   0.135   2.271   5.562
 2442SOL    HW2 8226   0.127   2.338   5.413
 2443SOL     OW 8227   2.721   4.692   5.301
 2443SOL    HW1 8228   2.730   4.647   5.212
 2443SOL    HW2 8229   2.811   4.726   5.330
 2444SOL     OW 8230   3.433   2.665   5.419
 2444SOL    HW1 8231   3.338   2.640   5.399
 2444SOL    HW2 8232   3.435   2.742   5.482
 2445SOL     OW 8233   0.643   0.106   0.845
 2445SOL    HW1 8234   0.703   0.123   0.767
 2445SOL    HW2 8235   0.697   0.083   0.925
 2446SOL     OW 8236   5.233   3.351   6.230
 2446SOL    HW1 8237   5.213   3.444   6.199
 2446SOL    HW2 8238   5.314   3.316   6.182
 2447SOL     OW 8239   0.430   2.998   6.236
 2447SOL    HW1 8240   0.453   2.983   6.140
 2447SOL    HW2 8241   0.443   2.912   6.287
 2448SOL     OW 8242   0.241   6.887   4.486
 2448SOL    HW1 8243   0.268   6.791   4.490
 2448SOL    HW2 8244   0.169   6.899   4.417
 2449SOL     OW 8245   0.839   3.199   4.839
 2449SOL    HW1 8246   0.869   3.233   4.750
 2449SOL    HW2 8247   0.770   3.261   4.876
 2450SOL     OW 8248   2.290   2.761   1.842
 2450SOL    HW1 8249   2.269   2.838   1.902
 2450SOL    HW2 8250   2.261   2.782   1.749
 2451SOL     OW 8251   2.269   6.390   4.432
 2451SOL    HW1 8252   2.263   6.293   4.409
 2451SOL    HW2 8253   2.316   6.439   4.359
 2452SOL     OW 8254   2.121   2.444   4.189
 2452SOL    HW1 8255   2.144   2.439   4.092
 2452SOL    HW2 8256   2.192   2.397   4.242
 2453SOL     OW 8257   0.260   3.362   1.400
 2453SOL    HW1 8258   0.319   3.377   1.321
 2453SOL    HW2 8259   0.315   3.367   1.484
 2454SOL     OW 8260   2.268   0.203   1.408
 2454SOL    HW1 8261   2.351   0.176   1.359
 2454SOL    HW2 8262   2.260   0.303   1.408
 2455SOL     OW 8263   5.400   3.139   1.454
 2455SOL    HW1 8264   5.438   3.054   1.417
 2455SOL    HW2 8265   5.462   3.174   1.524
 2456SOL     OW 8266   2.557   0.034   1.040
 2456SOL    HW1 8267   2.627   6.986   1.022
 2456SOL    HW2 8268   2.467   7.016   1.019
 2457SOL     OW 8269   5.992   6.210   1.311
 2457SOL    HW1 8270   5.935   6.286   1.279
 2457SOL    HW2 8271   5.934   6.135   1.342
 2458SOL     OW 8272   0.232   6.345   1.821
 2458SOL    HW1 8273   0.304   6.352   1.891
 2458SOL    HW2 8274   0.263   6.285   1.748
 2459SOL     OW 8275   0.956   1.521   0.606
 2459SOL    HW1 8276   0.960   1.464   0.524
 2459SOL    HW2 8277   0.963   1.618   0.579
 2460SOL     OW 8278   3.054   4.684   1.395
 2460SOL    HW1 8279   3.059   4.649   1.489
 2460SOL    HW2 8280   2.959   4.705   1.373
 2461SOL     OW 8281   4.961   0.998   2.879
 2461SOL    HW1 8282   4.978   1.091   2.910
 2461SOL    HW2 8283   4.876   0.994   2.828
 2462SOL     OW 8284   2.776   3.724   5.990
 2462SOL    HW1 8285   2.765   3.730   6.089
 2462SOL    HW2 8286   2.765   3.629   5.960
 2463SOL     OW 8287   0.947   2.509   5.155
 2463SOL    HW1 8288   1.026   2.564   5.184
 2463SOL    HW2 8289   0.879   2.509   5.228
 2464SOL     OW 8290   1.231   3.617   0.512
 2464SOL    HW1 8291   1.247   3.605   0.414
 2464SOL    HW2 8292   1.316   3.601   0.562
 2465SOL     OW 8293   5.935   5.249   2.045
 2465SOL    HW1 8294   5.880   5.212   1.970
 2465SOL    HW2 8295   5.876   5.275   2.120
 2466SOL     OW 8296   3.714   1.338   1.583
 2466SOL    HW1 8297   3.785   1.288   1.633
 2466SOL    HW2 8298   3.753   1.375   1.499
 2467SOL     OW 8299   0.454   0.998   4.841
 2467SOL    HW1 8300   0.395   1.026   4.916
 2467SOL    HW2 8301   0.539   1.051   4.844
 2468SOL     OW 8302   6.309   4.809   6.772
 2468SOL    HW1 8303   6.389   4.866   6.792
 2468SOL    HW2 8304   6.322   4.718   6.810
 2469SOL     OW 8305   3.588   2.697   5.839
 2469SOL    HW1 8306   3.686   2.710   5.853
 2469SOL    HW2 8307   3.571   2.608   5.797
 2470SOL     OW 8308   5.294   2.757   0.770
 2470SOL    HW1 8309   5.214   2.761   0.711
 2470SOL    HW2 8310   5.351   2.679   0.745
 2471SOL     OW 8311   0.178   1.250   2.965
 2471SOL    HW1 8312   0.104   1.317   2.971
 2471SOL    HW2 8313   0.150   1.173   2.907
 2472SOL     OW 8314   5.657   1.348   3.698
 2472SOL    HW1 8315   5.610   1.268   3.735
 2472SOL    HW2 8316   5.602   1.388   3.625
 2473SOL     OW 8317   0.674   6.222   5.300
 2473SOL    HW1 8318   0.657   6.249   5.395
 2473SOL    HW2 8319   0.664   6.301   5.240
 2474SOL     OW 8320   6.277   6.838   4.397
 2474SOL    HW1 8321   6.264   6.920   4.453
 2474SOL    HW2 8322   6.240   6.854   4.306
 2475SOL     OW 8323   4.379   2.059   6.448
 2475SOL    HW1 8324   4.366   1.989   6.519
 2475SOL    HW2 8325   4.290   2.099   6.424
 2476SOL     OW 8326   0.721   1.423   3.556
 2476SOL    HW1 8327   0.661   1.390   3.629
 2476SOL    HW2 8328   0.765   1.344   3.513
 2477SOL     OW 8329   4.384   4.921   2.386
 2477SOL    HW1 8330   4.362   4.825   2.405
 2477SOL    HW2 8331   4.483   4.933   2.386
 2478SOL     OW 8332   0.239   6.849   2.535
 2478SOL    HW1 8333   0.246   6.784   2.610
 2478SOL    HW2 8334   0.269   6.805   2.450
 2479SOL     OW 8335   0.762   2.336   7.002
 2479SOL    HW1 8336   0.737   2.426   0.017
 2479SOL    HW2 8337   0.784   2.343   6.905
 2480SOL     OW 8338   6.537   5.074   1.793
 2480SOL    HW1 8339   6.448   5.118   1.806
 2480SOL    HW2 8340   6.555   5.064   1.696
 2481SOL     OW 8341   3.784   5.135   2.367
 2481SOL    HW1 8342   3.808   5.203   2.298
 2481SOL    HW2 8343   3.699   5.090   2.340
 2482SOL     OW 8344   4.800   2.465   5.386
 2482SOL    HW1 8345   4.801   2.557   5.424
 2482SOL    HW2 8346   4.835   2.467   5.292
 2483SOL     OW 8347   0.597   3.016   6.862
 2483SOL    HW1 8348   0.648   3.064   6.933
 2483SOL    HW2 8349   0.649   2.936   6.830
 2484SOL     OW 8350   4.095   4.202   5.793
 2484SOL    HW1 8351   4.145   4.132   5.742
 2484SOL    HW2 8352   4.019   4.236   5.737
 2485SOL     OW 8353   0.789   5.806   6.882
 2485SOL    HW1 8354   0.742   5.752   6.813
 2485SOL    HW2 8355   0.761   5.775   6.973
 2486SOL     OW 8356   0.723   5.520   3.716
 2486SOL    HW1 8357   0.624   5.511   3.730
 2486SOL    HW2 8358   0.771   5.470   3.788
 2487SOL     OW 8359   3.763   1.555   1.419
 2487SOL    HW1 8360   3.822   1.591   1.348
 2487SOL    HW2 8361   3.766   1.614   1.499
 2488SOL     OW 8362   3.263   6.053   6.359
 2488SOL    HW1 8363   3.323   6.132   6.369
 2488SOL    HW2 8364   3.277   6.011   6.269
 2489SOL     OW 8365   0.399   6.039   4.223
 2489SOL    HW1 8366   0.329   6.053   4.154
 2489SOL    HW2 8367   0.365   6.069   4.312
 2490SOL     OW 8368   5.861   2.701   1.572
 2490SOL    HW1 8369   5.883   2.794   1.601
 2490SOL    HW2 8370   5.912   2.635   1.627
 2491SOL     OW 8371   0.250   4.409   3.274
 2491SOL    HW1 8372   0.225   4.380   3.182
 2491SOL    HW2 8373   0.196   4.358   3.341
 2492SOL     OW 8374   4.540   1.558   6.300
 2492SOL    HW1 8375   4.624   1.503   6.302
 2492SOL    HW2 8376   4.463   1.500   6.274
 2493SOL     OW 8377   6.676   0.795   4.904
 2493SOL    HW1 8378   6.766   0.772   4.943
 2493SOL    HW2 8379   6.613   0.819   4.978
 2494SOL     OW 8380   4.231   5.228   1.058
 2494SOL    HW1 8381   4.171   5.209   0.980
 2494SOL    HW2 8382   4.291   5.150   1.074
 2495SOL     OW 8383   6.832   0.988   2.632
 2495SOL    HW1 8384   6.740   1.004   2.595
 2495SOL    HW2 8385   6.825   0.932   2.714
 2496SOL     OW 8386   1.645   5.318   0.387
 2496SOL    HW1 8387   1.561   5.330   0.334
 2496SOL    HW2 8388   1.684   5.229   0.368
 2497SOL     OW 8389   5.599   0.470   6.503
 2497SOL    HW1 8390   5.685   0.445   6.459
 2497SOL    HW2 8391   5.570   0.396   6.562
 2498SOL     OW 8392   0.898   3.200   4.542
 2498SOL    HW1 8393   0.877   3.287   4.499
 2498SOL    HW2 8394   0.813   3.151   4.561
 2499SOL     OW 8395   5.173   1.249   0.523
 2499SOL    HW1 8396   5.090   1.210   0.483
 2499SOL    HW2 8397   5.239   1.269   0.449
 2500SOL     OW 8398   4.390   3.788   6.468
 2500SOL    HW1 8399   4.409   3.822   6.376
 2500SOL    HW2 8400   4.341   3.857   6.520
 2501SOL     OW 8401   6.812   5.006   0.822
 2501SOL    HW1 8402   6.858   4.968   0.902
 2501SOL    HW2 8403   6.717   4.974   0.820
 2502SOL     OW 8404   0.621   0.521   3.756
 2502SOL    HW1 8405   0.635   0.491   3.850
 2502SOL    HW2 8406   0.642   0.619   3.749
 2503SOL     OW 8407   5.606   6.385   4.232
 2503SOL    HW1 8408   5.626   6.439   4.149
 2503SOL    HW2 8409   5.637   6.436   4.312
 2504SOL     OW 8410   2.369   4.387   3.076
 2504SOL    HW1 8411   2.409   4.442   3.003
 2504SOL    HW2 8412   2.270   4.393   3.073
 2505SOL     OW 8413   4.818   4.237   5.137
 2505SOL    HW1 8414   4.796   4.213   5.042
 2505SOL    HW2 8415   4.789   4.331   5.154
 2506SOL     OW 8416   0.862   1.111   0.473
 2506SOL    HW1 8417   0.915   1.102   0.558
 2506SOL    HW2 8418   0.799   1.189   0.481
 2507SOL     OW 8419   6.361   6.453   6.811
 2507SOL    HW1 8420   6.351   6.359   6.842
 2507SOL    HW2 8421   6.337   6.515   6.885
 2508SOL     OW 8422   1.707   2.417   1.793
 2508SOL    HW1 8423   1.698   2.423   1.893
 2508SOL    HW2 8424   1.758   2.496   1.759
 2509SOL     OW 8425   5.814   0.913   3.517
 2509SOL    HW1 8426   5.845   0.964   3.437
 2509SOL    HW2 8427   5.721   0.879   3.501
 2510SOL     OW 8428   4.161   6.013   2.596
 2510SOL    HW1 8429   4.110   6.019   2.510
 2510SOL    HW2 8430   4.126   6.080   2.661
 2511SOL     OW 8431   0.906   6.660   3.713
 2511SOL    HW1 8432   0.868   6.734   3.769
 2511SOL    HW2 8433   0.973   6.609   3.767
 2512SOL     OW 8434   6.005   3.897   4.508
 2512SOL    HW1 8435   6.044   3.811   4.542
 2512SOL    HW2 8436   6.055   3.974   4.547
 2513SOL     OW 8437   0.069   4.680   0.920
 2513SOL    HW1 8438   0.034   4.587   0.932
 2513SOL    HW2 8439   0.161   4.686   0.957
 2514SOL     OW 8440   6.914   2.368   3.631
 2514SOL    HW1 8441   6.995   2.412   3.668
 2514SOL    HW2 8442   6.921   2.269   3.644
 2515SOL     OW 8443   0.857   4.593   6.565
 2515SOL    HW1 8444   0.919   4.608   6.488
 2515SOL    HW2 8445   0.907   4.547   6.639
 2516SOL     OW 8446   5.332   6.443   3.780
 2516SOL    HW1 8447   5.338   6.538   3.748
 2516SOL    HW2 8448   5.285   6.387   3.712
 2517SOL     OW 8449   2.036   5.332   0.806
 2517SOL    HW1 8450   2.067   5.371   0.719
 2517SOL    HW2 8451   2.007   5.406   0.867
 2518SOL     OW 8452   2.179   2.683   6.886
 2518SOL    HW1 8453   2.177   2.608   6.951
 2518SOL    HW2 8454   2.112   2.753   6.912
 2519SOL     OW 8455   5.735   4.116   5.332
 2519SOL    HW1 8456   5.771   4.023   5.332
 2519SOL    HW2 8457   5.750   4.157   5.242
 2520SOL     OW 8458   3.482   5.596   1.395
 2520SOL    HW1 8459   3.507   5.574   1.301
 2520SOL    HW2 8460   3.417   5.529   1.430
 2521SOL     OW 8461   5.603   6.376   5.645
 2521SOL    HW1 8462   5.544   6.454   5.668
 2521SOL    HW2 8463   5.554   6.291   5.662
 2522SOL     OW 8464   2.083   5.278   4.520
 2522SOL    HW1 8465   2.065   5.221   4.600
 2522SOL    HW2 8466   2.170   5.251   4.479
 2523SOL     OW 8467   1.199   1.562   5.398
 2523SOL    HW1 8468   1.124   1.610   5.443
 2523SOL    HW2 8469   1.282   1.617   5.405
 2524SOL     OW 8470   1.833   6.944   4.399
 2524SOL    HW1 8471   1.928   6.916   4.388
 2524SOL    HW2 8472   1.784   6.931   4.312
 2525SOL     OW 8473   2.579   4.634   2.288
 2525SOL    HW1 8474   2.658   4.680   2.248
 2525SOL    HW2 8475   2.510   4.618   2.218
 2526SOL     OW 8476   1.258   2.657   4.661
 2526SOL    HW1 8477   1.166   2.665   4.700
 2526SOL    HW2 8478   1.326   2.687   4.728
 2527SOL     OW 8479   6.480   0.079   4.084
 2527SOL    HW1 8480   6.410   0.135   4.039
 2527SOL    HW2 8481   6.567   0.128   4.085
 2528SOL     OW 8482   5.289   5.742   0.405
 2528SOL    HW1 8483   5.340   5.822   0.373
 2528SOL    HW2 8484   5.351   5.678   0.450
 2529SOL     OW 8485   4.962   4.195   5.518
 2529SOL    HW1 8486   4.867   4.218   5.538
 2529SOL    HW2 8487   4.964   4.112   5.462
 2530SOL     OW 8488   0.890   6.271   3.394
 2530SOL    HW1 8489   0.869   6.262   3.297
 2530SOL    HW2 8490   0.953   6.347   3.408
 2531SOL     OW 8491   5.578   1.437   6.606
 2531SOL    HW1 8492   5.582   1.345   6.566
 2531SOL    HW2 8493   5.482   1.463   6.621
 2532SOL     OW 8494   0.914   4.956   5.530
 2532SOL    HW1 8495   0.964   4.903   5.462
 2532SOL    HW2 8496   0.938   5.052   5.522
 2533SOL     OW 8497   5.611   0.445   5.304
 2533SOL    HW1 8498   5.614   0.529   5.357
 2533SOL    HW2 8499   5.703   0.405   5.299
 2534SOL     OW 8500   6.322   1.622   3.481
 2534SOL    HW1 8501   6.397   1.617   3.547
 2534SOL    HW2 8502   6.260   1.545   3.494
 2535SOL     OW 8503   2.939   1.454   2.391
 2535SOL    HW1 8504   2.991   1.374   2.423
 2535SOL    HW2 8505   2.989   1.498   2.316
 2536SOL     OW 8506   0.035   0.503   4.098
 2536SOL    HW1 8507   7.002   0.444   4.159
 2536SOL    HW2 8508   0.030   0.469   4.005
 2537SOL     OW 8509   3.257   6.442   2.456
 2537SOL    HW1 8510   3.278   6.383   2.535
 2537SOL    HW2 8511   3.183   6.402   2.404
 2538SOL     OW 8512   0.660   4.916   5.399
 2538SOL    HW1 8513   0.629   5.010   5.414
 2538SOL    HW2 8514   0.747   4.901   5.445
 2539SOL     OW 8515   2.104   0.503   5.700
 2539SOL    HW1 8516   2.176   0.532   5.637
 2539SOL    HW2 8517   2.020   0.553   5.679
 2540SOL     OW 8518   4.905   2.246   2.516
 2540SOL    HW1 8519   4.955   2.160   2.528
 2540SOL    HW2 8520   4.871   2.252   2.422
 2541SOL     OW 8521   0.940   1.534   6.367
 2541SOL    HW1 8522   0.963   1.511   6.273
 2541SOL    HW2 8523   0.918   1.450   6.417
 2542SOL     OW 8524   3.910   1.665   3.741
 2542SOL    HW1 8525   3.892   1.735   3.810
 2542SOL    HW2 8526   4.005   1.671   3.712
 2543SOL     OW 8527   5.985   0.700   5.188
 2543SOL    HW1 8528   6.011   0.672   5.280
 2543SOL    HW2 8529   6.058   0.678   5.124
 2544SOL     OW 8530   6.902   6.906   1.433
 2544SOL    HW1 8531   6.856   6.817   1.438
 2544SOL    HW2 8532   6.932   6.922   1.339
 2545SOL     OW 8533   0.032   1.468   0.323
 2545SOL    HW1 8534   0.021   1.431   0.415
 2545SOL    HW2 8535   7.011   1.405   0.257
 2546SOL     OW 8536   6.343   3.627   2.525
 2546SOL    HW1 8537   6.275   3.611   2.597
 2546SOL    HW2 8538   6.296   3.655   2.441
 2547SOL     OW 8539   5.529   3.414   0.943
 2547SOL    HW1 8540   5.532   3.341   0.875
 2547SOL    HW2 8541   5.609   3.473   0.932
 2548SOL     OW 8542   6.535   0.621   5.253
 2548SOL    HW1 8543   6.621   0.571   5.245
 2548SOL    HW2 8544   6.518   0.642   5.350
 2549SOL     OW 8545   2.800   5.024   0.496
 2549SOL    HW1 8546   2.856   5.004   0.415
 2549SOL    HW2 8547   2.710   5.056   0.467
 2550SOL     OW 8548   3.496   6.954   1.392
 2550SOL    HW1 8549   3.464   6.874   1.341
 2550SOL    HW2 8550   3.532   0.002   1.329
 2551SOL     OW 8551   3.461   4.608   1.409
 2551SOL    HW1 8552   3.557   4.637   1.405
 2551SOL    HW2 8553   3.419   4.646   1.492
 2552SOL     OW 8554   2.394   4.587   1.339
 2552SOL    HW1 8555   2.356   4.515   1.397
 2552SOL    HW2 8556   2.485   4.560   1.307
 2553SOL     OW 8557   4.982   1.399   0.147
 2553SOL    HW1 8558   5.018   1.472   0.205
 2553SOL    HW2 8559   4.882   1.393   0.159
 2554SOL     OW 8560   0.607   5.404   1.068
 2554SOL    HW1 8561   0.524   5.452   1.098
 2554SOL    HW2 8562   0.687   5.455   1.100
 2555SOL     OW 8563   0.732   6.818   5.190
 2555SOL    HW1 8564   0.707   6.893   5.129
 2555SOL    HW2 8565   0.800   6.850   5.256
 2556SOL     OW 8566   4.832   0.193   1.088
 2556SOL    HW1 8567   4.912   0.253   1.076
 2556SOL    HW2 8568   4.835   0.153   1.180
 2557SOL     OW 8569   2.547   1.388   6.993
 2557SOL    HW1 8570   2.614   1.345   6.933
 2557SOL    HW2 8571   2.458   1.391   6.946
 2558SOL     OW 8572   5.470   1.933   1.568
 2558SOL    HW1 8573   5.386   1.949   1.517
 2558SOL    HW2 8574   5.549   1.940   1.506
 2559SOL     OW 8575   6.197   5.071   3.602
 2559SOL    HW1 8576   6.279   5.047   3.550
 2559SOL    HW2 8577   6.224   5.117   3.687
 2560SOL     OW 8578   4.555   2.490   2.420
 2560SOL    HW1 8579   4.565   2.590   2.416
 2560SOL    HW2 8580   4.599   2.456   2.503
 2561SOL     OW 8581   3.320   6.989   4.847
 2561SOL    HW1 8582   3.333   0.067   4.863
 2561SOL    HW2 8583   3.302   6.973   4.750
 2562SOL     OW 8584   1.900   6.891   5.168
 2562SOL    HW1 8585   1.861   6.922   5.254
 2562SOL    HW2 8586   1.828   6.853   5.110
 2563SOL     OW 8587   3.838   2.462   6.582
 2563SOL    HW1 8588   3.776   2.516   6.525
 2563SOL    HW2 8589   3.787   2.421   6.657
 2564SOL     OW 8590   1.211   1.329   0.376
 2564SOL    HW1 8591   1.117   1.364   0.377
 2564SOL    HW2 8592   1.256   1.351   0.463
 2565SOL     OW 8593   0.647   0.769   0.516
 2565SOL    HW1 8594   0.632   0.868   0.522
 2565SOL    HW2 8595   0.742   0.748   0.537
 2566SOL     OW 8596   3.181   1.309   0.850
 2566SOL    HW1 8597   3.216   1.264   0.932
 2566SOL    HW2 8598   3.141   1.240   0.789
 2567SOL     OW 8599   1.919   0.719   6.619
 2567SOL    HW1 8600   1.996   0.733   6.557
 2567SOL    HW2 8601   1.918   0.624   6.649
 2568SOL     OW 8602   1.905   5.491   1.247
 2568SOL    HW1 8603   1.937   5.538   1.329
 2568SOL    HW2 8604   1.813   5.456   1.262
 2569SOL     OW 8605   1.742   6.354   6.707
 2569SOL    HW1 8606   1.680   6.432   6.709
 2569SOL    HW2 8607   1.771   6.338   6.612
 2570SOL     OW 8608   0.677   6.682   4.095
 2570SOL    HW1 8609   0.720   6.598   4.063
 2570SOL    HW2 8610   0.720   6.712   4.180
 2571SOL     OW 8611   3.692   3.731   3.033
 2571SOL    HW1 8612   3.785   3.764   3.019
 2571SOL    HW2 8613   3.629   3.782   2.974
 2572SOL     OW 8614   2.149   6.168   2.565
 2572SOL    HW1 8615   2.126   6.215   2.480
 2572SOL    HW2 8616   2.214   6.223   2.617
 2573SOL     OW 8617   0.024   1.021   3.142
 2573SOL    HW1 8618   0.033   0.984   3.049
 2573SOL    HW2 8619   0.111   1.060   3.170
 2574SOL     OW 8620   0.351   3.302   1.938
 2574SOL    HW1 8621   0.386   3.394   1.920
 2574SOL    HW2 8622   0.281   3.305   2.009
 2575SOL     OW 8623   4.451   3.940   5.464
 2575SOL    HW1 8624   4.410   4.021   5.420
 2575SOL    HW2 8625   4.433   3.943   5.562
 2576SOL     OW 8626   0.979   0.150   2.984
 2576SOL    HW1 8627   0.944   0.067   3.027
 2576SOL    HW2 8628   0.960   0.146   2.886
 2577SOL     OW 8629   1.729   4.498   1.543
 2577SOL    HW1 8630   1.739   4.476   1.640
 2577SOL    HW2 8631   1.637   4.533   1.525
 2578SOL     OW 8632   4.532   2.683   5.102
 2578SOL    HW1 8633   4.537   2.631   5.017
 2578SOL    HW2 8634   4.624   2.715   5.127
 2579SOL     OW 8635   0.289   1.211   6.576
 2579SOL    HW1 8636   0.292   1.270   6.657
 2579SOL    HW2 8637   0.380   1.207   6.534
 2580SOL     OW 8638   1.713   1.858   5.428
 2580SOL    HW1 8639   1.655   1.918   5.483
 2580SOL    HW2 8640   1.713   1.890   5.333
 2581SOL     OW 8641   6.115   6.354   4.477
 2581SOL    HW1 8642   6.051   6.346   4.401
 2581SOL    HW2 8643   6.064   6.362   4.563
 2582SOL     OW 8644   6.892   4.653   3.242
 2582SOL    HW1 8645   6.871   4.584   3.174
 2582SOL    HW2 8646   6.891   4.612   3.333
 2583SOL     OW 8647   2.800   1.021   7.000
 2583SOL    HW1 8648   2.749   1.091   6.950
 2583SOL    HW2 8649   2.898   1.043   6.998
 2584SOL     OW 8650   4.289   1.115   3.332
 2584SOL    HW1 8651   4.281   1.140   3.429
 2584SOL    HW2 8652   4.199   1.123   3.289
 2585SOL     OW 8653   3.970   0.672   2.067
 2585SOL    HW1 8654   3.881   0.655   2.025
 2585SOL    HW2 8655   3.987   0.604   2.138
 2586SOL     OW 8656   0.673   1.631   4.053
 2586SOL    HW1 8657   0.606   1.626   4.128
 2586SOL    HW2 8658   0.637   1.690   3.981
 2587SOL     OW 8659   6.872   5.006   2.892
 2587SOL    HW1 8660   6.832   4.934   2.948
 2587SOL    HW2 8661   6.963   4.978   2.863
 2588SOL     OW 8662   3.747   6.670   2.787
 2588SOL    HW1 8663   3.812   6.653   2.861
 2588SOL    HW2 8664   3.756   6.598   2.718
 2589SOL     OW 8665   4.343   6.464   1.539
 2589SOL    HW1 8666   4.424   6.405   1.543
 2589SOL    HW2 8667   4.358   6.545   1.594
 2590SOL     OW 8668   3.638   5.931   3.799
 2590SOL    HW1 8669   3.579   5.909   3.721
 2590SOL    HW2 8670   3.646   6.030   3.809
 2591SOL     OW 8671   5.981   0.503   0.262
 2591SOL    HW1 8672   6.007   0.596   0.285
 2591SOL    HW2 8673   5.942   0.458   0.342
 2592SOL     OW 8674   2.822   4.761   1.699
 2592SOL    HW1 8675   2.766   4.757   1.616
 2592SOL    HW2 8676   2.807   4.679   1.754
 2593SOL     OW 8677   3.170   0.093   3.569
 2593SOL    HW1 8678   3.195   0.021   3.505
 2593SOL    HW2 8679   3.253   0.127   3.614
 2594SOL     OW 8680   1.659   5.445   6.776
 2594SOL    HW1 8681   1.651   5.538   6.740
 2594SOL    HW2 8682   1.605   5.437   6.860
 2595SOL     OW 8683   6.960   3.047   4.617
 2595SOL    HW1 8684   6.899   2.989   4.563
 2595SOL    HW2 8685   0.034   3.028   4.593
 2596SOL     OW 8686   4.265   1.691   0.971
 2596SOL    HW1 8687   4.269   1.768   1.036
 2596SOL    HW2 8688   4.214   1.616   1.012
 2597SOL     OW 8689   2.350   2.383   6.051
 2597SOL    HW1 8690   2.349   2.284   6.040
 2597SOL    HW2 8691   2.407   2.424   5.980
 2598SOL     OW 8692   6.905   0.766   2.831
 2598SOL    HW1 8693   6.937   0.712   2.753
 2598SOL    HW2 8694   6.921   0.714   2.915
 2599SOL     OW 8695   5.035   5.657   6.365
 2599SOL    HW1 8696   5.011   5.670   6.461
 2599SOL    HW2 8697   5.097   5.579   6.356
 2600SOL     OW 8698   0.716   2.092   4.577
 2600SOL    HW1 8699   0.784   2.133   4.638
 2600SOL    HW2 8700   0.675   2.163   4.520
 2601SOL     OW 8701   4.184   3.493   5.095
 2601SOL    HW1 8702   4.248   3.488   5.172
 2601SOL    HW2 8703   4.179   3.587   5.062
 2602SOL     OW 8704   5.969   6.371   6.213
 2602SOL    HW1 8705   5.985   6.455   6.266
 2602SOL    HW2 8706   5.970   6.393   6.116
 2603SOL     OW 8707   1.271   2.032   6.574
 2603SOL    HW1 8708   1.248   1.967   6.501
 2603SOL    HW2 8709   1.217   2.012   6.656
 2604SOL     OW 8710   5.682   1.858   1.021
 2604SOL    HW1 8711   5.686   1.917   1.101
 2604SOL    HW2 8712   5.599   1.878   0.968
 2605SOL     OW 8713   5.740   3.165   4.549
 2605SOL    HW1 8714   5.821   3.186   4.603
 2605SOL    HW2 8715   5.668   3.129   4.608
 2606SOL     OW 8716   6.597   4.386   1.434
 2606SOL    HW1 8717   6.622   4.481   1.452
 2606SOL    HW2 8718   6.580   4.374   1.336
 2607SOL     OW 8719   1.214   1.116   4.111
 2607SOL    HW1 8720   1.272   1.065   4.175
 2607SOL    HW2 8721   1.125   1.072   4.105
 2608SOL     OW 8722   5.158   0.159   0.199
 2608SOL    HW1 8723   5.075   0.203   0.234
 2608SOL    HW2 8724   5.219   0.136   0.275
 2609SOL     OW 8725   0.577   2.996   3.102
 2609SOL    HW1 8726   0.599   3.082   3.056
 2609SOL    HW2 8727   0.661   2.949   3.126
 2610SOL     OW 8728   5.269   5.907   4.598
 2610SOL    HW1 8729   5.300   5.892   4.504
 2610SOL    HW2 8730   5.318   5.985   4.637
 2611SOL     OW 8731   2.760   5.705   1.973
 2611SOL    HW1 8732   2.832   5.760   2.015
 2611SOL    HW2 8733   2.701   5.764   1.918
 2612SOL     OW 8734   0.406   0.123   5.700
 2612SOL    HW1 8735   0.440   0.048   5.645
 2612SOL    HW2 8736   0.482   0.182   5.727
 2613SOL     OW 8737   3.727   0.959   0.458
 2613SOL    HW1 8738   3.738   1.015   0.540
 2613SOL    HW2 8739   3.817   0.931   0.424
 2614SOL     OW 8740   6.523   6.049   6.622
 2614SOL    HW1 8741   6.584   6.119   6.660
 2614SOL    HW2 8742   6.459   6.093   6.560
 2615SOL     OW 8743   5.871   4.209   1.470
 2615SOL    HW1 8744   5.876   4.246   1.563
 2615SOL    HW2 8745   5.832   4.278   1.409
 2616SOL     OW 8746   4.099   3.624   2.138
 2616SOL    HW1 8747   4.140   3.613   2.228
 2616SOL    HW2 8748   4.007   3.662   2.148
 2617SOL     OW 8749   2.160   6.636   1.093
 2617SOL    HW1 8750   2.087   6.644   1.161
 2617SOL    HW2 8751   2.122   6.648   1.002
 2618SOL     OW 8752   1.226   6.602   0.300
 2618SOL    HW1 8753   1.260   6.660   0.374
 2618SOL    HW2 8754   1.282   6.616   0.218
 2619SOL     OW 8755   6.114   1.258   1.309
 2619SOL    HW1 8756   6.092   1.351   1.282
 2619SOL    HW2 8757   6.207   1.255   1.347
 2620SOL     OW 8758   1.401   5.832   4.035
 2620SOL    HW1 8759   1.313   5.876   4.017
 2620SOL    HW2 8760   1.391   5.733   4.029
 2621SOL     OW 8761   0.757   5.595   4.567
 2621SOL    HW1 8762   0.713   5.604   4.477
 2621SOL    HW2 8763   0.847   5.638   4.565
 2622SOL     OW 8764   2.488   2.196   5.244
 2622SOL    HW1 8765   2.461   2.287   5.278
 2622SOL    HW2 8766   2.575   2.170   5.285
 2623SOL     OW 8767   3.351   0.284   6.334
 2623SOL    HW1 8768   3.414   0.311   6.260
 2623SOL    HW2 8769   3.404   0.247   6.410
 2624SOL     OW 8770   6.231   2.198   4.167
 2624SOL    HW1 8771   6.224   2.131   4.093
 2624SOL    HW2 8772   6.149   2.192   4.224
 2625SOL     OW 8773   3.015   0.213   6.081
 2625SOL    HW1 8774   2.916   0.225   6.086
 2625SOL    HW2 8775   3.060   0.285   6.135
 2626SOL     OW 8776   1.798   0.151   2.988
 2626SOL    HW1 8777   1.737   0.087   3.033
 2626SOL    HW2 8778   1.747   0.233   2.961
 2627SOL     OW 8779   0.546   0.185   5.190
 2627SOL    HW1 8780   0.581   0.233   5.271
 2627SOL    HW2 8781   0.460   0.140   5.212
 2628SOL     OW 8782   3.983   6.028   0.187
 2628SOL    HW1 8783   3.965   6.113   0.138
 2628SOL    HW2 8784   3.924   6.023   0.268
 2629SOL     OW 8785   3.060   3.607   1.899
 2629SOL    HW1 8786   3.122   3.675   1.860
 2629SOL    HW2 8787   3.052   3.622   1.998
 2630SOL     OW 8788   2.776   2.239   2.550
 2630SOL    HW1 8789   2.721   2.319   2.575
 2630SOL    HW2 8790   2.856   2.233   2.610
 2631SOL     OW 8791   4.023   5.863   4.539
 2631SOL    HW1 8792   4.036   5.873   4.637
 2631SOL    HW2 8793   3.996   5.951   4.499
 2632SOL     OW 8794   4.798   1.478   1.050
 2632SOL    HW1 8795   4.855   1.494   1.130
 2632SOL    HW2 8796   4.703   1.466   1.079
 2633SOL     OW 8797   6.726   2.729   6.656
 2633SOL    HW1 8798   6.817   2.712   6.693
 2633SOL    HW2 8799   6.682   2.803   6.707
 2634SOL     OW 8800   3.503   4.868   0.711
 2634SOL    HW1 8801   3.507   4.945   0.775
 2634SOL    HW2 8802   3.594   4.826   0.703
 2635SOL     OW 8803   6.344   4.852   3.467
 2635SOL    HW1 8804   6.284   4.827   3.544
 2635SOL    HW2 8805   6.403   4.927   3.494
 2636SOL     OW 8806   6.011   5.833   5.530
 2636SOL    HW1 8807   6.110   5.826   5.545
 2636SOL    HW2 8808   5.985   5.776   5.452
 2637SOL     OW 8809   5.287   6.479   2.411
 2637SOL    HW1 8810   5.262   6.477   2.508
 2637SOL    HW2 8811   5.231   6.546   2.363
 2638SOL     OW 8812   4.891   6.016   1.100
 2638SOL    HW1 8813   4.811   6.066   1.067
 2638SOL    HW2 8814   4.957   6.007   1.025
 2639SOL     OW 8815   0.141   6.237   6.694
 2639SOL    HW1 8816   0.154   6.143   6.662
 2639SOL    HW2 8817   0.199   6.253   6.774
 2640SOL     OW 8818   6.520   6.964   6.167
 2640SOL    HW1 8819   6.446   6.994   6.227
 2640SOL    HW2 8820   6.508   6.867   6.146
 2641SOL     OW 8821   6.712   5.850   0.530
 2641SOL    HW1 8822   6.789   5.796   0.563
 2641SOL    HW2 8823   6.641   5.855   0.600
 2642SOL     OW 8824   6.409   0.790   3.897
 2642SOL    HW1 8825   6.385   0.717   3.961
 2642SOL    HW2 8826   6.368   0.876   3.928
 2643SOL     OW 8827   2.269   0.463   2.083
 2643SOL    HW1 8828   2.195   0.433   2.023
 2643SOL    HW2 8829   2.339   0.509   2.029
 2644SOL     OW 8830   7.013   5.907   5.015
 2644SOL    HW1 8831   6.934   5.871   4.965
 2644SOL    HW2 8832   0.072   5.850   4.996
 2645SOL     OW 8833   5.842   5.952   6.114
 2645SOL    HW1 8834   5.870   5.945   6.210
 2645SOL    HW2 8835   5.867   5.868   6.066
 2646SOL     OW 8836   6.034   5.901   6.944
 2646SOL    HW1 8837   6.052   5.945   0.012
 2646SOL    HW2 8838   6.105   5.927   6.879
 2647SOL     OW 8839   2.930   3.401   6.988
 2647SOL    HW1 8840   2.967   3.352   0.046
 2647SOL    HW2 8841   2.875   3.478   7.019
 2648SOL     OW 8842   4.115   1.325   3.866
 2648SOL    HW1 8843   4.095   1.262   3.942
 2648SOL    HW2 8844   4.136   1.415   3.903
 2649SOL     OW 8845   2.835   3.437   5.181
 2649SOL    HW1 8846   2.838   3.533   5.152
 2649SOL    HW2 8847   2.929   3.403   5.190
 2650SOL     OW 8848   0.194   6.636   3.007
 2650SOL    HW1 8849   0.235   6.602   3.091
 2650SOL    HW2 8850   0.267   6.663   2.943
 2651SOL     OW 8851   0.931   0.261   3.362
 2651SOL    HW1 8852   1.001   0.317   3.318
 2651SOL    HW2 8853   0.929   0.282   3.460
 2652SOL     OW 8854   2.951   3.338   2.802
 2652SOL    HW1 8855   3.046   3.359   2.825
 2652SOL    HW2 8856   2.948   3.283   2.719
 2653SOL     OW 8857   6.875   6.146   0.290
 2653SOL    HW1 8858   6.933   6.191   0.358
 2653SOL    HW2 8859   6.815   6.081   0.336
 2654SOL     OW 8860   6.636   1.647   6.097
 2654SOL    HW1 8861   6.675   1.558   6.074
 2654SOL    HW2 8862   6.710   1.714   6.106
 2655SOL     OW 8863   5.486   5.157   4.929
 2655SOL    HW1 8864   5.453   5.226   4.993
 2655SOL    HW2 8865   5.459   5.183   4.836
 2656SOL     OW 8866   5.561   3.515   5.209
 2656SOL    HW1 8867   5.486   3.450   5.202
 2656SOL    HW2 8868   5.526   3.608   5.196
 2657SOL     OW 8869   3.642   1.722   6.297
 2657SOL    HW1 8870   3.553   1.683   6.275
 2657SOL    HW2 8871   3.697   1.729   6.213
 2658SOL     OW 8872   5.918   4.252   5.468
 2658SOL    HW1 8873   5.839   4.209   5.425
 2658SOL    HW2 8874   6.002   4.213   5.429
 2659SOL     OW 8875   6.653   1.685   3.673
 2659SOL    HW1 8876   6.639   1.630   3.591
 2659SOL    HW2 8877   6.741   1.664   3.713
 2660SOL     OW 8878   0.104   2.187   3.322
 2660SOL    HW1 8879   0.142   2.279   3.312
 2660SOL    HW2 8880   0.069   2.155   3.234
 2661SOL     OW 8881   3.707   0.132   2.931
 2661SOL    HW1 8882   3.697   0.082   2.845
 2661SOL    HW2 8883   3.636   0.202   2.937
 2662SOL     OW 8884   3.473   1.156   3.708
 2662SOL    HW1 8885   3.419   1.095   3.765
 2662SOL    HW2 8886   3.539   1.206   3.765
 2663SOL     OW 8887   0.472   4.561   2.936
 2663SOL    HW1 8888   0.504   4.640   2.989
 2663SOL    HW2 8889   0.518   4.478   2.969
 2664SOL     OW 8890   4.035   3.974   1.822
 2664SOL    HW1 8891   3.965   4.038   1.791
 2664SOL    HW2 8892   4.081   4.011   1.902
 2665SOL     OW 8893   4.480   0.119   5.037
 2665SOL    HW1 8894   4.458   0.093   5.131
 2665SOL    HW2 8895   4.397   0.149   4.990
 2666SOL     OW 8896   4.689   6.334   1.705
 2666SOL    HW1 8897   4.758   6.263   1.718
 2666SOL    HW2 8898   4.599   6.292   1.697
 2667SOL     OW 8899   1.933   5.342   3.096
 2667SOL    HW1 8900   1.906   5.284   3.173
 2667SOL    HW2 8901   1.870   5.419   3.088
 2668SOL     OW 8902   6.599   2.386   5.558
 2668SOL    HW1 8903   6.555   2.472   5.530
 2668SOL    HW2 8904   6.693   2.385   5.525
 2669SOL     OW 8905   3.797   5.768   5.060
 2669SOL    HW1 8906   3.894   5.759   5.037
 2669SOL    HW2 8907   3.782   5.855   5.106
 2670SOL     OW 8908   2.864   6.598   4.217
 2670SOL    HW1 8909   2.816   6.649   4.288
 2670SOL    HW2 8910   2.922   6.660   4.165
 2671SOL     OW 8911   3.341   4.048   6.440
 2671SOL    HW1 8912   3.324   4.113   6.366
 2671SOL    HW2 8913   3.259   4.039   6.497
 2672SOL     OW 8914   0.850   4.352   6.885
 2672SOL    HW1 8915   0.908   4.432   6.870
 2672SOL    HW2 8916   0.859   4.289   6.807
 2673SOL     OW 8917   3.859   2.046   3.488
 2673SOL    HW1 8918   3.877   2.100   3.406
 2673SOL    HW2 8919   3.940   2.044   3.546
 2674SOL     OW 8920   6.489   5.465   5.269
 2674SOL    HW1 8921   6.568   5.450   5.210
 2674SOL    HW2 8922   6.420   5.519   5.220
 2675SOL     OW 8923   0.381   4.445   5.621
 2675SOL    HW1 8924   0.374   4.372   5.688
 2675SOL    HW2 8925   0.312   4.515   5.641
 2676SOL     OW 8926   4.563   0.144   1.935
 2676SOL    HW1 8927   4.484   0.200   1.910
 2676SOL    HW2 8928   4.538   0.047   1.931
 2677SOL     OW 8929   2.391   4.565   2.097
 2677SOL    HW1 8930   2.300   4.549   2.059
 2677SOL    HW2 8931   2.458   4.563   2.023
 2678SOL     OW 8932   0.081   6.448   6.287
 2678SOL    HW1 8933   0.164   6.398   6.265
 2678SOL    HW2 8934   0.088   6.486   6.380
 2679SOL     OW 8935   2.558   5.168   1.694
 2679SOL    HW1 8936   2.599   5.217   1.617
 2679SOL    HW2 8937   2.462   5.150   1.675
 2680SOL     OW 8938   1.412   2.510   1.403
 2680SOL    HW1 8939   1.422   2.503   1.502
 2680SOL    HW2 8940   1.336   2.454   1.373
 2681SOL     OW 8941   1.705   1.880   1.994
 2681SOL    HW1 8942   1.762   1.881   2.076
 2681SOL    HW2 8943   1.735   1.953   1.932
 2682SOL     OW 8944   6.470   2.755   4.319
 2682SOL    HW1 8945   6.411   2.754   4.239
 2682SOL    HW2 8946   6.559   2.791   4.295
 2683SOL     OW 8947   1.427   6.890   0.132
 2683SOL    HW1 8948   1.486   6.934   0.065
 2683SOL    HW2 8949   1.406   6.797   0.103
 2684SOL     OW 8950   2.581   5.579   2.573
 2684SOL    HW1 8951   2.541   5.572   2.482
 2684SOL    HW2 8952   2.514   5.551   2.642
 2685SOL     OW 8953   5.395   5.852   5.465
 2685SOL    HW1 8954   5.333   5.891   5.533
 2685SOL    HW2 8955   5.352   5.853   5.375
 2686SOL     OW 8956   1.527   2.987   4.658
 2686SOL    HW1 8957   1.618   3.019   4.632
 2686SOL    HW2 8958   1.491   3.044   4.732
 2687SOL     OW 8959   4.598   4.804   3.431
 2687SOL    HW1 8960   4.551   4.730   3.382
 2687SOL    HW2 8961   4.557   4.892   3.407
 2688SOL     OW 8962   3.937   4.539   5.887
 2688SOL    HW1 8963   4.022   4.550   5.835
 2688SOL    HW2 8964   3.882   4.467   5.846
 2689SOL     OW 8965   6.459   3.038   4.592
 2689SOL    HW1 8966   6.505   3.115   4.637
 2689SOL    HW2 8967   6.373   3.070   4.552
 2690SOL     OW 8968   2.940   3.247   3.368
 2690SOL    HW1 8969   2.995   3.204   3.297
 2690SOL    HW2 8970   2.934   3.345   3.351
 2691SOL     OW 8971   1.165   6.576   1.709
 2691SOL    HW1 8972   1.209   6.659   1.742
 2691SOL    HW2 8973   1.224   6.497   1.727
 2692SOL     OW 8974   0.206   5.134   3.362
 2692SOL    HW1 8975   0.201   5.233   3.375
 2692SOL    HW2 8976   0.130   5.090   3.409
 2693SOL     OW 8977   1.641   3.634   2.855
 2693SOL    HW1 8978   1.740   3.625   2.843
 2693SOL    HW2 8979   1.621   3.716   2.908
 2694SOL     OW 8980   1.962   1.505   2.792
 2694SOL    HW1 8981   1.956   1.493   2.891
 2694SOL    HW2 8982   2.027   1.579   2.771
 2695SOL     OW 8983   4.013   2.196   2.928
 2695SOL    HW1 8984   3.973   2.106   2.944
 2695SOL    HW2 8985   3.990   2.227   2.836
 2696SOL     OW 8986   3.975   3.872   5.383
 2696SOL    HW1 8987   4.003   3.930   5.307
 2696SOL    HW2 8988   4.051   3.812   5.409
 2697SOL     OW 8989   2.597   0.914   5.112
 2697SOL    HW1 8990   2.518   0.976   5.116
 2697SOL    HW2 8991   2.596   0.864   5.026
 2698SOL     OW 8992   2.005   2.703   6.471
 2698SOL    HW1 8993   1.970   2.702   6.377
 2698SOL    HW2 8994   1.940   2.656   6.531
 2699SOL     OW 8995   1.659   5.908   2.756
 2699SOL    HW1 8996   1.749   5.875   2.783
 2699SOL    HW2 8997   1.610   5.941   2.836
 2700SOL     OW 8998   1.805   4.423   3.061
 2700SOL    HW1 8999   1.818   4.325   3.044
 2700SOL    HW2 9000   1.723   4.454   3.013
 2701SOL     OW 9001   3.326   0.411   5.774
 2701SOL    HW1 9002   3.335   0.401   5.675
 2701SOL    HW2 9003   3.403   0.464   5.809
 2702SOL     OW 9004   6.866   6.411   2.731
 2702SOL    HW1 9005   6.774   6.380   2.704
 2702SOL    HW2 9006   6.871   6.418   2.830
 2703SOL     OW 9007   1.442   2.007   3.332
 2703SOL    HW1 9008   1.432   1.913   3.300
 2703SOL    HW2 9009   1.370   2.028   3.397
 2704SOL     OW 9010   1.513   5.888   0.631
 2704SOL    HW1 9011   1.512   5.884   0.731
 2704SOL    HW2 9012   1.420   5.905   0.598
 2705SOL     OW 9013   0.445   4.055   2.897
 2705SOL    HW1 9014   0.511   4.060   2.821
 2705SOL    HW2 9015   0.374   3.989   2.876
 2706SOL     OW 9016   6.590   2.513   3.041
 2706SOL    HW1 9017   6.541   2.578   2.983
 2706SOL    HW2 9018   6.567   2.420   3.013
 2707SOL     OW 9019   2.801   1.227   6.321
 2707SOL    HW1 9020   2.889   1.271   6.340
 2707SOL    HW2 9021   2.762   1.265   6.237
 2708SOL     OW 9022   1.341   4.458   0.574
 2708SOL    HW1 9023   1.358   4.359   0.577
 2708SOL    HW2 9024   1.426   4.507   0.593
 2709SOL     OW 9025   4.668   6.673   1.597
 2709SOL    HW1 9026   4.638   6.638   1.686
 2709SOL    HW2 9027   4.665   6.600   1.529
 2710SOL     OW 9028   6.567   3.931   2.648
 2710SOL    HW1 9029   6.635   3.931   2.722
 2710SOL    HW2 9030   6.597   3.869   2.575
 2711SOL     OW 9031   1.319   6.873   2.430
 2711SOL    HW1 9032   1.225   6.844   2.416
 2711SOL    HW2 9033   1.326   6.922   2.518
 2712SOL     OW 9034   3.664   5.566   2.616
 2712SOL    HW1 9035   3.667   5.659   2.652
 2712SOL    HW2 9036   3.724   5.559   2.537
 2713SOL     OW 9037   2.127   2.558   5.416
 2713SOL    HW1 9038   2.058   2.577   5.486
 2713SOL    HW2 9039   2.121   2.629   5.345
 2714SOL     OW 9040   5.452   6.868   6.193
 2714SOL    HW1 9041   5.436   6.819   6.107
 2714SOL    HW2 9042   5.547   6.855   6.221
 2715SOL     OW 9043   6.009   0.297   0.046
 2715SOL    HW1 9044   5.981   0.364   0.115
 2715SOL    HW2 9045   5.976   0.326   6.977
 2716SOL     OW 9046   6.641   6.798   2.511
 2716SOL    HW1 9047   6.720   6.856   2.529
 2716SOL    HW2 9048   6.663   6.704   2.534
 2717SOL     OW 9049   0.735   0.083   3.330
 2717SOL    HW1 9050   0.762   7.020   3.282
 2717SOL    HW2 9051   0.809   0.150   3.327
 2718SOL     OW 9052   0.766   4.165   3.633
 2718SOL    HW1 9053   0.799   4.079   3.593
 2718SOL    HW2 9054   0.776   4.239   3.566
 2719SOL     OW 9055   4.395   4.817   2.769
 2719SOL    HW1 9056   4.458   4.803   2.846
 2719SOL    HW2 9057   4.404   4.911   2.736
 2720SOL     OW 9058   1.166   5.962   3.975
 2720SOL    HW1 9059   1.120   6.050   3.969
 2720SOL    HW2 9060   1.144   5.908   3.893
 2721SOL     OW 9061   4.949   6.276   3.854
 2721SOL    HW1 9062   5.017   6.324   3.911
 2721SOL    HW2 9063   4.899   6.210   3.910
 2722SOL     OW 9064   1.435   6.311   1.479
 2722SOL    HW1 9065   1.397   6.220   1.464
 2722SOL    HW2 9066   1.533   6.309   1.463
 2723SOL     OW 9067   2.136   2.035   4.675
 2723SOL    HW1 9068   2.082   1.961   4.716
 2723SOL    HW2 9069   2.155   2.104   4.744
 2724SOL     OW 9070   4.068   6.026   6.205
 2724SOL    HW1 9071   4.107   6.117   6.193
 2724SOL    HW2 9072   4.137   5.965   6.243
 2725SOL     OW 9073   2.680   4.939   3.888
 2725SOL    HW1 9074   2.603   4.984   3.844
 2725SOL    HW2 9075   2.745   5.009   3.919
 2726SOL     OW 9076   4.881   6.707   2.395
 2726SOL    HW1 9077   4.913   6.634   2.455
 2726SOL    HW2 9078   4.781   6.702   2.386
 2727SOL     OW 9079   2.126   5.872   3.553
 2727SOL    HW1 9080   2.151   5.790   3.501
 2727SOL    HW2 9081   2.070   5.932   3.495
 2728SOL     OW 9082   3.059   6.976   5.135
 2728SOL    HW1 9083   3.134   0.008   5.174
 2728SOL    HW2 9084   2.972   7.018   5.162
 2729SOL     OW 9085   0.110   4.670   2.891
 2729SOL    HW1 9086   0.017   4.677   2.855
 2729SOL    HW2 9087   0.110   4.696   2.988
 2730SOL     OW 9088   1.081   4.487   1.554
 2730SOL    HW1 9089   1.156   4.458   1.494
 2730SOL    HW2 9090   1.010   4.417   1.555
 2731SOL     OW 9091   2.881   3.695   0.862
 2731SOL    HW1 9092   2.843   3.758   0.929
 2731SOL    HW2 9093   2.916   3.614   0.909
 2732SOL     OW 9094   5.057   3.292   4.915
 2732SOL    HW1 9095   4.963   3.299   4.881
 2732SOL    HW2 9096   5.069   3.353   4.993
 2733SOL     OW 9097   2.338   0.776   6.321
 2733SOL    HW1 9098   2.386   0.726   6.392
 2733SOL    HW2 9099   2.262   0.721   6.286
 2734SOL     OW 9100   2.360   0.505   3.933
 2734SOL    HW1 9101   2.275   0.455   3.946
 2734SOL    HW2 9102   2.421   0.490   4.011
 2735SOL     OW 9103   1.356   5.479   1.328
 2735SOL    HW1 9104   1.256   5.479   1.337
 2735SOL    HW2 9105   1.396   5.528   1.405
 2736SOL     OW 9106   3.677   6.981   6.323
 2736SOL    HW1 9107   3.679   6.897   6.269
 2736SOL    HW2 9108   3.598   6.980   6.383
 2737SOL     OW 9109   4.297   3.311   5.698
 2737SOL    HW1 9110   4.247   3.395   5.676
 2737SOL    HW2 9111   4.232   3.236   5.710
 2738SOL     OW 9112   5.761   4.077   4.159
 2738SOL    HW1 9113   5.821   4.135   4.214
 2738SOL    HW2 9114   5.667   4.087   4.192
 2739SOL     OW 9115   4.734   4.266   0.356
 2739SOL    HW1 9116   4.659   4.327   0.383
 2739SOL    HW2 9117   4.821   4.316   0.363
 2740SOL     OW 9118   6.140   2.643   3.971
 2740SOL    HW1 9119   6.153   2.617   3.875
 2740SOL    HW2 9120   6.046   2.674   3.985
 2741SOL     OW 9121   2.139   3.318   4.611
 2741SOL    HW1 9122   2.162   3.343   4.706
 2741SOL    HW2 9123   2.213   3.262   4.573
 2742SOL     OW 9124   2.427   6.230   5.659
 2742SOL    HW1 9125   2.457   6.135   5.660
 2742SOL    HW2 9126   2.397   6.257   5.750
 2743SOL     OW 9127   6.321   4.577   6.922
 2743SOL    HW1 9128   6.382   4.500   6.904
 2743SOL    HW2 9129   6.358   4.634   6.995
 2744SOL     OW 9130   4.624   0.275   0.588
 2744SOL    HW1 9131   4.641   0.257   0.685
 2744SOL    HW2 9132   4.687   0.346   0.556
 2745SOL     OW 9133   2.692   6.096   1.714
 2745SOL    HW1 9134   2.658   6.140   1.631
 2745SOL    HW2 9135   2.693   6.162   1.789
 2746SOL     OW 9136   1.047   1.919   6.135
 2746SOL    HW1 9137   1.094   1.885   6.054
 2746SOL    HW2 9138   0.954   1.947   6.112
 2747SOL     OW 9139   5.691   5.707   3.699
 2747SOL    HW1 9140   5.708   5.692   3.602
 2747SOL    HW2 9141   5.688   5.805   3.718
 2748SOL     OW 9142   5.063   0.649   4.720
 2748SOL    HW1 9143   5.040   0.676   4.626
 2748SOL    HW2 9144   5.078   0.551   4.724
 2749SOL     OW 9145   5.069   4.493   3.682
 2749SOL    HW1 9146   5.147   4.490   3.745
 2749SOL    HW2 9147   5.082   4.567   3.616
 2750SOL     OW 9148   0.559   6.502   0.279
 2750SOL    HW1 9149   0.509   6.544   0.355
 2750SOL    HW2 9150   0.647   6.549   0.266
 2751SOL     OW 9151   1.865   0.163   6.610
 2751SOL    HW1 9152   1.787   0.128   6.663
 2751SOL    HW2 9153   1.938   0.095   6.610
 2752SOL     OW 9154   0.172   6.628   6.104
 2752SOL    HW1 9155   0.151   6.567   6.180
 2752SOL    HW2 9156   0.096   6.692   6.091
 2753SOL     OW 9157   3.666   5.295   5.278
 2753SOL    HW1 9158   3.730   5.322   5.351
 2753SOL    HW2 9159   3.674   5.197   5.262
 2754SOL     OW 9160   0.929   5.934   4.281
 2754SOL    HW1 9161   0.928   5.983   4.193
 2754SOL    HW2 9162   0.970   5.992   4.351
 2755SOL     OW 9163   4.890   5.786   2.378
 2755SOL    HW1 9164   4.965   5.852   2.383
 2755SOL    HW2 9165   4.805   5.828   2.407
 2756SOL     OW 9166   0.517   2.978   5.383
 2756SOL    HW1 9167   0.421   2.966   5.359
 2756SOL    HW2 9168   0.574   2.920   5.324
 2757SOL     OW 9169   4.966   3.975   6.484
 2757SOL    HW1 9170   5.014   4.046   6.535
 2757SOL    HW2 9171   4.870   4.001   6.472
 2758SOL     OW 9172   0.031   6.886   2.242
 2758SOL    HW1 9173   7.020   6.872   2.336
 2758SOL    HW2 9174   0.093   6.811   2.217
 2759SOL     OW 9175   3.371   3.598   5.051
 2759SOL    HW1 9176   3.308   3.549   5.112
 2759SOL    HW2 9177   3.318   3.649   4.983
 2760SOL     OW 9178   5.837   5.601   2.721
 2760SOL    HW1 9179   5.868   5.528   2.660
 2760SOL    HW2 9180   5.779   5.562   2.793
 2761SOL     OW 9181   1.300   3.176   3.968
 2761SOL    HW1 9182   1.330   3.197   3.874
 2761SOL    HW2 9183   1.289   3.260   4.019
 2762SOL     OW 9184   3.975   1.258   1.654
 2762SOL    HW1 9185   4.010   1.274   1.562
 2762SOL    HW2 9186   4.034   1.302   1.721
 2763SOL     OW 9187   5.985   1.245   4.005
 2763SOL    HW1 9188   6.026   1.170   4.057
 2763SOL    HW2 9189   6.039   1.328   4.017
 2764SOL     OW 9190   0.222   2.813   3.256
 2764SOL    HW1 9191   0.248   2.817   3.160
 2764SOL    HW2 9192   0.157   2.738   3.269
 2765SOL     OW 9193   6.680   6.290   5.927
 2765SOL    HW1 9194   6.752   6.333   5.982
 2765SOL    HW2 9195   6.592   6.328   5.952
 2766SOL     OW 9196   4.732   0.276   0.196
 2766SOL    HW1 9197   4.739   0.178   0.181
 2766SOL    HW2 9198   4.656   0.313   0.142
 2767SOL     OW 9199   0.706   5.677   5.793
 2767SOL    HW1 9200   0.618   5.630   5.805
 2767SOL    HW2 9201   0.748   5.693   5.882
 2768SOL     OW 9202   3.256   6.074   1.720
 2768SOL    HW1 9203   3.314   6.049   1.642
 2768SOL    HW2 9204   3.314   6.099   1.798
 2769SOL     OW 9205   0.525   4.837   5.734
 2769SOL    HW1 9206   0.611   4.888   5.740
 2769SOL    HW2 9207   0.530   4.772   5.659
 2770SOL     OW 9208   1.969   6.797   0.243
 2770SOL    HW1 9209   1.953   6.888   0.280
 2770SOL    HW2 9210   1.976   6.731   0.318
 2771SOL     OW 9211   4.106   6.953   5.555
 2771SOL    HW1 9212   4.072   6.875   5.607
 2771SOL    HW2 9213   4.205   6.946   5.544
 2772SOL     OW 9214   5.167   1.668   3.620
 2772SOL    HW1 9215   5.086   1.727   3.622
 2772SOL    HW2 9216   5.143   1.580   3.579
 2773SOL     OW 9217   5.699   2.538   6.291
 2773SOL    HW1 9218   5.724   2.452   6.334
 2773SOL    HW2 9219   5.634   2.521   6.218
 2774SOL     OW 9220   6.447   0.520   4.062
 2774SOL    HW1 9221   6.399   0.433   4.052
 2774SOL    HW2 9222   6.524   0.523   3.998
 2775SOL     OW 9223   0.045   2.494   4.612
 2775SOL    HW1 9224   0.018   2.501   4.517
 2775SOL    HW2 9225   0.125   2.551   4.629
 2776SOL     OW 9226   4.618   4.197   6.314
 2776SOL    HW1 9227   4.604   4.159   6.405
 2776SOL    HW2 9228   4.710   4.235   6.308
 2777SOL     OW 9229   2.013   2.264   0.068
 2777SOL    HW1 9230   1.951   2.286   7.013
 2777SOL    HW2 9231   2.078   2.338   0.080
 2778SOL     OW 9232   3.274   0.212   5.937
 2778SOL    HW1 9233   3.273   0.282   5.866
 2778SOL    HW2 9234   3.189   0.217   5.990
 2779SOL     OW 9235   5.622   0.793   2.646
 2779SOL    HW1 9236   5.637   0.816   2.550
 2779SOL    HW2 9237   5.706   0.753   2.684
 2780SOL     OW 9238   0.126   0.986   4.593
 2780SOL    HW1 9239   0.168   1.065   4.548
 2780SOL    HW2 9240   0.178   0.962   4.675
 2781SOL     OW 9241   0.207   0.486   2.947
 2781SOL    HW1 9242   0.270   0.551   2.904
 2781SOL    HW2 9243   0.155   0.533   3.018
 2782SOL     OW 9244   5.404   0.243   5.318
 2782SOL    HW1 9245   5.367   0.212   5.406
 2782SOL    HW2 9246   5.441   0.335   5.328
 2783SOL     OW 9247   5.611   2.708   1.276
 2783SOL    HW1 9248   5.707   2.699   1.301
 2783SOL    HW2 9249   5.583   2.804   1.284
 2784SOL     OW 9250   0.036   2.820   1.634
 2784SOL    HW1 9251   0.062   2.724   1.648
 2784SOL    HW2 9252   6.974   2.840   1.686
 2785SOL     OW 9253   4.982   3.698   2.966
 2785SOL    HW1 9254   5.064   3.700   3.024
 2785SOL    HW2 9255   4.924   3.621   2.994
 2786SOL     OW 9256   0.415   5.802   0.402
 2786SOL    HW1 9257   0.384   5.732   0.467
 2786SOL    HW2 9258   0.402   5.769   0.309
 2787SOL     OW 9259   0.675   6.251   5.574
 2787SOL    HW1 9260   0.657   6.169   5.628
 2787SOL    HW2 9261   0.679   6.331   5.634
 2788SOL     OW 9262   3.223   6.701   0.694
 2788SOL    HW1 9263   3.188   6.696   0.601
 2788SOL    HW2 9264   3.306   6.646   0.702
 2789SOL     OW 9265   1.824   2.256   4.039
 2789SOL    HW1 9266   1.746   2.195   4.047
 2789SOL    HW2 9267   1.802   2.344   4.082
 2790SOL     OW 9268   0.010   5.233   1.717
 2790SOL    HW1 9269   6.986   5.279   1.794
 2790SOL    HW2 9270   0.012   5.134   1.734
 2791SOL     OW 9271   0.631   3.366   4.913
 2791SOL    HW1 9272   0.668   3.455   4.938
 2791SOL    HW2 9273   0.588   3.372   4.823
 2792SOL     OW 9274   2.991   1.581   6.144
 2792SOL    HW1 9275   3.047   1.651   6.188
 2792SOL    HW2 9276   3.040   1.542   6.066
 2793SOL     OW 9277   4.091   3.443   6.561
 2793SOL    HW1 9278   4.000   3.404   6.544
 2793SOL    HW2 9279   4.144   3.441   6.476
 2794SOL     OW 9280   1.807   2.101   0.139
 2794SOL    HW1 9281   1.767   2.127   0.227
 2794SOL    HW2 9282   1.886   2.159   0.119
 2795SOL     OW 9283   1.405   6.796   0.796
 2795SOL    HW1 9284   1.353   6.732   0.853
 2795SOL    HW2 9285   1.362   6.887   0.800
 2796SOL     OW 9286   2.608   5.975   6.976
 2796SOL    HW1 9287   2.608   6.012   6.883
 2796SOL    HW2 9288   2.702   5.972   7.010
 2797SOL     OW 9289   4.947   3.706   4.098
 2797SOL    HW1 9290   5.020   3.772   4.115
 2797SOL    HW2 9291   4.860   3.743   4.131
 2798SOL     OW 9292   5.109   1.764   2.156
 2798SOL    HW1 9293   5.178   1.757   2.228
 2798SOL    HW2 9294   5.034   1.822   2.188
 2799SOL     OW 9295   3.408   6.366   5.444
 2799SOL    HW1 9296   3.496   6.346   5.488
 2799SOL    HW2 9297   3.385   6.293   5.380
 2800SOL     OW 9298   4.907   0.977   6.829
 2800SOL    HW1 9299   4.933   1.068   6.861
 2800SOL    HW2 9300   4.814   0.956   6.860
 2801SOL     OW 9301   0.444   4.605   4.001
 2801SOL    HW1 9302   0.376   4.638   4.066
 2801SOL    HW2 9303   0.399   4.580   3.915
 2802SOL     OW 9304   1.371   5.291   4.736
 2802SOL    HW1 9305   1.365   5.270   4.638
 2802SOL    HW2 9306   1.462   5.326   4.757
 2803SOL     OW 9307   3.538   2.258   6.433
 2803SOL    HW1 9308   3.586   2.249   6.346
 2803SOL    HW2 9309   3.442   2.231   6.421
 2804SOL     OW 9310   6.397   2.856   3.701
 2804SOL    HW1 9311   6.360   2.909   3.777
 2804SOL    HW2 9312   6.329   2.851   3.628
 2805SOL     OW 9313   4.303   4.254   0.748
 2805SOL    HW1 9314   4.311   4.159   0.718
 2805SOL    HW2 9315   4.339   4.263   0.841
 2806SOL     OW 9316   0.422   3.530   5.063
 2806SOL    HW1 9317   0.457   3.490   5.148
 2806SOL    HW2 9318   0.495   3.580   5.017
 2807SOL     OW 9319   4.791   1.324   3.850
 2807SOL    HW1 9320   4.848   1.256   3.895
 2807SOL    HW2 9321   4.787   1.407   3.907
 2808SOL     OW 9322   1.466   5.860   5.889
 2808SOL    HW1 9323   1.370   5.881   5.906
 2808SOL    HW2 9324   1.473   5.776   5.836
 2809SOL     OW 9325   0.406   5.851   1.254
 2809SOL    HW1 9326   0.429   5.799   1.172
 2809SOL    HW2 9327   0.486   5.855   1.314
 2810SOL     OW 9328   0.539   6.230   2.925
 2810SOL    HW1 9329   0.539   6.160   2.996
 2810SOL    HW2 9330   0.447   6.238   2.887
 2811SOL     OW 9331   0.682   1.318   0.438
 2811SOL    HW1 9332   0.650   1.365   0.355
 2811SOL    HW2 9333   0.603   1.285   0.489
 2812SOL     OW 9334   2.059   1.360   0.998
 2812SOL    HW1 9335   2.103   1.312   1.075
 2812SOL    HW2 9336   2.104   1.448   0.984
 2813SOL     OW 9337   6.944   2.266   0.604
 2813SOL    HW1 9338   6.875   2.291   0.672
 2813SOL    HW2 9339   6.996   2.187   0.638
 2814SOL     OW 9340   2.562   4.297   6.654
 2814SOL    HW1 9341   2.583   4.265   6.746
 2814SOL    HW2 9342   2.621   4.375   6.631
 2815SOL     OW 9343   0.196   5.520   4.606
 2815SOL    HW1 9344   0.097   5.505   4.612
 2815SOL    HW2 9345   0.237   5.512   4.696
 2816SOL     OW 9346   1.174   4.957   4.855
 2816SOL    HW1 9347   1.143   5.051   4.837
 2816SOL    HW2 9348   1.237   4.957   4.932
 2817SOL     OW 9349   2.899   0.917   2.248
 2817SOL    HW1 9350   2.883   0.978   2.326
 2817SOL    HW2 9351   2.883   0.822   2.276
 2818SOL     OW 9352   1.336   0.890   0.475
 2818SOL    HW1 9353   1.249   0.852   0.443
 2818SOL    HW2 9354   1.356   0.974   0.426
 2819SOL     OW 9355   0.368   0.476   6.595
 2819SOL    HW1 9356   0.431   0.508   6.666
 2819SOL    HW2 9357   0.286   0.437   6.637
 2820SOL     OW 9358   2.329   1.884   0.054
 2820SOL    HW1 9359   2.362   1.975   0.080
 2820SOL    HW2 9360   2.230   1.887   0.041
 2821SOL     OW 9361   3.361   2.313   6.177
 2821SOL    HW1 9362   3.335   2.406   6.203
 2821SOL    HW2 9363   3.293   2.275   6.115
 2822SOL     OW 9364   4.414   3.239   0.682
 2822SOL    HW1 9365   4.462   3.222   0.596
 2822SOL    HW2 9366   4.479   3.232   0.758
 2823SOL     OW 9367   5.893   3.635   2.019
 2823SOL    HW1 9368   5.850   3.687   2.093
 2823SOL    HW2 9369   5.909   3.541   2.050
 2824SOL     OW 9370   0.592   4.607   5.577
 2824SOL    HW1 9371   0.528   4.533   5.599
 2824SOL    HW2 9372   0.643   4.583   5.495
 2825SOL     OW 9373   5.369   2.140   5.881
 2825SOL    HW1 9374   5.344   2.182   5.794
 2825SOL    HW2 9375   5.469   2.129   5.886
 2826SOL     OW 9376   2.382   3.629   6.886
 2826SOL    HW1 9377   2.436   3.547   6.903
 2826SOL    HW2 9378   2.343   3.662   6.972
 2827SOL     OW 9379   6.272   1.489   6.577
 2827SOL    HW1 9380   6.231   1.574   6.542
 2827SOL    HW2 9381   6.264   1.488   6.676
 2828SOL     OW 9382   1.413   4.078   0.741
 2828SOL    HW1 9383   1.470   4.099   0.821
 2828SOL    HW2 9384   1.378   3.985   0.748
 2829SOL     OW 9385   3.536   4.079   1.994
 2829SOL    HW1 9386   3.566   3.984   1.990
 2829SOL    HW2 9387   3.437   4.082   2.010
 2830SOL     OW 9388   3.292   5.730   4.496
 2830SOL    HW1 9389   3.307   5.695   4.403
 2830SOL    HW2 9390   3.371   5.708   4.552
 2831SOL     OW 9391   6.547   1.495   1.947
 2831SOL    HW1 9392   6.558   1.539   1.857
 2831SOL    HW2 9393   6.590   1.552   2.017
 2832SOL     OW 9394   1.033   3.745   1.890
 2832SOL    HW1 9395   1.051   3.843   1.884
 2832SOL    HW2 9396   0.949   3.729   1.941
 2833SOL     OW 9397   6.671   3.066   3.386
 2833SOL    HW1 9398   6.682   3.121   3.303
 2833SOL    HW2 9399   6.756   3.070   3.439
 2834SOL     OW 9400   3.450   0.649   4.613
 2834SOL    HW1 9401   3.355   0.667   4.587
 2834SOL    HW2 9402   3.493   0.735   4.644
 2835SOL     OW 9403   6.669   1.058   0.078
 2835SOL    HW1 9404   6.697   1.028   0.170
 2835SOL    HW2 9405   6.704   0.994   0.010
 2836SOL     OW 9406   2.938   5.831   1.730
 2836SOL    HW1 9407   2.914   5.915   1.777
 2836SOL    HW2 9408   2.998   5.851   1.653
 2837SOL     OW 9409   5.642   3.567   1.886
 2837SOL    HW1 9410   5.732   3.590   1.923
 2837SOL    HW2 9411   5.579   3.550   1.961
 2838SOL     OW 9412   6.555   4.008   5.947
 2838SOL    HW1 9413   6.641   3.980   5.904
 2838SOL    HW2 9414   6.490   3.932   5.944
 2839SOL     OW 9415   6.010   2.947   6.105
 2839SOL    HW1 9416   5.970   2.993   6.025
 2839SOL    HW2 9417   6.108   2.963   6.106
 2840SOL     OW 9418   5.725   6.547   5.053
 2840SOL    HW1 9419   5.723   6.483   5.130
 2840SOL    HW2 9420   5.797   6.615   5.069
 2841SOL     OW 9421   5.455   3.850   2.722
 2841SOL    HW1 9422   5.370   3.902   2.720
 2841SOL    HW2 9423   5.436   3.757   2.756
 2842SOL     OW 9424   0.551   6.816   3.902
 2842SOL    HW1 9425   0.597   6.753   3.964
 2842SOL    HW2 9426   0.619   6.861   3.844
 2843SOL     OW 9427   1.783   2.980   4.584
 2843SOL    HW1 9428   1.862   2.986   4.645
 2843SOL    HW2 9429   1.772   3.068   4.536
 2844SOL     OW 9430   5.143   3.727   0.604
 2844SOL    HW1 9431   5.114   3.686   0.691
 2844SOL    HW2 9432   5.126   3.826   0.607
 2845SOL     OW 9433   3.499   1.758   1.416
 2845SOL    HW1 9434   3.504   1.713   1.326
 2845SOL    HW2 9435   3.579   1.733   1.470
 2846SOL     OW 9436   5.084   6.710   6.729
 2846SOL    HW1 9437   5.117   6.760   6.809
 2846SOL    HW2 9438   5.038   6.626   6.758
 2847SOL     OW 9439   5.358   4.745   1.835
 2847SOL    HW1 9440   5.320   4.749   1.927
 2847SOL    HW2 9441   5.457   4.756   1.838
 2848SOL     OW 9442   0.226   3.814   6.917
 2848SOL    HW1 9443   0.324   3.799   6.908
 2848SOL    HW2 9444   0.201   3.813   7.014
 2849SOL     OW 9445   5.555   0.470   1.621
 2849SOL    HW1 9446   5.513   0.380   1.631
 2849SOL    HW2 9447   5.487   0.541   1.636
 2850SOL     OW 9448   0.641   1.258   1.400
 2850SOL    HW1 9449   0.585   1.236   1.480
 2850SOL    HW2 9450   0.721   1.198   1.397
 2851SOL     OW 9451   3.629   3.516   1.824
 2851SOL    HW1 9452   3.532   3.494   1.829
 2851SOL    HW2 9453   3.667   3.477   1.740
 2852SOL     OW 9454   0.445   5.638   5.382
 2852SOL    HW1 9455   0.538   5.672   5.369
 2852SOL    HW2 9456   0.386   5.673   5.309
 2853SOL     OW 9457   0.696   4.141   4.836
 2853SOL    HW1 9458   0.794   4.136   4.854
 2853SOL    HW2 9459   0.677   4.214   4.771
 2854SOL     OW 9460   3.131   0.364   6.717
 2854SOL    HW1 9461   3.222   0.391   6.748
 2854SOL    HW2 9462   3.103   0.281   6.766
 2855SOL     OW 9463   2.179   1.696   4.485
 2855SOL    HW1 9464   2.095   1.728   4.530
 2855SOL    HW2 9465   2.258   1.715   4.543
 2856SOL     OW 9466   1.512   5.769   4.936
 2856SOL    HW1 9467   1.450   5.734   5.006
 2856SOL    HW2 9468   1.570   5.840   4.975
 2857SOL     OW 9469   0.034   4.168   0.734
 2857SOL    HW1 9470   6.975   4.206   0.688
 2857SOL    HW2 9471   0.117   4.201   0.689
 2858SOL     OW 9472   5.631   4.618   3.342
 2858SOL    HW1 9473   5.591   4.615   3.250
 2858SOL    HW2 9474   5.690   4.699   3.349
 2859SOL     OW 9475   6.124   4.641   1.561
 2859SOL    HW1 9476   6.150   4.614   1.469
 2859SOL    HW2 9477   6.180   4.718   1.591
 2860SOL     OW 9478   1.506   6.630   3.538
 2860SOL    HW1 9479   1.581   6.583   3.585
 2860SOL    HW2 9480   1.419   6.602   3.579
 2861SOL     OW 9481   5.349   4.116   5.360
 2861SOL    HW1 9482   5.427   4.108   5.422
 2861SOL    HW2 9483   5.330   4.212   5.342
 2862SOL     OW 9484   4.341   1.016   0.280
 2862SOL    HW1 9485   4.275   1.001   0.206
 2862SOL    HW2 9486   4.293   1.052   0.360
 2863SOL     OW 9487   5.626   2.097   5.935
 2863SOL    HW1 9488   5.633   2.048   6.022
 2863SOL    HW2 9489   5.710   2.084   5.883
 2864SOL     OW 9490   4.145   4.125   1.142
 2864SOL    HW1 9491   4.117   4.078   1.058
 2864SOL    HW2 9492   4.202   4.064   1.197
 2865SOL     OW 9493   5.732   4.761   6.100
 2865SOL    HW1 9494   5.818   4.777   6.149
 2865SOL    HW2 9495   5.684   4.848   6.086
 2866SOL     OW 9496   3.855   5.106   0.898
 2866SOL    HW1 9497   3.870   5.013   0.862
 2866SOL    HW2 9498   3.913   5.170   0.849
 2867SOL     OW 9499   6.946   6.096   2.488
 2867SOL    HW1 9500   0.024   6.080   2.489
 2867SOL    HW2 9501   6.899   6.019   2.532
 2868SOL     OW 9502   6.886   0.071   5.490
 2868SOL    HW1 9503   6.859   6.998   5.512
 2868SOL    HW2 9504   6.894   0.124   5.574
 2869SOL     OW 9505   5.864   4.952   5.451
 2869SOL    HW1 9506   5.872   4.855   5.472
 2869SOL    HW2 9507   5.954   4.990   5.431
 2870SOL     OW 9508   0.773   1.488   1.505
 2870SOL    HW1 9509   0.717   1.406   1.496
 2870SOL    HW2 9510   0.870   1.463   1.502
 2871SOL     OW 9511   4.895   1.420   3.301
 2871SOL    HW1 9512   4.941   1.485   3.362
 2871SOL    HW2 9513   4.921   1.439   3.206
 2872SOL     OW 9514   3.358   1.817   2.443
 2872SOL    HW1 9515   3.316   1.874   2.373
 2872SOL    HW2 9516   3.325   1.723   2.434
 2873SOL     OW 9517   0.884   6.831   2.962
 2873SOL    HW1 9518   0.957   6.820   2.895
 2873SOL    HW2 9519   0.805   6.775   2.935
 2874SOL     OW 9520   2.196   1.244   3.229
 2874SOL    HW1 9521   2.201   1.343   3.222
 2874SOL    HW2 9522   2.100   1.216   3.237
 2875SOL     OW 9523   2.560   0.432   2.599
 2875SOL    HW1 9524   2.539   0.525   2.630
 2875SOL    HW2 9525   2.475   0.382   2.584
 2876SOL     OW 9526   0.770   6.444   0.763
 2876SOL    HW1 9527   0.769   6.383   0.843
 2876SOL    HW2 9528   0.680   6.444   0.720
 2877SOL     OW 9529   1.646   3.127   5.642
 2877SOL    HW1 9530   1.696   3.136   5.728
 2877SOL    HW2 9531   1.708   3.147   5.565
 2878SOL     OW 9532   3.155   3.166   4.599
 2878SOL    HW1 9533   3.072   3.125   4.562
 2878SOL    HW2 9534   3.221   3.094   4.622
 2879SOL     OW 9535   5.193   5.275   0.421
 2879SOL    HW1 9536   5.135   5.298   0.499
 2879SOL    HW2 9537   5.181   5.343   0.349
 2880SOL     OW 9538   1.255   2.104   3.094
 2880SOL    HW1 9539   1.292   2.014   3.073
 2880SOL    HW2 9540   1.155   2.099   3.101
 2881SOL     OW 9541   5.124   4.981   0.721
 2881SOL    HW1 9542   5.064   4.902   0.736
 2881SOL    HW2 9543   5.216   4.949   0.696
 2882SOL     OW 9544   4.216   6.654   6.867
 2882SOL    HW1 9545   4.262   6.664   6.779
 2882SOL    HW2 9546   4.121   6.684   6.859
 2883SOL     OW 9547   5.688   5.977   3.701
 2883SOL    HW1 9548   5.589   5.959   3.699
 2883SOL    HW2 9549   5.704   6.071   3.731
 2884SOL     OW 9550   6.355   5.457   3.466
 2884SOL    HW1 9551   6.278   5.410   3.424
 2884SOL    HW2 9552   6.423   5.478   3.396
 2885SOL     OW 9553   0.247   3.266   3.526
 2885SOL    HW1 9554   0.258   3.348   3.469
 2885SOL    HW2 9555   0.307   3.273   3.606
 2886SOL     OW 9556   2.389   4.459   4.865
 2886SOL    HW1 9557   2.461   4.522   4.836
 2886SOL    HW2 9558   2.406   4.369   4.825
 2887SOL     OW 9559   0.005   5.460   2.747
 2887SOL    HW1 9560   6.995   5.376   2.791
 2887SOL    HW2 9561   6.959   5.487   2.677
 2888SOL     OW 9562   4.703   6.350   6.844
 2888SOL    HW1 9563   4.678   6.253   6.846
 2888SOL    HW2 9564   4.668   6.396   6.926
 2889SOL     OW 9565   3.973   6.147   4.438
 2889SOL    HW1 9566   3.919   6.150   4.354
 2889SOL    HW2 9567   3.913   6.141   4.517
 2890SOL     OW 9568   1.507   2.483   7.007
 2890SOL    HW1 9569   1.409   2.472   6.994
 2890SOL    HW2 9570   1.530   2.472   0.083
 2891SOL     OW 9571   1.313   1.253   5.232
 2891SOL    HW1 9572   1.291   1.290   5.142
 2891SOL    HW2 9573   1.230   1.221   5.277
 2892SOL     OW 9574   5.461   4.376   2.139
 2892SOL    HW1 9575   5.496   4.282   2.132
 2892SOL    HW2 9576   5.438   4.410   2.048
 2893SOL     OW 9577   6.960   4.980   4.888
 2893SOL    HW1 9578   6.893   5.054   4.890
 2893SOL    HW2 9579   0.029   5.017   4.864
 2894SOL     OW 9580   1.341   5.467   1.037
 2894SOL    HW1 9581   1.336   5.368   1.051
 2894SOL    HW2 9582   1.253   5.509   1.061
 2895SOL     OW 9583   4.897   6.714   5.999
 2895SOL    HW1 9584   4.907   6.734   6.097
 2895SOL    HW2 9585   4.816   6.760   5.964
 2896SOL     OW 9586   6.427   0.552   4.980
 2896SOL    HW1 9587   6.467   0.613   5.047
 2896SOL    HW2 9588   6.450   0.457   5.002
 2897SOL     OW 9589   3.723   6.033   3.302
 2897SOL    HW1 9590   3.657   5.965   3.271
 2897SOL    HW2 9591   3.792   6.047   3.231
 2898SOL     OW 9592   5.095   3.024   3.595
 2898SOL    HW1 9593   5.192   3.030   3.570
 2898SOL    HW2 9594   5.078   2.936   3.640
 2899SOL     OW 9595   6.525   2.613   0.680
 2899SOL    HW1 9596   6.596   2.550   0.649
 2899SOL    HW2 9597   6.568   2.693   0.722
 2900SOL     OW 9598   2.666   2.744   5.701
 2900SOL    HW1 9599   2.703   2.824   5.653
 2900SOL    HW2 9600   2.717   2.663   5.675
 2901SOL     OW 9601   1.604   4.023   1.975
 2901SOL    HW1 9602   1.512   4.048   2.002
 2901SOL    HW2 9603   1.601   3.942   1.915
 2902SOL     OW 9604   5.960   5.868   3.626
 2902SOL    HW1 9605   5.867   5.870   3.662
 2902SOL    HW2 9606   5.963   5.917   3.539
 2903SOL     OW 9607   0.436   5.158   0.576
 2903SOL    HW1 9608   0.480   5.193   0.493
 2903SOL    HW2 9609   0.383   5.077   0.553
 2904SOL     OW 9610   2.858   4.918   5.111
 2904SOL    HW1 9611   2.770   4.932   5.066
 2904SOL    HW2 9612   2.863   4.824   5.147
 2905SOL     OW 9613   0.852   5.071   1.492
 2905SOL    HW1 9614   0.899   5.092   1.406
 2905SOL    HW2 9615   0.892   4.990   1.533
 2906SOL     OW 9616   0.009   6.144   5.966
 2906SOL    HW1 9617   6.984   6.077   6.024
 2906SOL    HW2 9618   0.107   6.145   5.987
 2907SOL     OW 9619   6.983   0.926   5.331
 2907SOL    HW1 9620   6.997   0.923   5.430
 2907SOL    HW2 9621   0.027   0.864   5.287
 2908SOL     OW 9622   4.172   6.653   3.899
 2908SOL    HW1 9623   4.250   6.595   3.874
 2908SOL    HW2 9624   4.103   6.598   3.944
 2909SOL     OW 9625   6.894   0.135   1.501
 2909SOL    HW1 9626   6.795   0.143   1.509
 2909SOL    HW2 9627   6.920   0.040   1.485
 2910SOL     OW 9628   1.273   0.939   3.894
 2910SOL    HW1 9629   1.177   0.918   3.878
 2910SOL    HW2 9630   1.281   1.015   3.958
 2911SOL     OW 9631   0.065   3.955   4.705
 2911SOL    HW1 9632   7.009   3.911   4.658
 2911SOL    HW2 9633   0.148   3.947   4.648
 2912SOL     OW 9634   0.666   1.622   2.075
 2912SOL    HW1 9635   0.637   1.640   2.170
 2912SOL    HW2 9636   0.643   1.701   2.018
 2913SOL     OW 9637   0.784   6.900   3.789
 2913SOL    HW1 9638   0.733   6.961   3.728
 2913SOL    HW2 9639   0.856   6.953   3.836
 2914SOL     OW 9640   3.677   4.234   1.390
 2914SOL    HW1 9641   3.741   4.309   1.404
 2914SOL    HW2 9642   3.713   4.151   1.433
 2915SOL     OW 9643   1.934   1.000   4.113
 2915SOL    HW1 9644   1.899   1.042   4.197
 2915SOL    HW2 9645   2.029   1.028   4.099
 2916SOL     OW 9646   0.894   5.219   6.426
 2916SOL    HW1 9647   0.873   5.317   6.417
 2916SOL    HW2 9648   0.822   5.175   6.480
 2917SOL     OW 9649   2.032   0.648   3.329
 2917SOL    HW1 9650   2.077   0.728   3.289
 2917SOL    HW2 9651   1.946   0.677   3.372
 2918SOL     OW 9652   5.373   2.330   1.387
 2918SOL    HW1 9653   5.403   2.417   1.426
 2918SOL    HW2 9654   5.287   2.301   1.430
 2919SOL     OW 9655   0.849   6.239   4.848
 2919SOL    HW1 9656   0.883   6.297   4.923
 2919SOL    HW2 9657   0.834   6.295   4.767
 2920SOL     OW 9658   2.840   2.610   1.732
 2920SOL    HW1 9659   2.911   2.669   1.692
 2920SOL    HW2 9660   2.884   2.536   1.783
 2921SOL     OW 9661   0.710   6.077   3.459
 2921SOL    HW1 9662   0.720   6.045   3.553
 2921SOL    HW2 9663   0.777   6.148   3.440
 2922SOL     OW 9664   3.620   5.201   3.395
 2922SOL    HW1 9665   3.609   5.264   3.319
 2922SOL    HW2 9666   3.596   5.246   3.480
 2923SOL     OW 9667   1.617   5.716   4.311
 2923SOL    HW1 9668   1.570   5.776   4.375
 2923SOL    HW2 9669   1.623   5.761   4.222
 2924SOL     OW 9670   5.412   1.161   6.423
 2924SOL    HW1 9671   5.412   1.212   6.337
 2924SOL    HW2 9672   5.505   1.148   6.455
 2925SOL     OW 9673   5.861   6.685   4.642
 2925SOL    HW1 9674   5.777   6.719   4.684
 2925SOL    HW2 9675   5.940   6.735   4.679
 2926SOL     OW 9676   6.240   2.763   4.830
 2926SOL    HW1 9677   6.252   2.735   4.734
 2926SOL    HW2 9678   6.329   2.782   4.871
 2927SOL     OW 9679   1.178   1.920   2.619
 2927SOL    HW1 9680   1.098   1.904   2.678
 2927SOL    HW2 9681   1.215   2.011   2.639
 2928SOL     OW 9682   5.409   4.105   0.617
 2928SOL    HW1 9683   5.378   4.014   0.643
 2928SOL    HW2 9684   5.404   4.166   0.695
 2929SOL     OW 9685   2.015   1.765   3.434
 2929SOL    HW1 9686   2.046   1.745   3.527
 2929SOL    HW2 9687   2.078   1.725   3.368
 2930SOL     OW 9688   0.600   3.422   4.276
 2930SOL    HW1 9689   0.659   3.358   4.227
 2930SOL    HW2 9690   0.568   3.493   4.213
 2931SOL     OW 9691   5.949   4.397   6.289
 2931SOL    HW1 9692   5.858   4.390   6.249
 2931SOL    HW2 9693   5.941   4.427   6.384
 2932SOL     OW 9694   6.518   5.801   0.890
 2932SOL    HW1 9695   6.572   5.737   0.944
 2932SOL    HW2 9696   6.473   5.867   0.951
 2933SOL     OW 9697   0.763   0.077   0.035
 2933SOL    HW1 9698   0.842   0.045   7.003
 2933SOL    HW2 9699   0.709   0.140   7.000
 2934SOL     OW 9700   5.488   5.112   1.402
 2934SOL    HW1 9701   5.500   5.098   1.500
 2934SOL    HW2 9702   5.406   5.064   1.371
 2935SOL     OW 9703   0.746   3.725   5.551
 2935SOL    HW1 9704   0.764   3.684   5.640
 2935SOL    HW2 9705   0.704   3.657   5.491
 2936SOL     OW 9706   4.105   6.457   1.956
 2936SOL    HW1 9707   4.109   6.525   1.884
 2936SOL    HW2 9708   4.064   6.497   2.038
 2937SOL     OW 9709   5.921   3.721   3.405
 2937SOL    HW1 9710   5.880   3.794   3.461
 2937SOL    HW2 9711   5.873   3.714   3.318
 2938SOL     OW 9712   0.623   5.117   0.066
 2938SOL    HW1 9713   0.670   5.138   0.151
 2938SOL    HW2 9714   0.689   5.096   7.015
 2939SOL     OW 9715   6.598   6.321   1.892
 2939SOL    HW1 9716   6.661   6.252   1.929
 2939SOL    HW2 9717   6.541   6.280   1.821
 2940SOL     OW 9718   4.449   6.618   4.172
 2940SOL    HW1 9719   4.524   6.635   4.109
 2940SOL    HW2 9720   4.484   6.619   4.266
 2941SOL     OW 9721   2.919   4.737   2.993
 2941SOL    HW1 9722   2.927   4.817   3.053
 2941SOL    HW2 9723   2.991   4.740   2.924
 2942SOL     OW 9724   3.449   2.305   1.690
 2942SOL    HW1 9725   3.406   2.389   1.656
 2942SOL    HW2 9726   3.529   2.329   1.744
 2943SOL     OW 9727   0.160   3.919   3.550
 2943SOL    HW1 9728   0.165   3.819   3.558
 2943SOL    HW2 9729   0.166   3.945   3.454
 2944SOL     OW 9730   1.263   6.145   3.239
 2944SOL    HW1 9731   1.283   6.053   3.207
 2944SOL    HW2 9732   1.343   6.181   3.288
 2945SOL     OW 9733   5.905   3.310   1.191
 2945SOL    HW1 9734   5.894   3.351   1.100
 2945SOL    HW2 9735   5.930   3.382   1.256
 2946SOL     OW 9736   3.461   3.332   4.278
 2946SOL    HW1 9737   3.515   3.288   4.206
 2946SOL    HW2 9738   3.471   3.431   4.270
 2947SOL     OW 9739   6.347   5.368   0.321
 2947SOL    HW1 9740   6.425   5.308   0.340
 2947SOL    HW2 9741   6.379   5.454   0.282
 2948SOL     OW 9742   6.637   4.206   1.143
 2948SOL    HW1 9743   6.544   4.212   1.179
 2948SOL    HW2 9744   6.684   4.127   1.182
 2949SOL     OW 9745   1.473   6.215   0.509
 2949SOL    HW1 9746   1.480   6.159   0.592
 2949SOL    HW2 9747   1.378   6.218   0.479
 2950SOL     OW 9748   6.004   5.383   2.576
 2950SOL    HW1 9749   6.083   5.333   2.540
 2950SOL    HW2 9750   5.922   5.353   2.527
 2951SOL     OW 9751   0.921   2.308   1.169
 2951SOL    HW1 9752   0.841   2.357   1.204
 2951SOL    HW2 9753   1.002   2.337   1.219
 2952SOL     OW 9754   6.989   1.380   3.914
 2952SOL    HW1 9755   0.063   1.408   3.930
 2952SOL    HW2 9756   6.988   1.290   3.869
 2953SOL     OW 9757   1.529   5.962   2.998
 2953SOL    HW1 9758   1.524   6.053   3.038
 2953SOL    HW2 9759   1.441   5.937   2.958
 2954SOL     OW 9760   1.000   4.167   6.466
 2954SOL    HW1 9761   1.004   4.249   6.407
 2954SOL    HW2 9762   0.992   4.086   6.409
 2955SOL     OW 9763   1.850   4.722   6.750
 2955SOL    HW1 9764   1.791   4.641   6.749
 2955SOL    HW2 9765   1.825   4.781   6.826
 2956SOL     OW 9766   5.372   4.068   4.767
 2956SOL    HW1 9767   5.368   3.969   4.757
 2956SOL    HW2 9768   5.467   4.097   4.774
 2957SOL     OW 9769   1.650   5.748   2.363
 2957SOL    HW1 9770   1.666   5.838   2.403
 2957SOL    HW2 9771   1.667   5.677   2.432
 2958SOL     OW 9772   1.604   4.722   1.975
 2958SOL    HW1 9773   1.645   4.811   1.957
 2958SOL    HW2 9774   1.521   4.711   1.920
 2959SOL     OW 9775   6.779   4.309   3.876
 2959SOL    HW1 9776   6.831   4.230   3.910
 2959SOL    HW2 9777   6.840   4.370   3.826
 2960SOL     OW 9778   4.528   6.589   1.223
 2960SOL    HW1 9779   4.445   6.534   1.226
 2960SOL    HW2 9780   4.580   6.576   1.307
 2961SOL     OW 9781   5.908   2.517   1.781
 2961SOL    HW1 9782   5.813   2.498   1.758
 2961SOL    HW2 9783   5.937   2.458   1.856
 2962SOL     OW 9784   0.287   0.014   3.696
 2962SOL    HW1 9785   0.267   0.109   3.673
 2962SOL    HW2 9786   0.321   0.009   3.790
 2963SOL     OW 9787   1.975   0.788   5.644
 2963SOL    HW1 9788   1.902   0.848   5.676
 2963SOL    HW2 9789   2.064   0.826   5.670
 2964SOL     OW 9790   1.527   0.067   6.523
 2964SOL    HW1 9791   1.591   0.138   6.492
 2964SOL    HW2 9792   1.473   0.102   6.600
 2965SOL     OW 9793   5.850   0.662   6.241
 2965SOL    HW1 9794   5.841   0.562   6.241
 2965SOL    HW2 9795   5.863   0.694   6.148
 2966SOL     OW 9796   3.831   5.431   2.801
 2966SOL    HW1 9797   3.800   5.437   2.895
 2966SOL    HW2 9798   3.770   5.484   2.742
 2967SOL     OW 9799   5.643   6.746   4.833
 2967SOL    HW1 9800   5.558   6.707   4.799
 2967SOL    HW2 9801   5.662   6.709   4.925
 2968SOL     OW 9802   1.463   4.209   1.590
 2968SOL    HW1 9803   1.497   4.187   1.499
 2968SOL    HW2 9804   1.538   4.247   1.645
 2969SOL     OW 9805   4.748   2.645   4.688
 2969SOL    HW1 9806   4.711   2.675   4.600
 2969SOL    HW2 9807   4.839   2.604   4.673
 2970SOL     OW 9808   2.606   2.756   6.000
 2970SOL    HW1 9809   2.656   2.784   5.918
 2970SOL    HW2 9810   2.538   2.826   6.023
 2971SOL     OW 9811   4.648   3.828   6.688
 2971SOL    HW1 9812   4.550   3.844   6.678
 2971SOL    HW2 9813   4.690   3.815   6.598
 2972SOL     OW 9814   0.300   5.778   6.560
 2972SOL    HW1 9815   0.398   5.775   6.538
 2972SOL    HW2 9816   0.266   5.685   6.572
 2973SOL     OW 9817   5.246   0.616   4.102
 2973SOL    HW1 9818   5.178   0.663   4.159
 2973SOL    HW2 9819   5.214   0.615   4.007
 2974SOL     OW 9820   5.753   6.106   2.086
 2974SOL    HW1 9821   5.791   6.199   2.093
 2974SOL    HW2 9822   5.821   6.040   2.116
 2975SOL     OW 9823   6.780   3.173   5.003
 2975SOL    HW1 9824   6.768   3.188   5.101
 2975SOL    HW2 9825   6.866   3.215   4.973
 2976SOL     OW 9826   3.713   0.700   1.594
 2976SOL    HW1 9827   3.649   0.713   1.671
 2976SOL    HW2 9828   3.677   0.745   1.513
 2977SOL     OW 9829   1.720   1.310   1.721
 2977SOL    HW1 9830   1.764   1.351   1.641
 2977SOL    HW2 9831   1.774   1.330   1.803
 2978SOL     OW 9832   3.458   5.771   0.581
 2978SOL    HW1 9833   3.457   5.676   0.610
 2978SOL    HW2 9834   3.364   5.799   0.557
 2979SOL     OW 9835   2.799   1.002   5.491
 2979SOL    HW1 9836   2.767   1.093   5.466
 2979SOL    HW2 9837   2.775   0.983   5.586
 2980SOL     OW 9838   3.459   2.953   4.104
 2980SOL    HW1 9839   3.498   3.037   4.065
 2980SOL    HW2 9840   3.509   2.928   4.187
 2981SOL     OW 9841   3.270   2.096   1.689
 2981SOL    HW1 9842   3.300   2.001   1.679
 2981SOL    HW2 9843   3.348   2.154   1.708
 2982SOL     OW 9844   1.580   0.780   0.862
 2982SOL    HW1 9845   1.495   0.833   0.870
 2982SOL    HW2 9846   1.598   0.763   0.765
 2983SOL     OW 9847   6.474   2.746   6.445
 2983SOL    HW1 9848   6.417   2.709   6.371
 2983SOL    HW2 9849   6.487   2.677   6.516
 2984SOL     OW 9850   0.357   6.132   1.280
 2984SOL    HW1 9851   0.334   6.038   1.256
 2984SOL    HW2 9852   0.334   6.148   1.376
 2985SOL     OW 9853   6.445   0.667   5.528
 2985SOL    HW1 9854   6.460   0.634   5.621
 2985SOL    HW2 9855   6.384   0.745   5.530
 2986SOL     OW 9856   3.137   3.373   2.343
 2986SOL    HW1 9857   3.216   3.313   2.331
 2986SOL    HW2 9858   3.053   3.321   2.331
 2987SOL     OW 9859   2.597   5.653   4.545
 2987SOL    HW1 9860   2.574   5.668   4.449
 2987SOL    HW2 9861   2.520   5.679   4.603
 2988SOL     OW 9862   0.041   2.022   6.268
 2988SOL    HW1 9863   0.104   1.957   6.311
 2988SOL    HW2 9864   0.071   2.115   6.288
 2989SOL     OW 9865   5.855   3.603   5.622
 2989SOL    HW1 9866   5.795   3.673   5.584
 2989SOL    HW2 9867   5.948   3.614   5.585
 2990SOL     OW 9868   5.379   1.109   5.410
 2990SOL    HW1 9869   5.309   1.125   5.479
 2990SOL    HW2 9870   5.337   1.112   5.319
 2991SOL     OW 9871   6.772   3.136   6.939
 2991SOL    HW1 9872   6.697   3.202   6.939
 2991SOL    HW2 9873   6.786   3.100   6.847
 2992SOL     OW 9874   0.924   3.905   5.486
 2992SOL    HW1 9875   0.861   3.833   5.514
 2992SOL    HW2 9876   0.969   3.879   5.401
 2993SOL     OW 9877   3.395   5.062   0.371
 2993SOL    HW1 9878   3.477   5.065   0.429
 2993SOL    HW2 9879   3.356   5.154   0.365
 2994SOL     OW 9880   2.354   5.008   5.092
 2994SOL    HW1 9881   2.304   5.084   5.050
 2994SOL    HW2 9882   2.372   4.938   5.023
 2995SOL     OW 9883   4.811   0.342   1.919
 2995SOL    HW1 9884   4.757   0.377   1.842
 2995SOL    HW2 9885   4.755   0.279   1.973
 2996SOL     OW 9886   6.738   1.055   3.980
 2996SOL    HW1 9887   6.769   1.129   3.921
 2996SOL    HW2 9888   6.715   0.975   3.923
 2997SOL     OW 9889   4.502   5.737   4.444
 2997SOL    HW1 9890   4.509   5.641   4.471
 2997SOL    HW2 9891   4.594   5.775   4.432
 2998SOL     OW 9892   2.734   0.679   2.013
 2998SOL    HW1 9893   2.760   0.775   2.003
 2998SOL    HW2 9894   2.794   0.635   2.080
 2999SOL     OW 9895   1.124   4.548   0.432
 2999SOL    HW1 9896   1.048   4.489   0.460
 2999SOL    HW2 9897   1.205   4.525   0.485
 3000SOL     OW 9898   2.429   3.770   5.399
 3000SOL    HW1 9899   2.373   3.689   5.376
 3000SOL    HW2 9900   2.429   3.833   5.322
 3001SOL     OW 9901   4.150   0.640   5.970
 3001SOL    HW1 9902   4.063   0.633   6.018
 3001SOL    HW2 9903   4.176   0.549   5.935
 3002SOL     OW 9904   1.029   2.291   2.509
 3002SOL    HW1 9905   1.125   2.285   2.536
 3002SOL    HW2 9906   1.000   2.386   2.508
 3003SOL     OW 9907   0.774   5.784   0.573
 3003SOL    HW1 9908   0.718   5.835   0.508
 3003SOL    HW2 9909   0.748   5.688   0.571
 3004SOL     OW 9910   3.385   6.804   3.855
 3004SOL    HW1 9911   3.469   6.817   3.802
 3004SOL    HW2 9912   3.372   6.881   3.917
 3005SOL     OW 9913   2.749   2.182   0.847
 3005SOL    HW1 9914   2.784   2.224   0.931
 3005SOL    HW2 9915   2.688   2.247   0.801
 3006SOL     OW 9916   5.784   1.261   5.621
 3006SOL    HW1 9917   5.795   1.205   5.703
 3006SOL    HW2 9918   5.807   1.206   5.540
 3007SOL     OW 9919   6.529   5.791   5.758
 3007SOL    HW1 9920   6.590   5.726   5.713
 3007SOL    HW2 9921   6.559   5.885   5.739
 3008SOL     OW 9922   5.085   4.003   5.728
 3008SOL    HW1 9923   5.127   4.093   5.719
 3008SOL    HW2 9924   5.009   4.008   5.793
 3009SOL     OW 9925   5.574   3.110   2.173
 3009SOL    HW1 9926   5.562   3.103   2.074
 3009SOL    HW2 9927   5.653   3.055   2.201
 3010SOL     OW 9928   4.756   5.230   1.816
 3010SOL    HW1 9929   4.664   5.192   1.805
 3010SOL    HW2 9930   4.823   5.156   1.807
 3011SOL     OW 9931   5.771   6.892   0.075
 3011SOL    HW1 9932   5.818   6.973   0.040
 3011SOL    HW2 9933   5.673   6.899   0.057
 3012SOL     OW 9934   2.366   1.382   4.736
 3012SOL    HW1 9935   2.397   1.428   4.818
 3012SOL    HW2 9936   2.331   1.291   4.759
 3013SOL     OW 9937   1.043   5.104   5.278
 3013SOL    HW1 9938   0.979   5.157   5.333
 3013SOL    HW2 9939   1.133   5.105   5.322
 3014SOL     OW 9940   3.934   0.372   0.055
 3014SOL    HW1 9941   3.978   0.462   0.050
 3014SOL    HW2 9942   3.977   0.311   7.009
 3015SOL     OW 9943   2.281   6.953   5.657
 3015SOL    HW1 9944   2.215   7.003   5.712
 3015SOL    HW2 9945   2.373   6.969   5.692
 3016SOL     OW 9946   2.908   0.706   3.818
 3016SOL    HW1 9947   2.894   0.805   3.807
 3016SOL    HW2 9948   2.829   0.666   3.864
 3017SOL     OW 9949   1.053   5.766   6.890
 3017SOL    HW1 9950   0.960   5.786   6.920
 3017SOL    HW2 9951   1.078   5.828   6.815
 3018SOL     OW 9952   3.045   2.349   1.369
 3018SOL    HW1 9953   3.055   2.329   1.467
 3018SOL    HW2 9954   2.976   2.421   1.357
 3019SOL     OW 9955   1.375   0.723   5.387
 3019SOL    HW1 9956   1.291   0.775   5.405
 3019SOL    HW2 9957   1.369   0.682   5.295
 3020SOL     OW 9958   4.785   4.751   0.325
 3020SOL    HW1 9959   4.718   4.785   0.259
 3020SOL    HW2 9960   4.875   4.790   0.305
 3021SOL     OW 9961   4.743   6.285   4.454
 3021SOL    HW1 9962   4.830   6.280   4.404
 3021SOL    HW2 9963   4.670   6.244   4.400
 3022SOL     OW 9964   4.534   6.914   4.090
 3022SOL    HW1 9965   4.504   7.009   4.103
 3022SOL    HW2 9966   4.509   6.885   3.997
 3023SOL     OW 9967   5.545   4.664   5.414
 3023SOL    HW1 9968   5.475   4.627   5.475
 3023SOL    HW2 9969   5.506   4.683   5.324
 3024SOL     OW 9970   6.759   1.206   0.534
 3024SOL    HW1 9971   6.833   1.271   0.519
 3024SOL    HW2 9972   6.783   1.145   0.610
 3025SOL     OW 9973   4.202   5.529   0.754
 3025SOL    HW1 9974   4.157   5.555   0.839
 3025SOL    HW2 9975   4.300   5.520   0.769
 3026SOL     OW 9976   0.381   0.206   2.254
 3026SOL    HW1 9977   0.461   0.267   2.257
 3026SOL    HW2 9978   0.397   0.127   2.313
 3027SOL     OW 9979   4.117   6.674   1.130
 3027SOL    HW1 9980   4.139   6.698   1.035
 3027SOL    HW2 9981   4.029   6.627   1.133
 3028SOL     OW 9982   3.741   3.245   4.644
 3028SOL    HW1 9983   3.735   3.219   4.741
 3028SOL    HW2 9984   3.652   3.280   4.614
 3029SOL     OW 9985   0.512   2.655   5.065
 3029SOL    HW1 9986   0.604   2.634   5.032
 3029SOL    HW2 9987   0.454   2.573   5.056
 3030SOL     OW 9988   0.937   2.818   6.197
 3030SOL    HW1 9989   0.953   2.813   6.098
 3030SOL    HW2 9990   0.890   2.903   6.219
 3031SOL     OW 9991   0.781   4.983   6.882
 3031SOL    HW1 9992   0.772   4.888   6.855
 3031SOL    HW2 9993   0.701   5.034   6.850
 3032SOL     OW 9994   3.591   6.966   3.751
 3032SOL    HW1 9995   3.605   7.016   3.666
 3032SOL    HW2 9996   3.679   6.943   3.792
 3033SOL     OW 9997   2.190   1.451   6.516
 3033SOL    HW1 9998   2.224   1.499   6.435
 3033SOL    HW2 9999   2.139   1.515   6.573
 3034SOL     OW10000   5.409   3.466   3.562
 3034SOL    HW110001   5.477   3.414   3.613
 3034SOL    HW210002   5.350   3.516   3.627
 3035SOL     OW10003   0.032   3.514   6.976
 3035SOL    HW110004   6.994   3.572   0.013
 3035SOL    HW210005   0.026   3.544   6.881
 3036SOL     OW10006   3.473   2.010   6.270
 3036SOL    HW110007   3.523   1.942   6.323
 3036SOL    HW210008   3.526   2.034   6.189
 3037SOL     OW10009   0.540   4.951   6.309
 3037SOL    HW110010   0.634   4.916   6.315
 3037SOL    HW210011   0.539   5.033   6.252
 3038SOL     OW10012   6.292   4.753   5.335
 3038SOL    HW110013   6.341   4.666   5.332
 3038SOL    HW210014   6.268   4.774   5.430
 3039SOL     OW10015   5.575   3.058   6.324
 3039SOL    HW110016   5.501   3.001   6.361
 3039SOL    HW210017   5.588   3.036   6.227
 3040SOL     OW10018   4.104   6.588   6.436
 3040SOL    HW110019   4.046   6.669   6.433
 3040SOL    HW210020   4.104   6.542   6.347
 3041SOL     OW10021   2.151   5.387   6.880
 3041SOL    HW110022   2.066   5.403   6.830
 3041SOL    HW210023   2.178   5.471   6.927
 3042SOL     OW10024   6.992   5.129   4.054
 3042SOL    HW110025   0.017   5.169   4.133
 3042SOL    HW210026   6.917   5.070   4.085
 3043SOL     OW10027   3.028   4.100   1.291
 3043SOL    HW110028   3.022   4.193   1.326
 3043SOL    HW210029   2.982   4.094   1.203
 3044SOL     OW10030   4.049   3.289   4.837
 3044SOL    HW110031   4.078   3.248   4.924
 3044SOL    HW210032   3.986   3.365   4.855
 3045SOL     OW10033   5.409   0.536   2.803
 3045SOL    HW110034   5.412   0.633   2.780
 3045SOL    HW210035   5.314   0.508   2.819
 3046SOL     OW10036   5.814   5.832   0.767
 3046SOL    HW110037   5.823   5.901   0.695
 3046SOL    HW210038   5.810   5.741   0.725
 3047SOL     OW10039   5.907   1.668   4.051
 3047SOL    HW110040   5.839   1.711   4.110
 3047SOL    HW210041   5.862   1.613   3.982
 3048SOL     OW10042   4.245   4.562   1.549
 3048SOL    HW110043   4.307   4.596   1.479
 3048SOL    HW210044   4.157   4.609   1.541
 3049SOL     OW10045   0.117   1.445   2.149
 3049SOL    HW110046   0.168   1.475   2.069
 3049SOL    HW210047   0.175   1.451   2.230
 3050SOL     OW10048   3.880   2.175   6.458
 3050SOL    HW110049   3.875   2.161   6.556
 3050SOL    HW210050   3.801   2.229   6.428
 3051SOL     OW10051   2.300   5.209   6.355
 3051SOL    HW110052   2.213   5.220   6.403
 3051SOL    HW210053   2.364   5.279   6.387
 3052SOL     OW10054   6.011   6.361   3.703
 3052SOL    HW110055   6.062   6.429   3.652
 3052SOL    HW210056   6.058   6.273   3.697
 3053SOL     OW10057   0.794   4.892   6.279
 3053SOL    HW110058   0.780   4.793   6.277
 3053SOL    HW210059   0.781   4.929   6.187
 3054SOL     OW10060   5.968   6.982   2.909
 3054SOL    HW110061   5.915   6.961   2.991
 3054SOL    HW210062   5.919   6.947   2.829
 3055SOL     OW10063   5.018   6.710   0.399
 3055SOL    HW110064   4.919   6.723   0.404
 3055SOL    HW210065   5.038   6.614   0.379
 3056SOL     OW10066   4.514   2.082   1.080
 3056SOL    HW110067   4.519   2.088   0.981
 3056SOL    HW210068   4.581   2.015   1.113
 3057SOL     OW10069   6.659   3.520   3.483
 3057SOL    HW110070   6.671   3.452   3.555
 3057SOL    HW210071   6.727   3.593   3.493
 3058SOL     OW10072   0.112   4.959   6.147
 3058SOL    HW110073   0.154   5.034   6.096
 3058SOL    HW210074   0.183   4.892   6.170
 3059SOL     OW10075   1.206   2.750   2.919
 3059SOL    HW110076   1.301   2.745   2.951
 3059SOL    HW210077   1.189   2.680   2.850
 3060SOL     OW10078   5.648   3.798   3.492
 3060SOL    HW110079   5.643   3.741   3.574
 3060SOL    HW210080   5.688   3.887   3.517
 3061SOL     OW10081   5.913   6.411   2.673
 3061SOL    HW110082   5.870   6.468   2.603
 3061SOL    HW210083   5.875   6.434   2.763
 3062SOL     OW10084   3.911   5.106   1.438
 3062SOL    HW110085   3.944   5.062   1.354
 3062SOL    HW210086   3.841   5.049   1.481
 3063SOL     OW10087   6.655   4.697   0.133
 3063SOL    HW110088   6.641   4.617   0.075
 3063SOL    HW210089   6.637   4.672   0.229
 3064SOL     OW10090   4.848   1.849   6.447
 3064SOL    HW110091   4.895   1.823   6.363
 3064SOL    HW210092   4.755   1.879   6.426
 3065SOL     OW10093   5.410   0.914   6.226
 3065SOL    HW110094   5.377   0.983   6.290
 3065SOL    HW210095   5.505   0.890   6.249
 3066SOL     OW10096   5.407   0.336   5.991
 3066SOL    HW110097   5.472   0.267   6.022
 3066SOL    HW210098   5.329   0.339   6.054
 3067SOL     OW10099   1.774   1.681   4.588
 3067SOL    HW110100   1.838   1.751   4.558
 3067SOL    HW210101   1.702   1.670   4.519
 3068SOL     OW10102   5.994   0.125   1.091
 3068SOL    HW110103   6.035   0.132   1.000
 3068SOL    HW210104   5.918   0.190   1.098
 3069SOL     OW10105   5.742   6.030   4.008
 3069SOL    HW110106   5.751   6.027   4.107
 3069SOL    HW210107   5.823   6.072   3.968
 3070SOL     OW10108   2.735   1.129   0.851
 3070SOL    HW110109   2.821   1.082   0.833
 3070SOL    HW210110   2.694   1.092   0.935
 3071SOL     OW10111   5.820   4.668   5.355
 3071SOL    HW110112   5.840   4.570   5.351
 3071SOL    HW210113   5.730   4.683   5.395
 3072SOL     OW10114   1.392   6.667   5.033
 3072SOL    HW110115   1.446   6.748   5.013
 3072SOL    HW210116   1.379   6.614   4.949
 3073SOL     OW10117   6.809   5.569   2.560
 3073SOL    HW110118   6.722   5.597   2.601
 3073SOL    HW210119   6.832   5.630   2.484
 3074SOL     OW10120   3.320   2.808   1.909
 3074SOL    HW110121   3.331   2.836   2.005
 3074SOL    HW210122   3.245   2.859   1.867
 3075SOL     OW10123   3.773   4.821   1.178
 3075SOL    HW110124   3.813   4.913   1.182
 3075SOL    HW210125   3.684   4.825   1.134
 3076SOL     OW10126   2.143   1.890   4.127
 3076SOL    HW110127   2.134   1.967   4.064
 3076SOL    HW210128   2.215   1.909   4.193
 3077SOL     OW10129   0.183   3.496   1.810
 3077SOL    HW110130   0.116   3.427   1.782
 3077SOL    HW210131   0.255   3.501   1.741
 3078SOL     OW10132   6.715   3.999   1.293
 3078SOL    HW110133   6.716   4.056   1.375
 3078SOL    HW210134   6.809   3.976   1.267
 3079SOL     OW10135   1.044   4.022   3.986
 3079SOL    HW110136   0.999   3.941   3.949
 3079SOL    HW210137   1.141   4.020   3.961
 3080SOL     OW10138   3.806   4.664   1.717
 3080SOL    HW110139   3.833   4.572   1.690
 3080SOL    HW210140   3.706   4.671   1.717
 3081SOL     OW10141   2.204   2.741   6.251
 3081SOL    HW110142   2.175   2.810   6.317
 3081SOL    HW210143   2.272   2.780   6.190
 3082SOL     OW10144   5.472   4.063   5.091
 3082SOL    HW110145   5.415   4.113   5.155
 3082SOL    HW210146   5.505   4.125   5.020
 3083SOL     OW10147   4.171   5.822   1.305
 3083SOL    HW110148   4.256   5.815   1.253
 3083SOL    HW210149   4.175   5.760   1.384
 3084SOL     OW10150   6.789   5.407   4.217
 3084SOL    HW110151   6.885   5.431   4.208
 3084SOL    HW210152   6.744   5.412   4.128
 3085SOL     OW10153   6.505   5.946   6.921
 3085SOL    HW110154   6.522   5.980   6.828
 3085SOL    HW210155   6.561   5.998   6.986
 3086SOL     OW10156   5.965   6.637   6.359
 3086SOL    HW110157   5.876   6.621   6.400
 3086SOL    HW210158   6.020   6.696   6.418
 3087SOL     OW10159   3.007   0.296   2.104
 3087SOL    HW110160   2.981   0.231   2.176
 3087SOL    HW210161   2.924   0.336   2.065
 3088SOL     OW10162   2.601   3.418   5.354
 3088SOL    HW110163   2.567   3.512   5.366
 3088SOL    HW210164   2.691   3.421   5.311
 3089SOL     OW10165   4.135   6.346   6.578
 3089SOL    HW110166   4.042   6.322   6.605
 3089SOL    HW210167   4.135   6.436   6.535
 3090SOL     OW10168   1.556   2.638   2.488
 3090SOL    HW110169   1.546   2.546   2.451
 3090SOL    HW210170   1.639   2.643   2.543
 3091SOL     OW10171   1.245   2.441   6.971
 3091SOL    HW110172   1.260   2.358   6.919
 3091SOL    HW210173   1.157   2.482   6.946
 3092SOL     OW10174   5.339   1.072   3.111
 3092SOL    HW110175   5.365   0.993   3.167
 3092SOL    HW210176   5.419   1.108   3.064
 3093SOL     OW10177   6.497   5.314   6.336
 3093SOL    HW110178   6.539   5.246   6.396
 3093SOL    HW210179   6.480   5.274   6.246
 3094SOL     OW10180   2.125   1.635   6.082
 3094SOL    HW110181   2.190   1.601   6.014
 3094SOL    HW210182   2.173   1.652   6.168
 3095SOL     OW10183   1.721   3.925   5.273
 3095SOL    HW110184   1.794   3.868   5.236
 3095SOL    HW210185   1.653   3.868   5.319
 3096SOL     OW10186   1.629   2.780   4.042
 3096SOL    HW110187   1.574   2.697   4.035
 3096SOL    HW210188   1.659   2.792   4.137
 3097SOL     OW10189   5.307   2.660   5.885
 3097SOL    HW110190   5.234   2.717   5.922
 3097SOL    HW210191   5.274   2.610   5.805
 3098SOL     OW10192   1.457   3.273   2.238
 3098SOL    HW110193   1.381   3.210   2.258
 3098SOL    HW210194   1.504   3.297   2.323
 3099SOL     OW10195   1.053   6.709   5.381
 3099SOL    HW110196   1.130   6.653   5.351
 3099SOL    HW210197   1.086   6.795   5.418
 3100SOL     OW10198   6.304   4.517   2.442
 3100SOL    HW110199   6.373   4.582   2.472
 3100SOL    HW210200   6.287   4.529   2.344
 3101SOL     OW10201   4.630   0.067   4.553
 3101SOL    HW110202   4.543   0.117   4.548
 3101SOL    HW210203   4.706   0.131   4.538
 3102SOL     OW10204   5.519   4.267   2.461
 3102SOL    HW110205   5.574   4.189   2.489
 3102SOL    HW210206   5.440   4.236   2.408
 3103SOL     OW10207   1.270   1.928   2.313
 3103SOL    HW110208   1.198   1.878   2.265
 3103SOL    HW210209   1.250   1.929   2.411
 3104SOL     OW10210   5.832   2.035   5.743
 3104SOL    HW110211   5.795   2.100   5.677
 3104SOL    HW210212   5.929   2.019   5.723
 3105SOL     OW10213   5.670   4.115   0.537
 3105SOL    HW110214   5.575   4.112   0.565
 3105SOL    HW210215   5.675   4.116   0.437
 3106SOL     OW10216   5.209   1.904   6.337
 3106SOL    HW110217   5.260   1.887   6.421
 3106SOL    HW210218   5.182   2.000   6.333
 3107SOL     OW10219   3.994   2.150   4.605
 3107SOL    HW110220   4.057   2.139   4.682
 3107SOL    HW210221   3.963   2.245   4.600
 3108SOL     OW10222   1.901   4.316   3.713
 3108SOL    HW110223   1.982   4.373   3.703
 3108SOL    HW210224   1.819   4.374   3.709
 3109SOL     OW10225   6.464   5.876   3.126
 3109SOL    HW110226   6.502   5.826   3.204
 3109SOL    HW210227   6.511   5.964   3.117
 3110SOL     OW10228   1.071   6.011   4.643
 3110SOL    HW110229   1.009   6.082   4.609
 3110SOL    HW210230   1.158   6.017   4.593
 3111SOL     OW10231   6.590   4.042   3.700
 3111SOL    HW110232   6.644   4.125   3.690
 3111SOL    HW210233   6.640   3.976   3.756
 3112SOL     OW10234   4.604   0.600   0.268
 3112SOL    HW110235   4.609   0.540   0.188
 3112SOL    HW210236   4.517   0.585   0.316
 3113SOL     OW10237   1.265   0.319   3.327
 3113SOL    HW110238   1.241   0.224   3.307
 3113SOL    HW210239   1.351   0.321   3.379
 3114SOL     OW10240   4.639   6.090   5.314
 3114SOL    HW110241   4.573   6.154   5.275
 3114SOL    HW210242   4.731   6.128   5.306
 3115SOL     OW10243   4.477   5.470   4.534
 3115SOL    HW110244   4.528   5.384   4.526
 3115SOL    HW210245   4.379   5.450   4.543
 3116SOL     OW10246   0.846   1.781   6.378
 3116SOL    HW110247   0.886   1.690   6.385
 3116SOL    HW210248   0.762   1.776   6.325
 3117SOL     OW10249   3.720   6.964   1.160
 3117SOL    HW110250   3.703   6.868   1.137
 3117SOL    HW210251   3.814   6.974   1.193
 3118SOL     OW10252   0.648   2.058   3.383
 3118SOL    HW110253   0.740   2.097   3.372
 3118SOL    HW210254   0.620   2.013   3.298
 3119SOL     OW10255   4.641   6.233   3.801
 3119SOL    HW110256   4.596   6.144   3.808
 3119SOL    HW210257   4.660   6.268   3.893
 3120SOL     OW10258   2.977   5.984   0.194
 3120SOL    HW110259   3.075   5.985   0.179
 3120SOL    HW210260   2.958   5.983   0.292
 3121SOL     OW10261   4.085   2.001   3.642
 3121SOL    HW110262   4.105   2.038   3.733
 3121SOL    HW210263   4.156   1.936   3.615
 3122SOL     OW10264   5.859   3.964   6.320
 3122SOL    HW110265   5.804   3.888   6.286
 3122SOL    HW210266   5.889   4.020   6.243
 3123SOL     OW10267   2.125   2.598   2.620
 3123SOL    HW110268   2.201   2.595   2.685
 3123SOL    HW210269   2.109   2.692   2.591
 3124SOL     OW10270   4.913   6.793   5.245
 3124SOL    HW110271   4.951   6.813   5.335
 3124SOL    HW210272   4.893   6.879   5.198
 3125SOL     OW10273   1.594   1.482   5.260
 3125SOL    HW110274   1.667   1.421   5.229
 3125SOL    HW210275   1.623   1.528   5.344
 3126SOL     OW10276   4.653   4.492   5.783
 3126SOL    HW110277   4.642   4.584   5.820
 3126SOL    HW210278   4.628   4.492   5.686
 3127SOL     OW10279   6.791   1.870   5.635
 3127SOL    HW110280   6.877   1.914   5.658
 3127SOL    HW210281   6.725   1.940   5.607
 3128SOL     OW10282   3.612   0.863   0.929
 3128SOL    HW110283   3.600   0.951   0.975
 3128SOL    HW210284   3.709   0.852   0.903
 3129SOL     OW10285   3.996   3.850   0.717
 3129SOL    HW110286   3.995   3.768   0.660
 3129SOL    HW210287   3.959   3.927   0.666
 3130SOL     OW10288   6.764   6.069   1.738
 3130SOL    HW110289   6.726   5.983   1.703
 3130SOL    HW210290   6.823   6.049   1.816
 3131SOL     OW10291   6.963   2.876   2.593
 3131SOL    HW110292   6.983   2.941   2.666
 3131SOL    HW210293   6.971   2.921   2.504
 3132SOL     OW10294   4.793   4.519   0.106
 3132SOL    HW110295   4.869   4.455   0.094
 3132SOL    HW210296   4.713   4.469   0.138
 3133SOL     OW10297   5.375   6.187   3.451
 3133SOL    HW110298   5.386   6.196   3.352
 3133SOL    HW210299   5.300   6.247   3.482
 3134SOL     OW10300   5.414   4.451   3.082
 3134SOL    HW110301   5.371   4.398   3.009
 3134SOL    HW210302   5.369   4.430   3.169
 3135SOL     OW10303   3.493   0.241   6.588
 3135SOL    HW110304   3.461   0.260   6.680
 3135SOL    HW210305   3.593   0.241   6.587
 3136SOL     OW10306   6.571   6.979   2.747
 3136SOL    HW110307   6.487   0.008   2.726
 3136SOL    HW210308   6.642   7.005   2.681
 3137SOL     OW10309   4.282   5.343   0.144
 3137SOL    HW110310   4.326   5.320   0.231
 3137SOL    HW210311   4.218   5.270   0.120
 3138SOL     OW10312   6.909   6.742   4.778
 3138SOL    HW110313   6.886   6.713   4.871
 3138SOL    HW210314   6.935   6.839   4.778
 3139SOL     OW10315   1.694   5.443   2.164
 3139SOL    HW110316   1.737   5.492   2.088
 3139SOL    HW210317   1.723   5.347   2.163
 3140SOL     OW10318   5.511   6.043   6.922
 3140SOL    HW110319   5.509   6.001   7.013
 3140SOL    HW210320   5.505   6.142   6.930
 3141SOL     OW10321   5.924   1.229   6.586
 3141SOL    HW110322   5.984   1.253   6.510
 3141SOL    HW210323   5.975   1.234   6.672
 3142SOL     OW10324   4.711   1.120   4.233
 3142SOL    HW110325   4.643   1.052   4.259
 3142SOL    HW210326   4.670   1.211   4.237
 3143SOL     OW10327   0.186   1.312   0.729
 3143SOL    HW110328   0.243   1.235   0.755
 3143SOL    HW210329   0.205   1.390   0.789
 3144SOL     OW10330   3.904   4.766   0.110
 3144SOL    HW110331   3.878   4.839   0.046
 3144SOL    HW210332   3.924   4.682   0.059
 3145SOL     OW10333   0.903   5.525   6.095
 3145SOL    HW110334   0.871   5.535   6.190
 3145SOL    HW210335   0.946   5.435   6.084
 3146SOL     OW10336   6.195   2.253   4.472
 3146SOL    HW110337   6.288   2.263   4.435
 3146SOL    HW210338   6.198   2.268   4.571
 3147SOL     OW10339   4.505   0.065   1.029
 3147SOL    HW110340   4.562   0.003   1.082
 3147SOL    HW210341   4.515   0.159   1.063
 3148SOL     OW10342   6.451   4.944   0.538
 3148SOL    HW110343   6.383   4.965   0.608
 3148SOL    HW210344   6.503   5.026   0.515
 3149SOL     OW10345   4.064   2.918   0.309
 3149SOL    HW110346   3.978   2.957   0.276
 3149SOL    HW210347   4.123   2.991   0.342
 3150SOL     OW10348   0.119   0.078   5.431
 3150SOL    HW110349   0.020   0.085   5.438
 3150SOL    HW210350   0.153   0.015   5.501
 3151SOL     OW10351   6.731   0.697   5.941
 3151SOL    HW110352   6.830   0.686   5.933
 3151SOL    HW210353   6.711   0.786   5.982
 3152SOL     OW10354   2.357   2.110   5.955
 3152SOL    HW110355   2.401   2.073   6.037
 3152SOL    HW210356   2.380   2.053   5.876
 3153SOL     OW10357   5.649   5.742   2.070
 3153SOL    HW110358   5.664   5.719   1.974
 3153SOL    HW210359   5.619   5.837   2.077
 3154SOL     OW10360   3.879   1.981   0.929
 3154SOL    HW110361   3.832   2.057   0.884
 3154SOL    HW210362   3.897   1.908   0.863
 3155SOL     OW10363   0.060   5.301   6.706
 3155SOL    HW110364   0.043   5.286   6.608
 3155SOL    HW210365   0.046   5.216   6.756
 3156SOL     OW10366   3.680   4.422   1.142
 3156SOL    HW110367   3.641   4.359   1.210
 3156SOL    HW210368   3.657   4.516   1.167
 3157SOL     OW10369   1.285   1.370   4.031
 3157SOL    HW110370   1.260   1.284   4.076
 3157SOL    HW210371   1.284   1.444   4.098
 3158SOL     OW10372   2.554   0.627   6.164
 3158SOL    HW110373   2.633   0.658   6.216
 3158SOL    HW210374   2.515   0.545   6.207
 3159SOL     OW10375   5.033   6.969   1.421
 3159SOL    HW110376   5.045   6.958   1.323
 3159SOL    HW210377   4.980   6.892   1.457
 3160SOL     OW10378   1.949   1.017   4.667
 3160SOL    HW110379   1.939   0.927   4.709
 3160SOL    HW210380   1.860   1.063   4.664
 3161SOL     OW10381   1.654   2.675   2.094
 3161SOL    HW110382   1.717   2.714   2.027
 3161SOL    HW210383   1.628   2.583   2.066
 3162SOL     OW10384   1.058   6.003   1.360
 3162SOL    HW110385   1.113   5.926   1.328
 3162SOL    HW210386   1.038   5.991   1.458
 3163SOL     OW10387   4.776   4.200   1.103
 3163SOL    HW110388   4.720   4.149   1.038
 3163SOL    HW210389   4.723   4.223   1.184
 3164SOL     OW10390   2.457   6.657   4.377
 3164SOL    HW110391   2.420   6.696   4.462
 3164SOL    HW210392   2.447   6.724   4.303
 3165SOL     OW10393   0.623   6.091   6.539
 3165SOL    HW110394   0.600   6.157   6.467
 3165SOL    HW210395   0.717   6.060   6.527
 3166SOL     OW10396   4.210   2.064   4.388
 3166SOL    HW110397   4.150   1.990   4.359
 3166SOL    HW210398   4.156   2.135   4.433
 3167SOL     OW10399   6.142   3.044   1.593
 3167SOL    HW110400   6.049   3.015   1.615
 3167SOL    HW210401   6.207   2.989   1.645
 3168SOL     OW10402   5.754   1.412   1.129
 3168SOL    HW110403   5.775   1.336   1.189
 3168SOL    HW210404   5.804   1.402   1.043
 3169SOL     OW10405   1.320   3.970   2.027
 3169SOL    HW110406   1.263   3.962   1.945
 3169SOL    HW210407   1.315   3.885   2.080
 3170SOL     OW10408   2.241   4.027   3.502
 3170SOL    HW110409   2.229   4.012   3.403
 3170SOL    HW210410   2.291   4.112   3.517
 3171SOL     OW10411   5.276   1.344   4.724
 3171SOL    HW110412   5.294   1.420   4.786
 3171SOL    HW210413   5.242   1.266   4.776
 3172SOL     OW10414   5.739   4.156   0.972
 3172SOL    HW110415   5.711   4.194   1.061
 3172SOL    HW210416   5.822   4.102   0.983
 3173SOL     OW10417   5.554   3.129   0.233
 3173SOL    HW110418   5.457   3.105   0.238
 3173SOL    HW210419   5.585   3.162   0.322
 3174SOL     OW10420   3.921   2.167   6.726
 3174SOL    HW110421   3.923   2.086   6.785
 3174SOL    HW210422   3.931   2.249   6.782
 3175SOL     OW10423   6.131   6.393   5.206
 3175SOL    HW110424   6.174   6.348   5.284
 3175SOL    HW210425   6.038   6.358   5.195
 3176SOL     OW10426   0.284   5.028   4.201
 3176SOL    HW110427   0.365   4.972   4.184
 3176SOL    HW210428   0.305   5.124   4.185
 3177SOL     OW10429   4.871   2.970   3.138
 3177SOL    HW110430   4.898   2.986   3.233
 3177SOL    HW210431   4.815   2.888   3.132
 3178SOL     OW10432   0.929   0.137   2.717
 3178SOL    HW110433   0.955   0.220   2.668
 3178SOL    HW210434   0.845   0.100   2.678
 3179SOL     OW10435   0.673   3.274   2.309
 3179SOL    HW110436   0.759   3.225   2.297
 3179SOL    HW210437   0.615   3.261   2.228
 3180SOL     OW10438   6.602   6.858   6.816
 3180SOL    HW110439   6.610   6.893   6.722
 3180SOL    HW210440   6.690   6.818   6.844
 3181SOL     OW10441   0.693   6.021   4.809
 3181SOL    HW110442   0.745   5.942   4.841
 3181SOL    HW210443   0.742   6.105   4.834
 3182SOL     OW10444   1.110   6.871   1.246
 3182SOL    HW110445   1.085   6.958   1.203
 3182SOL    HW210446   1.101   6.880   1.345
 3183SOL     OW10447   4.046   3.494   0.931
 3183SOL    HW110448   4.090   3.544   1.006
 3183SOL    HW210449   4.112   3.431   0.890
 3184SOL     OW10450   6.353   1.561   4.262
 3184SOL    HW110451   6.429   1.526   4.208
 3184SOL    HW210452   6.274   1.578   4.202
 3185SOL     OW10453   0.894   6.451   5.987
 3185SOL    HW110454   0.979   6.488   5.950
 3185SOL    HW210455   0.914   6.371   6.043
 3186SOL     OW10456   0.297   2.675   5.781
 3186SOL    HW110457   0.358   2.665   5.702
 3186SOL    HW210458   0.249   2.762   5.775
 3187SOL     OW10459   5.255   0.048   3.223
 3187SOL    HW110460   5.195   0.119   3.187
 3187SOL    HW210461   5.310   0.010   3.148
 3188SOL     OW10462   1.660   6.697   0.795
 3188SOL    HW110463   1.630   6.610   0.835
 3188SOL    HW210464   1.583   6.760   0.792
 3189SOL     OW10465   2.645   1.772   6.606
 3189SOL    HW110466   2.657   1.728   6.695
 3189SOL    HW210467   2.565   1.831   6.609
 3190SOL     OW10468   5.938   6.438   3.985
 3190SOL    HW110469   5.921   6.340   3.994
 3190SOL    HW210470   5.975   6.458   3.894
 3191SOL     OW10471   3.727   4.925   1.520
 3191SOL    HW110472   3.687   4.845   1.476
 3191SOL    HW210473   3.663   4.961   1.588
 3192SOL     OW10474   5.342   0.820   2.683
 3192SOL    HW110475   5.329   0.851   2.777
 3192SOL    HW210476   5.439   0.827   2.659
 3193SOL     OW10477   3.019   5.553   5.366
 3193SOL    HW110478   3.117   5.551   5.385
 3193SOL    HW210479   2.998   5.627   5.303
 3194SOL     OW10480   1.891   6.741   5.432
 3194SOL    HW110481   1.917   6.686   5.352
 3194SOL    HW210482   1.833   6.817   5.402
 3195SOL     OW10483   0.580   6.852   0.595
 3195SOL    HW110484   0.677   6.875   0.594
 3195SOL    HW210485   0.530   6.920   0.648
 3196SOL     OW10486   6.217   6.921   3.010
 3196SOL    HW110487   6.133   6.963   2.974
 3196SOL    HW210488   6.246   6.847   2.949
 3197SOL     OW10489   2.959   0.345   0.070
 3197SOL    HW110490   2.908   0.286   0.133
 3197SOL    HW210491   3.009   0.289   0.004
 3198SOL     OW10492   5.083   2.986   4.211
 3198SOL    HW110493   5.122   3.070   4.248
 3198SOL    HW210494   5.001   2.961   4.262
 3199SOL     OW10495   5.064   4.006   3.228
 3199SOL    HW110496   5.006   3.932   3.263
 3199SOL    HW210497   5.008   4.071   3.177
 3200SOL     OW10498   5.848   3.923   4.872
 3200SOL    HW110499   5.884   4.015   4.885
 3200SOL    HW210500   5.884   3.862   4.943
 3201SOL     OW10501   6.517   4.160   2.190
 3201SOL    HW110502   6.522   4.084   2.254
 3201SOL    HW210503   6.536   4.246   2.239
 3202SOL     OW10504   2.599   2.773   6.320
 3202SOL    HW110505   2.543   2.697   6.287
 3202SOL    HW210506   2.673   2.737   6.378
 3203SOL     OW10507   3.354   6.783   1.675
 3203SOL    HW110508   3.354   6.807   1.772
 3203SOL    HW210509   3.426   6.833   1.628
 3204SOL     OW10510   4.280   0.528   3.674
 3204SOL    HW110511   4.236   0.606   3.718
 3204SOL    HW210512   4.248   0.443   3.715
 3205SOL     OW10513   4.472   2.821   5.971
 3205SOL    HW110514   4.396   2.864   5.922
 3205SOL    HW210515   4.452   2.724   5.984
 3206SOL     OW10516   3.139   4.184   0.967
 3206SOL    HW110517   3.203   4.261   0.957
 3206SOL    HW210518   3.116   4.148   0.877
 3207SOL     OW10519   2.647   6.476   3.638
 3207SOL    HW110520   2.715   6.438   3.575
 3207SOL    HW210521   2.653   6.576   3.637
 3208SOL     OW10522   6.757   4.607   6.081
 3208SOL    HW110523   6.840   4.588   6.134
 3208SOL    HW210524   6.725   4.699   6.101
 3209SOL     OW10525   5.124   6.872   6.181
 3209SOL    HW110526   5.220   6.851   6.198
 3209SOL    HW210527   5.066   6.817   6.241
 3210SOL     OW10528   4.847   5.450   1.680
 3210SOL    HW110529   4.833   5.390   1.759
 3210SOL    HW210530   4.926   5.419   1.628
 3211SOL     OW10531   1.982   6.435   6.440
 3211SOL    HW110532   2.059   6.413   6.380
 3211SOL    HW210533   1.950   6.528   6.420
 3212SOL     OW10534   3.488   6.648   4.088
 3212SOL    HW110535   3.584   6.639   4.060
 3212SOL    HW210536   3.431   6.658   4.007
 3213SOL     OW10537   1.272   0.339   5.644
 3213SOL    HW110538   1.200   0.408   5.647
 3213SOL    HW210539   1.360   0.383   5.659
 3214SOL     OW10540   3.320   0.584   2.984
 3214SOL    HW110541   3.384   0.586   3.060
 3214SOL    HW210542   3.339   0.659   2.922
 3215SOL     OW10543   2.138   2.999   1.948
 3215SOL    HW110544   2.093   3.075   1.995
 3215SOL    HW210545   2.150   3.022   1.851
 3216SOL     OW10546   6.322   5.397   0.651
 3216SOL    HW110547   6.280   5.447   0.576
 3216SOL    HW210548   6.250   5.365   0.714
 3217SOL     OW10549   6.817   5.528   3.921
 3217SOL    HW110550   6.734   5.529   3.864
 3217SOL    HW210551   6.897   5.541   3.863
 3218SOL     OW10552   5.500   1.230   2.931
 3218SOL    HW110553   5.566   1.234   3.006
 3218SOL    HW210554   5.513   1.146   2.879
 3219SOL     OW10555   5.851   1.805   5.032
 3219SOL    HW110556   5.858   1.885   4.973
 3219SOL    HW210557   5.757   1.795   5.064
 3220SOL     OW10558   0.329   3.893   5.667
 3220SOL    HW110559   0.404   3.866   5.728
 3220SOL    HW210560   0.367   3.940   5.587
 3221SOL     OW10561   4.112   1.562   2.248
 3221SOL    HW110562   4.172   1.497   2.201
 3221SOL    HW210563   4.084   1.524   2.336
 3222SOL     OW10564   3.635   1.423   3.335
 3222SOL    HW110565   3.580   1.502   3.361
 3222SOL    HW210566   3.732   1.446   3.340
 3223SOL     OW10567   1.632   5.627   0.571
 3223SOL    HW110568   1.730   5.611   0.564
 3223SOL    HW210569   1.614   5.725   0.567
 3224SOL     OW10570   4.569   2.506   4.857
 3224SOL    HW110571   4.502   2.461   4.799
 3224SOL    HW210572   4.641   2.546   4.800
 3225SOL     OW10573   4.726   1.346   5.011
 3225SOL    HW110574   4.771   1.379   5.094
 3225SOL    HW210575   4.774   1.382   4.931
 3226SOL     OW10576   6.454   0.929   0.780
 3226SOL    HW110577   6.375   0.927   0.841
 3226SOL    HW210578   6.500   1.018   0.788
 3227SOL     OW10579   6.012   4.494   5.817
 3227SOL    HW110580   6.075   4.504   5.740
 3227SOL    HW210581   6.062   4.506   5.903
 3228SOL     OW10582   2.283   4.290   0.197
 3228SOL    HW110583   2.321   4.350   0.267
 3228SOL    HW210584   2.185   4.281   0.210
 3229SOL     OW10585   1.812   1.625   0.799
 3229SOL    HW110586   1.829   1.565   0.720
 3229SOL    HW210587   1.801   1.719   0.767
 3230SOL     OW10588   2.830   6.310   5.012
 3230SOL    HW110589   2.765   6.367   5.062
 3230SOL    HW210590   2.923   6.335   5.038
 3231SOL     OW10591   2.049   2.853   2.537
 3231SOL    HW110592   2.106   2.896   2.607
 3231SOL    HW210593   2.073   2.891   2.448
 3232SOL     OW10594   2.945   4.971   3.175
 3232SOL    HW110595   2.855   4.973   3.220
 3232SOL    HW210596   3.009   4.918   3.231
 3233SOL     OW10597   2.417   6.767   6.784
 3233SOL    HW110598   2.362   6.848   6.803
 3233SOL    HW210599   2.416   6.748   6.686
 3234SOL     OW10600   3.301   3.354   0.788
 3234SOL    HW110601   3.366   3.299   0.735
 3234SOL    HW210602   3.339   3.374   0.878
 3235SOL     OW10603   6.891   1.470   2.726
 3235SOL    HW110604   6.852   1.450   2.816
 3235SOL    HW210605   6.891   1.386   2.671
 3236SOL     OW10606   5.212   0.449   0.733
 3236SOL    HW110607   5.214   0.486   0.826
 3236SOL    HW210608   5.294   0.478   0.685
 3237SOL     OW10609   5.720   1.193   4.877
 3237SOL    HW110610   5.783   1.135   4.929
 3237SOL    HW210611   5.767   1.277   4.850
 3238SOL     OW10612   6.486   4.839   1.412
 3238SOL    HW110613   6.573   4.797   1.434
 3238SOL    HW210614   6.418   4.769   1.392
 3239SOL     OW10615   5.879   0.748   4.876
 3239SOL    HW110616   5.953   0.743   4.944
 3239SOL    HW210617   5.793   0.771   4.922
 3240SOL     OW10618   0.683   1.623   0.560
 3240SOL    HW110619   0.642   1.534   0.538
 3240SOL    HW210620   0.691   1.678   0.477
 3241SOL     OW10621   6.969   3.167   5.228
 3241SOL    HW110622   6.997   3.108   5.151
 3241SOL    HW210623   0.000   3.141   5.309
 3242SOL     OW10624   6.897   4.131   5.034
 3242SOL    HW110625   6.913   4.198   4.962
 3242SOL    HW210626   6.976   4.071   5.043
 3243SOL     OW10627   5.736   5.206   3.918
 3243SOL    HW110628   5.717   5.124   3.864
 3243SOL    HW210629   5.777   5.277   3.859
 3244SOL     OW10630   4.716   0.003   0.177
 3244SOL    HW110631   4.727   0.016   0.079
 3244SOL    HW210632   4.740   6.930   0.202
 3245SOL     OW10633   3.448   6.426   4.249
 3245SOL    HW110634   3.481   6.449   4.341
 3245SOL    HW210635   3.441   6.510   4.195
 3246SOL     OW10636   6.210   5.914   3.150
 3246SOL    HW110637   6.308   5.892   3.143
 3246SOL    HW210638   6.199   5.997   3.205
 3247SOL     OW10639   2.197   4.672   3.875
 3247SOL    HW110640   2.294   4.694   3.886
 3247SOL    HW210641   2.162   4.633   3.960
 3248SOL     OW10642   5.787   2.822   3.242
 3248SOL    HW110643   5.780   2.786   3.335
 3248SOL    HW210644   5.696   2.842   3.207
 3249SOL     OW10645   3.406   4.166   3.776
 3249SOL    HW110646   3.441   4.141   3.866
 3249SOL    HW210647   3.311   4.137   3.768
 3250SOL     OW10648   4.725   5.896   3.712
 3250SOL    HW110649   4.685   5.910   3.621
 3250SOL    HW210650   4.652   5.892   3.780
 3251SOL     OW10651   2.764   2.071   2.331
 3251SOL    HW110652   2.683   2.019   2.360
 3251SOL    HW210653   2.790   2.134   2.404
 3252SOL     OW10654   1.817   2.134   3.085
 3252SOL    HW110655   1.838   2.062   3.152
 3252SOL    HW210656   1.725   2.120   3.049
 3253SOL     OW10657   6.555   3.937   0.113
 3253SOL    HW110658   6.629   3.991   0.073
 3253SOL    HW210659   6.473   3.994   0.122
 3254SOL     OW10660   6.204   6.607   0.824
 3254SOL    HW110661   6.128   6.668   0.845
 3254SOL    HW210662   6.270   6.655   0.765
 3255SOL     OW10663   3.629   5.947   2.125
 3255SOL    HW110664   3.628   5.889   2.044
 3255SOL    HW210665   3.620   5.891   2.207
 3256SOL     OW10666   5.331   2.553   1.085
 3256SOL    HW110667   5.371   2.461   1.086
 3256SOL    HW210668   5.350   2.599   1.171
 3257SOL     OW10669   3.492   1.437   3.091
 3257SOL    HW110670   3.556   1.402   3.159
 3257SOL    HW210671   3.496   1.537   3.090
 3258SOL     OW10672   1.927   5.564   3.415
 3258SOL    HW110673   1.986   5.621   3.358
 3258SOL    HW210674   1.925   5.471   3.377
 3259SOL     OW10675   5.436   4.406   4.603
 3259SOL    HW110676   5.398   4.385   4.693
 3259SOL    HW210677   5.512   4.345   4.583
 3260SOL     OW10678   1.590   4.687   2.943
 3260SOL    HW110679   1.624   4.781   2.933
 3260SOL    HW210680   1.640   4.627   2.880
 3261SOL     OW10681   6.091   0.311   4.459
 3261SOL    HW110682   6.141   0.388   4.419
 3261SOL    HW210683   6.092   0.320   4.559
 3262SOL     OW10684   3.026   1.853   3.360
 3262SOL    HW110685   3.014   1.934   3.303
 3262SOL    HW210686   3.053   1.881   3.453
 3263SOL     OW10687   6.632   0.904   1.049
 3263SOL    HW110688   6.624   0.875   0.954
 3263SOL    HW210689   6.549   0.952   1.076
 3264SOL     OW10690   1.705   4.489   6.738
 3264SOL    HW110691   1.617   4.460   6.702
 3264SOL    HW210692   1.734   4.427   6.811
 3265SOL     OW10693   0.182   5.737   6.142
 3265SOL    HW110694   0.120   5.720   6.219
 3265SOL    HW210695   0.227   5.825   6.155
 3266SOL     OW10696   3.461   4.833   6.033
 3266SOL    HW110697   3.555   4.835   6.068
 3266SOL    HW210698   3.459   4.870   5.941
 3267SOL     OW10699   3.510   6.857   0.978
 3267SOL    HW110700   3.510   6.792   1.054
 3267SOL    HW210701   3.592   6.844   0.922
 3268SOL     OW10702   5.795   4.820   1.655
 3268SOL    HW110703   5.864   4.753   1.628
 3268SOL    HW210704   5.713   4.771   1.686
 3269SOL     OW10705   2.064   5.222   1.479
 3269SOL    HW110706   2.098   5.180   1.395
 3269SOL    HW210707   1.969   5.194   1.495
 3270SOL     OW10708   1.272   2.620   6.084
 3270SOL    HW110709   1.301   2.548   6.022
 3270SOL    HW210710   1.198   2.673   6.043
 3271SOL     OW10711   1.322   3.774   1.120
 3271SOL    HW110712   1.262   3.794   1.198
 3271SOL    HW210713   1.275   3.712   1.058
 3272SOL     OW10714   3.934   6.567   1.461
 3272SOL    HW110715   3.881   6.651   1.453
 3272SOL    HW210716   3.975   6.544   1.373
 3273SOL     OW10717   3.749   4.222   6.359
 3273SOL    HW110718   3.728   4.243   6.454
 3273SOL    HW210719   3.687   4.272   6.299
 3274SOL     OW10720   4.897   6.760   1.811
 3274SOL    HW110721   4.895   6.859   1.798
 3274SOL    HW210722   4.978   6.734   1.864
 3275SOL     OW10723   4.929   0.748   1.246
 3275SOL    HW110724   4.950   0.749   1.344
 3275SOL    HW210725   5.015   0.745   1.194
 3276SOL     OW10726   6.146   5.754   0.232
 3276SOL    HW110727   6.245   5.746   0.214
 3276SOL    HW210728   6.115   5.845   0.204
 3277SOL     OW10729   2.964   1.809   2.389
 3277SOL    HW110730   2.872   1.816   2.350
 3277SOL    HW210731   3.028   1.782   2.317
 3278SOL     OW10732   5.153   0.718   6.140
 3278SOL    HW110733   5.144   0.812   6.108
 3278SOL    HW210734   5.231   0.712   6.203
 3279SOL     OW10735   3.750   0.113   2.532
 3279SOL    HW110736   3.688   0.057   2.586
 3279SOL    HW210737   3.779   0.062   2.451
 3280SOL     OW10738   0.174   2.860   3.773
 3280SOL    HW110739   0.241   2.915   3.823
 3280SOL    HW210740   0.205   2.765   3.770
 3281SOL     OW10741   5.759   1.703   1.941
 3281SOL    HW110742   5.693   1.728   2.012
 3281SOL    HW210743   5.715   1.644   1.874
 3282SOL     OW10744   0.095   4.937   5.120
 3282SOL    HW110745   0.018   4.994   5.149
 3282SOL    HW210746   0.084   4.913   5.023
 3283SOL     OW10747   3.011   1.802   0.323
 3283SOL    HW110748   2.919   1.806   0.361
 3283SOL    HW210749   3.029   1.885   0.270
 3284SOL     OW10750   1.939   0.207   4.846
 3284SOL    HW110751   1.996   0.261   4.782
 3284SOL    HW210752   1.856   0.177   4.799
 3285SOL     OW10753   3.888   2.097   4.330
 3285SOL    HW110754   3.909   2.076   4.425
 3285SOL    HW210755   3.789   2.103   4.318
 3286SOL     OW10756   1.730   3.393   3.208
 3286SOL    HW110757   1.639   3.426   3.183
 3286SOL    HW210758   1.788   3.390   3.127
 3287SOL     OW10759   2.524   0.986   1.071
 3287SOL    HW110760   2.462   1.061   1.048
 3287SOL    HW210761   2.612   1.022   1.098
 3288SOL     OW10762   2.753   6.229   2.316
 3288SOL    HW110763   2.736   6.275   2.229
 3288SOL    HW210764   2.668   6.187   2.348
 3289SOL     OW10765   4.400   0.608   6.882
 3289SOL    HW110766   4.355   0.520   6.897
 3289SOL    HW210767   4.402   0.659   6.968
 3290SOL     OW10768   0.649   5.465   7.018
 3290SOL    HW110769   0.558   5.444   0.033
 3290SOL    HW210770   0.676   5.557   0.026
 3291SOL     OW10771   4.871   6.505   4.821
 3291SOL    HW110772   4.820   6.590   4.811
 3291SOL    HW210773   4.882   6.484   4.918
 3292SOL     OW10774   0.186   2.493   0.154
 3292SOL    HW110775   0.113   2.465   0.092
 3292SOL    HW210776   0.154   2.570   0.210
 3293SOL     OW10777   6.791   4.871   3.118
 3293SOL    HW110778   6.800   4.961   3.161
 3293SOL    HW210779   6.833   4.802   3.176
 3294SOL     OW10780   3.848   3.096   5.707
 3294SOL    HW110781   3.831   3.165   5.637
 3294SOL    HW210782   3.793   3.116   5.788
 3295SOL     OW10783   1.500   2.766   3.075
 3295SOL    HW110784   1.546   2.677   3.073
 3295SOL    HW210785   1.560   2.835   3.034
 3296SOL     OW10786   2.434   1.079   6.518
 3296SOL    HW110787   2.404   1.110   6.427
 3296SOL    HW210788   2.374   1.119   6.588
 3297SOL     OW10789   3.923   1.102   5.104
 3297SOL    HW110790   3.932   1.056   5.192
 3297SOL    HW210791   4.013   1.111   5.062
 3298SOL     OW10792   3.458   4.720   5.421
 3298SOL    HW110793   3.399   4.782   5.472
 3298SOL    HW210794   3.406   4.640   5.393
 3299SOL     OW10795   2.669   6.834   3.909
 3299SOL    HW110796   2.768   6.819   3.910
 3299SOL    HW210797   2.650   6.933   3.908
 3300SOL     OW10798   1.690   0.976   3.620
 3300SOL    HW110799   1.735   0.893   3.587
 3300SOL    HW210800   1.759   1.038   3.659
 3301SOL     OW10801   1.252   1.274   2.842
 3301SOL    HW110802   1.346   1.304   2.858
 3301SOL    HW210803   1.228   1.204   2.910
 3302SOL     OW10804   1.286   5.192   5.422
 3302SOL    HW110805   1.374   5.148   5.440
 3302SOL    HW210806   1.253   5.236   5.505
 3303SOL     OW10807   3.724   3.736   6.977
 3303SOL    HW110808   3.728   3.761   0.053
 3303SOL    HW210809   3.811   3.761   6.933
 3304SOL     OW10810   2.032   4.231   0.325
 3304SOL    HW110811   1.960   4.299   0.311
 3304SOL    HW210812   2.077   4.248   0.413
 3305SOL     OW10813   2.873   2.757   0.217
 3305SOL    HW110814   2.792   2.717   0.175
 3305SOL    HW210815   2.905   2.834   0.162
 3306SOL     OW10816   2.792   6.940   0.105
 3306SOL    HW110817   2.855   6.872   0.145
 3306SOL    HW210818   2.712   6.950   0.165
 3307SOL     OW10819   1.940   5.834   4.350
 3307SOL    HW110820   1.945   5.736   4.329
 3307SOL    HW210821   1.863   5.851   4.412
 3308SOL     OW10822   4.140   5.132   1.655
 3308SOL    HW110823   4.230   5.125   1.614
 3308SOL    HW210824   4.074   5.160   1.586
 3309SOL     OW10825   5.274   3.660   3.405
 3309SOL    HW110826   5.349   3.720   3.375
 3309SOL    HW210827   5.312   3.579   3.449
 3310SOL     OW10828   6.281   4.276   6.099
 3310SOL    HW110829   6.245   4.197   6.050
 3310SOL    HW210830   6.282   4.256   6.197
 3311SOL     OW10831   2.009   3.055   0.398
 3311SOL    HW110832   2.045   2.962   0.406
 3311SOL    HW210833   2.023   3.103   0.485
 3312SOL     OW10834   4.915   2.857   6.830
 3312SOL    HW110835   4.844   2.813   6.775
 3312SOL    HW210836   4.950   2.938   6.782
 3313SOL     OW10837   0.300   0.100   4.592
 3313SOL    HW110838   0.276   0.010   4.555
 3313SOL    HW210839   0.222   0.161   4.583
 3314SOL     OW10840   3.653   6.002   2.490
 3314SOL    HW110841   3.658   5.921   2.431
 3314SOL    HW210842   3.574   5.995   2.551
 3315SOL     OW10843   1.824   6.349   4.016
 3315SOL    HW110844   1.858   6.306   3.932
 3315SOL    HW210845   1.848   6.292   4.095
 3316SOL     OW10846   3.768   2.685   0.151
 3316SOL    HW110847   3.751   2.691   0.053
 3316SOL    HW210848   3.850   2.737   0.174
 3317SOL     OW10849   5.631   2.328   1.745
 3317SOL    HW110850   5.649   2.240   1.701
 3317SOL    HW210851   5.587   2.389   1.679
 3318SOL     OW10852   3.641   3.102   0.646
 3318SOL    HW110853   3.639   3.039   0.723
 3318SOL    HW210854   3.639   3.050   0.560
 3319SOL     OW10855   6.526   6.362   4.309
 3319SOL    HW110856   6.447   6.419   4.330
 3319SOL    HW210857   6.508   6.309   4.226
 3320SOL     OW10858   6.488   0.459   2.060
 3320SOL    HW110859   6.391   0.474   2.042
 3320SOL    HW210860   6.543   0.514   1.997
 3321SOL     OW10861   4.981   1.867   0.234
 3321SOL    HW110862   4.971   1.917   0.148
 3321SOL    HW210863   4.974   1.931   0.311
 3322SOL     OW10864   6.243   2.637   0.710
 3322SOL    HW110865   6.208   2.612   0.620
 3322SOL    HW210866   6.334   2.678   0.700
 3323SOL     OW10867   1.808   1.716   1.648
 3323SOL    HW110868   1.759   1.799   1.623
 3323SOL    HW210869   1.746   1.638   1.644
 3324SOL     OW10870   5.801   5.300   5.923
 3324SOL    HW110871   5.823   5.384   5.873
 3324SOL    HW210872   5.726   5.318   5.986
 3325SOL     OW10873   2.787   5.137   5.288
 3325SOL    HW110874   2.780   5.139   5.188
 3325SOL    HW210875   2.705   5.178   5.328
 3326SOL     OW10876   3.453   2.016   2.106
 3326SOL    HW110877   3.368   2.045   2.151
 3326SOL    HW210878   3.498   2.096   2.066
 3327SOL     OW10879   1.377   5.587   5.842
 3327SOL    HW110880   1.393   5.490   5.864
 3327SOL    HW210881   1.332   5.631   5.919
 3328SOL     OW10882   4.887   2.716   5.458
 3328SOL    HW110883   4.906   2.812   5.439
 3328SOL    HW210884   4.963   2.660   5.425
 3329SOL     OW10885   0.021   6.318   5.500
 3329SOL    HW110886   0.021   6.219   5.482
 3329SOL    HW210887   0.066   6.365   5.424
 3330SOL     OW10888   6.954   3.460   2.874
 3330SOL    HW110889   6.958   3.411   2.961
 3330SOL    HW210890   6.860   3.462   2.841
 3331SOL     OW10891   1.974   3.148   0.678
 3331SOL    HW110892   1.884   3.189   0.697
 3331SOL    HW210893   2.013   3.111   0.762
 3332SOL     OW10894   6.581   3.767   1.211
 3332SOL    HW110895   6.633   3.850   1.232
 3332SOL    HW210896   6.642   3.688   1.210
 3333SOL     OW10897   2.783   5.856   5.893
 3333SOL    HW110898   2.808   5.805   5.810
 3333SOL    HW210899   2.689   5.836   5.918
 3334SOL     OW10900   1.569   3.496   1.377
 3334SOL    HW110901   1.502   3.568   1.395
 3334SOL    HW210902   1.660   3.536   1.370
 3335SOL     OW10903   5.676   4.384   5.012
 3335SOL    HW110904   5.662   4.482   4.996
 3335SOL    HW210905   5.641   4.360   5.103
 3336SOL     OW10906   3.129   6.152   5.901
 3336SOL    HW110907   3.169   6.185   5.987
 3336SOL    HW210908   3.182   6.187   5.824
 3337SOL     OW10909   3.498   1.949   0.846
 3337SOL    HW110910   3.547   1.963   0.932
 3337SOL    HW210911   3.428   1.878   0.858
 3338SOL     OW10912   0.098   4.572   0.185
 3338SOL    HW110913   0.074   4.532   0.274
 3338SOL    HW210914   0.197   4.578   0.178
 3339SOL     OW10915   1.167   5.353   6.093
 3339SOL    HW110916   1.138   5.267   6.051
 3339SOL    HW210917   1.200   5.335   6.186
 3340SOL     OW10918   3.994   0.440   2.236
 3340SOL    HW110919   4.082   0.414   2.198
 3340SOL    HW210920   3.927   0.368   2.217
 3341SOL     OW10921   0.392   6.985   0.817
 3341SOL    HW110922   0.357   6.927   0.891
 3341SOL    HW210923   0.489   7.006   0.835
 3342SOL     OW10924   2.989   0.356   5.300
 3342SOL    HW110925   3.002   0.307   5.386
 3342SOL    HW210926   2.915   0.313   5.248
 3343SOL     OW10927   0.594   2.271   1.185
 3343SOL    HW110928   0.586   2.358   1.235
 3343SOL    HW210929   0.508   2.221   1.191
 3344SOL     OW10930   0.313   2.417   6.159
 3344SOL    HW110931   0.373   2.460   6.227
 3344SOL    HW210932   0.367   2.390   6.079
 3345SOL     OW10933   1.701   3.402   5.396
 3345SOL    HW110934   1.605   3.405   5.424
 3345SOL    HW210935   1.758   3.440   5.469
 3346SOL     OW10936   1.528   6.084   2.323
 3346SOL    HW110937   1.445   6.031   2.306
 3346SOL    HW210938   1.560   6.067   2.416
 3347SOL     OW10939   5.867   3.758   3.877
 3347SOL    HW110940   5.826   3.695   3.943
 3347SOL    HW210941   5.882   3.847   3.920
 3348SOL     OW10942   3.709   3.493   3.151
 3348SOL    HW110943   3.685   3.584   3.116
 3348SOL    HW210944   3.666   3.424   3.093
 3349SOL     OW10945   5.640   3.212   6.544
 3349SOL    HW110946   5.546   3.224   6.577
 3349SOL    HW210947   5.639   3.157   6.460
 3350SOL     OW10948   1.365   2.436   0.906
 3350SOL    HW110949   1.284   2.426   0.963
 3350SOL    HW210950   1.411   2.522   0.928
 3351SOL     OW10951   5.400   2.952   0.493
 3351SOL    HW110952   5.301   2.962   0.488
 3351SOL    HW210953   5.428   2.868   0.448
 3352SOL     OW10954   0.481   3.340   6.898
 3352SOL    HW110955   0.424   3.260   6.917
 3352SOL    HW210956   0.423   3.420   6.882
 3353SOL     OW10957   1.880   6.528   5.901
 3353SOL    HW110958   1.796   6.517   5.954
 3353SOL    HW210959   1.856   6.545   5.805
 3354SOL     OW10960   1.053   1.055   1.672
 3354SOL    HW110961   0.976   1.091   1.725
 3354SOL    HW210962   1.061   1.105   1.586
 3355SOL     OW10963   6.452   0.855   2.758
 3355SOL    HW110964   6.516   0.832   2.831
 3355SOL    HW210965   6.497   0.916   2.692
 3356SOL     OW10966   1.561   3.726   5.352
 3356SOL    HW110967   1.521   3.668   5.424
 3356SOL    HW210968   1.581   3.670   5.272
 3357SOL     OW10969   2.500   5.279   2.168
 3357SOL    HW110970   2.445   5.343   2.221
 3357SOL    HW210971   2.567   5.234   2.228
 3358SOL     OW10972   6.977   4.786   3.572
 3358SOL    HW110973   0.028   4.717   3.564
 3358SOL    HW210974   7.002   4.867   3.518
 3359SOL     OW10975   2.069   1.447   1.881
 3359SOL    HW110976   2.006   1.400   1.943
 3359SOL    HW210977   2.047   1.423   1.787
 3360SOL     OW10978   2.443   0.589   6.525
 3360SOL    HW110979   2.443   0.672   6.581
 3360SOL    HW210980   2.386   0.519   6.569
 3361SOL     OW10981   3.595   0.999   3.110
 3361SOL    HW110982   3.681   1.026   3.153
 3361SOL    HW210983   3.519   1.016   3.173
 3362SOL     OW10984   2.618   1.759   4.318
 3362SOL    HW110985   2.652   1.853   4.310
 3362SOL    HW210986   2.520   1.761   4.338
 3363SOL     OW10987   6.902   0.807   6.282
 3363SOL    HW110988   6.833   0.737   6.263
 3363SOL    HW210989   6.941   0.840   6.196
 3364SOL     OW10990   2.384   4.693   5.999
 3364SOL    HW110991   2.333   4.621   6.046
 3364SOL    HW210992   2.450   4.651   5.936
 3365SOL     OW10993   6.413   2.236   5.950
 3365SOL    HW110994   6.430   2.145   5.990
 3365SOL    HW210995   6.411   2.228   5.850
 3366SOL     OW10996   5.486   1.008   6.696
 3366SOL    HW110997   5.468   0.931   6.634
 3366SOL    HW210998   5.405   1.066   6.700
 3367SOL     OW10999   1.578   0.254   2.253
 3367SOL    HW111000   1.611   0.222   2.164
 3367SOL    HW211001   1.520   0.334   2.240
 3368SOL     OW11002   6.718   1.641   5.410
 3368SOL    HW111003   6.750   1.707   5.478
 3368SOL    HW211004   6.625   1.666   5.381
 3369SOL     OW11005   3.566   6.244   6.294
 3369SOL    HW111006   3.639   6.298   6.252
 3369SOL    HW211007   3.494   6.305   6.327
 3370SOL     OW11008   5.656   6.921   5.632
 3370SOL    HW111009   5.648   6.899   5.535
 3370SOL    HW211010   5.573   6.970   5.662
 3371SOL     OW11011   6.775   4.977   1.320
 3371SOL    HW111012   6.829   4.920   1.257
 3371SOL    HW211013   6.781   5.072   1.292
 3372SOL     OW11014   0.464   2.048   2.767
 3372SOL    HW111015   0.379   2.012   2.729
 3372SOL    HW211016   0.443   2.112   2.841
 3373SOL     OW11017   0.696   2.099   6.618
 3373SOL    HW111018   0.642   2.060   6.692
 3373SOL    HW211019   0.791   2.070   6.628
 3374SOL     OW11020   4.052   5.772   5.433
 3374SOL    HW111021   3.988   5.703   5.398
 3374SOL    HW211022   4.025   5.798   5.526
 3375SOL     OW11023   3.918   3.967   4.882
 3375SOL    HW111024   3.820   3.982   4.870
 3375SOL    HW211025   3.966   3.988   4.797
 3376SOL     OW11026   2.795   3.099   1.803
 3376SOL    HW111027   2.790   3.178   1.743
 3376SOL    HW211028   2.716   3.039   1.787
 3377SOL     OW11029   2.623   5.371   5.362
 3377SOL    HW111030   2.525   5.349   5.361
 3377SOL    HW211031   2.663   5.338   5.448
 3378SOL     OW11032   0.374   1.350   0.498
 3378SOL    HW111033   0.340   1.423   0.440
 3378SOL    HW211034   0.301   1.322   0.562
 3379SOL     OW11035   6.299   5.112   5.677
 3379SOL    HW111036   6.292   5.198   5.728
 3379SOL    HW211037   6.214   5.096   5.628
 3380SOL     OW11038   1.062   3.846   5.246
 3380SOL    HW111039   1.075   3.784   5.168
 3380SOL    HW211040   1.048   3.939   5.212
 3381SOL     OW11041   3.499   2.751   1.678
 3381SOL    HW111042   3.595   2.729   1.696
 3381SOL    HW211043   3.451   2.765   1.764
 3382SOL     OW11044   6.910   6.359   6.692
 3382SOL    HW111045   6.909   6.427   6.766
 3382SOL    HW211046   7.004   6.328   6.678
 3383SOL     OW11047   0.274   4.185   2.350
 3383SOL    HW111048   0.278   4.277   2.389
 3383SOL    HW211049   0.186   4.170   2.306
 3384SOL     OW11050   3.024   3.391   4.541
 3384SOL    HW111051   2.989   3.415   4.632
 3384SOL    HW211052   3.069   3.302   4.545
 3385SOL     OW11053   6.915   4.473   3.672
 3385SOL    HW111054   6.996   4.470   3.614
 3385SOL    HW211055   6.880   4.567   3.676
 3386SOL     OW11056   5.780   3.854   5.274
 3386SOL    HW111057   5.854   3.837   5.339
 3386SOL    HW211058   5.808   3.823   5.183
 3387SOL     OW11059   3.246   2.123   2.841
 3387SOL    HW111060   3.208   2.034   2.817
 3387SOL    HW211061   3.210   2.192   2.778
 3388SOL     OW11062   5.465   2.345   1.956
 3388SOL    HW111063   5.477   2.418   2.023
 3388SOL    HW211064   5.527   2.361   1.878
 3389SOL     OW11065   4.226   5.039   2.990
 3389SOL    HW111066   4.321   5.071   2.998
 3389SOL    HW211067   4.196   5.001   3.077
 3390SOL     OW11068   4.586   2.705   5.747
 3390SOL    HW111069   4.672   2.658   5.766
 3390SOL    HW211070   4.551   2.746   5.831
 3391SOL     OW11071   3.600   2.093   4.282
 3391SOL    HW111072   3.527   2.029   4.306
 3391SOL    HW211073   3.632   2.075   4.189
 3392SOL     OW11074   5.181   6.132   3.167
 3392SOL    HW111075   5.127   6.207   3.128
 3392SOL    HW211076   5.125   6.082   3.233
 3393SOL     OW11077   6.783   0.339   0.077
 3393SOL    HW111078   6.698   0.298   0.108
 3393SOL    HW211079   6.815   0.406   0.144
 3394SOL     OW11080   5.519   1.668   2.379
 3394SOL    HW111081   5.457   1.595   2.409
 3394SOL    HW211082   5.614   1.639   2.394
 3395SOL     OW11083   1.278   4.015   5.315
 3395SOL    HW111084   1.355   3.979   5.369
 3395SOL    HW211085   1.210   3.943   5.302
 3396SOL     OW11086   6.247   3.136   4.447
 3396SOL    HW111087   6.289   3.226   4.431
 3396SOL    HW211088   6.262   3.077   4.368
 3397SOL     OW11089   3.011   6.096   6.284
 3397SOL    HW111090   3.084   6.052   6.336
 3397SOL    HW211091   2.958   6.026   6.236
 3398SOL     OW11092   0.718   0.729   3.349
 3398SOL    HW111093   0.700   0.741   3.251
 3398SOL    HW211094   0.692   0.636   3.376
 3399SOL     OW11095   4.179   5.441   5.044
 3399SOL    HW111096   4.273   5.417   5.069
 3399SOL    HW211097   4.173   5.456   4.946
 3400SOL     OW11098   5.012   2.277   6.923
 3400SOL    HW111099   5.105   2.309   6.941
 3400SOL    HW211100   4.992   2.198   6.980
 3401SOL     OW11101   6.803   4.513   6.780
 3401SOL    HW111102   6.894   4.520   6.740
 3401SOL    HW211103   6.756   4.433   6.742
 3402SOL     OW11104   5.375   5.107   2.058
 3402SOL    HW111105   5.356   5.154   1.972
 3402SOL    HW211106   5.292   5.064   2.093
 3403SOL     OW11107   3.119   2.054   5.153
 3403SOL    HW111108   3.118   2.149   5.120
 3403SOL    HW211109   3.033   2.009   5.128
 3404SOL     OW11110   4.366   0.354   1.302
 3404SOL    HW111111   4.326   0.293   1.371
 3404SOL    HW211112   4.440   0.407   1.343
 3405SOL     OW11113   6.181   3.304   0.268
 3405SOL    HW111114   6.101   3.269   0.219
 3405SOL    HW211115   6.216   3.234   0.330
 3406SOL     OW11116   0.942   4.264   1.570
 3406SOL    HW111117   0.847   4.235   1.573
 3406SOL    HW211118   0.999   4.187   1.540
 3407SOL     OW11119   1.637   5.338   2.737
 3407SOL    HW111120   1.619   5.346   2.835
 3407SOL    HW211121   1.552   5.351   2.686
 3408SOL     OW11122   5.213   3.962   2.636
 3408SOL    HW111123   5.187   4.058   2.631
 3408SOL    HW211124   5.150   3.907   2.581
 3409SOL     OW11125   3.042   0.878   5.376
 3409SOL    HW111126   3.000   0.792   5.348
 3409SOL    HW211127   2.972   0.939   5.413
 3410SOL     OW11128   0.038   1.050   0.412
 3410SOL    HW111129   6.964   1.044   0.380
 3410SOL    HW211130   0.096   1.088   0.341
 3411SOL     OW11131   4.751   2.444   2.635
 3411SOL    HW111132   4.783   2.536   2.615
 3411SOL    HW211133   4.809   2.377   2.588
 3412SOL     OW11134   3.971   5.391   6.890
 3412SOL    HW111135   3.924   5.410   6.975
 3412SOL    HW211136   3.966   5.471   6.830
 3413SOL     OW11137   4.484   1.666   2.318
 3413SOL    HW111138   4.441   1.739   2.370
 3413SOL    HW211139   4.468   1.578   2.362
 3414SOL     OW11140   3.277   1.285   5.085
 3414SOL    HW111141   3.370   1.265   5.056
 3414SOL    HW211142   3.260   1.244   5.175
 3415SOL     OW11143   1.180   5.473   4.383
 3415SOL    HW111144   1.149   5.558   4.339
 3415SOL    HW211145   1.269   5.447   4.347
 3416SOL     OW11146   2.573   4.565   6.203
 3416SOL    HW111147   2.588   4.466   6.201
 3416SOL    HW211148   2.491   4.587   6.150
 3417SOL     OW11149   5.842   0.743   1.411
 3417SOL    HW111150   5.931   0.699   1.426
 3417SOL    HW211151   5.798   0.702   1.331
 3418SOL     OW11152   3.195   2.000   6.261
 3418SOL    HW111153   3.288   2.005   6.296
 3418SOL    HW211154   3.155   2.092   6.260
 3419SOL     OW11155   4.605   3.467   0.535
 3419SOL    HW111156   4.626   3.557   0.497
 3419SOL    HW211157   4.513   3.467   0.574
 3420SOL     OW11158   4.364   1.533   3.741
 3420SOL    HW111159   4.338   1.552   3.836
 3420SOL    HW211160   4.428   1.456   3.739
 3421SOL     OW11161   6.950   6.599   3.336
 3421SOL    HW111162   0.026   6.616   3.356
 3421SOL    HW211163   6.938   6.506   3.303
 3422SOL     OW11164   3.030   2.149   2.662
 3422SOL    HW111165   2.977   2.094   2.726
 3422SOL    HW211166   3.059   2.093   2.585
 3423SOL     OW11167   2.842   0.921   1.974
 3423SOL    HW111168   2.904   0.920   1.896
 3423SOL    HW211169   2.895   0.926   2.058
 3424SOL     OW11170   4.276   0.727   2.264
 3424SOL    HW111171   4.280   0.796   2.192
 3424SOL    HW211172   4.290   0.636   2.223
 3425SOL     OW11173   4.675   4.105   1.810
 3425SOL    HW111174   4.609   4.088   1.736
 3425SOL    HW211175   4.631   4.155   1.884
 3426SOL     OW11176   4.606   3.459   0.864
 3426SOL    HW111177   4.614   3.362   0.887
 3426SOL    HW211178   4.641   3.475   0.772
 3427SOL     OW11179   1.157   1.344   0.778
 3427SOL    HW111180   1.148   1.349   0.878
 3427SOL    HW211181   1.094   1.410   0.736
 3428SOL     OW11182   4.283   4.837   3.249
 3428SOL    HW111183   4.261   4.897   3.326
 3428SOL    HW211184   4.336   4.759   3.281
 3429SOL     OW11185   0.056   3.077   0.231
 3429SOL    HW111186   0.016   3.155   0.182
 3429SOL    HW211187   7.011   3.043   0.298
 3430SOL     OW11188   1.258   5.559   6.634
 3430SOL    HW111189   1.304   5.608   6.707
 3430SOL    HW211190   1.220   5.473   6.670
 3431SOL     OW11191   1.518   6.146   6.704
 3431SOL    HW111192   1.511   6.176   6.799
 3431SOL    HW211193   1.556   6.219   6.648
 3432SOL     OW11194   2.497   2.264   6.895
 3432SOL    HW111195   2.488   2.206   6.813
 3432SOL    HW211196   2.428   2.237   6.962
 3433SOL     OW11197   4.742   0.709   4.197
 3433SOL    HW111198   4.742   0.663   4.108
 3433SOL    HW211199   4.651   0.701   4.238
 3434SOL     OW11200   4.557   1.909   3.489
 3434SOL    HW111201   4.644   1.911   3.439
 3434SOL    HW211202   4.552   1.825   3.543
 3435SOL     OW11203   0.419   1.136   6.905
 3435SOL    HW111204   0.371   1.175   6.826
 3435SOL    HW211205   0.420   1.202   6.980
 3436SOL     OW11206   4.726   6.699   3.117
 3436SOL    HW111207   4.713   6.720   3.214
 3436SOL    HW211208   4.709   6.780   3.062
 3437SOL     OW11209   4.995   0.626   6.515
 3437SOL    HW111210   5.041   0.715   6.514
 3437SOL    HW211211   4.947   0.612   6.428
 3438SOL     OW11212   1.436   4.640   6.677
 3438SOL    HW111213   1.474   4.722   6.633
 3438SOL    HW211214   1.481   4.559   6.639
 3439SOL     OW11215   2.632   0.033   3.314
 3439SOL    HW111216   2.712   7.020   3.364
 3439SOL    HW211217   2.559   6.984   3.317
 3440SOL     OW11218   3.405   2.285   0.574
 3440SOL    HW111219   3.359   2.330   0.498
 3440SOL    HW211220   3.372   2.191   0.582
 3441SOL     OW11221   4.095   0.519   4.650
 3441SOL    HW111222   4.085   0.618   4.653
 3441SOL    HW211223   4.183   0.493   4.691
 3442SOL     OW11224   0.743   5.002   3.330
 3442SOL    HW111225   0.668   5.068   3.339
 3442SOL    HW211226   0.780   4.982   3.420
 3443SOL     OW11227   5.869   6.917   3.991
 3443SOL    HW111228   5.772   6.940   3.989
 3443SOL    HW211229   5.895   6.872   3.906
 3444SOL     OW11230   4.352   5.083   0.316
 3444SOL    HW111231   4.426   5.045   0.261
 3444SOL    HW211232   4.365   5.057   0.412
 3445SOL     OW11233   5.760   5.122   4.887
 3445SOL    HW111234   5.667   5.131   4.923
 3445SOL    HW211235   5.799   5.035   4.917
 3446SOL     OW11236   3.033   6.404   2.967
 3446SOL    HW111237   3.128   6.427   2.987
 3446SOL    HW211238   3.030   6.331   2.899
 3447SOL     OW11239   6.421   4.928   5.900
 3447SOL    HW111240   6.336   4.883   5.924
 3447SOL    HW211241   6.402   5.001   5.834
 3448SOL     OW11242   3.674   2.239   0.972
 3448SOL    HW111243   3.658   2.290   0.888
 3448SOL    HW211244   3.748   2.283   1.024
 3449SOL     OW11245   6.000   6.049   2.890
 3449SOL    HW111246   5.977   6.020   2.983
 3449SOL    HW211247   6.038   5.972   2.839
 3450SOL     OW11248   0.728   2.131   1.452
 3450SOL    HW111249   0.679   2.206   1.406
 3450SOL    HW211250   0.824   2.133   1.424
 3451SOL     OW11251   1.534   5.262   4.070
 3451SOL    HW111252   1.552   5.179   4.122
 3451SOL    HW211253   1.618   5.292   4.025
 3452SOL     OW11254   6.726   2.258   0.325
 3452SOL    HW111255   6.826   2.252   0.317
 3452SOL    HW211256   6.692   2.179   0.376
 3453SOL     OW11257   5.839   6.565   5.799
 3453SOL    HW111258   5.856   6.643   5.859
 3453SOL    HW211259   5.802   6.489   5.851
 3454SOL     OW11260   1.093   1.092   0.314
 3454SOL    HW111261   1.001   1.107   0.349
 3454SOL    HW211262   1.148   1.175   0.328
 3455SOL     OW11263   2.354   2.744   4.307
 3455SOL    HW111264   2.334   2.734   4.210
 3455SOL    HW211265   2.269   2.737   4.359
 3456SOL     OW11266   6.372   0.048   0.877
 3456SOL    HW111267   6.332   6.990   0.829
 3456SOL    HW211268   6.338   0.132   0.836
 3457SOL     OW11269   2.343   6.492   3.533
 3457SOL    HW111270   2.301   6.450   3.614
 3457SOL    HW211271   2.440   6.470   3.531
 3458SOL     OW11272   5.085   5.258   0.796
 3458SOL    HW111273   5.062   5.280   0.891
 3458SOL    HW211274   5.098   5.160   0.786
 3459SOL     OW11275   6.668   6.440   3.441
 3459SOL    HW111276   6.628   6.497   3.369
 3459SOL    HW211277   6.723   6.368   3.399
 3460SOL     OW11278   3.439   2.951   5.875
 3460SOL    HW111279   3.474   2.871   5.827
 3460SOL    HW211280   3.345   2.968   5.846
 3461SOL     OW11281   2.647   5.792   3.075
 3461SOL    HW111282   2.632   5.860   3.147
 3461SOL    HW211283   2.620   5.831   2.987
 3462SOL     OW11284   5.150   3.376   3.242
 3462SOL    HW111285   5.158   3.463   3.193
 3462SOL    HW211286   5.067   3.377   3.297
 3463SOL     OW11287   1.962   2.822   1.216
 3463SOL    HW111288   1.936   2.742   1.271
 3463SOL    HW211289   2.052   2.855   1.247
 3464SOL     OW11290   4.914   2.268   6.173
 3464SOL    HW111291   4.827   2.310   6.198
 3464SOL    HW211292   4.956   2.321   6.099
 3465SOL     OW11293   2.157   4.553   1.534
 3465SOL    HW111294   2.195   4.472   1.578
 3465SOL    HW211295   2.087   4.594   1.592
 3466SOL     OW11296   6.440   4.271   4.189
 3466SOL    HW111297   6.509   4.310   4.128
 3466SOL    HW211298   6.363   4.236   4.135
 3467SOL     OW11299   2.999   2.951   1.197
 3467SOL    HW111300   2.977   3.044   1.169
 3467SOL    HW211301   2.924   2.913   1.251
 3468SOL     OW11302   3.623   1.918   0.610
 3468SOL    HW111303   3.574   1.920   0.696
 3468SOL    HW211304   3.570   1.967   0.540
 3469SOL     OW11305   3.921   6.203   5.848
 3469SOL    HW111306   3.914   6.106   5.867
 3469SOL    HW211307   3.844   6.251   5.889
 3470SOL     OW11308   1.122   3.124   1.621
 3470SOL    HW111309   1.165   3.078   1.698
 3470SOL    HW211310   1.191   3.175   1.570
 3471SOL     OW11311   4.760   3.076   5.240
 3471SOL    HW111312   4.716   3.161   5.269
 3471SOL    HW211313   4.782   3.082   5.143
 3472SOL     OW11314   4.514   1.677   3.135
 3472SOL    HW111315   4.473   1.741   3.200
 3472SOL    HW211316   4.465   1.682   3.048
 3473SOL     OW11317   6.194   4.766   1.983
 3473SOL    HW111318   6.118   4.702   1.972
 3473SOL    HW211319   6.163   4.859   1.962
 3474SOL     OW11320   5.103   4.610   4.321
 3474SOL    HW111321   5.065   4.632   4.231
 3474SOL    HW211322   5.181   4.548   4.310
 3475SOL     OW11323   6.858   4.942   4.212
 3475SOL    HW111324   6.888   4.981   4.299
 3475SOL    HW211325   6.844   4.843   4.223
 3476SOL     OW11326   1.676   1.770   3.093
 3476SOL    HW111327   1.622   1.703   3.143
 3476SOL    HW211328   1.742   1.813   3.155
 3477SOL     OW11329   0.974   4.141   2.041
 3477SOL    HW111330   0.902   4.083   2.001
 3477SOL    HW211331   0.956   4.236   2.019
 3478SOL     OW11332   2.234   0.890   1.447
 3478SOL    HW111333   2.269   0.983   1.444
 3478SOL    HW211334   2.308   0.826   1.426
 3479SOL     OW11335   1.604   5.171   4.380
 3479SOL    HW111336   1.504   5.179   4.382
 3479SOL    HW211337   1.643   5.233   4.448
 3480SOL     OW11338   1.425   5.015   6.970
 3480SOL    HW111339   1.453   5.083   0.018
 3480SOL    HW211340   1.441   5.053   6.878
 3481SOL     OW11341   5.997   0.933   4.652
 3481SOL    HW111342   6.028   0.879   4.731
 3481SOL    HW211343   5.898   0.922   4.642
 3482SOL     OW11344   5.928   3.350   6.309
 3482SOL    HW111345   5.915   3.256   6.339
 3482SOL    HW211346   5.886   3.412   6.376
 3483SOL     OW11347   5.330   3.049   5.741
 3483SOL    HW111348   5.344   3.125   5.677
 3483SOL    HW211349   5.232   3.028   5.747
 3484SOL     OW11350   1.233   4.265   5.195
 3484SOL    HW111351   1.295   4.272   5.117
 3484SOL    HW211352   1.239   4.174   5.235
 3485SOL     OW11353   6.835   3.013   6.696
 3485SOL    HW111354   6.811   3.047   6.605
 3485SOL    HW211355   6.933   2.997   6.701
 3486SOL     OW11356   2.063   6.356   5.420
 3486SOL    HW111357   2.043   6.375   5.516
 3486SOL    HW211358   2.146   6.300   5.414
 3487SOL     OW11359   4.498   1.277   6.842
 3487SOL    HW111360   4.439   1.356   6.853
 3487SOL    HW211361   4.593   1.307   6.829
 3488SOL     OW11362   5.541   0.185   4.811
 3488SOL    HW111363   5.504   0.151   4.724
 3488SOL    HW211364   5.467   0.226   4.864
 3489SOL     OW11365   2.748   6.311   1.118
 3489SOL    HW111366   2.835   6.284   1.160
 3489SOL    HW211367   2.736   6.410   1.127
 3490SOL     OW11368   3.697   6.866   0.452
 3490SOL    HW111369   3.728   6.771   0.440
 3490SOL    HW211370   3.598   6.871   0.436
 3491SOL     OW11371   4.091   4.964   6.211
 3491SOL    HW111372   4.150   4.972   6.131
 3491SOL    HW211373   4.081   4.868   6.236
 3492SOL     OW11374   5.993   4.282   2.757
 3492SOL    HW111375   5.932   4.205   2.774
 3492SOL    HW211376   5.978   4.316   2.664
 3493SOL     OW11377   6.729   2.905   5.610
 3493SOL    HW111378   6.680   2.817   5.607
 3493SOL    HW211379   6.827   2.889   5.601
 3494SOL     OW11380   4.088   1.870   2.765
 3494SOL    HW111381   4.074   1.828   2.676
 3494SOL    HW211382   4.130   1.960   2.753
 3495SOL     OW11383   0.806   3.135   2.756
 3495SOL    HW111384   0.802   3.190   2.839
 3495SOL    HW211385   0.879   3.168   2.697
 3496SOL     OW11386   5.757   5.104   0.874
 3496SOL    HW111387   5.659   5.096   0.888
 3496SOL    HW211388   5.793   5.017   0.838
 3497SOL     OW11389   3.126   6.951   2.415
 3497SOL    HW111390   3.069   7.010   2.358
 3497SOL    HW211391   3.100   6.855   2.400
 3498SOL     OW11392   2.241   2.572   1.384
 3498SOL    HW111393   2.252   2.490   1.328
 3498SOL    HW211394   2.172   2.554   1.455
 3499SOL     OW11395   6.561   6.268   4.653
 3499SOL    HW111396   6.473   6.269   4.702
 3499SOL    HW211397   6.588   6.362   4.632
 3500SOL     OW11398   2.052   2.629   4.709
 3500SOL    HW111399   2.005   2.585   4.633
 3500SOL    HW211400   2.002   2.612   4.793
 3501SOL     OW11401   1.412   0.126   5.226
 3501SOL    HW111402   1.321   0.109   5.189
 3501SOL    HW211403   1.413   0.211   5.277
 3502SOL     OW11404   4.702   2.764   2.397
 3502SOL    HW111405   4.726   2.851   2.353
 3502SOL    HW211406   4.713   2.773   2.496
 3503SOL     OW11407   6.683   6.191   6.779
 3503SOL    HW111408   6.770   6.232   6.751
 3503SOL    HW211409   6.681   6.179   6.878
 3504SOL     OW11410   1.576   0.428   0.167
 3504SOL    HW111411   1.605   0.428   0.263
 3504SOL    HW211412   1.507   0.499   0.153
 3505SOL     OW11413   4.869   4.326   6.337
 3505SOL    HW111414   4.832   4.409   6.378
 3505SOL    HW211415   4.969   4.333   6.331
 3506SOL     OW11416   4.621   5.143   4.698
 3506SOL    HW111417   4.542   5.195   4.732
 3506SOL    HW211418   4.700   5.204   4.690
 3507SOL     OW11419   2.901   0.923   0.803
 3507SOL    HW111420   2.904   0.868   0.887
 3507SOL    HW211421   2.975   0.990   0.806
 3508SOL     OW11422   3.210   1.570   5.411
 3508SOL    HW111423   3.151   1.631   5.464
 3508SOL    HW211424   3.278   1.624   5.361
 3509SOL     OW11425   3.580   5.493   6.192
 3509SOL    HW111426   3.619   5.407   6.225
 3509SOL    HW211427   3.573   5.558   6.267
 3510SOL     OW11428   2.573   1.490   0.400
 3510SOL    HW111429   2.633   1.506   0.322
 3510SOL    HW211430   2.482   1.465   0.366
 3511SOL     OW11431   3.087   4.578   1.633
 3511SOL    HW111432   3.030   4.521   1.692
 3511SOL    HW211433   3.170   4.528   1.608
 3512SOL     OW11434   0.395   5.534   5.618
 3512SOL    HW111435   0.380   5.568   5.525
 3512SOL    HW211436   0.312   5.550   5.672
 3513SOL     OW11437   6.192   1.890   0.623
 3513SOL    HW111438   6.273   1.930   0.666
 3513SOL    HW211439   6.117   1.956   0.626
 3514SOL     OW11440   3.659   1.526   1.766
 3514SOL    HW111441   3.670   1.454   1.697
 3514SOL    HW211442   3.597   1.494   1.838
 3515SOL     OW11443   0.477   5.199   4.464
 3515SOL    HW111444   0.465   5.099   4.461
 3515SOL    HW211445   0.573   5.220   4.482
 3516SOL     OW11446   5.055   0.222   1.410
 3516SOL    HW111447   5.071   0.127   1.435
 3516SOL    HW211448   5.109   0.246   1.329
 3517SOL     OW11449   5.886   0.435   1.568
 3517SOL    HW111450   5.903   0.376   1.489
 3517SOL    HW211451   5.802   0.487   1.552
 3518SOL     OW11452   5.258   0.703   5.020
 3518SOL    HW111453   5.288   0.753   5.101
 3518SOL    HW211454   5.258   0.765   4.941
 3519SOL     OW11455   3.221   0.700   1.149
 3519SOL    HW111456   3.185   0.768   1.086
 3519SOL    HW211457   3.319   0.687   1.133
 3520SOL     OW11458   2.401   5.962   4.883
 3520SOL    HW111459   2.432   5.870   4.907
 3520SOL    HW211460   2.481   6.019   4.862
 3521SOL     OW11461   2.770   3.083   6.593
 3521SOL    HW111462   2.789   3.145   6.517
 3521SOL    HW211463   2.840   3.093   6.663
 3522SOL     OW11464   0.557   6.103   6.243
 3522SOL    HW111465   0.595   6.012   6.226
 3522SOL    HW211466   0.603   6.170   6.184
 3523SOL     OW11467   2.141   5.934   0.026
 3523SOL    HW111468   2.164   5.847   0.069
 3523SOL    HW211469   2.043   5.936   0.004
 3524SOL     OW11470   5.047   1.204   3.950
 3524SOL    HW111471   4.996   1.193   4.035
 3524SOL    HW211472   5.078   1.299   3.941
 3525SOL     OW11473   6.998   3.049   2.810
 3525SOL    HW111474   6.914   3.050   2.865
 3525SOL    HW211475   0.039   3.121   2.843
 3526SOL     OW11476   0.276   6.623   2.716
 3526SOL    HW111477   0.211   6.549   2.732
 3526SOL    HW211478   0.349   6.591   2.656
 3527SOL     OW11479   0.728   2.339   6.496
 3527SOL    HW111480   0.720   2.245   6.528
 3527SOL    HW211481   0.752   2.340   6.399
 3528SOL     OW11482   2.419   5.852   4.609
 3528SOL    HW111483   2.408   5.913   4.687
 3528SOL    HW211484   2.365   5.886   4.532
 3529SOL     OW11485   4.556   5.503   1.002
 3529SOL    HW111486   4.540   5.502   0.903
 3529SOL    HW211487   4.585   5.594   1.030
 3530SOL     OW11488   6.232   6.452   1.028
 3530SOL    HW111489   6.227   6.505   0.943
 3530SOL    HW211490   6.232   6.355   1.006
 3531SOL     OW11491   4.816   2.172   0.574
 3531SOL    HW111492   4.835   2.215   0.662
 3531SOL    HW211493   4.806   2.243   0.504
 3532SOL     OW11494   1.835   1.332   1.984
 3532SOL    HW111495   1.789   1.255   2.027
 3532SOL    HW211496   1.793   1.417   2.015
 3533SOL     OW11497   1.038   1.676   2.999
 3533SOL    HW111498   0.990   1.698   3.084
 3533SOL    HW211499   1.010   1.740   2.927
 3534SOL     OW11500   0.363   1.166   0.855
 3534SOL    HW111501   0.343   1.206   0.944
 3534SOL    HW211502   0.448   1.112   0.861
 3535SOL     OW11503   2.831   5.447   4.310
 3535SOL    HW111504   2.889   5.496   4.375
 3535SOL    HW211505   2.822   5.351   4.339
 3536SOL     OW11506   3.693   2.067   2.715
 3536SOL    HW111507   3.689   1.973   2.681
 3536SOL    HW211508   3.723   2.128   2.642
 3537SOL     OW11509   1.982   0.254   3.182
 3537SOL    HW111510   1.983   0.178   3.248
 3537SOL    HW211511   1.939   0.224   3.097
 3538SOL     OW11512   3.107   5.761   3.180
 3538SOL    HW111513   3.135   5.684   3.123
 3538SOL    HW211514   3.010   5.779   3.167
 3539SOL     OW11515   3.856   3.367   4.246
 3539SOL    HW111516   3.864   3.383   4.345
 3539SOL    HW211517   3.781   3.423   4.210
 3540SOL     OW11518   1.504   2.339   3.338
 3540SOL    HW111519   1.453   2.254   3.327
 3540SOL    HW211520   1.556   2.336   3.423
 3541SOL     OW11521   3.813   4.044   4.104
 3541SOL    HW111522   3.886   4.081   4.161
 3541SOL    HW211523   3.838   4.054   4.007
 3542SOL     OW11524   6.728   5.062   1.575
 3542SOL    HW111525   6.808   5.118   1.595
 3542SOL    HW211526   6.740   5.016   1.487
 3543SOL     OW11527   6.131   2.987   5.352
 3543SOL    HW111528   6.126   2.902   5.403
 3543SOL    HW211529   6.041   3.009   5.314
 3544SOL     OW11530   1.571   6.053   0.265
 3544SOL    HW111531   1.665   6.020   0.254
 3544SOL    HW211532   1.546   6.051   0.362
 3545SOL     OW11533   3.181   4.955   0.506
 3545SOL    HW111534   3.168   4.856   0.508
 3545SOL    HW211535   3.262   4.977   0.451
 3546SOL     OW11536   6.552   4.746   2.835
 3546SOL    HW111537   6.637   4.798   2.827
 3546SOL    HW211538   6.541   4.713   2.929
 3547SOL     OW11539   5.007   4.478   4.561
 3547SOL    HW111540   5.062   4.529   4.494
 3547SOL    HW211541   5.011   4.381   4.540
 3548SOL     OW11542   4.717   3.408   5.615
 3548SOL    HW111543   4.795   3.453   5.659
 3548SOL    HW211544   4.742   3.316   5.587
 3549SOL     OW11545   5.938   3.566   2.405
 3549SOL    HW111546   5.939   3.524   2.496
 3549SOL    HW211547   5.867   3.522   2.350
 3550SOL     OW11548   5.818   2.033   2.580
 3550SOL    HW111549   5.728   2.037   2.536
 3550SOL    HW211550   5.809   1.990   2.670
 3551SOL     OW11551   2.321   6.806   2.739
 3551SOL    HW111552   2.249   6.852   2.687
 3551SOL    HW211553   2.327   6.846   2.830
 3552SOL     OW11554   0.107   4.774   3.169
 3552SOL    HW111555   0.016   4.753   3.205
 3552SOL    HW211556   0.175   4.752   3.239
 3553SOL     OW11557   5.707   1.982   3.390
 3553SOL    HW111558   5.732   1.997   3.294
 3553SOL    HW211559   5.722   2.065   3.442
 3554SOL     OW11560   3.911   5.603   6.740
 3554SOL    HW111561   3.987   5.651   6.697
 3554SOL    HW211562   3.829   5.660   6.737
 3555SOL     OW11563   0.257   2.615   3.541
 3555SOL    HW111564   0.324   2.643   3.609
 3555SOL    HW211565   0.264   2.674   3.461
 3556SOL     OW11566   4.746   0.896   6.418
 3556SOL    HW111567   4.717   0.989   6.440
 3556SOL    HW211568   4.828   0.874   6.471
 3557SOL     OW11569   0.383   0.318   4.358
 3557SOL    HW111570   0.460   0.263   4.388
 3557SOL    HW211571   0.363   0.387   4.428
 3558SOL     OW11572   6.947   5.432   1.900
 3558SOL    HW111573   6.851   5.457   1.912
 3558SOL    HW211574   6.993   5.502   1.845
 3559SOL     OW11575   1.139   0.585   5.611
 3559SOL    HW111576   1.066   0.623   5.668
 3559SOL    HW211577   1.145   0.636   5.525
 3560SOL     OW11578   6.528   6.445   2.124
 3560SOL    HW111579   6.569   6.405   2.041
 3560SOL    HW211580   6.488   6.372   2.179
 3561SOL     OW11581   4.635   4.246   3.697
 3561SOL    HW111582   4.615   4.341   3.721
 3561SOL    HW211583   4.663   4.196   3.779
 3562SOL     OW11584   4.217   2.301   3.290
 3562SOL    HW111585   4.204   2.249   3.206
 3562SOL    HW211586   4.283   2.374   3.274
 3563SOL     OW11587   4.826   0.462   1.424
 3563SOL    HW111588   4.896   0.390   1.415
 3563SOL    HW211589   4.871   0.551   1.429
 3564SOL     OW11590   0.223   4.417   2.994
 3564SOL    HW111591   0.141   4.467   2.964
 3564SOL    HW211592   0.305   4.465   2.964
 3565SOL     OW11593   1.429   0.370   5.352
 3565SOL    HW111594   1.429   0.392   5.450
 3565SOL    HW211595   1.403   0.452   5.300
 3566SOL     OW11596   0.597   4.529   6.510
 3566SOL    HW111597   0.554   4.595   6.448
 3566SOL    HW211598   0.691   4.557   6.528
 3567SOL     OW11599   0.273   2.689   1.018
 3567SOL    HW111600   0.212   2.662   0.945
 3567SOL    HW211601   0.233   2.664   1.106
 3568SOL     OW11602   5.309   3.910   3.810
 3568SOL    HW111603   5.325   3.908   3.908
 3568SOL    HW211604   5.369   3.978   3.768
 3569SOL     OW11605   3.749   2.986   4.168
 3569SOL    HW111606   3.849   2.994   4.176
 3569SOL    HW211607   3.724   2.975   4.072
 3570SOL     OW11608   0.633   1.769   5.358
 3570SOL    HW111609   0.655   1.806   5.448
 3570SOL    HW211610   0.716   1.761   5.304
 3571SOL     OW11611   2.409   6.808   4.596
 3571SOL    HW111612   2.352   6.889   4.607
 3571SOL    HW211613   2.499   6.836   4.563
 3572SOL     OW11614   5.403   4.173   1.767
 3572SOL    HW111615   5.368   4.084   1.797
 3572SOL    HW211616   5.497   4.162   1.735
 3573SOL     OW11617   0.520   4.852   3.597
 3573SOL    HW111618   0.480   4.916   3.531
 3573SOL    HW211619   0.446   4.799   3.640
 3574SOL     OW11620   1.896   2.019   5.804
 3574SOL    HW111621   1.960   2.087   5.841
 3574SOL    HW211622   1.934   1.980   5.720
 3575SOL     OW11623   5.084   0.059   6.919
 3575SOL    HW111624   5.107   0.079   6.824
 3575SOL    HW211625   5.155   0.098   6.979
 3576SOL     OW11626   1.760   2.600   0.629
 3576SOL    HW111627   1.679   2.633   0.581
 3576SOL    HW211628   1.836   2.664   0.613
 3577SOL     OW11629   1.578   2.678   5.089
 3577SOL    HW111630   1.649   2.747   5.074
 3577SOL    HW211631   1.513   2.680   5.013
 3578SOL     OW11632   3.653   2.249   6.180
 3578SOL    HW111633   3.583   2.268   6.111
 3578SOL    HW211634   3.744   2.265   6.141
 3579SOL     OW11635   0.889   3.927   1.656
 3579SOL    HW111636   0.953   3.997   1.622
 3579SOL    HW211637   0.939   3.841   1.669
 3580SOL     OW11638   6.834   4.310   1.950
 3580SOL    HW111639   6.902   4.334   1.881
 3580SOL    HW211640   6.804   4.215   1.935
 3581SOL     OW11641   1.417   0.686   2.354
 3581SOL    HW111642   1.440   0.779   2.383
 3581SOL    HW211643   1.408   0.628   2.435
 3582SOL     OW11644   4.335   5.568   6.427
 3582SOL    HW111645   4.417   5.551   6.372
 3582SOL    HW211646   4.359   5.629   6.503
 3583SOL     OW11647   1.382   5.159   1.335
 3583SOL    HW111648   1.334   5.244   1.357
 3583SOL    HW211649   1.316   5.086   1.318
 3584SOL     OW11650   5.878   4.882   4.976
 3584SOL    HW111651   5.930   4.877   5.061
 3584SOL    HW211652   5.939   4.868   4.898
 3585SOL     OW11653   3.293   1.892   3.901
 3585SOL    HW111654   3.261   1.967   3.959
 3585SOL    HW211655   3.342   1.930   3.822
 3586SOL     OW11656   0.109   1.806   5.074
 3586SOL    HW111657   0.019   1.790   5.114
 3586SOL    HW211658   0.175   1.741   5.113
 3587SOL     OW11659   3.127   0.428   6.220
 3587SOL    HW111660   3.168   0.511   6.181
 3587SOL    HW211661   3.195   0.379   6.274
 3588SOL     OW11662   5.629   4.633   4.905
 3588SOL    HW111663   5.625   4.716   4.961
 3588SOL    HW211664   5.718   4.627   4.861
 3589SOL     OW11665   0.860   6.842   6.120
 3589SOL    HW111666   0.899   6.932   6.101
 3589SOL    HW211667   0.777   6.852   6.174
 3590SOL     OW11668   0.080   5.065   5.752
 3590SOL    HW111669   0.077   5.059   5.852
 3590SOL    HW211670   0.051   5.155   5.723
 3591SOL     OW11671   5.768   1.644   0.213
 3591SOL    HW111672   5.724   1.702   0.281
 3591SOL    HW211673   5.701   1.580   0.175
 3592SOL     OW11674   1.568   6.330   1.067
 3592SOL    HW111675   1.517   6.416   1.059
 3592SOL    HW211676   1.634   6.337   1.141
 3593SOL     OW11677   4.078   3.114   5.458
 3593SOL    HW111678   3.997   3.130   5.401
 3593SOL    HW211679   4.160   3.138   5.407
 3594SOL     OW11680   4.827   4.687   5.232
 3594SOL    HW111681   4.926   4.698   5.239
 3594SOL    HW211682   4.787   4.684   5.324
 3595SOL     OW11683   5.642   6.156   4.494
 3595SOL    HW111684   5.654   6.255   4.503
 3595SOL    HW211685   5.683   6.110   4.573
 3596SOL     OW11686   4.109   1.727   3.002
 3596SOL    HW111687   4.059   1.782   2.935
 3596SOL    HW211688   4.197   1.700   2.964
 3597SOL     OW11689   3.365   3.954   5.263
 3597SOL    HW111690   3.311   4.007   5.198
 3597SOL    HW211691   3.310   3.934   5.344
 3598SOL     OW11692   0.250   5.432   4.852
 3598SOL    HW111693   0.326   5.481   4.894
 3598SOL    HW211694   0.196   5.386   4.923
 3599SOL     OW11695   2.605   1.234   5.408
 3599SOL    HW111696   2.660   1.224   5.325
 3599SOL    HW211697   2.510   1.209   5.388
 3600SOL     OW11698   2.687   3.826   6.640
 3600SOL    HW111699   2.662   3.747   6.584
 3600SOL    HW211700   2.767   3.871   6.600
 3601SOL     OW11701   4.830   1.036   5.278
 3601SOL    HW111702   4.819   0.939   5.258
 3601SOL    HW211703   4.869   1.047   5.369
 3602SOL     OW11704   1.593   2.171   1.183
 3602SOL    HW111705   1.597   2.259   1.230
 3602SOL    HW211706   1.537   2.107   1.236
 3603SOL     OW11707   2.317   0.559   5.477
 3603SOL    HW111708   2.333   0.593   5.384
 3603SOL    HW211709   2.373   0.478   5.493
 3604SOL     OW11710   6.872   0.742   3.352
 3604SOL    HW111711   6.870   0.826   3.406
 3604SOL    HW211712   6.827   0.668   3.403
 3605SOL     OW11713   1.078   6.769   4.974
 3605SOL    HW111714   1.010   6.840   4.958
 3605SOL    HW211715   1.140   6.765   4.896
 3606SOL     OW11716   2.003   0.355   2.238
 3606SOL    HW111717   1.977   0.300   2.158
 3606SOL    HW211718   2.092   0.323   2.272
 3607SOL     OW11719   6.130   1.487   3.105
 3607SOL    HW111720   6.069   1.538   3.166
 3607SOL    HW211721   6.203   1.445   3.159
 3608SOL     OW11722   3.013   1.692   5.850
 3608SOL    HW111723   3.049   1.714   5.940
 3608SOL    HW211724   3.006   1.775   5.795
 3609SOL     OW11725   3.774   0.491   5.608
 3609SOL    HW111726   3.837   0.540   5.548
 3609SOL    HW211727   3.715   0.431   5.553
 3610SOL     OW11728   1.830   0.979   5.750
 3610SOL    HW111729   1.739   0.982   5.791
 3610SOL    HW211730   1.896   1.025   5.810
 3611SOL     OW11731   5.597   4.424   2.723
 3611SOL    HW111732   5.539   4.430   2.641
 3611SOL    HW211733   5.592   4.331   2.760
 3612SOL     OW11734   5.008   1.690   0.689
 3612SOL    HW111735   5.019   1.606   0.743
 3612SOL    HW211736   4.911   1.715   0.687
 3613SOL     OW11737   3.741   6.888   3.061
 3613SOL    HW111738   3.750   6.966   3.000
 3613SOL    HW211739   3.654   6.842   3.044
 3614SOL     OW11740   3.434   5.650   6.743
 3614SOL    HW111741   3.370   5.583   6.780
 3614SOL    HW211742   3.402   5.743   6.765
 3615SOL     OW11743   5.070   2.931   5.702
 3615SOL    HW111744   5.049   2.875   5.622
 3615SOL    HW211745   5.005   3.007   5.707
 3616SOL     OW11746   1.597   2.543   0.262
 3616SOL    HW111747   1.686   2.513   0.295
 3616SOL    HW211748   1.551   2.595   0.334
 3617SOL     OW11749   4.276   5.524   5.674
 3617SOL    HW111750   4.246   5.594   5.739
 3617SOL    HW211751   4.309   5.568   5.590
 3618SOL     OW11752   1.421   5.423   4.274
 3618SOL    HW111753   1.478   5.505   4.274
 3618SOL    HW211754   1.456   5.357   4.207
 3619SOL     OW11755   5.985   2.349   2.020
 3619SOL    HW111756   6.066   2.356   2.079
 3619SOL    HW211757   5.903   2.364   2.075
 3620SOL     OW11758   5.532   6.061   5.166
 3620SOL    HW111759   5.481   6.133   5.212
 3620SOL    HW211760   5.483   6.034   5.083
 3621SOL     OW11761   3.412   2.894   3.825
 3621SOL    HW111762   3.377   2.987   3.815
 3621SOL    HW211763   3.439   2.879   3.920
 3622SOL     OW11764   1.654   5.424   6.356
 3622SOL    HW111765   1.585   5.433   6.428
 3622SOL    HW211766   1.712   5.506   6.354
 3623SOL     OW11767   1.556   5.758   6.147
 3623SOL    HW111768   1.478   5.695   6.144
 3623SOL    HW211769   1.550   5.822   6.070
 3624SOL     OW11770   2.209   2.269   2.228
 3624SOL    HW111771   2.156   2.321   2.295
 3624SOL    HW211772   2.304   2.300   2.229
 3625SOL     OW11773   6.274   2.296   1.134
 3625SOL    HW111774   6.249   2.345   1.218
 3625SOL    HW211775   6.365   2.325   1.104
 3626SOL     OW11776   1.694   2.752   5.683
 3626SOL    HW111777   1.790   2.730   5.663
 3626SOL    HW211778   1.689   2.801   5.769
 3627SOL     OW11779   3.708   1.712   2.445
 3627SOL    HW111780   3.720   1.716   2.544
 3627SOL    HW211781   3.644   1.783   2.416
 3628SOL     OW11782   6.599   1.698   1.721
 3628SOL    HW111783   6.622   1.790   1.754
 3628SOL    HW211784   6.510   1.701   1.675
 3629SOL     OW11785   1.551   1.301   4.275
 3629SOL    HW111786   1.535   1.335   4.183
 3629SOL    HW211787   1.548   1.201   4.275
 3630SOL     OW11788   6.283   2.099   2.403
 3630SOL    HW111789   6.185   2.080   2.408
 3630SOL    HW211790   6.320   2.105   2.496
 3631SOL     OW11791   1.995   6.275   2.350
 3631SOL    HW111792   2.005   6.185   2.308
 3631SOL    HW211793   2.016   6.346   2.282
 3632SOL     OW11794   4.905   3.173   2.500
 3632SOL    HW111795   4.978   3.156   2.566
 3632SOL    HW211796   4.929   3.253   2.444
 3633SOL     OW11797   3.866   4.047   0.283
 3633SOL    HW111798   3.869   4.106   0.364
 3633SOL    HW211799   3.810   3.966   0.302
 3634SOL     OW11800   3.070   5.341   6.531
 3634SOL    HW111801   3.023   5.319   6.617
 3634SOL    HW211802   3.029   5.422   6.490
 3635SOL     OW11803   1.103   6.407   2.352
 3635SOL    HW111804   1.094   6.495   2.307
 3635SOL    HW211805   1.199   6.393   2.379
 3636SOL     OW11806   0.691   5.419   5.583
 3636SOL    HW111807   0.616   5.462   5.634
 3636SOL    HW211808   0.741   5.489   5.532
 3637SOL     OW11809   6.111   3.107   6.948
 3637SOL    HW111810   6.196   3.158   6.955
 3637SOL    HW211811   6.075   3.113   6.855
 3638SOL     OW11812   0.415   3.332   3.155
 3638SOL    HW111813   0.408   3.260   3.224
 3638SOL    HW211814   0.388   3.419   3.195
 3639SOL     OW11815   4.123   3.405   4.289
 3639SOL    HW111816   4.152   3.377   4.380
 3639SOL    HW211817   4.024   3.418   4.289
 3640SOL     OW11818   4.211   2.004   2.231
 3640SOL    HW111819   4.140   2.072   2.250
 3640SOL    HW211820   4.177   1.939   2.162
 3641SOL     OW11821   6.372   3.855   2.237
 3641SOL    HW111822   6.299   3.912   2.276
 3641SOL    HW211823   6.334   3.798   2.165
 3642SOL     OW11824   5.074   3.938   6.839
 3642SOL    HW111825   5.077   4.019   6.780
 3642SOL    HW211826   5.103   3.858   6.787
 3643SOL     OW11827   3.794   5.779   4.780
 3643SOL    HW111828   3.789   5.732   4.868
 3643SOL    HW211829   3.793   5.712   4.706
 3644SOL     OW11830   2.908   1.159   1.625
 3644SOL    HW111831   2.919   1.060   1.635
 3644SOL    HW211832   2.848   1.193   1.698
 3645SOL     OW11833   1.560   4.357   3.470
 3645SOL    HW111834   1.634   4.399   3.418
 3645SOL    HW211835   1.566   4.386   3.566
 3646SOL     OW11836   1.822   5.344   5.703
 3646SOL    HW111837   1.910   5.366   5.745
 3646SOL    HW211838   1.791   5.255   5.737
 3647SOL     OW11839   3.778   0.000   0.188
 3647SOL    HW111840   3.679   7.008   0.176
 3647SOL    HW211841   3.796   0.029   0.282
 3648SOL     OW11842   5.134   4.593   3.068
 3648SOL    HW111843   5.073   4.532   3.118
 3648SOL    HW211844   5.223   4.596   3.115
 3649SOL     OW11845   5.342   2.444   0.243
 3649SOL    HW111846   5.378   2.510   0.309
 3649SOL    HW211847   5.246   2.425   0.265
 3650SOL     OW11848   5.426   5.823   6.242
 3650SOL    HW111849   5.354   5.877   6.285
 3650SOL    HW211850   5.498   5.805   6.308
 3651SOL     OW11851   0.449   2.024   5.700
 3651SOL    HW111852   0.462   1.925   5.694
 3651SOL    HW211853   0.433   2.050   5.795
 3652SOL     OW11854   4.748   2.717   2.664
 3652SOL    HW111855   4.749   2.813   2.692
 3652SOL    HW211856   4.685   2.666   2.724
 3653SOL     OW11857   2.093   1.194   0.480
 3653SOL    HW111858   2.155   1.191   0.558
 3653SOL    HW211859   2.088   1.287   0.444
 3654SOL     OW11860   4.106   6.856   1.874
 3654SOL    HW111861   4.020   6.906   1.870
 3654SOL    HW211862   4.099   6.773   1.818
 3655SOL     OW11863   1.047   0.624   3.695
 3655SOL    HW111864   1.143   0.638   3.673
 3655SOL    HW211865   0.993   0.625   3.610
 3656SOL     OW11866   0.280   0.124   1.205
 3656SOL    HW111867   0.379   0.136   1.194
 3656SOL    HW211868   0.235   0.147   1.119
 3657SOL     OW11869   5.968   5.126   6.418
 3657SOL    HW111870   5.891   5.149   6.359
 3657SOL    HW211871   6.049   5.176   6.387
 3658SOL     OW11872   1.834   4.563   5.262
 3658SOL    HW111873   1.756   4.522   5.214
 3658SOL    HW211874   1.882   4.491   5.313
 3659SOL     OW11875   1.096   2.415   6.626
 3659SOL    HW111876   1.103   2.403   6.527
 3659SOL    HW211877   1.095   2.513   6.648
 3660SOL     OW11878   4.027   5.383   5.272
 3660SOL    HW111879   4.085   5.428   5.204
 3660SOL    HW211880   4.072   5.301   5.307
 3661SOL     OW11881   0.582   1.210   4.361
 3661SOL    HW111882   0.570   1.245   4.454
 3661SOL    HW211883   0.535   1.270   4.297
 3662SOL     OW11884   3.084   1.430   5.782
 3662SOL    HW111885   3.038   1.389   5.703
 3662SOL    HW211886   3.044   1.519   5.801
 3663SOL     OW11887   2.144   2.323   6.447
 3663SOL    HW111888   2.132   2.383   6.368
 3663SOL    HW211889   2.223   2.353   6.501
 3664SOL     OW11890   3.266   1.897   1.311
 3664SOL    HW111891   3.201   1.886   1.387
 3664SOL    HW211892   3.351   1.848   1.333
 3665SOL     OW11893   0.110   5.488   5.449
 3665SOL    HW111894   0.120   5.570   5.393
 3665SOL    HW211895   0.199   5.460   5.484
 3666SOL     OW11896   2.095   3.622   4.292
 3666SOL    HW111897   2.103   3.701   4.232
 3666SOL    HW211898   2.105   3.651   4.387
 3667SOL     OW11899   1.824   6.793   0.588
 3667SOL    HW111900   1.802   6.889   0.571
 3667SOL    HW211901   1.761   6.756   0.657
 3668SOL     OW11902   6.359   1.308   0.774
 3668SOL    HW111903   6.310   1.318   0.688
 3668SOL    HW211904   6.294   1.304   0.850
 3669SOL     OW11905   6.986   0.983   1.640
 3669SOL    HW111906   6.937   0.896   1.628
 3669SOL    HW211907   6.959   1.024   1.727
 3670SOL     OW11908   1.922   6.909   2.075
 3670SOL    HW111909   1.936   7.002   2.041
 3670SOL    HW211910   1.987   6.891   2.149
 3671SOL     OW11911   7.006   0.830   4.842
 3671SOL    HW111912   0.072   0.779   4.840
 3671SOL    HW211913   6.943   0.785   4.906
 3672SOL     OW11914   4.193   0.001   3.318
 3672SOL    HW111915   4.266   6.969   3.274
 3672SOL    HW211916   4.125   6.959   3.356
 3673SOL     OW11917   3.156   1.009   1.401
 3673SOL    HW111918   3.098   1.047   1.473
 3673SOL    HW211919   3.099   0.955   1.339
 3674SOL     OW11920   0.501   4.411   6.085
 3674SOL    HW111921   0.403   4.422   6.070
 3674SOL    HW211922   0.549   4.493   6.055
 3675SOL     OW11923   6.946   0.803   4.549
 3675SOL    HW111924   6.979   0.786   4.642
 3675SOL    HW211925   6.987   0.888   4.516
 3676SOL     OW11926   3.207   0.831   5.617
 3676SOL    HW111927   3.140   0.838   5.543
 3676SOL    HW211928   3.299   0.843   5.579
 3677SOL     OW11929   1.269   0.862   4.239
 3677SOL    HW111930   1.215   0.791   4.194
 3677SOL    HW211931   1.213   0.906   4.309
 3678SOL     OW11932   2.229   1.134   3.472
 3678SOL    HW111933   2.209   1.214   3.529
 3678SOL    HW211934   2.244   1.163   3.378
 3679SOL     OW11935   3.162   0.539   2.765
 3679SOL    HW111936   3.232   0.588   2.817
 3679SOL    HW211937   3.167   0.565   2.669
 3680SOL     OW11938   3.208   2.025   4.589
 3680SOL    HW111939   3.255   2.055   4.672
 3680SOL    HW211940   3.113   2.057   4.592
 3681SOL     OW11941   0.994   6.747   4.079
 3681SOL    HW111942   1.052   6.783   4.152
 3681SOL    HW211943   0.995   6.810   4.002
 3682SOL     OW11944   5.493   2.332   1.150
 3682SOL    HW111945   5.457   2.318   1.242
 3682SOL    HW211946   5.547   2.252   1.124
 3683SOL     OW11947   6.792   1.675   0.640
 3683SOL    HW111948   6.719   1.622   0.597
 3683SOL    HW211949   6.776   1.772   0.623
 3684SOL     OW11950   2.768   6.418   5.908
 3684SOL    HW111951   2.765   6.494   5.842
 3684SOL    HW211952   2.814   6.340   5.866
 3685SOL     OW11953   2.458   6.431   3.852
 3685SOL    HW111954   2.453   6.512   3.910
 3685SOL    HW211955   2.530   6.443   3.785
 3686SOL     OW11956   6.914   4.237   0.408
 3686SOL    HW111957   6.998   4.182   0.405
 3686SOL    HW211958   6.838   4.179   0.439
 3687SOL     OW11959   6.296   4.309   4.621
 3687SOL    HW111960   6.293   4.370   4.542
 3687SOL    HW211961   6.382   4.322   4.670
 3688SOL     OW11962   0.074   2.637   1.371
 3688SOL    HW111963   0.085   2.566   1.440
 3688SOL    HW211964   0.163   2.675   1.347
 3689SOL     OW11965   1.438   1.309   5.991
 3689SOL    HW111966   1.412   1.264   6.076
 3689SOL    HW211967   1.524   1.270   5.957
 3690SOL     OW11968   5.886   4.695   1.417
 3690SOL    HW111969   5.973   4.725   1.458
 3690SOL    HW211970   5.847   4.622   1.473
 3691SOL     OW11971   1.588   2.621   0.918
 3691SOL    HW111972   1.580   2.646   0.821
 3691SOL    HW211973   1.684   2.614   0.942
 3692SOL     OW11974   1.171   3.032   5.534
 3692SOL    HW111975   1.194   3.099   5.464
 3692SOL    HW211976   1.252   2.981   5.561
 3693SOL     OW11977   0.055   1.511   2.550
 3693SOL    HW111978   7.004   1.491   2.616
 3693SOL    HW211979   0.015   1.552   2.468
 3694SOL     OW11980   0.001   6.523   2.424
 3694SOL    HW111981   6.944   6.499   2.367
 3694SOL    HW211982   6.992   6.588   2.494
 3695SOL     OW11983   6.155   3.940   3.513
 3695SOL    HW111984   6.242   3.989   3.509
 3695SOL    HW211985   6.105   3.968   3.596
 3696SOL     OW11986   4.533   0.277   3.792
 3696SOL    HW111987   4.467   0.246   3.723
 3696SOL    HW211988   4.603   0.334   3.749
 3697SOL     OW11989   6.260   5.458   2.765
 3697SOL    HW111990   6.322   5.400   2.713
 3697SOL    HW211991   6.167   5.421   2.760
 3698SOL     OW11992   1.646   6.918   4.198
 3698SOL    HW111993   1.713   6.917   4.124
 3698SOL    HW211994   1.569   6.978   4.174
 3699SOL     OW11995   2.609   2.366   2.904
 3699SOL    HW111996   2.571   2.378   2.813
 3699SOL    HW211997   2.671   2.286   2.905
 3700SOL     OW11998   1.135   5.111   4.467
 3700SOL    HW111999   1.176   5.020   4.467
 3700SOL    HW212000   1.081   5.123   4.551
 3701SOL     OW12001   0.450   1.027   1.946
 3701SOL    HW112002   0.351   1.015   1.955
 3701SOL    HW212003   0.497   0.955   1.998
 3702SOL     OW12004   6.608   4.629   3.578
 3702SOL    HW112005   6.576   4.675   3.661
 3702SOL    HW212006   6.649   4.696   3.516
 3703SOL     OW12007   1.339   2.431   2.912
 3703SOL    HW112008   1.420   2.376   2.931
 3703SOL    HW212009   1.290   2.448   2.998
 3704SOL     OW12010   6.230   6.908   0.707
 3704SOL    HW112011   6.287   6.853   0.647
 3704SOL    HW212012   6.146   6.858   0.728
 3705SOL     OW12013   6.031   4.198   3.772
 3705SOL    HW112014   5.952   4.247   3.735
 3705SOL    HW212015   6.109   4.210   3.711
 3706SOL     OW12016   1.149   5.078   6.376
 3706SOL    HW112017   1.223   5.145   6.374
 3706SOL    HW212018   1.061   5.125   6.379
 3707SOL     OW12019   0.794   4.879   3.620
 3707SOL    HW112020   0.806   4.896   3.718
 3707SOL    HW212021   0.702   4.842   3.604
 3708SOL     OW12022   1.400   5.874   6.981
 3708SOL    HW112023   1.318   5.930   6.992
 3708SOL    HW212024   1.374   5.783   6.947
 3709SOL     OW12025   0.624   1.652   2.360
 3709SOL    HW112026   0.542   1.689   2.404
 3709SOL    HW212027   0.705   1.682   2.411
 3710SOL     OW12028   2.060   3.804   5.386
 3710SOL    HW112029   2.003   3.773   5.309
 3710SOL    HW212030   2.119   3.879   5.356
 3711SOL     OW12031   2.100   5.074   4.913
 3711SOL    HW112032   2.045   5.041   4.989
 3711SOL    HW212033   2.119   5.172   4.926
 3712SOL     OW12034   3.296   5.292   3.996
 3712SOL    HW112035   3.286   5.209   4.052
 3712SOL    HW212036   3.393   5.316   3.988
 3713SOL     OW12037   6.242   0.348   5.163
 3713SOL    HW112038   6.207   0.439   5.139
 3713SOL    HW212039   6.263   0.346   5.261
 3714SOL     OW12040   0.127   4.803   6.470
 3714SOL    HW112041   0.190   4.875   6.499
 3714SOL    HW212042   0.162   4.714   6.500
 3715SOL     OW12043   6.151   4.634   3.368
 3715SOL    HW112044   6.218   4.685   3.423
 3715SOL    HW212045   6.195   4.602   3.284
 3716SOL     OW12046   5.783   5.888   5.697
 3716SOL    HW112047   5.855   5.840   5.646
 3716SOL    HW212048   5.732   5.947   5.635
 3717SOL     OW12049   4.822   0.512   1.135
 3717SOL    HW112050   4.841   0.601   1.177
 3717SOL    HW212051   4.746   0.468   1.183
 3718SOL     OW12052   5.551   6.968   6.557
 3718SOL    HW112053   5.569   6.899   6.487
 3718SOL    HW212054   5.524   6.923   6.642
 3719SOL     OW12055   2.606   4.349   0.184
 3719SOL    HW112056   2.701   4.379   0.190
 3719SOL    HW212057   2.555   4.412   0.126
 3720SOL     OW12058   6.910   2.410   1.057
 3720SOL    HW112059   6.986   2.472   1.080
 3720SOL    HW212060   6.883   2.359   1.138
 3721SOL     OW12061   6.329   0.241   6.018
 3721SOL    HW112062   6.398   0.177   6.053
 3721SOL    HW212063   6.298   0.210   5.928
 3722SOL     OW12064   6.115   6.521   1.488
 3722SOL    HW112065   6.127   6.497   1.584
 3722SOL    HW212066   6.055   6.601   1.481
 3723SOL     OW12067   4.434   4.422   6.391
 3723SOL    HW112068   4.501   4.352   6.364
 3723SOL    HW212069   4.458   4.459   6.481
 3724SOL     OW12070   6.890   4.326   4.829
 3724SOL    HW112071   6.879   4.268   4.748
 3724SOL    HW212072   6.874   4.422   4.804
 3725SOL     OW12073   0.774   5.939   0.307
 3725SOL    HW112074   0.691   5.979   0.267
 3725SOL    HW212075   0.855   5.976   0.260
 3726SOL     OW12076   6.523   3.590   5.301
 3726SOL    HW112077   6.501   3.649   5.223
 3726SOL    HW212078   6.507   3.640   5.386
 3727SOL     OW12079   6.547   2.215   3.991
 3727SOL    HW112080   6.550   2.159   3.908
 3727SOL    HW212081   6.523   2.309   3.967
 3728SOL     OW12082   1.851   4.118   0.698
 3728SOL    HW112083   1.939   4.121   0.747
 3728SOL    HW212084   1.852   4.184   0.624
 3729SOL     OW12085   0.601   0.222   6.157
 3729SOL    HW112086   0.667   0.160   6.199
 3729SOL    HW212087   0.509   0.186   6.170
 3730SOL     OW12088   5.046   5.019   4.718
 3730SOL    HW112089   5.020   4.949   4.653
 3730SOL    HW212090   5.093   4.977   4.796
 3731SOL     OW12091   0.453   1.881   0.976
 3731SOL    HW112092   0.489   1.835   1.057
 3731SOL    HW212093   0.518   1.951   0.946
 3732SOL     OW12094   3.562   3.185   6.689
 3732SOL    HW112095   3.614   3.166   6.605
 3732SOL    HW212096   3.465   3.191   6.666
 3733SOL     OW12097   1.658   1.475   3.589
 3733SOL    HW112098   1.650   1.572   3.565
 3733SOL    HW212099   1.636   1.462   3.685
 3734SOL     OW12100   3.283   0.325   2.105
 3734SOL    HW112101   3.186   0.332   2.128
 3734SOL    HW212102   3.325   0.254   2.162
 3735SOL     OW12103   4.510   0.926   2.689
 3735SOL    HW112104   4.447   0.867   2.741
 3735SOL    HW212105   4.461   0.970   2.615
 3736SOL     OW12106   0.974   1.638   0.238
 3736SOL    HW112107   1.059   1.655   0.289
 3736SOL    HW212108   0.908   1.711   0.258
 3737SOL     OW12109   5.804   2.235   3.513
 3737SOL    HW112110   5.882   2.202   3.566
 3737SOL    HW212111   5.835   2.267   3.423
 3738SOL     OW12112   0.489   0.946   1.205
 3738SOL    HW112113   0.417   0.904   1.149
 3738SOL    HW212114   0.512   1.035   1.167
 3739SOL     OW12115   2.771   4.448   6.797
 3739SOL    HW112116   2.796   4.459   6.893
 3739SOL    HW212117   2.731   4.534   6.764
 3740SOL     OW12118   5.346   5.945   6.739
 3740SOL    HW112119   5.249   5.957   6.761
 3740SOL    HW212120   5.402   5.992   6.807
 3741SOL     OW12121   5.714   4.088   0.273
 3741SOL    HW112122   5.749   4.102   0.180
 3741SOL    HW212123   5.688   3.992   0.285
 3742SOL     OW12124   4.416   5.271   1.496
 3742SOL    HW112125   4.445   5.315   1.411
 3742SOL    HW212126   4.421   5.337   1.571
 3743SOL     OW12127   2.675   3.911   0.517
 3743SOL    HW112128   2.749   3.854   0.554
 3743SOL    HW212129   2.632   3.962   0.591
 3744SOL     OW12130   6.565   5.676   2.621
 3744SOL    HW112131   6.517   5.652   2.537
 3744SOL    HW212132   6.498   5.697   2.693
 3745SOL     OW12133   5.025   2.451   3.032
 3745SOL    HW112134   4.954   2.520   3.050
 3745SOL    HW212135   4.989   2.382   2.969
 3746SOL     OW12136   4.913   6.816   4.584
 3746SOL    HW112137   4.853   6.856   4.514
 3746SOL    HW212138   4.857   6.781   4.660
 3747SOL     OW12139   2.595   5.607   5.563
 3747SOL    HW112140   2.687   5.638   5.589
 3747SOL    HW212141   2.601   5.550   5.481
 3748SOL     OW12142   5.143   2.690   3.452
 3748SOL    HW112143   5.167   2.733   3.365
 3748SOL    HW212144   5.074   2.619   3.436
 3749SOL     OW12145   6.365   6.649   2.151
 3749SOL    HW112146   6.386   6.725   2.089
 3749SOL    HW212147   6.420   6.569   2.127
 3750SOL     OW12148   5.714   4.439   0.891
 3750SOL    HW112149   5.812   4.443   0.911
 3750SOL    HW212150   5.681   4.345   0.903
 3751SOL     OW12151   1.254   4.455   1.136
 3751SOL    HW112152   1.183   4.519   1.106
 3751SOL    HW212153   1.343   4.500   1.133
 3752SOL     OW12154   1.180   6.191   5.944
 3752SOL    HW112155   1.175   6.093   5.925
 3752SOL    HW212156   1.177   6.242   5.857
 3753SOL     OW12157   0.165   0.784   5.236
 3753SOL    HW112158   0.229   0.730   5.291
 3753SOL    HW212159   0.120   0.725   5.170
 3754SOL     OW12160   6.597   5.798   1.726
 3754SOL    HW112161   6.574   5.712   1.681
 3754SOL    HW212162   6.616   5.780   1.823
 3755SOL     OW12163   4.602   2.601   2.885
 3755SOL    HW112164   4.600   2.505   2.912
 3755SOL    HW212165   4.508   2.635   2.878
 3756SOL     OW12166   3.502   7.019   0.152
 3756SOL    HW112167   3.454   0.086   0.165
 3756SOL    HW212168   3.454   6.947   0.200
 3757SOL     OW12169   4.014   4.649   6.766
 3757SOL    HW112170   3.947   4.612   6.831
 3757SOL    HW212171   3.966   4.693   6.690
 3758SOL     OW12172   6.598   0.782   2.394
 3758SOL    HW112173   6.563   0.712   2.331
 3758SOL    HW212174   6.620   0.740   2.482
 3759SOL     OW12175   4.713   4.627   1.035
 3759SOL    HW112176   4.714   4.720   1.071
 3759SOL    HW212177   4.714   4.629   0.935
 3760SOL     OW12178   1.763   1.623   6.395
 3760SOL    HW112179   1.829   1.698   6.386
 3760SOL    HW212180   1.730   1.618   6.489
 3761SOL     OW12181   6.579   6.106   4.155
 3761SOL    HW112182   6.578   6.090   4.254
 3761SOL    HW212183   6.650   6.050   4.113
 3762SOL     OW12184   0.408   2.854   0.250
 3762SOL    HW112185   0.387   2.932   0.192
 3762SOL    HW212186   0.456   2.885   0.332
 3763SOL     OW12187   0.063   3.550   5.498
 3763SOL    HW112188   0.002   3.498   5.438
 3763SOL    HW212189   0.101   3.628   5.448
 3764SOL     OW12190   2.754   6.879   4.263
 3764SOL    HW112191   2.811   6.876   4.181
 3764SOL    HW212192   2.744   6.974   4.293
 3765SOL     OW12193   5.662   1.497   3.378
 3765SOL    HW112194   5.759   1.475   3.376
 3765SOL    HW212195   5.626   1.496   3.284
 3766SOL     OW12196   1.902   1.090   5.510
 3766SOL    HW112197   1.846   1.039   5.576
 3766SOL    HW212198   1.980   1.034   5.481
 3767SOL     OW12199   0.270   4.916   0.231
 3767SOL    HW112200   0.306   4.833   0.190
 3767SOL    HW212201   0.171   4.907   0.244
 3768SOL     OW12202   4.275   6.490   1.244
 3768SOL    HW112203   4.208   6.564   1.237
 3768SOL    HW212204   4.295   6.472   1.340
 3769SOL     OW12205   4.427   6.698   5.231
 3769SOL    HW112206   4.448   6.718   5.135
 3769SOL    HW212207   4.470   6.611   5.256
 3770SOL     OW12208   2.175   2.648   0.700
 3770SOL    HW112209   2.195   2.716   0.770
 3770SOL    HW212210   2.254   2.639   0.640
 3771SOL     OW12211   4.125   1.622   5.198
 3771SOL    HW112212   4.174   1.542   5.234
 3771SOL    HW212213   4.192   1.690   5.167
 3772SOL     OW12214   4.949   0.656   2.684
 3772SOL    HW112215   4.902   0.615   2.606
 3772SOL    HW212216   4.882   0.678   2.755
 3773SOL     OW12217   6.250   2.284   0.840
 3773SOL    HW112218   6.193   2.277   0.759
 3773SOL    HW212219   6.193   2.278   0.922
 3774SOL     OW12220   0.806   2.045   1.921
 3774SOL    HW112221   0.868   2.075   1.849
 3774SOL    HW212222   0.856   2.035   2.007
 3775SOL     OW12223   5.338   3.036   3.525
 3775SOL    HW112224   5.347   3.107   3.455
 3775SOL    HW212225   5.418   2.977   3.524
 3776SOL     OW12226   3.113   2.354   6.550
 3776SOL    HW112227   3.052   2.337   6.628
 3776SOL    HW212228   3.135   2.451   6.546
 3777SOL     OW12229   0.876   4.359   3.190
 3777SOL    HW112230   0.945   4.431   3.184
 3777SOL    HW212231   0.848   4.332   3.097
 3778SOL     OW12232   2.456   6.934   1.730
 3778SOL    HW112233   2.487   6.934   1.634
 3778SOL    HW212234   2.364   6.896   1.735
 3779SOL     OW12235   2.039   4.445   0.011
 3779SOL    HW112236   1.990   4.500   0.078
 3779SOL    HW212237   1.990   4.448   6.944
 3780SOL     OW12238   2.511   0.510   3.705
 3780SOL    HW112239   2.479   0.437   3.644
 3780SOL    HW212240   2.455   0.511   3.788
 3781SOL     OW12241   2.684   5.344   5.038
 3781SOL    HW112242   2.618   5.393   5.094
 3781SOL    HW212243   2.776   5.381   5.055
 3782SOL     OW12244   3.004   0.862   2.593
 3782SOL    HW112245   2.976   0.813   2.675
 3782SOL    HW212246   3.101   0.885   2.599
 3783SOL     OW12247   5.334   5.397   4.851
 3783SOL    HW112248   5.297   5.365   4.938
 3783SOL    HW212249   5.279   5.473   4.817
 3784SOL     OW12250   4.996   2.012   4.365
 3784SOL    HW112251   4.963   2.078   4.297
 3784SOL    HW212252   4.971   2.044   4.457
 3785SOL     OW12253   1.183   1.331   2.038
 3785SOL    HW112254   1.211   1.425   2.057
 3785SOL    HW212255   1.177   1.317   1.939
 3786SOL     OW12256   3.076   6.254   2.745
 3786SOL    HW112257   3.172   6.255   2.717
 3786SOL    HW212258   3.027   6.330   2.702
 3787SOL     OW12259   4.396   0.821   4.047
 3787SOL    HW112260   4.432   0.734   4.012
 3787SOL    HW212261   4.393   0.818   4.147
 3788SOL     OW12262   6.582   3.527   2.439
 3788SOL    HW112263   6.582   3.428   2.454
 3788SOL    HW212264   6.500   3.567   2.482
 3789SOL     OW12265   1.122   5.307   2.175
 3789SOL    HW112266   1.049   5.250   2.213
 3789SOL    HW212267   1.209   5.282   2.219
 3790SOL     OW12268   2.129   3.219   3.234
 3790SOL    HW112269   2.193   3.143   3.244
 3790SOL    HW212270   2.127   3.273   3.318
 3791SOL     OW12271   6.135   0.567   2.625
 3791SOL    HW112272   6.227   0.536   2.647
 3791SOL    HW212273   6.137   0.665   2.604
 3792SOL     OW12274   0.603   6.532   6.396
 3792SOL    HW112275   0.542   6.463   6.436
 3792SOL    HW212276   0.608   6.519   6.297
 3793SOL     OW12277   0.688   6.020   2.797
 3793SOL    HW112278   0.655   6.082   2.868
 3793SOL    HW212279   0.636   5.935   2.799
 3794SOL     OW12280   4.404   6.553   3.833
 3794SOL    HW112281   4.442   6.645   3.818
 3794SOL    HW212282   4.431   6.494   3.757
 3795SOL     OW12283   5.542   0.417   0.302
 3795SOL    HW112284   5.571   0.387   0.211
 3795SOL    HW212285   5.504   0.509   0.297
 3796SOL     OW12286   0.965   3.224   0.569
 3796SOL    HW112287   0.900   3.268   0.631
 3796SOL    HW212288   0.950   3.259   0.476
 3797SOL     OW12289   0.034   5.177   2.475
 3797SOL    HW112290   0.089   5.121   2.413
 3797SOL    HW212291   6.962   5.140   2.479
 3798SOL     OW12292   0.736   4.140   1.091
 3798SOL    HW112293   0.801   4.130   1.015
 3798SOL    HW212294   0.760   4.220   1.146
 3799SOL     OW12295   1.164   0.512   4.928
 3799SOL    HW112296   1.082   0.505   4.984
 3799SOL    HW212297   1.147   0.471   4.839
 3800SOL     OW12298   5.164   2.539   5.406
 3800SOL    HW112299   5.182   2.504   5.498
 3800SOL    HW212300   5.236   2.603   5.380
 3801SOL     OW12301   6.614   0.272   6.652
 3801SOL    HW112302   6.526   0.241   6.687
 3801SOL    HW212303   6.678   0.194   6.649
 3802SOL     OW12304   1.774   2.565   5.376
 3802SOL    HW112305   1.790   2.505   5.455
 3802SOL    HW212306   1.862   2.596   5.340
 3803SOL     OW12307   4.313   0.763   1.207
 3803SOL    HW112308   4.318   0.814   1.292
 3803SOL    HW212309   4.242   0.692   1.215
 3804SOL     OW12310   5.084   2.942   5.159
 3804SOL    HW112311   5.177   2.953   5.123
 3804SOL    HW212312   5.024   2.911   5.085
 3805SOL     OW12313   1.879   3.583   1.735
 3805SOL    HW112314   1.916   3.514   1.798
 3805SOL    HW212315   1.922   3.672   1.755
 3806SOL     OW12316   3.673   1.157   0.628
 3806SOL    HW112317   3.619   1.233   0.594
 3806SOL    HW212318   3.738   1.190   0.696
 3807SOL     OW12319   1.403   6.928   2.928
 3807SOL    HW112320   1.490   6.911   2.974
 3807SOL    HW212321   1.353   7.000   2.976
 3808SOL     OW12322   2.937   0.508   0.734
 3808SOL    HW112323   2.916   0.446   0.810
 3808SOL    HW212324   3.012   0.568   0.760
 3809SOL     OW12325   4.102   0.109   6.964
 3809SOL    HW112326   4.149   0.042   6.907
 3809SOL    HW212327   4.132   0.100   0.038
 3810SOL     OW12328   2.053   3.545   6.428
 3810SOL    HW112329   2.140   3.509   6.463
 3810SOL    HW212330   2.001   3.584   6.504
 3811SOL     OW12331   0.682   0.273   6.461
 3811SOL    HW112332   0.710   0.192   6.411
 3811SOL    HW212333   0.760   0.334   6.472
 3812SOL     OW12334   5.201   0.708   5.657
 3812SOL    HW112335   5.142   0.777   5.615
 3812SOL    HW212336   5.151   0.662   5.730
 3813SOL     OW12337   3.892   4.833   1.907
 3813SOL    HW112338   3.794   4.850   1.917
 3813SOL    HW212339   3.907   4.761   1.838
 3814SOL     OW12340   2.027   1.064   1.910
 3814SOL    HW112341   2.023   0.966   1.929
 3814SOL    HW212342   1.936   1.097   1.883
 3815SOL     OW12343   5.396   1.944   2.156
 3815SOL    HW112344   5.296   1.940   2.162
 3815SOL    HW212345   5.422   1.969   2.062
 3816SOL     OW12346   0.091   6.536   1.002
 3816SOL    HW112347   0.148   6.461   0.970
 3816SOL    HW212348   0.020   6.501   1.063
 3817SOL     OW12349   4.939   1.798   5.466
 3817SOL    HW112350   4.969   1.885   5.426
 3817SOL    HW212351   4.980   1.723   5.415
 3818SOL     OW12352   4.603   5.507   3.205
 3818SOL    HW112353   4.683   5.455   3.236
 3818SOL    HW212354   4.582   5.579   3.271
 3819SOL     OW12355   6.136   4.078   5.981
 3819SOL    HW112356   6.073   4.119   6.047
 3819SOL    HW212357   6.161   3.986   6.010
 3820SOL     OW12358   4.985   6.016   3.330
 3820SOL    HW112359   4.924   6.054   3.261
 3820SOL    HW212360   4.957   6.047   3.421
 3821SOL     OW12361   0.016   4.489   1.296
 3821SOL    HW112362   0.001   4.502   1.394
 3821SOL    HW212363   6.948   4.492   1.249
 3822SOL     OW12364   0.502   4.482   1.525
 3822SOL    HW112365   0.543   4.515   1.440
 3822SOL    HW212366   0.409   4.517   1.532
 3823SOL     OW12367   2.686   3.444   5.793
 3823SOL    HW112368   2.723   3.423   5.884
 3823SOL    HW212369   2.759   3.482   5.736
 3824SOL     OW12370   6.899   2.384   6.250
 3824SOL    HW112371   6.959   2.434   6.313
 3824SOL    HW212372   6.808   2.424   6.252
 3825SOL     OW12373   6.543   6.505   5.753
 3825SOL    HW112374   6.528   6.548   5.842
 3825SOL    HW212375   6.626   6.449   5.757
 3826SOL     OW12376   0.083   1.902   1.204
 3826SOL    HW112377   0.113   1.889   1.109
 3826SOL    HW212378   0.113   1.824   1.259
 3827SOL     OW12379   5.837   2.081   1.613
 3827SOL    HW112380   5.935   2.085   1.636
 3827SOL    HW212381   5.794   2.006   1.664
 3828SOL     OW12382   4.260   0.863   1.484
 3828SOL    HW112383   4.338   0.863   1.546
 3828SOL    HW212384   4.175   0.862   1.538
 3829SOL     OW12385   0.789   5.334   3.543
 3829SOL    HW112386   0.767   5.427   3.573
 3829SOL    HW212387   0.835   5.285   3.618
 3830SOL     OW12388   3.111   0.530   5.888
 3830SOL    HW112389   3.102   0.628   5.869
 3830SOL    HW212390   3.198   0.497   5.853
 3831SOL     OW12391   4.818   1.551   2.583
 3831SOL    HW112392   4.811   1.620   2.511
 3831SOL    HW212393   4.763   1.579   2.661
 3832SOL     OW12394   5.387   6.725   2.520
 3832SOL    HW112395   5.359   6.809   2.473
 3832SOL    HW212396   5.407   6.655   2.452
 3833SOL     OW12397   1.565   6.482   1.814
 3833SOL    HW112398   1.474   6.458   1.782
 3833SOL    HW212399   1.579   6.447   1.906
 3834SOL     OW12400   2.805   2.659   0.961
 3834SOL    HW112401   2.831   2.584   0.900
 3834SOL    HW212402   2.878   2.728   0.962
 3835SOL     OW12403   3.805   5.735   3.517
 3835SOL    HW112404   3.843   5.670   3.451
 3835SOL    HW212405   3.773   5.685   3.598
 3836SOL     OW12406   1.824   3.166   5.391
 3836SOL    HW112407   1.779   3.105   5.326
 3836SOL    HW212408   1.797   3.260   5.373
 3837SOL     OW12409   3.197   4.021   0.060
 3837SOL    HW112410   3.296   4.011   0.075
 3837SOL    HW212411   3.169   3.962   7.006
 3838SOL     OW12412   5.681   3.288   5.328
 3838SOL    HW112413   5.694   3.384   5.302
 3838SOL    HW212414   5.685   3.280   5.428
 3839SOL     OW12415   0.669   6.596   6.132
 3839SOL    HW112416   0.617   6.637   6.056
 3839SOL    HW212417   0.753   6.555   6.096
 3840SOL     OW12418   2.502   1.444   3.741
 3840SOL    HW112419   2.434   1.482   3.804
 3840SOL    HW212420   2.501   1.495   3.655
 3841SOL     OW12421   0.726   3.860   4.025
 3841SOL    HW112422   0.734   3.774   3.974
 3841SOL    HW212423   0.729   3.841   4.123
 3842SOL     OW12424   1.689   5.067   0.218
 3842SOL    HW112425   1.773   5.093   0.266
 3842SOL    HW212426   1.696   5.093   0.122
 3843SOL     OW12427   5.952   4.337   0.335
 3843SOL    HW112428   5.904   4.266   0.284
 3843SOL    HW212429   5.914   4.344   0.427
 3844SOL     OW12430   2.600   4.640   5.567
 3844SOL    HW112431   2.650   4.656   5.482
 3844SOL    HW212432   2.502   4.638   5.549
 3845SOL     OW12433   3.228   3.898   3.952
 3845SOL    HW112434   3.278   3.826   3.905
 3845SOL    HW212435   3.168   3.858   4.021
 3846SOL     OW12436   6.851   4.686   4.271
 3846SOL    HW112437   6.917   4.679   4.346
 3846SOL    HW212438   6.851   4.601   4.218
 3847SOL     OW12439   0.933   0.026   1.072
 3847SOL    HW112440   0.885   7.009   1.152
 3847SOL    HW212441   0.987   0.105   1.101
 3848SOL     OW12442   2.959   6.314   1.410
 3848SOL    HW112443   2.864   6.313   1.441
 3848SOL    HW212444   2.961   6.335   1.312
 3849SOL     OW12445   2.509   1.262   5.857
 3849SOL    HW112446   2.418   1.277   5.818
 3849SOL    HW212447   2.511   1.295   5.951
 3850SOL     OW12448   2.020   3.708   1.464
 3850SOL    HW112449   2.078   3.691   1.543
 3850SOL    HW212450   2.043   3.796   1.424
 3851SOL     OW12451   2.788   2.511   1.357
 3851SOL    HW112452   2.748   2.483   1.444
 3851SOL    HW212453   2.716   2.539   1.294
 3852SOL     OW12454   4.436   1.243   5.501
 3852SOL    HW112455   4.464   1.200   5.415
 3852SOL    HW212456   4.336   1.246   5.506
 3853SOL     OW12457   0.794   3.989   1.908
 3853SOL    HW112458   0.846   3.960   1.828
 3853SOL    HW212459   0.718   4.047   1.880
 3854SOL     OW12460   1.639   3.210   4.107
 3854SOL    HW112461   1.589   3.132   4.145
 3854SOL    HW212462   1.594   3.240   4.022
 3855SOL     OW12463   6.756   1.617   4.740
 3855SOL    HW112464   6.684   1.548   4.730
 3855SOL    HW212465   6.843   1.572   4.755
 3856SOL     OW12466   1.527   6.151   5.947
 3856SOL    HW112467   1.617   6.172   5.908
 3856SOL    HW212468   1.490   6.069   5.903
 3857SOL     OW12469   0.786   0.548   6.117
 3857SOL    HW112470   0.879   0.532   6.149
 3857SOL    HW212471   0.742   0.461   6.097
 3858SOL     OW12472   3.145   4.785   6.868
 3858SOL    HW112473   3.085   4.758   6.943
 3858SOL    HW212474   3.092   4.792   6.783
 3859SOL     OW12475   6.067   2.479   2.434
 3859SOL    HW112476   6.060   2.553   2.368
 3859SOL    HW212477   5.987   2.480   2.494
 3860SOL     OW12478   2.256   6.171   4.767
 3860SOL    HW112479   2.327   6.226   4.724
 3860SOL    HW212480   2.295   6.121   4.844
 3861SOL     OW12481   3.556   4.219   0.308
 3861SOL    HW112482   3.494   4.206   0.385
 3861SOL    HW212483   3.578   4.317   0.300
 3862SOL     OW12484   0.892   6.050   5.636
 3862SOL    HW112485   0.905   6.135   5.586
 3862SOL    HW212486   0.968   5.988   5.619
 3863SOL     OW12487   2.907   3.460   0.617
 3863SOL    HW112488   2.934   3.396   0.545
 3863SOL    HW212489   2.986   3.515   0.644
 3864SOL     OW12490   3.381   1.656   1.034
 3864SOL    HW112491   3.398   1.565   0.996
 3864SOL    HW212492   3.327   1.709   0.969
 3865SOL     OW12493   4.373   0.949   2.453
 3865SOL    HW112494   4.312   0.973   2.528
 3865SOL    HW212495   4.320   0.906   2.379
 3866SOL     OW12496   3.437   6.268   6.726
 3866SOL    HW112497   3.417   6.365   6.744
 3866SOL    HW212498   3.532   6.249   6.749
 3867SOL     OW12499   1.698   4.966   3.242
 3867SOL    HW112500   1.752   4.963   3.158
 3867SOL    HW212501   1.757   4.945   3.320
 3868SOL     OW12502   2.240   5.906   2.585
 3868SOL    HW112503   2.317   5.877   2.527
 3868SOL    HW212504   2.226   6.005   2.572
 3869SOL     OW12505   0.649   1.801   3.836
 3869SOL    HW112506   0.690   1.725   3.785
 3869SOL    HW212507   0.682   1.887   3.799
 3870SOL     OW12508   3.626   3.539   0.566
 3870SOL    HW112509   3.670   3.460   0.610
 3870SOL    HW212510   3.622   3.615   0.631
 3871SOL     OW12511   2.834   1.283   5.236
 3871SOL    HW112512   2.930   1.292   5.260
 3871SOL    HW212513   2.823   1.210   5.169
 3872SOL     OW12514   4.273   3.775   1.060
 3872SOL    HW112515   4.238   3.739   1.147
 3872SOL    HW212516   4.208   3.841   1.023
 3873SOL     OW12517   5.704   4.489   1.913
 3873SOL    HW112518   5.717   4.400   1.869
 3873SOL    HW212519   5.776   4.503   1.981
 3874SOL     OW12520   4.525   5.979   5.998
 3874SOL    HW112521   4.528   5.937   6.089
 3874SOL    HW212522   4.572   5.919   5.933
 3875SOL     OW12523   2.276   3.958   0.192
 3875SOL    HW112524   2.346   4.029   0.180
 3875SOL    HW212525   2.320   3.870   0.209
 3876SOL     OW12526   5.797   3.797   2.202
 3876SOL    HW112527   5.866   3.827   2.268
 3876SOL    HW212528   5.708   3.793   2.246
 3877SOL     OW12529   4.787   2.090   2.124
 3877SOL    HW112530   4.826   2.113   2.035
 3877SOL    HW212531   4.702   2.038   2.111
 3878SOL     OW12532   4.852   5.976   4.564
 3878SOL    HW112533   4.815   5.982   4.656
 3878SOL    HW212534   4.940   6.024   4.559
 3879SOL     OW12535   2.754   5.898   0.795
 3879SOL    HW112536   2.758   5.870   0.891
 3879SOL    HW212537   2.733   5.996   0.790
 3880SOL     OW12538   6.600   1.805   4.108
 3880SOL    HW112539   6.686   1.769   4.073
 3880SOL    HW212540   6.619   1.878   4.174
 3881SOL     OW12541   0.409   5.661   6.787
 3881SOL    HW112542   0.366   5.717   6.716
 3881SOL    HW212543   0.340   5.602   6.830
 3882SOL     OW12544   0.012   6.709   6.695
 3882SOL    HW112545   6.965   6.697   6.767
 3882SOL    HW212546   0.081   6.776   6.724
 3883SOL     OW12547   3.758   1.753   0.113
 3883SOL    HW112548   3.795   1.741   0.021
 3883SOL    HW212549   3.721   1.846   0.121
 3884SOL     OW12550   2.106   5.309   5.786
 3884SOL    HW112551   2.070   5.216   5.786
 3884SOL    HW212552   2.153   5.327   5.700
 3885SOL     OW12553   6.918   0.719   3.963
 3885SOL    HW112554   6.974   0.645   4.000
 3885SOL    HW212555   6.910   0.792   4.031
 3886SOL     OW12556   0.303   5.873   4.887
 3886SOL    HW112557   0.339   5.964   4.909
 3886SOL    HW212558   0.292   5.864   4.788
 3887SOL     OW12559   5.332   2.908   5.053
 3887SOL    HW112560   5.357   2.840   4.983
 3887SOL    HW212561   5.363   2.998   5.024
 3888SOL     OW12562   5.576   1.045   2.746
 3888SOL    HW112563   5.612   0.954   2.724
 3888SOL    HW212564   5.512   1.073   2.674
 3889SOL     OW12565   6.175   5.806   6.524
 3889SOL    HW112566   6.237   5.781   6.449
 3889SOL    HW212567   6.211   5.771   6.610
 3890SOL     OW12568   6.449   3.144   3.096
 3890SOL    HW112569   6.547   3.141   3.116
 3890SOL    HW212570   6.416   3.237   3.106
 3891SOL     OW12571   4.477   4.837   6.122
 3891SOL    HW112572   4.406   4.902   6.097
 3891SOL    HW212573   4.487   4.835   6.222
 3892SOL     OW12574   5.815   5.449   3.771
 3892SOL    HW112575   5.906   5.447   3.728
 3892SOL    HW212576   5.775   5.539   3.759
 3893SOL     OW12577   3.140   6.052   4.338
 3893SOL    HW112578   3.186   6.057   4.249
 3893SOL    HW212579   3.121   5.957   4.360
 3894SOL     OW12580   5.809   4.941   6.831
 3894SOL    HW112581   5.813   5.040   6.840
 3894SOL    HW212582   5.819   4.916   6.734
 3895SOL     OW12583   1.730   2.013   6.285
 3895SOL    HW112584   1.810   1.953   6.282
 3895SOL    HW212585   1.716   2.046   6.378
 3896SOL     OW12586   6.476   3.002   0.787
 3896SOL    HW112587   6.553   2.943   0.813
 3896SOL    HW212588   6.464   2.999   0.688
 3897SOL     OW12589   2.931   6.634   3.559
 3897SOL    HW112590   2.866   6.703   3.590
 3897SOL    HW212591   3.021   6.652   3.600
 3898SOL     OW12592   3.263   3.277   3.940
 3898SOL    HW112593   3.192   3.342   3.916
 3898SOL    HW212594   3.243   3.237   4.030
 3899SOL     OW12595   5.083   1.530   6.629
 3899SOL    HW112596   5.052   1.625   6.640
 3899SOL    HW212597   5.113   1.515   6.535
 3900SOL     OW12598   0.794   2.742   3.715
 3900SOL    HW112599   0.840   2.679   3.652
 3900SOL    HW212600   0.722   2.791   3.667
 3901SOL     OW12601   3.361   6.011   5.534
 3901SOL    HW112602   3.413   5.980   5.455
 3901SOL    HW212603   3.398   5.969   5.617
 3902SOL     OW12604   3.872   5.582   3.074
 3902SOL    HW112605   3.936   5.617   3.005
 3902SOL    HW212606   3.907   5.604   3.165
 3903SOL     OW12607   3.760   3.630   5.993
 3903SOL    HW112608   3.801   3.707   6.043
 3903SOL    HW212609   3.830   3.560   5.976
 3904SOL     OW12610   2.184   6.221   6.973
 3904SOL    HW112611   2.190   6.122   6.965
 3904SOL    HW212612   2.274   6.259   6.993
 3905SOL     OW12613   4.697   0.513   5.685
 3905SOL    HW112614   4.657   0.520   5.776
 3905SOL    HW212615   4.637   0.558   5.619
 3906SOL     OW12616   6.760   5.994   4.425
 3906SOL    HW112617   6.784   6.091   4.428
 3906SOL    HW212618   6.661   5.983   4.435
 3907SOL     OW12619   0.544   1.469   4.285
 3907SOL    HW112620   0.525   1.518   4.370
 3907SOL    HW212621   0.643   1.456   4.276
 3908SOL     OW12622   2.220   1.106   4.696
 3908SOL    HW112623   2.128   1.076   4.671
 3908SOL    HW212624   2.283   1.029   4.690
 3909SOL     OW12625   5.954   3.362   2.117
 3909SOL    HW112626   5.949   3.327   2.210
 3909SOL    HW212627   5.976   3.287   2.054
 3910SOL     OW12628   2.219   2.880   1.268
 3910SOL    HW112629   2.309   2.839   1.261
 3910SOL    HW212630   2.224   2.976   1.241
 3911SOL     OW12631   6.974   1.439   1.267
 3911SOL    HW112632   6.966   1.404   1.360
 3911SOL    HW212633   0.026   1.389   1.219
 3912SOL     OW12634   4.737   3.815   0.471
 3912SOL    HW112635   4.819   3.863   0.437
 3912SOL    HW212636   4.660   3.879   0.474
 3913SOL     OW12637   4.041   4.798   1.298
 3913SOL    HW112638   3.966   4.800   1.231
 3913SOL    HW212639   4.092   4.713   1.287
 3914SOL     OW12640   0.555   1.086   0.553
 3914SOL    HW112641   0.475   1.094   0.494
 3914SOL    HW212642   0.528   1.104   0.648
 3915SOL     OW12643   5.616   0.528   5.037
 3915SOL    HW112644   5.601   0.505   5.133
 3915SOL    HW212645   5.671   0.456   4.994
 3916SOL     OW12646   2.071   2.474   2.378
 3916SOL    HW112647   2.075   2.512   2.470
 3916SOL    HW212648   2.001   2.523   2.325
 3917SOL     OW12649   4.600   5.367   2.453
 3917SOL    HW112650   4.547   5.451   2.458
 3917SOL    HW212651   4.571   5.314   2.373
 3918SOL     OW12652   3.781   6.776   1.412
 3918SOL    HW112653   3.811   6.867   1.439
 3918SOL    HW212654   3.760   6.776   1.314
 3919SOL     OW12655   5.262   5.333   3.072
 3919SOL    HW112656   5.305   5.421   3.053
 3919SOL    HW212657   5.163   5.342   3.059
 3920SOL     OW12658   4.452   1.382   6.032
 3920SOL    HW112659   4.372   1.369   6.089
 3920SOL    HW212660   4.447   1.470   5.984
 3921SOL     OW12661   1.571   2.788   6.121
 3921SOL    HW112662   1.618   2.830   6.199
 3921SOL    HW212663   1.483   2.751   6.151
 3922SOL     OW12664   5.530   2.530   4.195
 3922SOL    HW112665   5.580   2.608   4.157
 3922SOL    HW212666   5.503   2.468   4.121
 3923SOL     OW12667   5.999   0.529   1.104
 3923SOL    HW112668   5.961   0.516   1.013
 3923SOL    HW212669   6.055   0.451   1.129
 3924SOL     OW12670   5.216   4.717   3.992
 3924SOL    HW112671   5.174   4.793   3.942
 3924SOL    HW212672   5.145   4.653   4.020
 3925SOL     OW12673   3.371   5.044   1.615
 3925SOL    HW112674   3.457   4.998   1.635
 3925SOL    HW212675   3.362   5.057   1.516
 3926SOL     OW12676   1.452   5.861   5.514
 3926SOL    HW112677   1.541   5.854   5.470
 3926SOL    HW212678   1.425   5.771   5.549
 3927SOL     OW12679   6.082   6.838   5.412
 3927SOL    HW112680   6.156   6.902   5.432
 3927SOL    HW212681   6.120   6.755   5.371
 3928SOL     OW12682   4.795   5.583   2.587
 3928SOL    HW112683   4.782   5.522   2.508
 3928SOL    HW212684   4.826   5.672   2.555
 3929SOL     OW12685   1.574   1.157   5.293
 3929SOL    HW112686   1.533   1.084   5.347
 3929SOL    HW212687   1.502   1.209   5.248
 3930SOL     OW12688   2.508   6.127   4.231
 3930SOL    HW112689   2.465   6.036   4.225
 3930SOL    HW212690   2.588   6.129   4.170
 3931SOL     OW12691   0.319   2.252   0.103
 3931SOL    HW112692   0.379   2.262   0.024
 3931SOL    HW212693   0.244   2.318   0.097
 3932SOL     OW12694   2.182   3.835   2.695
 3932SOL    HW112695   2.159   3.770   2.622
 3932SOL    HW212696   2.175   3.928   2.660
 3933SOL     OW12697   1.660   6.827   1.750
 3933SOL    HW112698   1.630   6.816   1.655
 3933SOL    HW212699   1.588   6.872   1.803
 3934SOL     OW12700   1.695   6.834   2.243
 3934SOL    HW112701   1.757   6.863   2.169
 3934SOL    HW212702   1.656   6.915   2.287
 3935SOL     OW12703   0.612   1.302   4.645
 3935SOL    HW112704   0.666   1.385   4.637
 3935SOL    HW212705   0.660   1.236   4.703
 3936SOL     OW12706   6.296   4.144   3.898
 3936SOL    HW112707   6.343   4.171   3.814
 3936SOL    HW212708   6.197   4.156   3.886
 3937SOL     OW12709   0.956   6.545   0.305
 3937SOL    HW112710   1.053   6.571   0.301
 3937SOL    HW212711   0.919   6.571   0.394
 3938SOL     OW12712   0.820   4.217   6.662
 3938SOL    HW112713   0.877   4.194   6.583
 3938SOL    HW212714   0.757   4.142   6.681
 3939SOL     OW12715   2.261   6.470   4.103
 3939SOL    HW112716   2.304   6.535   4.041
 3939SOL    HW212717   2.245   6.383   4.056
 3940SOL     OW12718   2.330   6.275   6.702
 3940SOL    HW112719   2.256   6.249   6.640
 3940SOL    HW212720   2.292   6.317   6.784
 3941SOL     OW12721   5.745   5.295   2.508
 3941SOL    HW112722   5.719   5.198   2.503
 3941SOL    HW212723   5.668   5.349   2.542
 3942SOL     OW12724   6.884   6.182   6.448
 3942SOL    HW112725   6.867   6.247   6.522
 3942SOL    HW212726   6.812   6.189   6.380
 3943SOL     OW12727   1.085   4.175   0.312
 3943SOL    HW112728   1.058   4.112   0.240
 3943SOL    HW212729   1.085   4.268   0.276
 3944SOL     OW12730   4.810   3.300   6.824
 3944SOL    HW112731   4.840   3.281   6.918
 3944SOL    HW212732   4.766   3.390   6.821
 3945SOL     OW12733   6.862   0.669   3.083
 3945SOL    HW112734   6.775   0.619   3.080
 3945SOL    HW212735   6.876   0.706   3.174
 3946SOL     OW12736   6.126   1.885   1.297
 3946SOL    HW112737   6.187   1.809   1.272
 3946SOL    HW212738   6.178   1.953   1.348
 3947SOL     OW12739   5.614   6.658   2.191
 3947SOL    HW112740   5.653   6.640   2.100
 3947SOL    HW212741   5.575   6.750   2.192
 3948SOL     OW12742   2.040   1.411   4.984
 3948SOL    HW112743   2.077   1.321   4.963
 3948SOL    HW212744   2.116   1.473   5.008
 3949SOL     OW12745   6.393   0.094   2.526
 3949SOL    HW112746   6.399   7.019   2.499
 3949SOL    HW212747   6.298   0.117   2.549
 3950SOL     OW12748   2.673   4.686   1.032
 3950SOL    HW112749   2.721   4.730   1.108
 3950SOL    HW212750   2.665   4.751   0.956
 3951SOL     OW12751   6.838   2.736   3.457
 3951SOL    HW112752   6.886   2.680   3.389
 3951SOL    HW212753   6.751   2.768   3.417
 3952SOL     OW12754   6.064   4.595   6.974
 3952SOL    HW112755   6.076   4.537   0.034
 3952SOL    HW212756   6.153   4.607   6.929
 3953SOL     OW12757   3.597   3.339   5.709
 3953SOL    HW112758   3.594   3.439   5.704
 3953SOL    HW212759   3.657   3.304   5.637
 3954SOL     OW12760   1.249   3.679   5.560
 3954SOL    HW112761   1.160   3.661   5.518
 3954SOL    HW212762   1.316   3.614   5.523
 3955SOL     OW12763   5.840   3.459   0.191
 3955SOL    HW112764   5.744   3.445   0.216
 3955SOL    HW212765   5.891   3.374   0.203
 3956SOL     OW12766   6.761   2.390   4.927
 3956SOL    HW112767   6.843   2.448   4.920
 3956SOL    HW212768   6.680   2.448   4.933
 3957SOL     OW12769   1.317   2.510   1.948
 3957SOL    HW112770   1.368   2.575   1.892
 3957SOL    HW212771   1.291   2.431   1.893
 3958SOL     OW12772   5.464   5.625   1.303
 3958SOL    HW112773   5.375   5.591   1.273
 3958SOL    HW212774   5.497   5.569   1.380
 3959SOL     OW12775   2.809   5.045   1.778
 3959SOL    HW112776   2.805   4.956   1.733
 3959SOL    HW212777   2.726   5.098   1.756
 3960SOL     OW12778   6.072   2.235   0.651
 3960SOL    HW112779   6.060   2.273   0.560
 3960SOL    HW212780   5.994   2.177   0.674
 3961SOL     OW12781   6.972   1.252   0.945
 3961SOL    HW112782   6.934   1.182   1.006
 3961SOL    HW212783   6.984   1.213   0.854
 3962SOL     OW12784   7.010   6.952   6.330
 3962SOL    HW112785   7.013   6.917   6.237
 3962SOL    HW212786   0.073   7.003   6.350
 3963SOL     OW12787   5.254   3.896   4.365
 3963SOL    HW112788   5.216   3.894   4.458
 3963SOL    HW212789   5.334   3.837   4.360
 3964SOL     OW12790   6.130   4.842   0.406
 3964SOL    HW112791   6.106   4.832   0.503
 3964SOL    HW212792   6.178   4.760   0.375
 3965SOL     OW12793   2.660   4.061   1.389
 3965SOL    HW112794   2.708   4.147   1.375
 3965SOL    HW212795   2.678   4.027   1.482
 3966SOL     OW12796   6.947   3.200   5.779
 3966SOL    HW112797   6.925   3.244   5.866
 3966SOL    HW212798   6.862   3.174   5.733
 3967SOL     OW12799   2.610   6.408   0.300
 3967SOL    HW112800   2.586   6.349   0.222
 3967SOL    HW212801   2.542   6.397   0.372
 3968SOL     OW12802   4.460   2.397   0.647
 3968SOL    HW112803   4.537   2.380   0.709
 3968SOL    HW212804   4.392   2.453   0.694
 3969SOL     OW12805   6.405   6.675   0.666
 3969SOL    HW112806   6.441   6.591   0.706
 3969SOL    HW212807   6.465   6.705   0.592
 3970SOL     OW12808   5.902   4.314   4.223
 3970SOL    HW112809   5.930   4.410   4.223
 3970SOL    HW212810   5.879   4.286   4.130
 3971SOL     OW12811   0.768   5.788   4.127
 3971SOL    HW112812   0.705   5.833   4.063
 3971SOL    HW212813   0.779   5.845   4.208
 3972SOL     OW12814   1.037   0.508   6.232
 3972SOL    HW112815   1.049   0.411   6.211
 3972SOL    HW212816   1.119   0.558   6.203
 3973SOL     OW12817   4.027   3.146   2.400
 3973SOL    HW112818   4.034   3.058   2.353
 3973SOL    HW212819   3.930   3.171   2.409
 3974SOL     OW12820   5.044   0.915   6.608
 3974SOL    HW112821   5.094   0.984   6.557
 3974SOL    HW212822   4.988   0.959   6.678
 3975SOL     OW12823   0.389   6.594   4.470
 3975SOL    HW112824   0.371   6.599   4.569
 3975SOL    HW212825   0.323   6.533   4.427
 3976SOL     OW12826   0.920   2.893   5.551
 3976SOL    HW112827   1.003   2.947   5.542
 3976SOL    HW212828   0.945   2.798   5.570
 3977SOL     OW12829   2.997   4.966   5.665
 3977SOL    HW112830   3.012   4.937   5.760
 3977SOL    HW212831   2.930   5.040   5.663
 3978SOL     OW12832   5.027   2.962   6.485
 3978SOL    HW112833   5.074   2.938   6.571
 3978SOL    HW212834   5.072   3.040   6.443
 3979SOL     OW12835   1.264   5.843   3.191
 3979SOL    HW112836   1.258   5.839   3.291
 3979SOL    HW212837   1.326   5.771   3.159
 3980SOL     OW12838   4.870   3.961   4.445
 3980SOL    HW112839   4.875   3.877   4.499
 3980SOL    HW212840   4.841   3.940   4.352
 3981SOL     OW12841   0.091   1.086   6.365
 3981SOL    HW112842   0.115   1.058   6.272
 3981SOL    HW212843   7.020   1.126   6.365
 3982SOL     OW12844   2.043   3.356   4.359
 3982SOL    HW112845   2.068   3.337   4.454
 3982SOL    HW212846   2.057   3.454   4.340
 3983SOL     OW12847   2.812   0.330   3.581
 3983SOL    HW112848   2.889   0.349   3.642
 3983SOL    HW212849   2.801   0.405   3.516
 3984SOL     OW12850   1.416   5.739   2.207
 3984SOL    HW112851   1.499   5.761   2.258
 3984SOL    HW212852   1.437   5.671   2.136
 3985SOL     OW12853   1.665   2.851   1.567
 3985SOL    HW112854   1.629   2.808   1.484
 3985SOL    HW212855   1.597   2.914   1.603
 3986SOL     OW12856   6.827   2.324   2.759
 3986SOL    HW112857   6.906   2.316   2.819
 3986SOL    HW212858   6.818   2.240   2.704
 3987SOL     OW12859   0.762   4.196   5.301
 3987SOL    HW112860   0.711   4.271   5.258
 3987SOL    HW212861   0.705   4.113   5.301
 3988SOL     OW12862   5.386   6.996   1.904
 3988SOL    HW112863   5.351   6.950   1.986
 3988SOL    HW212864   5.346   0.067   1.897
 3989SOL     OW12865   4.615   1.129   5.663
 3989SOL    HW112866   4.710   1.144   5.638
 3989SOL    HW212867   4.556   1.155   5.586
 3990SOL     OW12868   6.046   0.613   4.163
 3990SOL    HW112869   6.026   0.684   4.230
 3990SOL    HW212870   5.997   0.633   4.078
 3991SOL     OW12871   6.532   2.167   3.350
 3991SOL    HW112872   6.558   2.230   3.423
 3991SOL    HW212873   6.446   2.120   3.375
 3992SOL     OW12874   5.501   3.673   5.926
 3992SOL    HW112875   5.415   3.672   5.976
 3992SOL    HW212876   5.489   3.724   5.840
 3993SOL     OW12877   1.370   0.602   3.969
 3993SOL    HW112878   1.400   0.567   4.058
 3993SOL    HW212879   1.429   0.678   3.943
 3994SOL     OW12880   2.749   2.023   3.775
 3994SOL    HW112881   2.756   1.924   3.784
 3994SOL    HW212882   2.835   2.065   3.802
 3995SOL     OW12883   1.355   3.192   1.853
 3995SOL    HW112884   1.320   3.209   1.945
 3995SOL    HW212885   1.380   3.279   1.810
 3996SOL     OW12886   6.803   6.478   4.902
 3996SOL    HW112887   6.729   6.516   4.958
 3996SOL    HW212888   6.830   6.390   4.940
 3997SOL     OW12889   5.755   3.947   4.595
 3997SOL    HW112890   5.730   3.907   4.683
 3997SOL    HW212891   5.845   3.912   4.568
 3998SOL     OW12892   4.694   1.809   3.850
 3998SOL    HW112893   4.666   1.765   3.765
 3998SOL    HW212894   4.765   1.877   3.831
 3999SOL     OW12895   5.032   2.622   0.871
 3999SOL    HW112896   5.029   2.568   0.955
 3999SOL    HW212897   5.126   2.651   0.854
 4000SOL     OW12898   2.056   4.684   2.707
 4000SOL    HW112899   2.130   4.697   2.641
 4000SOL    HW212900   2.043   4.768   2.760
 4001SOL     OW12901   0.675   5.976   4.535
 4001SOL    HW112902   0.763   5.969   4.490
 4001SOL    HW212903   0.688   5.978   4.634
 4002SOL     OW12904   3.853   3.471   4.511
 4002SOL    HW112905   3.913   3.526   4.568
 4002SOL    HW212906   3.848   3.378   4.548
 4003SOL     OW12907   2.657   1.013   4.689
 4003SOL    HW112908   2.701   0.946   4.748
 4003SOL    HW212909   2.662   1.103   4.732
 4004SOL     OW12910   1.955   3.920   4.790
 4004SOL    HW112911   1.968   3.945   4.886
 4004SOL    HW212912   2.022   3.850   4.765
 4005SOL     OW12913   5.510   2.942   0.757
 4005SOL    HW112914   5.476   2.877   0.825
 4005SOL    HW212915   5.454   2.935   0.674
 4006SOL     OW12916   6.964   5.956   1.895
 4006SOL    HW112917   6.959   5.927   1.800
 4006SOL    HW212918   0.037   5.944   1.929
 4007SOL     OW12919   0.512   1.406   2.026
 4007SOL    HW112920   0.578   1.481   2.040
 4007SOL    HW212921   0.536   1.329   2.085
 4008SOL     OW12922   4.013   0.762   1.566
 4008SOL    HW112923   4.062   0.686   1.524
 4008SOL    HW212924   3.915   0.744   1.564
 4009SOL     OW12925   3.856   2.373   1.115
 4009SOL    HW112926   3.865   2.471   1.134
 4009SOL    HW212927   3.867   2.321   1.200
 4010SOL     OW12928   1.883   4.746   1.153
 4010SOL    HW112929   1.969   4.763   1.202
 4010SOL    HW212930   1.846   4.832   1.120
 4011SOL     OW12931   6.551   6.766   5.925
 4011SOL    HW112932   6.559   6.790   5.828
 4011SOL    HW212933   6.455   6.767   5.952
 4012SOL     OW12934   5.681   5.475   1.880
 4012SOL    HW112935   5.687   5.380   1.848
 4012SOL    HW212936   5.641   5.476   1.972
 4013SOL     OW12937   0.120   1.794   0.050
 4013SOL    HW112938   0.163   1.856   0.115
 4013SOL    HW212939   0.126   1.831   6.978
 4014SOL     OW12940   3.456   5.938   2.659
 4014SOL    HW112941   3.386   5.868   2.649
 4014SOL    HW212942   3.461   5.968   2.755
 4015SOL     OW12943   4.037   6.200   5.155
 4015SOL    HW112944   3.947   6.161   5.172
 4015SOL    HW212945   4.076   6.232   5.242
 4016SOL     OW12946   4.926   5.469   4.341
 4016SOL    HW112947   5.009   5.480   4.395
 4016SOL    HW212948   4.939   5.509   4.250
 4017SOL     OW12949   2.211   5.690   6.121
 4017SOL    HW112950   2.160   5.765   6.078
 4017SOL    HW212951   2.172   5.602   6.093
 4018SOL     OW12952   4.227   5.448   1.192
 4018SOL    HW112953   4.320   5.471   1.219
 4018SOL    HW212954   4.227   5.361   1.143
 4019SOL     OW12955   6.938   2.657   2.431
 4019SOL    HW112956   6.918   2.577   2.487
 4019SOL    HW212957   6.919   2.740   2.484
 4020SOL     OW12958   6.913   5.765   4.447
 4020SOL    HW112959   6.867   5.853   4.461
 4020SOL    HW212960   6.903   5.737   4.352
 4021SOL     OW12961   4.720   5.202   6.071
 4021SOL    HW112962   4.805   5.250   6.090
 4021SOL    HW212963   4.728   5.107   6.100
 4022SOL     OW12964   3.395   0.238   1.362
 4022SOL    HW112965   3.460   0.220   1.288
 4022SOL    HW212966   3.437   0.214   1.450
 4023SOL     OW12967   0.255   1.911   4.106
 4023SOL    HW112968   0.259   1.854   4.188
 4023SOL    HW212969   0.221   1.857   4.029
 4024SOL     OW12970   0.324   6.340   6.188
 4024SOL    HW112971   0.359   6.303   6.274
 4024SOL    HW212972   0.385   6.315   6.113
 4025SOL     OW12973   6.662   4.817   4.038
 4025SOL    HW112974   6.585   4.878   4.061
 4025SOL    HW212975   6.742   4.842   4.092
 4026SOL     OW12976   0.509   7.010   4.193
 4026SOL    HW112977   0.590   0.035   4.156
 4026SOL    HW212978   0.493   6.925   4.144
 4027SOL     OW12979   2.979   5.269   5.423
 4027SOL    HW112980   2.958   5.366   5.408
 4027SOL    HW212981   2.908   5.213   5.380
 4028SOL     OW12982   5.520   1.779   4.582
 4028SOL    HW112983   5.553   1.694   4.623
 4028SOL    HW212984   5.420   1.784   4.589
 4029SOL     OW12985   0.855   6.895   0.580
 4029SOL    HW112986   0.897   6.905   0.671
 4029SOL    HW212987   0.907   6.949   0.514
 4030SOL     OW12988   0.376   1.976   1.975
 4030SOL    HW112989   0.444   1.913   1.937
 4030SOL    HW212990   0.418   2.066   1.988
 4031SOL     OW12991   5.940   5.685   0.511
 4031SOL    HW112992   5.926   5.612   0.578
 4031SOL    HW212993   5.997   5.651   0.436
 4032SOL     OW12994   5.251   1.666   3.057
 4032SOL    HW112995   5.278   1.570   3.053
 4032SOL    HW212996   5.318   1.721   3.006
 4033SOL     OW12997   1.846   3.391   2.936
 4033SOL    HW112998   1.796   3.332   2.873
 4033SOL    HW212999   1.862   3.480   2.893
 4034SOL     OW13000   1.474   2.518   4.399
 4034SOL    HW113001   1.394   2.483   4.350
 4034SOL    HW213002   1.475   2.618   4.394
 4035SOL     OW13003   4.287   2.344   1.714
 4035SOL    HW113004   4.270   2.330   1.812
 4035SOL    HW213005   4.207   2.318   1.662
 4036SOL     OW13006   4.006   6.299   3.249
 4036SOL    HW113007   3.987   6.390   3.210
 4036SOL    HW213008   4.062   6.309   3.331
 4037SOL     OW13009   1.911   2.336   6.586
 4037SOL    HW113010   2.003   2.354   6.550
 4037SOL    HW213011   1.860   2.422   6.591
 4038SOL     OW13012   3.254   4.963   5.846
 4038SOL    HW113013   3.349   4.967   5.815
 4038SOL    HW213014   3.213   5.054   5.837
 4039SOL     OW13015   6.109   4.551   1.820
 4039SOL    HW113016   6.111   4.569   1.722
 4039SOL    HW213017   6.160   4.467   1.840
 4040SOL     OW13018   3.601   0.545   5.071
 4040SOL    HW113019   3.610   0.461   5.123
 4040SOL    HW213020   3.684   0.600   5.081
 4041SOL     OW13021   1.223   5.787   1.747
 4041SOL    HW113022   1.318   5.792   1.780
 4041SOL    HW213023   1.195   5.692   1.740
 4042SOL     OW13024   0.080   1.753   3.170
 4042SOL    HW113025   0.098   1.728   3.266
 4042SOL    HW213026   0.037   1.844   3.168
 4043SOL     OW13027   4.432   2.011   5.948
 4043SOL    HW113028   4.348   1.960   5.932
 4043SOL    HW213029   4.424   2.103   5.910
 4044SOL     OW13030   4.437   4.598   3.279
 4044SOL    HW113031   4.459   4.542   3.199
 4044SOL    HW213032   4.482   4.559   3.359
 4045SOL     OW13033   4.548   1.493   5.357
 4045SOL    HW113034   4.540   1.394   5.343
 4045SOL    HW213035   4.517   1.540   5.274
 4046SOL     OW13036   5.044   1.585   4.241
 4046SOL    HW113037   5.136   1.548   4.248
 4046SOL    HW213038   5.019   1.631   4.326
 4047SOL     OW13039   3.536   2.457   6.622
 4047SOL    HW113040   3.524   2.420   6.715
 4047SOL    HW213041   3.552   2.382   6.558
 4048SOL     OW13042   4.973   2.086   3.510
 4048SOL    HW113043   4.962   2.005   3.452
 4048SOL    HW213044   4.954   2.062   3.605
 4049SOL     OW13045   4.290   3.971   1.327
 4049SOL    HW113046   4.316   3.915   1.406
 4049SOL    HW213047   4.295   4.068   1.352
 4050SOL     OW13048   6.909   4.893   2.626
 4050SOL    HW113049   6.953   4.871   2.539
 4050SOL    HW213050   6.977   4.932   2.688
 4051SOL     OW13051   5.392   0.418   4.917
 4051SOL    HW113052   5.305   0.466   4.924
 4051SOL    HW213053   5.466   0.477   4.947
 4052SOL     OW13054   4.963   1.696   4.492
 4052SOL    HW113055   4.906   1.619   4.521
 4052SOL    HW213056   4.906   1.767   4.452
 4053SOL     OW13057   0.849   5.222   3.800
 4053SOL    HW113058   0.815   5.279   3.874
 4053SOL    HW213059   0.802   5.134   3.801
 4054SOL     OW13060   4.671   3.612   1.283
 4054SOL    HW113061   4.744   3.679   1.265
 4054SOL    HW213062   4.613   3.604   1.202
 4055SOL     OW13063   6.941   4.340   0.148
 4055SOL    HW113064   6.927   4.298   0.238
 4055SOL    HW213065   7.017   4.406   0.154
 4056SOL     OW13066   5.165   3.173   6.855
 4056SOL    HW113067   5.125   3.265   6.845
 4056SOL    HW213068   5.193   3.160   6.950
 4057SOL     OW13069   0.031   3.601   6.715
 4057SOL    HW113070   0.117   3.551   6.712
 4057SOL    HW213071   0.044   3.691   6.672
 4058SOL     OW13072   3.467   0.150   4.337
 4058SOL    HW113073   3.489   0.151   4.240
 4058SOL    HW213074   3.385   0.204   4.354
 4059SOL     OW13075   0.774   1.370   3.906
 4059SOL    HW113076   0.723   1.449   3.941
 4059SOL    HW213077   0.722   1.328   3.832
 4060SOL     OW13078   0.271   6.163   4.450
 4060SOL    HW113079   0.275   6.232   4.377
 4060SOL    HW213080   0.295   6.207   4.537
 4061SOL     OW13081   0.483   4.641   1.973
 4061SOL    HW113082   0.399   4.694   1.983
 4061SOL    HW213083   0.526   4.663   1.886
 4062SOL     OW13084   1.925   3.754   0.429
 4062SOL    HW113085   1.995   3.823   0.409
 4062SOL    HW213086   1.841   3.799   0.458
 4063SOL     OW13087   3.797   0.630   0.930
 4063SOL    HW113088   3.822   0.538   0.898
 4063SOL    HW213089   3.775   0.625   1.028
 4064SOL     OW13090   2.228   1.118   5.971
 4064SOL    HW113091   2.186   1.167   5.894
 4064SOL    HW213092   2.315   1.077   5.942
 4065SOL     OW13093   2.599   1.450   1.719
 4065SOL    HW113094   2.585   1.400   1.634
 4065SOL    HW213095   2.520   1.437   1.779
 4066SOL     OW13096   0.470   4.175   4.042
 4066SOL    HW113097   0.551   4.161   3.986
 4066SOL    HW213098   0.486   4.249   4.107
 4067SOL     OW13099   6.743   4.687   0.764
 4067SOL    HW113100   6.753   4.590   0.745
 4067SOL    HW213101   6.785   4.740   0.691
 4068SOL     OW13102   2.199   2.711   5.050
 4068SOL    HW113103   2.195   2.667   4.960
 4068SOL    HW213104   2.289   2.752   5.064
 4069SOL     OW13105   4.952   6.498   5.813
 4069SOL    HW113106   5.050   6.489   5.833
 4069SOL    HW213107   4.904   6.530   5.895
 4070SOL     OW13108   1.357   3.419   4.152
 4070SOL    HW113109   1.334   3.516   4.146
 4070SOL    HW213110   1.433   3.399   4.090
 4071SOL     OW13111   1.714   1.128   4.679
 4071SOL    HW113112   1.643   1.098   4.742
 4071SOL    HW213113   1.714   1.228   4.673
 4072SOL     OW13114   2.979   6.385   2.311
 4072SOL    HW113115   2.936   6.470   2.282
 4072SOL    HW213116   2.909   6.314   2.321
 4073SOL     OW13117   3.843   5.033   6.963
 4073SOL    HW113118   3.803   4.973   6.894
 4073SOL    HW213119   3.782   5.110   6.980
 4074SOL     OW13120   1.496   5.468   2.354
 4074SOL    HW113121   1.452   5.558   2.343
 4074SOL    HW213122   1.576   5.463   2.294
 4075SOL     OW13123   6.092   1.277   0.232
 4075SOL    HW113124   6.091   1.376   0.244
 4075SOL    HW213125   6.185   1.247   0.212
 4076SOL     OW13126   2.330   5.639   3.642
 4076SOL    HW113127   2.241   5.667   3.679
 4076SOL    HW213128   2.393   5.716   3.645
 4077SOL     OW13129   3.362   1.301   1.479
 4077SOL    HW113130   3.275   1.343   1.505
 4077SOL    HW213131   3.414   1.278   1.562
 4078SOL     OW13132   3.716   4.865   2.250
 4078SOL    HW113133   3.634   4.921   2.258
 4078SOL    HW213134   3.709   4.807   2.168
 4079SOL     OW13135   0.030   2.072   4.103
 4079SOL    HW113136   0.117   2.025   4.085
 4079SOL    HW213137   6.983   2.006   4.137
 4080SOL     OW13138   6.790   2.122   5.039
 4080SOL    HW113139   6.778   2.209   4.992
 4080SOL    HW213140   6.771   2.047   4.975
 4081SOL     OW13141   0.882   3.862   3.371
 4081SOL    HW113142   0.890   3.927   3.296
 4081SOL    HW213143   0.968   3.859   3.422
 4082SOL     OW13144   0.599   3.586   6.758
 4082SOL    HW113145   0.698   3.603   6.767
 4082SOL    HW213146   0.583   3.487   6.756
 4083SOL     OW13147   6.808   2.776   5.332
 4083SOL    HW113148   6.809   2.779   5.232
 4083SOL    HW213149   6.714   2.763   5.364
 4084SOL     OW13150   6.354   1.095   4.412
 4084SOL    HW113151   6.392   1.026   4.350
 4084SOL    HW213152   6.257   1.076   4.426
 4085SOL     OW13153   2.616   5.869   0.275
 4085SOL    HW113154   2.641   5.931   0.350
 4085SOL    HW213155   2.550   5.914   0.215
 4086SOL     OW13156   1.564   4.088   1.321
 4086SOL    HW113157   1.621   4.009   1.344
 4086SOL    HW213158   1.489   4.058   1.261
 4087SOL     OW13159   2.271   1.670   2.596
 4087SOL    HW113160   2.217   1.595   2.558
 4087SOL    HW213161   2.210   1.741   2.632
 4088SOL     OW13162   6.684   1.703   0.244
 4088SOL    HW113163   6.663   1.644   0.322
 4088SOL    HW213164   6.783   1.715   0.238
 4089SOL     OW13165   1.050   1.571   5.138
 4089SOL    HW113166   1.126   1.568   5.203
 4089SOL    HW213167   1.086   1.585   5.046
 4090SOL     OW13168   3.126   4.715   6.383
 4090SOL    HW113169   3.184   4.790   6.416
 4090SOL    HW213170   3.039   4.753   6.351
 4091SOL     OW13171   4.138   0.308   1.129
 4091SOL    HW113172   4.227   0.354   1.121
 4091SOL    HW213173   4.125   0.249   1.049
 4092SOL     OW13174   6.758   1.492   3.999
 4092SOL    HW113175   6.820   1.424   3.961
 4092SOL    HW213176   6.781   1.582   3.963
 4093SOL     OW13177   5.685   6.895   4.539
 4093SOL    HW113178   5.658   6.803   4.510
 4093SOL    HW213179   5.784   6.905   4.529
 4094SOL     OW13180   3.548   4.381   5.448
 4094SOL    HW113181   3.460   4.422   5.422
 4094SOL    HW213182   3.621   4.448   5.435
 4095SOL     OW13183   1.777   3.478   5.820
 4095SOL    HW113184   1.713   3.553   5.810
 4095SOL    HW213185   1.805   3.446   5.729
 4096SOL     OW13186   4.546   4.716   2.175
 4096SOL    HW113187   4.607   4.768   2.235
 4096SOL    HW213188   4.583   4.715   2.082
 4097SOL     OW13189   3.932   3.926   3.558
 4097SOL    HW113190   3.965   3.837   3.527
 4097SOL    HW213191   3.913   3.983   3.478
 4098SOL     OW13192   0.646   3.580   2.340
 4098SOL    HW113193   0.649   3.480   2.342
 4098SOL    HW213194   0.677   3.612   2.251
 4099SOL     OW13195   2.421   6.072   2.031
 4099SOL    HW113196   2.352   6.011   2.070
 4099SOL    HW213197   2.435   6.149   2.092
 4100SOL     OW13198   3.697   6.556   3.180
 4100SOL    HW113199   3.627   6.556   3.109
 4100SOL    HW213200   3.666   6.499   3.257
 4101SOL     OW13201   4.483   1.270   0.366
 4101SOL    HW113202   4.570   1.308   0.400
 4101SOL    HW213203   4.502   1.199   0.299
 4102SOL     OW13204   5.321   1.584   0.493
 4102SOL    HW113205   5.353   1.619   0.581
 4102SOL    HW213206   5.356   1.643   0.420
 4103SOL     OW13207   0.545   6.929   2.227
 4103SOL    HW113208   0.527   6.956   2.322
 4103SOL    HW213209   0.603   6.997   2.183
 4104SOL     OW13210   1.997   4.913   2.884
 4104SOL    HW113211   2.095   4.910   2.904
 4104SOL    HW213212   1.980   4.981   2.812
 4105SOL     OW13213   6.109   5.058   0.254
 4105SOL    HW113214   6.197   5.078   0.210
 4105SOL    HW213215   6.120   4.986   0.321
 4106SOL     OW13216   7.013   3.511   4.445
 4106SOL    HW113217   6.945   3.582   4.424
 4106SOL    HW213218   6.973   3.443   4.506
 4107SOL     OW13219   6.576   0.548   0.363
 4107SOL    HW113220   6.669   0.563   0.330
 4107SOL    HW213221   6.524   0.498   0.293
 4108SOL     OW13222   6.550   2.571   4.959
 4108SOL    HW113223   6.469   2.580   5.018
 4108SOL    HW213224   6.521   2.568   4.863
 4109SOL     OW13225   2.984   6.400   3.793
 4109SOL    HW113226   2.910   6.420   3.857
 4109SOL    HW213227   2.983   6.468   3.720
 4110SOL     OW13228   4.608   3.142   5.490
 4110SOL    HW113229   4.651   3.054   5.472
 4110SOL    HW213230   4.578   3.147   5.585
 4111SOL     OW13231   3.863   3.389   6.357
 4111SOL    HW113232   3.867   3.481   6.316
 4111SOL    HW213233   3.933   3.331   6.315
 4112SOL     OW13234   4.208   0.290   4.926
 4112SOL    HW113235   4.223   0.320   5.021
 4112SOL    HW213236   4.116   0.254   4.916
 4113SOL     OW13237   3.970   5.227   4.968
 4113SOL    HW113238   3.930   5.189   4.885
 4113SOL    HW213239   3.961   5.326   4.967
 4114SOL     OW13240   3.774   2.146   2.461
 4114SOL    HW113241   3.710   2.078   2.427
 4114SOL    HW213242   3.742   2.238   2.435
 4115SOL     OW13243   5.521   4.706   2.159
 4115SOL    HW113244   5.515   4.608   2.176
 4115SOL    HW213245   5.439   4.751   2.194
 4116SOL     OW13246   3.433   0.833   2.401
 4116SOL    HW113247   3.351   0.805   2.351
 4116SOL    HW213248   3.485   0.898   2.345
 4117SOL     OW13249   0.485   5.720   1.659
 4117SOL    HW113250   0.565   5.779   1.675
 4117SOL    HW213251   0.497   5.634   1.708
 4118SOL     OW13252   2.423   6.826   0.077
 4118SOL    HW113253   2.338   6.776   0.093
 4118SOL    HW213254   2.453   6.812   7.003
 4119SOL     OW13255   4.900   1.137   3.402
 4119SOL    HW113256   4.892   1.125   3.501
 4119SOL    HW213257   4.861   1.225   3.377
 4120SOL     OW13258   4.849   1.179   2.254
 4120SOL    HW113259   4.916   1.144   2.319
 4120SOL    HW213260   4.763   1.196   2.301
 4121SOL     OW13261   6.743   2.229   4.713
 4121SOL    HW113262   6.743   2.284   4.630
 4121SOL    HW213263   6.741   2.289   4.793
 4122SOL     OW13264   1.764   5.563   0.275
 4122SOL    HW113265   1.690   5.578   0.210
 4122SOL    HW213266   1.734   5.498   0.345
 4123SOL     OW13267   4.222   4.282   6.058
 4123SOL    HW113268   4.319   4.275   6.036
 4123SOL    HW213269   4.167   4.241   5.985
 4124SOL     OW13270   4.305   6.335   3.465
 4124SOL    HW113271   4.265   6.295   3.547
 4124SOL    HW213272   4.398   6.367   3.486
 4125SOL     OW13273   5.392   1.215   1.337
 4125SOL    HW113274   5.416   1.183   1.245
 4125SOL    HW213275   5.301   1.258   1.334
 4126SOL     OW13276   2.333   5.176   4.424
 4126SOL    HW113277   2.351   5.123   4.506
 4126SOL    HW213278   2.303   5.116   4.350
 4127SOL     OW13279   6.392   4.055   4.925
 4127SOL    HW113280   6.405   4.068   4.827
 4127SOL    HW213281   6.361   4.141   4.966
 4128SOL     OW13282   0.985   2.121   1.726
 4128SOL    HW113283   0.995   2.220   1.731
 4128SOL    HW213284   0.989   2.092   1.631
 4129SOL     OW13285   6.310   2.632   6.235
 4129SOL    HW113286   6.309   2.678   6.146
 4129SOL    HW213287   6.245   2.556   6.235
 4130SOL     OW13288   6.733   2.917   1.092
 4130SOL    HW113289   6.722   3.014   1.072
 4130SOL    HW213290   6.824   2.901   1.130
 4131SOL     OW13291   0.260   4.029   3.321
 4131SOL    HW113292   0.213   4.028   3.232
 4131SOL    HW213293   0.235   4.112   3.371
 4132SOL     OW13294   4.867   2.159   4.887
 4132SOL    HW113295   4.806   2.096   4.935
 4132SOL    HW213296   4.858   2.251   4.925
 4133SOL     OW13297   2.100   2.468   0.940
 4133SOL    HW113298   2.148   2.451   1.026
 4133SOL    HW213299   2.154   2.531   0.884
 4134SOL     OW13300   1.805   1.723   0.354
 4134SOL    HW113301   1.902   1.706   0.372
 4134SOL    HW213302   1.751   1.693   0.432
 4135SOL     OW13303   2.060   0.637   0.927
 4135SOL    HW113304   1.979   0.688   0.955
 4135SOL    HW213305   2.032   0.552   0.883
 4136SOL     OW13306   0.970   1.770   3.289
 4136SOL    HW113307   1.047   1.747   3.348
 4136SOL    HW213308   0.891   1.712   3.313
 4137SOL     OW13309   3.610   3.631   5.734
 4137SOL    HW113310   3.643   3.600   5.823
 4137SOL    HW213311   3.522   3.678   5.746
 4138SOL     OW13312   4.326   5.763   2.501
 4138SOL    HW113313   4.278   5.847   2.528
 4138SOL    HW213314   4.419   5.786   2.473
 4139SOL     OW13315   2.370   0.769   0.415
 4139SOL    HW113316   2.396   0.716   0.335
 4139SOL    HW213317   2.437   0.755   0.488
 4140SOL     OW13318   4.136   1.772   5.432
 4140SOL    HW113319   4.194   1.849   5.405
 4140SOL    HW213320   4.102   1.726   5.350
 4141SOL     OW13321   5.236   5.015   0.386
 4141SOL    HW113322   5.291   5.002   0.469
 4141SOL    HW213323   5.203   5.110   0.383
 4142SOL     OW13324   6.250   2.478   1.395
 4142SOL    HW113325   6.347   2.457   1.393
 4142SOL    HW213326   6.231   2.557   1.336
 4143SOL     OW13327   0.598   2.742   1.913
 4143SOL    HW113328   0.696   2.749   1.898
 4143SOL    HW213329   0.552   2.732   1.824
 4144SOL     OW13330   4.497   0.671   2.028
 4144SOL    HW113331   4.490   0.756   2.080
 4144SOL    HW213332   4.530   0.598   2.088
 4145SOL     OW13333   3.244   0.275   2.906
 4145SOL    HW113334   3.181   0.270   2.984
 4145SOL    HW213335   3.212   0.346   2.843
 4146SOL     OW13336   4.763   5.270   0.679
 4146SOL    HW113337   4.784   5.186   0.630
 4146SOL    HW213338   4.810   5.347   0.636
 4147SOL     OW13339   2.628   2.204   6.230
 4147SOL    HW113340   2.708   2.157   6.191
 4147SOL    HW213341   2.551   2.141   6.231
 4148SOL     OW13342   6.675   0.199   2.942
 4148SOL    HW113343   6.633   0.143   3.013
 4148SOL    HW213344   6.759   0.240   2.977
 4149SOL     OW13345   4.924   4.297   1.865
 4149SOL    HW113346   5.022   4.299   1.883
 4149SOL    HW213347   4.894   4.203   1.848
 4150SOL     OW13348   4.822   0.419   6.052
 4150SOL    HW113349   4.889   0.369   5.997
 4150SOL    HW213350   4.806   0.369   6.138
 4151SOL     OW13351   0.086   5.449   0.367
 4151SOL    HW113352   0.100   5.381   0.295
 4151SOL    HW213353   0.063   5.404   0.453
 4152SOL     OW13354   3.059   3.989   1.536
 4152SOL    HW113355   3.058   4.010   1.438
 4152SOL    HW213356   3.104   4.063   1.586
 4153SOL     OW13357   6.157   5.760   5.921
 4153SOL    HW113358   6.200   5.834   5.870
 4153SOL    HW213359   6.223   5.719   5.984
 4154SOL     OW13360   4.290   2.440   5.682
 4154SOL    HW113361   4.317   2.482   5.596
 4154SOL    HW213362   4.263   2.511   5.747
 4155SOL     OW13363   1.491   3.521   0.608
 4155SOL    HW113364   1.499   3.488   0.514
 4155SOL    HW213365   1.578   3.560   0.638
 4156SOL     OW13366   5.868   0.348   5.236
 4156SOL    HW113367   5.872   0.357   5.136
 4156SOL    HW213368   5.953   0.383   5.276
 4157SOL     OW13369   3.521   0.739   3.738
 4157SOL    HW113370   3.428   0.761   3.709
 4157SOL    HW213371   3.581   0.816   3.717
 4158SOL     OW13372   0.981   0.698   3.429
 4158SOL    HW113373   0.901   0.733   3.381
 4158SOL    HW213374   1.024   0.626   3.375
 4159SOL     OW13375   0.753   3.736   5.224
 4159SOL    HW113376   0.729   3.662   5.287
 4159SOL    HW213377   0.853   3.741   5.216
 4160SOL     OW13378   0.908   0.519   1.266
 4160SOL    HW113379   0.817   0.531   1.227
 4160SOL    HW213380   0.932   0.601   1.319
 4161SOL     OW13381   6.365   2.050   0.741
 4161SOL    HW113382   6.347   2.133   0.794
 4161SOL    HW213383   6.454   2.012   0.769
 4162SOL     OW13384   0.610   6.522   4.950
 4162SOL    HW113385   0.526   6.471   4.969
 4162SOL    HW213386   0.673   6.512   5.027
 4163SOL     OW13387   6.206   1.292   5.348
 4163SOL    HW113388   6.260   1.232   5.289
 4163SOL    HW213389   6.163   1.237   5.420
 4164SOL     OW13390   2.901   6.655   6.124
 4164SOL    HW113391   2.854   6.732   6.167
 4164SOL    HW213392   2.866   6.569   6.163
 4165SOL     OW13393   2.551   6.037   2.418
 4165SOL    HW113394   2.479   5.968   2.407
 4165SOL    HW213395   2.619   6.003   2.483
 4166SOL     OW13396   6.533   1.999   1.513
 4166SOL    HW113397   6.607   1.952   1.466
 4166SOL    HW213398   6.545   1.992   1.612
 4167SOL     OW13399   1.924   3.171   1.188
 4167SOL    HW113400   1.876   3.091   1.223
 4167SOL    HW213401   1.998   3.195   1.251
 4168SOL     OW13402   1.738   5.178   1.534
 4168SOL    HW113403   1.752   5.229   1.619
 4168SOL    HW213404   1.685   5.095   1.553
 4169SOL     OW13405   6.114   3.644   5.524
 4169SOL    HW113406   6.150   3.614   5.436
 4169SOL    HW213407   6.176   3.613   5.597
 4170SOL     OW13408   3.786   1.228   4.927
 4170SOL    HW113409   3.687   1.213   4.934
 4170SOL    HW213410   3.829   1.196   5.011
 4171SOL     OW13411   5.593   3.322   1.262
 4171SOL    HW113412   5.662   3.284   1.201
 4171SOL    HW213413   5.510   3.343   1.211
 4172SOL     OW13414   2.436   0.937   0.003
 4172SOL    HW113415   2.481   0.986   0.077
 4172SOL    HW213416   2.362   0.992   6.986
 4173SOL     OW13417   4.959   3.272   6.205
 4173SOL    HW113418   5.042   3.221   6.228
 4173SOL    HW213419   4.983   3.348   6.144
 4174SOL     OW13420   5.464   0.788   4.216
 4174SOL    HW113421   5.381   0.780   4.161
 4174SOL    HW213422   5.458   0.727   4.295
 4175SOL     OW13423   2.882   1.472   3.072
 4175SOL    HW113424   2.975   1.466   3.109
 4175SOL    HW213425   2.821   1.511   3.141
 4176SOL     OW13426   5.663   4.695   2.472
 4176SOL    HW113427   5.604   4.721   2.548
 4176SOL    HW213428   5.661   4.767   2.402
 4177SOL     OW13429   6.470   5.094   3.529
 4177SOL    HW113430   6.510   5.128   3.443
 4177SOL    HW213431   6.500   5.152   3.604
 4178SOL     OW13432   3.921   2.843   5.593
 4178SOL    HW113433   3.920   2.940   5.617
 4178SOL    HW213434   3.977   2.829   5.512
 4179SOL     OW13435   6.593   2.587   6.934
 4179SOL    HW113436   6.652   2.521   6.887
 4179SOL    HW213437   6.500   2.551   6.940
 4180SOL     OW13438   4.604   3.608   1.694
 4180SOL    HW113439   4.556   3.694   1.676
 4180SOL    HW213440   4.538   3.533   1.698
 4181SOL     OW13441   6.582   0.821   0.358
 4181SOL    HW113442   6.570   0.722   0.355
 4181SOL    HW213443   6.515   0.866   0.299
 4182SOL     OW13444   5.391   0.854   3.895
 4182SOL    HW113445   5.332   0.857   3.976
 4182SOL    HW213446   5.334   0.853   3.813
 4183SOL     OW13447   2.275   1.153   1.529
 4183SOL    HW113448   2.375   1.153   1.526
 4183SOL    HW213449   2.240   1.214   1.458
 4184SOL     OW13450   4.372   5.036   6.937
 4184SOL    HW113451   4.277   5.065   6.951
 4184SOL    HW213452   4.433   5.098   6.986
 4185SOL     OW13453   0.024   6.870   3.679
 4185SOL    HW113454   0.121   6.890   3.690
 4185SOL    HW213455   7.006   6.845   3.768
 4186SOL     OW13456   3.715   4.245   1.762
 4186SOL    HW113457   3.650   4.305   1.716
 4186SOL    HW213458   3.672   4.204   1.842
 4187SOL     OW13459   3.949   5.206   6.649
 4187SOL    HW113460   3.945   5.262   6.566
 4187SOL    HW213461   3.949   5.265   6.730
 4188SOL     OW13462   5.371   6.232   4.158
 4188SOL    HW113463   5.413   6.184   4.081
 4188SOL    HW213464   5.435   6.301   4.192
 4189SOL     OW13465   1.654   3.719   3.382
 4189SOL    HW113466   1.727   3.688   3.321
 4189SOL    HW213467   1.691   3.789   3.443
 4190SOL     OW13468   2.647   0.444   1.276
 4190SOL    HW113469   2.562   0.496   1.273
 4190SOL    HW213470   2.694   0.461   1.362
 4191SOL     OW13471   0.685   2.364   2.333
 4191SOL    HW113472   0.693   2.441   2.395
 4191SOL    HW213473   0.766   2.306   2.340
 4192SOL     OW13474   5.439   0.393   3.146
 4192SOL    HW113475   5.448   0.297   3.173
 4192SOL    HW213476   5.514   0.417   3.084
 4193SOL     OW13477   2.071   6.498   2.604
 4193SOL    HW113478   2.150   6.516   2.663
 4193SOL    HW213479   2.061   6.400   2.590
 4194SOL     OW13480   5.858   0.483   3.673
 4194SOL    HW113481   5.874   0.475   3.771
 4194SOL    HW213482   5.924   0.548   3.634
 4195SOL     OW13483   5.202   0.878   3.693
 4195SOL    HW113484   5.226   0.971   3.665
 4195SOL    HW213485   5.122   0.881   3.753
 4196SOL     OW13486   4.647   2.606   3.549
 4196SOL    HW113487   4.717   2.543   3.583
 4196SOL    HW213488   4.556   2.570   3.569
 4197SOL     OW13489   5.193   3.995   5.014
 4197SOL    HW113490   5.187   3.898   4.988
 4197SOL    HW213491   5.279   4.033   4.980
 4198SOL     OW13492   6.165   3.807   6.039
 4198SOL    HW113493   6.132   3.761   6.122
 4198SOL    HW213494   6.262   3.786   6.025
 4199SOL     OW13495   3.189   3.873   5.473
 4199SOL    HW113496   3.210   3.822   5.556
 4199SOL    HW213497   3.134   3.954   5.497
 4200SOL     OW13498   2.753   0.261   6.816
 4200SOL    HW113499   2.724   0.308   6.899
 4200SOL    HW213500   2.847   0.289   6.794
 4201SOL     OW13501   6.091   6.822   4.726
 4201SOL    HW113502   6.071   6.864   4.814
 4201SOL    HW213503   6.090   6.892   4.655
 4202SOL     OW13504   5.487   3.499   5.555
 4202SOL    HW113505   5.396   3.536   5.570
 4202SOL    HW213506   5.508   3.499   5.457
 4203SOL     OW13507   4.322   5.256   4.186
 4203SOL    HW113508   4.299   5.348   4.217
 4203SOL    HW213509   4.420   5.239   4.201
 4204SOL     OW13510   1.735   3.924   0.572
 4204SOL    HW113511   1.780   3.989   0.634
 4204SOL    HW213512   1.697   3.974   0.494
 4205SOL     OW13513   2.596   6.022   3.274
 4205SOL    HW113514   2.603   6.101   3.214
 4205SOL    HW213515   2.659   6.032   3.351
 4206SOL     OW13516   5.190   6.247   4.356
 4206SOL    HW113517   5.267   6.234   4.293
 4206SOL    HW213518   5.107   6.263   4.303
 4207SOL     OW13519   0.779   0.204   0.283
 4207SOL    HW113520   0.775   0.146   0.201
 4207SOL    HW213521   0.704   0.179   0.345
 4208SOL     OW13522   0.775   2.818   0.830
 4208SOL    HW113523   0.679   2.791   0.831
 4208SOL    HW213524   0.787   2.897   0.770
 4209SOL     OW13525   3.360   0.549   5.207
 4209SOL    HW113526   3.335   0.633   5.254
 4209SOL    HW213527   3.436   0.566   5.146
 4210SOL     OW13528   3.990   2.742   0.510
 4210SOL    HW113529   4.003   2.654   0.465
 4210SOL    HW213530   4.034   2.814   0.457
 4211SOL     OW13531   5.432   3.734   4.629
 4211SOL    HW113532   5.459   3.738   4.725
 4211SOL    HW213533   5.347   3.681   4.620
 4212SOL     OW13534   6.222   6.557   2.435
 4212SOL    HW113535   6.287   6.619   2.392
 4212SOL    HW213536   6.158   6.522   2.367
 4213SOL     OW13537   0.588   6.854   1.419
 4213SOL    HW113538   0.528   6.774   1.418
 4213SOL    HW213539   0.580   6.902   1.507
 4214SOL     OW13540   3.153   5.455   4.893
 4214SOL    HW113541   3.115   5.441   4.985
 4214SOL    HW213542   3.169   5.366   4.850
 4215SOL     OW13543   1.217   5.912   5.918
 4215SOL    HW113544   1.161   5.852   5.861
 4215SOL    HW213545   1.182   5.912   6.012
 4216SOL     OW13546   2.695   3.097   5.335
 4216SOL    HW113547   2.621   3.088   5.269
 4216SOL    HW213548   2.777   3.131   5.289
 4217SOL     OW13549   6.897   1.149   3.787
 4217SOL    HW113550   6.987   1.120   3.756
 4217SOL    HW213551   6.839   1.170   3.708
 4218SOL     OW13552   3.230   6.082   2.484
 4218SOL    HW113553   3.262   5.999   2.529
 4218SOL    HW213554   3.208   6.061   2.388
 4219SOL     OW13555   5.335   7.010   2.961
 4219SOL    HW113556   5.391   6.945   2.909
 4219SOL    HW213557   5.280   0.044   2.898
 4220SOL     OW13558   0.166   4.280   3.740
 4220SOL    HW113559   0.251   4.235   3.713
 4220SOL    HW213560   0.093   4.211   3.748
 4221SOL     OW13561   5.461   6.124   5.714
 4221SOL    HW113562   5.431   6.059   5.644
 4221SOL    HW213563   5.522   6.078   5.779
 4222SOL     OW13564   2.907   3.165   0.363
 4222SOL    HW113565   2.972   3.154   0.438
 4222SOL    HW213566   2.833   3.097   0.373
 4223SOL     OW13567   2.981   3.877   2.433
 4223SOL    HW113568   2.961   3.781   2.414
 4223SOL    HW213569   2.923   3.935   2.376
 4224SOL     OW13570   3.756   1.672   6.047
 4224SOL    HW113571   3.752   1.765   6.011
 4224SOL    HW213572   3.835   1.624   6.008
 4225SOL     OW13573   4.515   0.536   3.990
 4225SOL    HW113574   4.499   0.468   3.919
 4225SOL    HW213575   4.612   0.537   4.014
 4226SOL     OW13576   1.542   1.709   2.830
 4226SOL    HW113577   1.614   1.692   2.898
 4226SOL    HW213578   1.565   1.791   2.778
 4227SOL     OW13579   5.095   4.161   6.627
 4227SOL    HW113580   5.064   4.242   6.676
 4227SOL    HW213581   5.158   4.188   6.554
 4228SOL     OW13582   5.067   4.893   3.079
 4228SOL    HW113583   5.116   4.949   3.146
 4228SOL    HW213584   5.112   4.804   3.070
 4229SOL     OW13585   4.479   5.026   5.202
 4229SOL    HW113586   4.412   5.019   5.127
 4229SOL    HW213587   4.440   4.984   5.284
 4230SOL     OW13588   3.076   0.856   6.014
 4230SOL    HW113589   3.057   0.799   6.093
 4230SOL    HW213590   3.034   0.816   5.932
 4231SOL     OW13591   3.792   6.413   6.235
 4231SOL    HW113592   3.749   6.449   6.318
 4231SOL    HW213593   3.867   6.472   6.207
 4232SOL     OW13594   2.395   4.168   1.361
 4232SOL    HW113595   2.361   4.231   1.430
 4232SOL    HW213596   2.445   4.094   1.405
 4233SOL     OW13597   5.539   6.038   0.950
 4233SOL    HW113598   5.637   6.057   0.948
 4233SOL    HW213599   5.520   5.957   0.894
 4234SOL     OW13600   3.813   3.277   5.478
 4234SOL    HW113601   3.846   3.371   5.482
 4234SOL    HW213602   3.844   3.234   5.393
 4235SOL     OW13603   0.441   4.041   4.887
 4235SOL    HW113604   0.534   4.076   4.874
 4235SOL    HW213605   0.375   4.109   4.854
 4236SOL     OW13606   0.667   3.674   4.928
 4236SOL    HW113607   0.746   3.671   4.989
 4236SOL    HW213608   0.651   3.768   4.899
 4237SOL     OW13609   6.569   3.962   5.331
 4237SOL    HW113610   6.549   4.014   5.414
 4237SOL    HW213611   6.584   4.025   5.255
 4238SOL     OW13612   5.031   4.822   4.460
 4238SOL    HW113613   5.078   4.757   4.400
 4238SOL    HW213614   4.980   4.772   4.530
 4239SOL     OW13615   5.075   5.801   5.215
 4239SOL    HW113616   5.128   5.850   5.147
 4239SOL    HW213617   5.126   5.721   5.246
 4240SOL     OW13618   2.496   5.024   6.678
 4240SOL    HW113619   2.453   5.115   6.668
 4240SOL    HW213620   2.495   4.977   6.590
 4241SOL     OW13621   4.190   2.330   1.142
 4241SOL    HW113622   4.149   2.351   1.231
 4241SOL    HW213623   4.290   2.329   1.151
 4242SOL     OW13624   2.058   0.776   1.940
 4242SOL    HW113625   2.118   0.722   1.882
 4242SOL    HW213626   2.011   0.717   2.005
 4243SOL     OW13627   1.554   3.122   2.969
 4243SOL    HW113628   1.556   3.052   2.898
 4243SOL    HW213629   1.616   3.097   3.043
 4244SOL     OW13630   3.215   0.597   0.730
 4244SOL    HW113631   3.256   0.686   0.747
 4244SOL    HW213632   3.252   0.530   0.795
 4245SOL     OW13633   0.183   1.854   0.952
 4245SOL    HW113634   0.283   1.845   0.955
 4245SOL    HW213635   0.147   1.799   0.877
 4246SOL     OW13636   4.615   2.640   3.866
 4246SOL    HW113637   4.563   2.571   3.816
 4246SOL    HW213638   4.613   2.727   3.816
 4247SOL     OW13639   2.208   5.241   0.303
 4247SOL    HW113640   2.235   5.149   0.330
 4247SOL    HW213641   2.231   5.255   0.206
 4248SOL     OW13642   2.015   0.960   3.135
 4248SOL    HW113643   2.098   0.937   3.186
 4248SOL    HW213644   2.017   0.914   3.046
 4249SOL     OW13645   5.727   0.775   5.721
 4249SOL    HW113646   5.683   0.855   5.679
 4249SOL    HW213647   5.754   0.798   5.815
 4250SOL     OW13648   0.602   5.328   5.031
 4250SOL    HW113649   0.582   5.412   4.982
 4250SOL    HW213650   0.592   5.250   4.969
 4251SOL     OW13651   4.661   2.288   5.651
 4251SOL    HW113652   4.676   2.286   5.750
 4251SOL    HW213653   4.592   2.357   5.629
 4252SOL     OW13654   6.950   0.264   6.615
 4252SOL    HW113655   6.946   0.286   6.517
 4252SOL    HW213656   0.011   0.304   6.655
 4253SOL     OW13657   4.223   6.548   2.730
 4253SOL    HW113658   4.145   6.539   2.792
 4253SOL    HW213659   4.200   6.610   2.655
 4254SOL     OW13660   1.183   2.428   5.466
 4254SOL    HW113661   1.278   2.416   5.438
 4254SOL    HW213662   1.142   2.338   5.484
 4255SOL     OW13663   0.867   2.950   3.137
 4255SOL    HW113664   0.918   2.936   3.222
 4255SOL    HW213665   0.920   3.008   3.075
 4256SOL     OW13666   5.825   6.112   0.928
 4256SOL    HW113667   5.902   6.059   0.963
 4256SOL    HW213668   5.819   6.198   0.979
 4257SOL     OW13669   6.636   0.737   2.904
 4257SOL    HW113670   6.734   0.746   2.887
 4257SOL    HW213671   6.619   0.654   2.957
 4258SOL     OW13672   3.154   6.022   0.743
 4258SOL    HW113673   3.225   6.068   0.690
 4258SOL    HW213674   3.131   6.077   0.823
 4259SOL     OW13675   0.564   6.255   0.410
 4259SOL    HW113676   0.658   6.228   0.431
 4259SOL    HW213677   0.563   6.350   0.379
 4260SOL     OW13678   6.153   0.116   5.023
 4260SOL    HW113679   6.181   0.189   5.085
 4260SOL    HW213680   6.084   0.151   4.959
 4261SOL     OW13681   2.577   6.472   3.299
 4261SOL    HW113682   2.610   6.428   3.215
 4261SOL    HW213683   2.632   6.442   3.376
 4262SOL     OW13684   1.769   4.647   4.900
 4262SOL    HW113685   1.788   4.558   4.939
 4262SOL    HW213686   1.735   4.709   4.971
 4263SOL     OW13687   3.183   1.594   2.815
 4263SOL    HW113688   3.230   1.682   2.804
 4263SOL    HW213689   3.119   1.581   2.740
 4264SOL     OW13690   4.990   1.769   6.650
 4264SOL    HW113691   4.945   1.802   6.566
 4264SOL    HW213692   4.977   1.835   6.723
 4265SOL     OW13693   3.351   6.319   6.446
 4265SOL    HW113694   3.291   6.397   6.460
 4265SOL    HW213695   3.373   6.278   6.535
 4266SOL     OW13696   0.988   4.710   2.002
 4266SOL    HW113697   1.076   4.718   2.049
 4266SOL    HW213698   0.917   4.684   2.068
 4267SOL     OW13699   1.321   4.054   3.887
 4267SOL    HW113700   1.390   4.050   3.959
 4267SOL    HW213701   1.327   4.142   3.840
 4268SOL     OW13702   1.306   4.174   6.286
 4268SOL    HW113703   1.234   4.244   6.292
 4268SOL    HW213704   1.347   4.178   6.195
 4269SOL     OW13705   2.826   1.747   3.799
 4269SOL    HW113706   2.810   1.703   3.888
 4269SOL    HW213707   2.917   1.723   3.766
 4270SOL     OW13708   4.114   3.989   0.923
 4270SOL    HW113709   4.021   4.023   0.939
 4270SOL    HW213710   4.126   3.969   0.826
 4271SOL     OW13711   6.520   0.519   0.648
 4271SOL    HW113712   6.467   0.598   0.677
 4271SOL    HW213713   6.524   0.516   0.548
 4272SOL     OW13714   6.761   1.834   5.136
 4272SOL    HW113715   6.832   1.777   5.178
 4272SOL    HW213716   6.693   1.775   5.092
 4273SOL     OW13717   3.534   5.841   3.569
 4273SOL    HW113718   3.477   5.802   3.498
 4273SOL    HW213719   3.631   5.827   3.547
 4274SOL     OW13720   0.233   0.862   1.113
 4274SOL    HW113721   0.189   0.931   1.055
 4274SOL    HW213722   0.172   0.839   1.189
 4275SOL     OW13723   6.846   2.207   3.937
 4275SOL    HW113724   6.922   2.180   3.995
 4275SOL    HW213725   6.873   2.285   3.880
 4276SOL     OW13726   1.067   6.583   2.769
 4276SOL    HW113727   1.156   6.593   2.814
 4276SOL    HW213728   1.026   6.673   2.756
 4277SOL     OW13729   6.239   5.545   3.047
 4277SOL    HW113730   6.247   5.525   2.949
 4277SOL    HW213731   6.164   5.609   3.062
 4278SOL     OW13732   6.998   6.991   1.177
 4278SOL    HW113733   0.032   6.909   1.197
 4278SOL    HW213734   0.036   0.040   1.135
 4279SOL     OW13735   0.757   2.854   2.743
 4279SOL    HW113736   0.692   2.842   2.668
 4279SOL    HW213737   0.779   2.951   2.753
 4280SOL     OW13738   2.458   6.305   0.047
 4280SOL    HW113739   2.542   6.264   0.009
 4280SOL    HW213740   2.436   6.388   7.016
 4281SOL     OW13741   6.665   6.164   2.799
 4281SOL    HW113742   6.728   6.113   2.740
 4281SOL    HW213743   6.571   6.141   2.775
 4282SOL     OW13744   5.481   5.066   1.654
 4282SOL    HW113745   5.488   4.985   1.712
 4282SOL    HW213746   5.434   5.139   1.704
 4283SOL     OW13747   6.014   1.443   4.561
 4283SOL    HW113748   6.106   1.408   4.541
 4283SOL    HW213749   5.954   1.423   4.484
 4284SOL     OW13750   4.815   5.799   6.799
 4284SOL    HW113751   4.736   5.833   6.749
 4284SOL    HW213752   4.784   5.749   6.880
 4285SOL     OW13753   3.164   1.481   6.561
 4285SOL    HW113754   3.084   1.540   6.554
 4285SOL    HW213755   3.140   1.397   6.610
 4286SOL     OW13756   4.978   6.604   0.020
 4286SOL    HW113757   4.977   6.574   6.945
 4286SOL    HW213758   5.020   6.695   0.025
 4287SOL     OW13759   3.563   1.072   1.075
 4287SOL    HW113760   3.581   1.046   1.170
 4287SOL    HW213761   3.604   1.161   1.056
 4288SOL     OW13762   6.860   5.805   2.339
 4288SOL    HW113763   6.902   5.825   2.251
 4288SOL    HW213764   6.760   5.803   2.328
 4289SOL     OW13765   0.374   4.285   5.403
 4289SOL    HW113766   0.391   4.345   5.481
 4289SOL    HW213767   0.358   4.340   5.321
 4290SOL     OW13768   6.607   1.538   3.459
 4290SOL    HW113769   6.668   1.523   3.380
 4290SOL    HW213770   6.554   1.456   3.477
 4291SOL     OW13771   4.140   4.893   6.782
 4291SOL    HW113772   4.218   4.896   6.844
 4291SOL    HW213773   4.103   4.800   6.780
 4292SOL     OW13774   6.732   0.448   1.176
 4292SOL    HW113775   6.670   0.401   1.239
 4292SOL    HW213776   6.728   0.403   1.087
 4293SOL     OW13777   3.747   2.854   6.665
 4293SOL    HW113778   3.815   2.818   6.602
 4293SOL    HW213779   3.744   2.954   6.658
 4294SOL     OW13780   2.643   1.806   0.107
 4294SOL    HW113781   2.642   1.839   0.201
 4294SOL    HW213782   2.666   1.882   0.045
 4295SOL     OW13783   4.602   6.742   2.376
 4295SOL    HW113784   4.577   6.646   2.368
 4295SOL    HW213785   4.560   6.794   2.302
 4296SOL     OW13786   1.980   5.910   2.438
 4296SOL    HW113787   2.074   5.908   2.473
 4296SOL    HW213788   1.966   5.833   2.377
 4297SOL     OW13789   4.795   5.049   0.532
 4297SOL    HW113790   4.786   5.047   0.433
 4297SOL    HW213791   4.777   4.958   0.569
 4298SOL     OW13792   1.464   0.021   0.511
 4298SOL    HW113793   1.537   0.019   0.579
 4298SOL    HW213794   1.428   6.949   0.499
 4299SOL     OW13795   0.160   2.912   6.172
 4299SOL    HW113796   0.062   2.932   6.172
 4299SOL    HW213797   0.211   2.994   6.196
 4300SOL     OW13798   3.229   0.675   1.994
 4300SOL    HW113799   3.235   0.765   2.038
 4300SOL    HW213800   3.153   0.623   2.035
 4301SOL     OW13801   1.908   6.215   5.233
 4301SOL    HW113802   1.809   6.204   5.249
 4301SOL    HW213803   1.946   6.274   5.305
 4302SOL     OW13804   3.853   5.174   0.294
 4302SOL    HW113805   3.949   5.165   0.318
 4302SOL    HW213806   3.803   5.093   0.326
 4303SOL     OW13807   4.182   5.453   3.815
 4303SOL    HW113808   4.183   5.543   3.857
 4303SOL    HW213809   4.258   5.445   3.751
 4304SOL     OW13810   3.081   4.206   1.719
 4304SOL    HW113811   3.024   4.272   1.769
 4304SOL    HW213812   3.130   4.254   1.646
 4305SOL     OW13813   0.367   6.595   5.636
 4305SOL    HW113814   0.415   6.554   5.559
 4305SOL    HW213815   0.339   6.524   5.701
 4306SOL     OW13816   5.309   3.346   5.151
 4306SOL    HW113817   5.240   3.418   5.146
 4306SOL    HW213818   5.290   3.288   5.230
 4307SOL     OW13819   6.931   1.656   5.251
 4307SOL    HW113820   6.933   1.571   5.198
 4307SOL    HW213821   6.861   1.649   5.322
 4308SOL     OW13822   4.185   5.730   5.825
 4308SOL    HW113823   4.235   5.816   5.809
 4308SOL    HW213824   4.153   5.727   5.919
 4309SOL     OW13825   2.952   1.703   1.082
 4309SOL    HW113826   3.025   1.654   1.130
 4309SOL    HW213827   2.991   1.783   1.036
 4310SOL     OW13828   6.434   2.331   3.562
 4310SOL    HW113829   6.346   2.284   3.562
 4310SOL    HW213830   6.420   2.429   3.543
 4311SOL     OW13831   0.496   6.653   1.067
 4311SOL    HW113832   0.483   6.627   0.972
 4311SOL    HW213833   0.433   6.727   1.091
 4312SOL     OW13834   0.172   3.786   2.299
 4312SOL    HW113835   0.116   3.758   2.377
 4312SOL    HW213836   0.269   3.783   2.324
 4313SOL     OW13837   0.771   3.455   0.331
 4313SOL    HW113838   0.844   3.388   0.324
 4313SOL    HW213839   0.747   3.487   0.239
 4314SOL     OW13840   1.627   1.940   5.799
 4314SOL    HW113841   1.712   1.992   5.789
 4314SOL    HW213842   1.589   1.956   5.890
 4315SOL     OW13843   2.731   2.323   4.994
 4315SOL    HW113844   2.660   2.382   4.955
 4315SOL    HW213845   2.795   2.297   4.922
 4316SOL     OW13846   4.589   5.060   2.083
 4316SOL    HW113847   4.561   5.144   2.036
 4316SOL    HW213848   4.510   4.998   2.090
 4317SOL     OW13849   4.766   0.144   4.186
 4317SOL    HW113850   4.822   0.213   4.141
 4317SOL    HW213851   4.818   0.058   4.192
 4318SOL     OW13852   1.803   6.085   3.657
 4318SOL    HW113853   1.758   6.172   3.674
 4318SOL    HW213854   1.734   6.014   3.643
 4319SOL     OW13855   1.505   5.054   2.074
 4319SOL    HW113856   1.595   5.009   2.070
 4319SOL    HW213857   1.437   4.996   2.029
 4320SOL     OW13858   3.104   0.527   1.331
 4320SOL    HW113859   3.173   0.589   1.293
 4320SOL    HW213860   3.014   0.571   1.328
 4321SOL     OW13861   6.501   5.696   2.915
 4321SOL    HW113862   6.438   5.741   2.977
 4321SOL    HW213863   6.595   5.712   2.946
 4322SOL     OW13864   2.814   2.318   3.720
 4322SOL    HW113865   2.878   2.249   3.755
 4322SOL    HW213866   2.861   2.379   3.656
 4323SOL     OW13867   5.557   4.470   1.504
 4323SOL    HW113868   5.574   4.380   1.465
 4323SOL    HW213869   5.465   4.473   1.543
 4324SOL     OW13870   0.135   4.361   5.836
 4324SOL    HW113871   0.168   4.269   5.818
 4324SOL    HW213872   0.052   4.378   5.783
 4325SOL     OW13873   1.305   0.716   1.106
 4325SOL    HW113874   1.261   0.637   1.149
 4325SOL    HW213875   1.381   0.747   1.164
 4326SOL     OW13876   4.435   2.438   3.219
 4326SOL    HW113877   4.444   2.383   3.137
 4326SOL    HW213878   4.523   2.445   3.265
 4327SOL     OW13879   3.165   6.724   3.688
 4327SOL    HW113880   3.219   6.764   3.762
 4327SOL    HW213881   3.220   6.718   3.605
 4328SOL     OW13882   6.376   7.007   3.253
 4328SOL    HW113883   6.322   7.000   3.169
 4328SOL    HW213884   6.470   6.977   3.235
 4329SOL     OW13885   6.256   4.144   0.620
 4329SOL    HW113886   6.223   4.068   0.676
 4329SOL    HW213887   6.235   4.126   0.524
 4330SOL     OW13888   2.417   5.307   4.768
 4330SOL    HW113889   2.412   5.223   4.714
 4330SOL    HW213890   2.511   5.342   4.765
 4331SOL     OW13891   5.763   1.583   2.399
 4331SOL    HW113892   5.829   1.580   2.324
 4331SOL    HW213893   5.783   1.509   2.463
 4332SOL     OW13894   6.609   5.577   1.523
 4332SOL    HW113895   6.627   5.488   1.566
 4332SOL    HW213896   6.608   5.565   1.423
 4333SOL     OW13897   3.874   2.840   6.396
 4333SOL    HW113898   3.967   2.813   6.422
 4333SOL    HW213899   3.816   2.759   6.393
 4334SOL     OW13900   0.239   2.450   4.258
 4334SOL    HW113901   0.319   2.391   4.246
 4334SOL    HW213902   0.160   2.394   4.280
 4335SOL     OW13903   2.314   3.847   1.692
 4335SOL    HW113904   2.276   3.755   1.691
 4335SOL    HW213905   2.407   3.846   1.655
 4336SOL     OW13906   3.105   5.677   5.744
 4336SOL    HW113907   3.125   5.747   5.812
 4336SOL    HW213908   3.171   5.603   5.751
 4337SOL     OW13909   6.895   4.757   3.859
 4337SOL    HW113910   6.798   4.751   3.882
 4337SOL    HW213911   6.906   4.763   3.759
 4338SOL     OW13912   3.216   2.210   5.975
 4338SOL    HW113913   3.190   2.291   5.923
 4338SOL    HW213914   3.182   2.128   5.928
 4339SOL     OW13915   4.490   4.477   5.529
 4339SOL    HW113916   4.505   4.426   5.445
 4339SOL    HW213917   4.445   4.417   5.597
 4340SOL     OW13918   0.040   3.821   0.499
 4340SOL    HW113919   6.972   3.775   0.499
 4340SOL    HW213920   0.097   3.782   0.571
 4341SOL     OW13921   6.105   5.573   1.134
 4341SOL    HW113922   6.165   5.590   1.055
 4341SOL    HW213923   6.016   5.616   1.118
 4342SOL     OW13924   5.416   3.467   2.685
 4342SOL    HW113925   5.337   3.494   2.631
 4342SOL    HW213926   5.499   3.503   2.643
 4343SOL     OW13927   4.297   0.408   6.604
 4343SOL    HW113928   4.297   0.478   6.533
 4343SOL    HW213929   4.221   0.424   6.667
 4344SOL     OW13930   1.300   4.231   2.165
 4344SOL    HW113931   1.279   4.302   2.098
 4344SOL    HW213932   1.300   4.142   2.119
 4345SOL     OW13933   3.785   3.502   2.749
 4345SOL    HW113934   3.736   3.498   2.836
 4345SOL    HW213935   3.760   3.585   2.699
 4346SOL     OW13936   0.690   3.860   2.570
 4346SOL    HW113937   0.689   3.958   2.589
 4346SOL    HW213938   0.758   3.840   2.499
 4347SOL     OW13939   6.514   5.662   0.632
 4347SOL    HW113940   6.494   5.656   0.729
 4347SOL    HW213941   6.484   5.750   0.597
 4348SOL     OW13942   6.368   4.161   5.818
 4348SOL    HW113943   6.280   4.150   5.865
 4348SOL    HW213944   6.439   4.116   5.871
 4349SOL     OW13945   1.009   4.332   4.118
 4349SOL    HW113946   0.997   4.254   4.056
 4349SOL    HW213947   1.061   4.404   4.071
 4350SOL     OW13948   4.800   0.595   3.960
 4350SOL    HW113949   4.789   0.664   3.888
 4350SOL    HW213950   4.897   0.572   3.970
 4351SOL     OW13951   0.119   5.741   1.077
 4351SOL    HW113952   0.101   5.695   1.164
 4351SOL    HW213953   0.162   5.676   1.014
 4352SOL     OW13954   3.355   4.716   1.636
 4352SOL    HW113955   3.303   4.788   1.682
 4352SOL    HW213956   3.439   4.698   1.688
 4353SOL     OW13957   2.360   4.052   0.518
 4353SOL    HW113958   2.412   4.075   0.436
 4353SOL    HW213959   2.279   4.111   0.524
 4354SOL     OW13960   5.518   5.339   2.088
 4354SOL    HW113961   5.481   5.250   2.061
 4354SOL    HW213962   5.445   5.396   2.124
 4355SOL     OW13963   2.640   5.191   3.003
 4355SOL    HW113964   2.626   5.102   2.961
 4355SOL    HW213965   2.552   5.233   3.024
 4356SOL     OW13966   6.124   2.051   5.810
 4356SOL    HW113967   6.182   2.099   5.745
 4356SOL    HW213968   6.180   1.999   5.874
 4357SOL     OW13969   5.455   6.009   2.457
 4357SOL    HW113970   5.469   6.021   2.359
 4357SOL    HW213971   5.516   5.937   2.491
 4358SOL     OW13972   2.527   0.744   0.635
 4358SOL    HW113973   2.601   0.677   0.630
 4358SOL    HW213974   2.506   0.763   0.731
 4359SOL     OW13975   2.720   2.101   1.547
 4359SOL    HW113976   2.812   2.078   1.580
 4359SOL    HW213977   2.697   2.194   1.574
 4360SOL     OW13978   2.758   6.125   4.107
 4360SOL    HW113979   2.788   6.130   4.011
 4360SOL    HW213980   2.824   6.070   4.159
 4361SOL     OW13981   1.347   1.543   6.814
 4361SOL    HW113982   1.418   1.602   6.851
 4361SOL    HW213983   1.389   1.463   6.772
 4362SOL     OW13984   0.461   5.602   2.398
 4362SOL    HW113985   0.460   5.580   2.495
 4362SOL    HW213986   0.444   5.520   2.344
 4363SOL     OW13987   3.483   0.653   2.110
 4363SOL    HW113988   3.472   0.614   2.202
 4363SOL    HW213989   3.397   0.647   2.060
 4364SOL     OW13990   3.191   4.062   2.958
 4364SOL    HW113991   3.220   3.986   3.016
 4364SOL    HW213992   3.102   4.041   2.917
 4365SOL     OW13993   2.144   1.162   0.776
 4365SOL    HW113994   2.242   1.151   0.788
 4365SOL    HW213995   2.116   1.252   0.809
 4366SOL     OW13996   5.446   5.968   4.932
 4366SOL    HW113997   5.510   5.901   4.897
 4366SOL    HW213998   5.421   6.033   4.860
 4367SOL     OW13999   2.825   6.623   1.825
 4367SOL    HW114000   2.740   6.598   1.872
 4367SOL    HW214001   2.890   6.661   1.891
 4368SOL     OW14002   4.781   3.948   4.184
 4368SOL    HW114003   4.760   4.045   4.196
 4368SOL    HW214004   4.807   3.932   4.089
 4369SOL     OW14005   5.875   4.416   3.963
 4369SOL    HW114006   5.964   4.460   3.947
 4369SOL    HW214007   5.832   4.396   3.875
 4370SOL     OW14008   4.104   5.232   0.802
 4370SOL    HW114009   4.121   5.163   0.731
 4370SOL    HW214010   4.130   5.322   0.768
 4371SOL     OW14011   3.505   1.841   2.863
 4371SOL    HW114012   3.509   1.775   2.938
 4371SOL    HW214013   3.515   1.934   2.899
 4372SOL     OW14014   1.799   4.394   4.983
 4372SOL    HW114015   1.763   4.332   5.052
 4372SOL    HW214016   1.883   4.357   4.944
 4373SOL     OW14017   4.338   0.437   0.216
 4373SOL    HW114018   4.240   0.420   0.226
 4373SOL    HW214019   4.380   0.442   0.307
 4374SOL     OW14020   2.711   6.121   0.534
 4374SOL    HW114021   2.725   6.217   0.557
 4374SOL    HW214022   2.615   6.106   0.510
 4375SOL     OW14023   4.059   1.437   5.656
 4375SOL    HW114024   3.981   1.399   5.705
 4375SOL    HW214025   4.063   1.536   5.672
 4376SOL     OW14026   2.444   5.568   0.148
 4376SOL    HW114027   2.484   5.479   0.172
 4376SOL    HW214028   2.517   5.636   0.137
 4377SOL     OW14029   5.199   5.533   6.708
 4377SOL    HW114030   5.208   5.488   6.620
 4377SOL    HW214031   5.277   5.593   6.724
 4378SOL     OW14032   2.859   5.432   2.044
 4378SOL    HW114033   2.859   5.529   2.066
 4378SOL    HW214034   2.767   5.404   2.016
 4379SOL     OW14035   0.250   6.644   0.750
 4379SOL    HW114036   0.197   6.682   0.825
 4379SOL    HW214037   0.197   6.574   0.702
 4380SOL     OW14038   2.026   5.822   4.043
 4380SOL    HW114039   2.098   5.775   4.093
 4380SOL    HW214040   1.985   5.893   4.101
 4381SOL     OW14041   3.559   5.950   4.706
 4381SOL    HW114042   3.614   5.916   4.782
 4381SOL    HW214043   3.618   5.997   4.641
 4382SOL     OW14044   5.340   4.776   2.863
 4382SOL    HW114045   5.249   4.740   2.883
 4382SOL    HW214046   5.391   4.786   2.948
 4383SOL     OW14047   1.067   1.098   0.673
 4383SOL    HW114048   1.112   1.178   0.713
 4383SOL    HW214049   1.134   1.024   0.664
 4384SOL     OW14050   3.775   0.295   2.185
 4384SOL    HW114051   3.707   0.318   2.255
 4384SOL    HW214052   3.729   0.282   2.097
 4385SOL     OW14053   6.421   2.611   3.243
 4385SOL    HW114054   6.486   2.678   3.280
 4385SOL    HW214055   6.470   2.547   3.184
 4386SOL     OW14056   1.719   4.264   6.927
 4386SOL    HW114057   1.752   4.330   6.995
 4386SOL    HW214058   1.676   4.187   6.974
 4387SOL     OW14059   6.480   1.634   1.411
 4387SOL    HW114060   6.388   1.639   1.450
 4387SOL    HW214061   6.476   1.591   1.321
 4388SOL     OW14062   3.773   1.415   5.811
 4388SOL    HW114063   3.770   1.347   5.738
 4388SOL    HW214064   3.693   1.405   5.869
 4389SOL     OW14065   6.348   2.701   2.440
 4389SOL    HW114066   6.363   2.605   2.462
 4389SOL    HW214067   6.436   2.748   2.435
 4390SOL     OW14068   4.194   3.167   1.152
 4390SOL    HW114069   4.117   3.208   1.200
 4390SOL    HW214070   4.274   3.227   1.160
 4391SOL     OW14071   0.743   6.328   7.002
 4391SOL    HW114072   0.742   6.263   6.926
 4391SOL    HW214073   0.703   6.415   6.971
 4392SOL     OW14074   5.353   4.740   5.093
 4392SOL    HW114075   5.421   4.812   5.081
 4392SOL    HW214076   5.349   4.683   5.010
 4393SOL     OW14077   5.121   6.692   2.738
 4393SOL    HW114078   5.064   6.697   2.820
 4393SOL    HW214079   5.106   6.774   2.682
 4394SOL     OW14080   4.591   0.455   2.178
 4394SOL    HW114081   4.528   0.381   2.202
 4394SOL    HW214082   4.635   0.490   2.261
 4395SOL     OW14083   4.909   2.059   1.383
 4395SOL    HW114084   4.849   1.980   1.387
 4395SOL    HW214085   4.869   2.134   1.435
 4396SOL     OW14086   1.592   1.402   3.112
 4396SOL    HW114087   1.508   1.396   3.165
 4396SOL    HW214088   1.570   1.395   3.014
 4397SOL     OW14089   5.049   0.345   6.488
 4397SOL    HW114090   4.974   0.328   6.425
 4397SOL    HW214091   5.050   0.442   6.514
 4398SOL     OW14092   0.158   5.130   4.822
 4398SOL    HW114093   0.186   5.163   4.732
 4398SOL    HW214094   0.157   5.205   4.887
 4399SOL     OW14095   3.272   0.944   2.578
 4399SOL    HW114096   3.310   1.035   2.597
 4399SOL    HW214097   3.323   0.903   2.502
 4400SOL     OW14098   3.837   5.158   3.048
 4400SOL    HW114099   3.930   5.151   3.011
 4400SOL    HW214100   3.786   5.075   3.024
 4401SOL     OW14101   5.828   5.806   5.039
 4401SOL    HW114102   5.776   5.800   4.953
 4401SOL    HW214103   5.769   5.845   5.110
 4402SOL     OW14104   6.799   6.470   2.259
 4402SOL    HW114105   6.800   6.384   2.208
 4402SOL    HW214106   6.720   6.524   2.232
 4403SOL     OW14107   6.682   1.196   2.270
 4403SOL    HW114108   6.701   1.106   2.231
 4403SOL    HW214109   6.583   1.207   2.283
 4404SOL     OW14110   2.251   4.698   2.398
 4404SOL    HW114111   2.281   4.717   2.304
 4404SOL    HW214112   2.207   4.608   2.401
 4405SOL     OW14113   2.997   3.861   5.909
 4405SOL    HW114114   2.914   3.812   5.934
 4405SOL    HW214115   2.996   3.879   5.811
 4406SOL     OW14116   6.232   3.314   2.322
 4406SOL    HW114117   6.317   3.329   2.271
 4406SOL    HW214118   6.203   3.219   2.311
 4407SOL     OW14119   0.927   1.059   0.013
 4407SOL    HW114120   0.859   1.129   0.035
 4407SOL    HW214121   0.899   0.971   0.051
 4408SOL     OW14122   4.002   6.282   1.280
 4408SOL    HW114123   4.039   6.296   1.372
 4408SOL    HW214124   3.905   6.260   1.286
 4409SOL     OW14125   2.644   1.898   2.732
 4409SOL    HW114126   2.667   1.813   2.780
 4409SOL    HW214127   2.697   1.904   2.648
 4410SOL     OW14128   1.657   5.830   1.533
 4410SOL    HW114129   1.595   5.827   1.455
 4410SOL    HW214130   1.614   5.879   1.609
 4411SOL     OW14131   4.127   3.383   2.534
 4411SOL    HW114132   4.082   3.359   2.620
 4411SOL    HW214133   4.124   3.305   2.471
 4412SOL     OW14134   3.524   1.498   5.978
 4412SOL    HW114135   3.589   1.540   6.041
 4412SOL    HW214136   3.494   1.410   6.015
 4413SOL     OW14137   4.410   5.177   3.826
 4413SOL    HW114138   4.389   5.092   3.875
 4413SOL    HW214139   4.435   5.248   3.891
 4414SOL     OW14140   3.509   4.997   2.061
 4414SOL    HW114141   3.553   4.913   2.029
 4414SOL    HW214142   3.410   4.983   2.064
 4415SOL     OW14143   4.755   1.478   1.403
 4415SOL    HW114144   4.800   1.545   1.461
 4415SOL    HW214145   4.659   1.504   1.390
 4416SOL     OW14146   2.670   1.976   4.709
 4416SOL    HW114147   2.600   1.997   4.641
 4416SOL    HW214148   2.629   1.973   4.800
 4417SOL     OW14149   6.193   6.632   1.252
 4417SOL    HW114150   6.150   6.577   1.323
 4417SOL    HW214151   6.215   6.574   1.174
 4418SOL     OW14152   5.105   1.219   3.180
 4418SOL    HW114153   5.073   1.182   3.267
 4418SOL    HW214154   5.185   1.169   3.149
 4419SOL     OW14155   6.066   5.475   6.379
 4419SOL    HW114156   6.141   5.495   6.316
 4419SOL    HW214157   6.102   5.431   6.461
 4420SOL     OW14158   4.745   0.767   0.462
 4420SOL    HW114159   4.822   0.729   0.412
 4420SOL    HW214160   4.664   0.711   0.445
 4421SOL     OW14161   0.175   1.339   3.368
 4421SOL    HW114162   0.094   1.284   3.388
 4421SOL    HW214163   0.245   1.282   3.326
 4422SOL     OW14164   1.503   4.174   6.078
 4422SOL    HW114165   1.582   4.135   6.031
 4422SOL    HW214166   1.453   4.235   6.017
 4423SOL     OW14167   6.919   1.459   5.970
 4423SOL    HW114168   6.959   1.484   5.882
 4423SOL    HW214169   6.968   1.505   6.044
 4424SOL     OW14170   1.213   5.770   3.721
 4424SOL    HW114171   1.270   5.737   3.796
 4424SOL    HW214172   1.139   5.704   3.704
 4425SOL     OW14173   5.204   4.394   0.971
 4425SOL    HW114174   5.196   4.396   1.070
 4425SOL    HW214175   5.117   4.419   0.930
 4426SOL     OW14176   0.597   0.270   6.921
 4426SOL    HW114177   0.512   0.225   6.895
 4426SOL    HW214178   0.576   0.353   6.972
 4427SOL     OW14179   1.190   5.852   3.464
 4427SOL    HW114180   1.229   5.826   3.553
 4427SOL    HW214181   1.186   5.952   3.458
 4428SOL     OW14182   1.610   6.931   3.122
 4428SOL    HW114183   1.601   6.983   3.207
 4428SOL    HW214184   1.636   6.837   3.143
 4429SOL     OW14185   3.189   0.926   3.287
 4429SOL    HW114186   3.096   0.961   3.283
 4429SOL    HW214187   3.188   0.828   3.308
 4430SOL     OW14188   1.419   1.164   2.147
 4430SOL    HW114189   1.410   1.077   2.097
 4430SOL    HW214190   1.370   1.235   2.097
 4431SOL     OW14191   2.202   2.197   3.454
 4431SOL    HW114192   2.246   2.223   3.367
 4431SOL    HW214193   2.102   2.196   3.441
 4432SOL     OW14194   2.932   3.723   3.774
 4432SOL    HW114195   2.931   3.627   3.746
 4432SOL    HW214196   3.026   3.751   3.796
 4433SOL     OW14197   6.390   0.571   2.733
 4433SOL    HW114198   6.399   0.669   2.750
 4433SOL    HW214199   6.478   0.533   2.704
 4434SOL     OW14200   5.109   2.273   5.116
 4434SOL    HW114201   5.204   2.248   5.136
 4434SOL    HW214202   5.058   2.285   5.201
 4435SOL     OW14203   3.986   3.269   2.103
 4435SOL    HW114204   3.922   3.336   2.142
 4435SOL    HW214205   4.064   3.258   2.165
 4436SOL     OW14206   5.333   0.097   0.417
 4436SOL    HW114207   5.423   0.057   0.435
 4436SOL    HW214208   5.312   0.165   0.487
 4437SOL     OW14209   3.339   0.425   5.501
 4437SOL    HW114210   3.353   0.504   5.441
 4437SOL    HW214211   3.251   0.383   5.482
 4438SOL     OW14212   3.740   3.102   6.475
 4438SOL    HW114213   3.802   3.044   6.421
 4438SOL    HW214214   3.748   3.196   6.444
 4439SOL     OW14215   1.944   4.299   2.737
 4439SOL    HW114216   1.960   4.209   2.777
 4439SOL    HW214217   2.021   4.359   2.756
 4440SOL     OW14218   6.290   1.615   0.524
 4440SOL    HW114219   6.236   1.531   0.521
 4440SOL    HW214220   6.251   1.678   0.592
 4441SOL     OW14221   6.403   0.641   3.657
 4441SOL    HW114222   6.410   0.687   3.746
 4441SOL    HW214223   6.326   0.678   3.607
 4442SOL     OW14224   1.685   6.107   2.094
 4442SOL    HW114225   1.754   6.179   2.081
 4442SOL    HW214226   1.666   6.096   2.192
 4443SOL     OW14227   2.436   1.801   0.500
 4443SOL    HW114228   2.456   1.722   0.558
 4443SOL    HW214229   2.396   1.770   0.414
 4444SOL     OW14230   4.947   1.278   2.956
 4444SOL    HW114231   4.974   1.369   2.927
 4444SOL    HW214232   5.003   1.251   3.035
 4445SOL     OW14233   0.832   1.152   6.217
 4445SOL    HW114234   0.852   1.056   6.196
 4445SOL    HW214235   0.868   1.210   6.144
 4446SOL     OW14236   5.218   4.425   3.889
 4446SOL    HW114237   5.172   4.338   3.871
 4446SOL    HW214238   5.226   4.438   3.988
 4447SOL     OW14239   4.926   3.537   5.433
 4447SOL    HW114240   4.827   3.523   5.420
 4447SOL    HW214241   4.958   3.607   5.368
 4448SOL     OW14242   2.528   3.347   6.540
 4448SOL    HW114243   2.539   3.298   6.626
 4448SOL    HW214244   2.562   3.291   6.465
 4449SOL     OW14245   0.181   1.269   5.819
 4449SOL    HW114246   0.251   1.238   5.884
 4449SOL    HW214247   0.217   1.345   5.765
 4450SOL     OW14248   3.438   3.546   2.634
 4450SOL    HW114249   3.359   3.583   2.586
 4450SOL    HW214250   3.520   3.596   2.607
 4451SOL     OW14251   0.185   4.207   0.981
 4451SOL    HW114252   0.129   4.257   0.914
 4451SOL    HW214253   0.242   4.141   0.933
 4452SOL     OW14254   6.660   3.099   6.166
 4452SOL    HW114255   6.577   3.152   6.150
 4452SOL    HW214256   6.740   3.153   6.141
 4453SOL     OW14257   5.229   1.050   0.948
 4453SOL    HW114258   5.238   1.124   0.882
 4453SOL    HW214259   5.255   1.084   1.039
 4454SOL     OW14260   5.273   2.997   1.739
 4454SOL    HW114261   5.303   3.091   1.756
 4454SOL    HW214262   5.201   2.997   1.670
 4455SOL     OW14263   4.537   2.285   2.722
 4455SOL    HW114264   4.613   2.340   2.688
 4455SOL    HW214265   4.470   2.272   2.648
 4456SOL     OW14266   0.676   5.853   2.492
 4456SOL    HW114267   0.639   5.821   2.405
 4456SOL    HW214268   0.762   5.902   2.476
 4457SOL     OW14269   4.651   1.799   0.046
 4457SOL    HW114270   4.636   1.866   0.119
 4457SOL    HW214271   4.591   1.721   0.059
 4458SOL     OW14272   4.488   1.562   1.366
 4458SOL    HW114273   4.456   1.494   1.432
 4458SOL    HW214274   4.411   1.621   1.340
 4459SOL     OW14275   5.731   6.386   5.318
 4459SOL    HW114276   5.633   6.383   5.337
 4459SOL    HW214277   5.782   6.373   5.403
 4460SOL     OW14278   1.097   1.359   6.683
 4460SOL    HW114279   1.095   1.459   6.686
 4460SOL    HW214280   1.103   1.324   6.776
 4461SOL     OW14281   1.805   0.314   2.409
 4461SOL    HW114282   1.719   0.291   2.364
 4461SOL    HW214283   1.869   0.351   2.341
 4462SOL     OW14284   6.687   4.089   0.503
 4462SOL    HW114285   6.614   4.115   0.440
 4462SOL    HW214286   6.648   4.074   0.594
 4463SOL     OW14287   1.154   4.752   6.696
 4463SOL    HW114288   1.231   4.709   6.648
 4463SOL    HW214289   1.128   4.836   6.648
 4464SOL     OW14290   6.301   2.753   6.905
 4464SOL    HW114291   6.300   2.768   7.004
 4464SOL    HW214292   6.386   2.791   6.867
 4465SOL     OW14293   6.899   5.661   0.628
 4465SOL    HW114294   6.891   5.629   0.533
 4465SOL    HW214295   6.928   5.586   0.686
 4466SOL     OW14296   6.969   2.924   3.239
 4466SOL    HW114297   6.966   2.970   3.328
 4466SOL    HW214298   6.991   2.827   3.253
 4467SOL     OW14299   1.081   0.512   3.256
 4467SOL    HW114300   1.086   0.524   3.156
 4467SOL    HW214301   1.161   0.463   3.287
 4468SOL     OW14302   1.683   2.111   0.784
 4468SOL    HW114303   1.726   2.184   0.730
 4468SOL    HW214304   1.733   2.101   0.870
 4469SOL     OW14305   4.317   6.998   0.805
 4469SOL    HW114306   4.311   0.073   0.777
 4469SOL    HW214307   4.389   6.987   0.873
 4470SOL     OW14308   4.592   4.685   1.554
 4470SOL    HW114309   4.616   4.627   1.632
 4470SOL    HW214310   4.526   4.638   1.496
 4471SOL     OW14311   6.226   2.674   1.215
 4471SOL    HW114312   6.243   2.710   1.123
 4471SOL    HW214313   6.159   2.733   1.261
 4472SOL     OW14314   2.243   4.815   1.473
 4472SOL    HW114315   2.241   4.715   1.471
 4472SOL    HW214316   2.154   4.850   1.443
 4473SOL     OW14317   6.708   0.666   6.913
 4473SOL    HW114318   6.719   0.763   6.937
 4473SOL    HW214319   6.764   0.645   6.833
 4474SOL     OW14320   6.463   0.870   4.235
 4474SOL    HW114321   6.432   0.896   4.143
 4474SOL    HW214322   6.491   0.774   4.235
 4475SOL     OW14323   1.478   3.843   0.471
 4475SOL    HW114324   1.509   3.859   0.565
 4475SOL    HW214325   1.554   3.853   0.408
 4476SOL     OW14326   4.802   6.292   2.842
 4476SOL    HW114327   4.732   6.230   2.876
 4476SOL    HW214328   4.765   6.385   2.835
 4477SOL     OW14329   1.406   2.185   0.788
 4477SOL    HW114330   1.505   2.174   0.779
 4477SOL    HW214331   1.386   2.264   0.846
 4478SOL     OW14332   1.310   4.784   1.734
 4478SOL    HW114333   1.364   4.728   1.672
 4478SOL    HW214334   1.218   4.797   1.696
 4479SOL     OW14335   1.617   0.519   6.324
 4479SOL    HW114336   1.621   0.422   6.347
 4479SOL    HW214337   1.680   0.569   6.383
 4480SOL     OW14338   6.801   4.237   3.571
 4480SOL    HW114339   6.808   4.321   3.624
 4480SOL    HW214340   6.746   4.255   3.488
 4481SOL     OW14341   0.403   0.832   4.033
 4481SOL    HW114342   0.470   0.759   4.023
 4481SOL    HW214343   0.403   0.865   4.128
 4482SOL     OW14344   1.302   4.443   2.965
 4482SOL    HW114345   1.274   4.530   2.924
 4482SOL    HW214346   1.266   4.367   2.911
 4483SOL     OW14347   6.012   3.495   0.768
 4483SOL    HW114348   6.101   3.474   0.808
 4483SOL    HW214349   6.013   3.473   0.670
 4484SOL     OW14350   3.483   3.640   6.091
 4484SOL    HW114351   3.494   3.648   6.190
 4484SOL    HW214352   3.565   3.673   6.046
 4485SOL     OW14353   4.768   0.275   6.737
 4485SOL    HW114354   4.837   0.210   6.705
 4485SOL    HW214355   4.677   0.239   6.717
 4486SOL     OW14356   6.118   3.425   3.840
 4486SOL    HW114357   6.122   3.436   3.939
 4486SOL    HW214358   6.182   3.354   3.811
 4487SOL     OW14359   2.970   2.837   5.747
 4487SOL    HW114360   2.935   2.885   5.667
 4487SOL    HW214361   2.998   2.744   5.720
 4488SOL     OW14362   6.852   1.901   6.502
 4488SOL    HW114363   6.844   1.992   6.463
 4488SOL    HW214364   6.770   1.880   6.556
 4489SOL     OW14365   0.969   1.212   2.565
 4489SOL    HW114366   0.963   1.248   2.658
 4489SOL    HW214367   0.934   1.281   2.501
 4490SOL     OW14368   6.598   2.515   3.977
 4490SOL    HW114369   6.626   2.609   3.957
 4490SOL    HW214370   6.499   2.509   3.978
 4491SOL     OW14371   1.949   4.007   2.532
 4491SOL    HW114372   1.866   4.063   2.528
 4491SOL    HW214373   1.948   3.942   2.456
 4492SOL     OW14374   4.838   4.550   6.480
 4492SOL    HW114375   4.770   4.555   6.553
 4492SOL    HW214376   4.914   4.611   6.500
 4493SOL     OW14377   5.920   4.692   3.702
 4493SOL    HW114378   5.884   4.736   3.785
 4493SOL    HW214379   5.856   4.621   3.672
 4494SOL     OW14380   5.336   2.468   2.763
 4494SOL    HW114381   5.357   2.521   2.681
 4494SOL    HW214382   5.288   2.384   2.736
 4495SOL     OW14383   4.804   6.096   1.978
 4495SOL    HW114384   4.828   6.090   1.881
 4495SOL    HW214385   4.887   6.102   2.033
 4496SOL     OW14386   6.054   3.989   5.703
 4496SOL    HW114387   6.049   4.087   5.722
 4496SOL    HW214388   6.001   3.939   5.771
 4497SOL     OW14389   6.428   5.918   0.544
 4497SOL    HW114390   6.384   5.962   0.465
 4497SOL    HW214391   6.437   5.985   0.618
 4498SOL     OW14392   1.065   3.972   6.881
 4498SOL    HW114393   1.105   3.882   6.863
 4498SOL    HW214394   1.085   4.034   6.805
 4499SOL     OW14395   5.019   3.472   0.214
 4499SOL    HW114396   4.992   3.554   0.163
 4499SOL    HW214397   5.008   3.391   0.155
 4500SOL     OW14398   4.007   3.851   2.921
 4500SOL    HW114399   4.037   3.836   3.015
 4500SOL    HW214400   4.040   3.776   2.864
 4501SOL     OW14401   1.540   4.751   4.524
 4501SOL    HW114402   1.549   4.726   4.620
 4501SOL    HW214403   1.478   4.688   4.478
 4502SOL     OW14404   5.625   2.576   0.103
 4502SOL    HW114405   5.626   2.637   0.025
 4502SOL    HW214406   5.587   2.487   0.076
 4503SOL     OW14407   1.474   3.443   2.746
 4503SOL    HW114408   1.521   3.513   2.800
 4503SOL    HW214409   1.384   3.425   2.786
 4504SOL     OW14410   4.636   2.672   4.422
 4504SOL    HW114411   4.623   2.688   4.325
 4504SOL    HW214412   4.584   2.591   4.451
 4505SOL     OW14413   1.968   5.173   0.179
 4505SOL    HW114414   1.931   5.225   0.102
 4505SOL    HW214415   2.055   5.213   0.207
 4506SOL     OW14416   3.735   0.177   5.672
 4506SOL    HW114417   3.666   0.135   5.730
 4506SOL    HW214418   3.691   0.217   5.591
 4507SOL     OW14419   6.508   3.396   2.200
 4507SOL    HW114420   6.547   3.466   2.261
 4507SOL    HW214421   6.524   3.422   2.105
 4508SOL     OW14422   1.989   3.582   0.233
 4508SOL    HW114423   1.924   3.591   0.158
 4508SOL    HW214424   1.960   3.641   0.309
 4509SOL     OW14425   0.274   1.957   3.384
 4509SOL    HW114426   0.242   2.048   3.355
 4509SOL    HW214427   0.326   1.915   3.310
 4510SOL     OW14428   3.273   6.233   6.142
 4510SOL    HW114429   3.207   6.208   6.213
 4510SOL    HW214430   3.283   6.332   6.140
 4511SOL     OW14431   6.930   2.124   0.121
 4511SOL    HW114432   6.855   2.099   0.060
 4511SOL    HW214433   6.937   2.056   0.194
 4512SOL     OW14434   2.432   3.977   6.737
 4512SOL    HW114435   2.468   4.064   6.703
 4512SOL    HW214436   2.495   3.904   6.714
 4513SOL     OW14437   6.063   1.288   2.363
 4513SOL    HW114438   6.138   1.281   2.298
 4513SOL    HW214439   6.057   1.203   2.417
 4514SOL     OW14440   3.323   0.742   5.846
 4514SOL    HW114441   3.405   0.686   5.832
 4514SOL    HW214442   3.282   0.764   5.757
 4515SOL     OW14443   6.366   4.743   0.121
 4515SOL    HW114444   6.464   4.759   0.128
 4515SOL    HW214445   6.330   4.718   0.211
 4516SOL     OW14446   0.758   0.230   3.848
 4516SOL    HW114447   0.815   0.312   3.838
 4516SOL    HW214448   0.780   0.165   3.775
 4517SOL     OW14449   3.344   0.507   0.091
 4517SOL    HW114450   3.267   0.534   0.034
 4517SOL    HW214451   3.417   0.574   0.082
 4518SOL     OW14452   1.691   0.028   3.914
 4518SOL    HW114453   1.682   0.003   3.818
 4518SOL    HW214454   1.749   0.109   3.922
 4519SOL     OW14455   6.461   2.510   5.336
 4519SOL    HW114456   6.535   2.451   5.302
 4519SOL    HW214457   6.417   2.555   5.258
 4520SOL     OW14458   0.166   4.131   2.998
 4520SOL    HW114459   0.246   4.072   2.996
 4520SOL    HW214460   0.194   4.226   3.012
 4521SOL     OW14461   4.989   1.740   6.241
 4521SOL    HW114462   4.964   1.740   6.144
 4521SOL    HW214463   5.063   1.806   6.257
 4522SOL     OW14464   5.432   0.031   3.562
 4522SOL    HW114465   5.371   0.110   3.558
 4522SOL    HW214466   5.391   6.975   3.512
 4523SOL     OW14467   4.986   2.461   5.992
 4523SOL    HW114468   5.063   2.502   6.040
 4523SOL    HW214469   4.955   2.523   5.920
 4524SOL     OW14470   6.160   0.664   4.991
 4524SOL    HW114471   6.232   0.604   4.955
 4524SOL    HW214472   6.194   0.758   4.995
 4525SOL     OW14473   6.317   1.639   4.772
 4525SOL    HW114474   6.287   1.599   4.859
 4525SOL    HW214475   6.248   1.703   4.739
 4526SOL     OW14476   3.363   1.221   1.736
 4526SOL    HW114477   3.388   1.133   1.777
 4526SOL    HW214478   3.263   1.230   1.736
 4527SOL     OW14479   4.299   6.256   3.913
 4527SOL    HW114480   4.259   6.327   3.970
 4527SOL    HW214481   4.396   6.276   3.898
 4528SOL     OW14482   5.284   0.196   5.579
 4528SOL    HW114483   5.232   0.278   5.553
 4528SOL    HW214484   5.220   0.122   5.598
 4529SOL     OW14485   3.832   0.126   4.090
 4529SOL    HW114486   3.861   0.182   4.012
 4529SOL    HW214487   3.891   0.145   4.168
 4530SOL     OW14488   0.453   2.913   5.038
 4530SOL    HW114489   0.469   2.821   5.002
 4530SOL    HW214490   0.417   2.907   5.131
 4531SOL     OW14491   0.401   3.928   3.914
 4531SOL    HW114492   0.454   3.879   3.984
 4531SOL    HW214493   0.411   4.027   3.929
 4532SOL     OW14494   0.639   2.402   0.337
 4532SOL    HW114495   0.616   2.445   0.250
 4532SOL    HW214496   0.736   2.415   0.356
 4533SOL     OW14497   2.926   5.879   2.076
 4533SOL    HW114498   2.923   5.924   2.165
 4533SOL    HW214499   2.927   5.949   2.004
 4534SOL     OW14500   0.184   4.623   5.719
 4534SOL    HW114501   0.121   4.546   5.709
 4534SOL    HW214502   0.152   4.701   5.666
 4535SOL     OW14503   5.094   2.834   3.223
 4535SOL    HW114504   5.032   2.794   3.156
 4535SOL    HW214505   5.100   2.933   3.209
 4536SOL     OW14506   6.754   0.272   4.017
 4536SOL    HW114507   6.727   0.342   3.952
 4536SOL    HW214508   6.794   0.315   4.098
 4537SOL     OW14509   5.125   3.753   6.644
 4537SOL    HW114510   5.054   3.797   6.588
 4537SOL    HW214511   5.093   3.662   6.672
 4538SOL     OW14512   3.520   2.322   1.409
 4538SOL    HW114513   3.540   2.244   1.467
 4538SOL    HW214514   3.455   2.383   1.455
 4539SOL     OW14515   2.457   2.343   2.220
 4539SOL    HW114516   2.475   2.395   2.303
 4539SOL    HW214517   2.543   2.309   2.182
 4540SOL     OW14518   3.424   3.186   5.148
 4540SOL    HW114519   3.376   3.168   5.062
 4540SOL    HW214520   3.410   3.282   5.174
 4541SOL     OW14521   5.904   0.642   1.894
 4541SOL    HW114522   5.880   0.711   1.826
 4541SOL    HW214523   5.840   0.565   1.887
 4542SOL     OW14524   5.075   6.587   3.335
 4542SOL    HW114525   5.170   6.555   3.345
 4542SOL    HW214526   5.014   6.508   3.329
 4543SOL     OW14527   5.757   2.404   2.178
 4543SOL    HW114528   5.728   2.431   2.269
 4543SOL    HW214529   5.710   2.461   2.110
 4544SOL     OW14530   4.678   5.589   6.485
 4544SOL    HW114531   4.772   5.575   6.514
 4544SOL    HW214532   4.615   5.550   6.552
 4545SOL     OW14533   3.945   3.915   5.992
 4545SOL    HW114534   3.906   3.924   5.901
 4545SOL    HW214535   3.896   3.974   6.056
 4546SOL     OW14536   0.512   5.999   0.144
 4546SOL    HW114537   0.489   6.093   0.120
 4546SOL    HW214538   0.498   5.940   0.064
 4547SOL     OW14539   4.630   1.523   2.122
 4547SOL    HW114540   4.581   1.570   2.196
 4547SOL    HW214541   4.570   1.455   2.080
 4548SOL     OW14542   1.024   3.744   3.904
 4548SOL    HW114543   0.954   3.681   3.873
 4548SOL    HW214544   1.073   3.781   3.825
 4549SOL     OW14545   5.236   1.758   2.426
 4549SOL    HW114546   5.314   1.697   2.412
 4549SOL    HW214547   5.261   1.829   2.492
 4550SOL     OW14548   1.765   5.812   4.670
 4550SOL    HW114549   1.807   5.899   4.644
 4550SOL    HW214550   1.665   5.823   4.671
 4551SOL     OW14551   6.536   3.048   0.301
 4551SOL    HW114552   6.499   3.140   0.291
 4551SOL    HW214553   6.590   3.025   0.221
 4552SOL     OW14554   6.929   3.324   4.664
 4552SOL    HW114555   6.997   3.336   4.736
 4552SOL    HW214556   6.920   3.227   4.642
 4553SOL     OW14557   5.023   4.859   0.332
 4553SOL    HW114558   5.054   4.764   0.339
 4553SOL    HW214559   5.101   4.920   0.340
 4554SOL     OW14560   6.222   6.814   3.927
 4554SOL    HW114561   6.169   6.888   3.968
 4554SOL    HW214562   6.186   6.793   3.837
 4555SOL     OW14563   4.166   3.236   6.735
 4555SOL    HW114564   4.240   3.179   6.699
 4555SOL    HW214565   4.163   3.322   6.684
 4556SOL     OW14566   4.607   0.406   4.814
 4556SOL    HW114567   4.667   0.367   4.744
 4556SOL    HW214568   4.660   0.425   4.897
 4557SOL     OW14569   5.004   0.161   4.442
 4557SOL    HW114570   4.939   0.212   4.386
 4557SOL    HW214571   5.089   0.148   4.392
 4558SOL     OW14572   6.332   3.008   5.788
 4558SOL    HW114573   6.392   2.997   5.867
 4558SOL    HW214574   6.256   2.944   5.795
 4559SOL     OW14575   1.034   6.272   1.244
 4559SOL    HW114576   1.058   6.186   1.289
 4559SOL    HW214577   0.935   6.276   1.230
 4560SOL     OW14578   5.771   2.833   2.567
 4560SOL    HW114579   5.793   2.807   2.661
 4560SOL    HW214580   5.760   2.932   2.561
 4561SOL     OW14581   3.462   6.979   6.495
 4561SOL    HW114582   3.439   6.908   6.561
 4561SOL    HW214583   3.460   0.048   6.540
 4562SOL     OW14584   2.558   4.569   5.816
 4562SOL    HW114585   2.569   4.601   5.722
 4562SOL    HW214586   2.540   4.471   5.816
 4563SOL     OW14587   5.913   2.339   6.472
 4563SOL    HW114588   6.004   2.319   6.511
 4563SOL    HW214589   5.848   2.269   6.503
 4564SOL     OW14590   0.673   5.309   6.804
 4564SOL    HW114591   0.667   5.354   6.893
 4564SOL    HW214592   0.616   5.359   6.738
 4565SOL     OW14593   2.834   1.198   3.970
 4565SOL    HW114594   2.780   1.198   4.055
 4565SOL    HW214595   2.810   1.278   3.915
 4566SOL     OW14596   1.334   0.958   0.803
 4566SOL    HW114597   1.362   0.924   0.714
 4566SOL    HW214598   1.387   1.041   0.825
 4567SOL     OW14599   5.806   1.684   1.155
 4567SOL    HW114600   5.724   1.730   1.123
 4567SOL    HW214601   5.801   1.586   1.133
 4568SOL     OW14602   4.204   4.745   4.110
 4568SOL    HW114603   4.262   4.705   4.039
 4568SOL    HW214604   4.113   4.762   4.074
 4569SOL     OW14605   0.427   2.152   3.175
 4569SOL    HW114606   0.479   2.211   3.237
 4569SOL    HW214607   0.404   2.202   3.092
 4570SOL     OW14608   5.364   5.703   4.771
 4570SOL    HW114609   5.395   5.657   4.688
 4570SOL    HW214610   5.310   5.783   4.746
 4571SOL     OW14611   3.601   3.072   4.430
 4571SOL    HW114612   3.683   3.051   4.377
 4571SOL    HW214613   3.567   3.162   4.404
 4572SOL     OW14614   1.978   5.201   1.817
 4572SOL    HW114615   1.884   5.226   1.792
 4572SOL    HW214616   2.006   5.122   1.763
 4573SOL     OW14617   4.988   0.614   0.863
 4573SOL    HW114618   4.933   0.574   0.937
 4573SOL    HW214619   4.996   0.547   0.788
 4574SOL     OW14620   6.939   4.513   1.557
 4574SOL    HW114621   6.868   4.485   1.622
 4574SOL    HW214622   0.001   4.460   1.573
 4575SOL     OW14623   6.556   6.002   2.063
 4575SOL    HW114624   6.524   6.079   2.118
 4575SOL    HW214625   6.526   6.013   1.969
 4576SOL     OW14626   3.647   6.245   4.098
 4576SOL    HW114627   3.709   6.294   4.159
 4576SOL    HW214628   3.564   6.220   4.148
 4577SOL     OW14629   1.382   2.884   4.217
 4577SOL    HW114630   1.442   2.845   4.147
 4577SOL    HW214631   1.288   2.885   4.183
 4578SOL     OW14632   0.253   5.501   4.000
 4578SOL    HW114633   0.308   5.509   3.917
 4578SOL    HW214634   0.277   5.575   4.063
 4579SOL     OW14635   5.513   2.015   4.730
 4579SOL    HW114636   5.512   1.940   4.663
 4579SOL    HW214637   5.500   1.977   4.822
 4580SOL     OW14638   0.409   5.415   0.132
 4580SOL    HW114639   0.350   5.337   0.110
 4580SOL    HW214640   0.352   5.496   0.145
 4581SOL     OW14641   3.442   6.064   4.252
 4581SOL    HW114642   3.496   5.981   4.240
 4581SOL    HW214643   3.408   6.069   4.346
 4582SOL     OW14644   4.983   6.643   2.981
 4582SOL    HW114645   5.049   6.673   3.050
 4582SOL    HW214646   4.893   6.633   3.023
 4583SOL     OW14647   3.562   1.114   5.427
 4583SOL    HW114648   3.569   1.164   5.341
 4583SOL    HW214649   3.495   1.158   5.487
 4584SOL     OW14650   1.017   4.648   5.827
 4584SOL    HW114651   0.928   4.613   5.799
 4584SOL    HW214652   1.038   4.616   5.920
 4585SOL     OW14653   3.139   6.388   2.059
 4585SOL    HW114654   3.176   6.300   2.028
 4585SOL    HW214655   3.092   6.376   2.146
 4586SOL     OW14656   2.623   6.238   1.496
 4586SOL    HW114657   2.654   6.333   1.496
 4586SOL    HW214658   2.553   6.226   1.426
 4587SOL     OW14659   3.363   4.616   0.742
 4587SOL    HW114660   3.356   4.560   0.659
 4587SOL    HW214661   3.411   4.701   0.722
 4588SOL     OW14662   3.436   4.060   4.862
 4588SOL    HW114663   3.337   4.059   4.845
 4588SOL    HW214664   3.471   3.966   4.857
 4589SOL     OW14665   0.977   1.982   3.101
 4589SOL    HW114666   0.991   1.926   3.020
 4589SOL    HW214667   0.979   1.923   3.182
 4590SOL     OW14668   4.093   6.380   2.941
 4590SOL    HW114669   4.192   6.381   2.953
 4590SOL    HW214670   4.051   6.446   3.004
 4591SOL     OW14671   6.143   6.609   5.012
 4591SOL    HW114672   6.061   6.665   5.024
 4591SOL    HW214673   6.141   6.533   5.078
 4592SOL     OW14674   3.221   1.419   6.105
 4592SOL    HW114675   3.181   1.366   6.180
 4592SOL    HW214676   3.210   1.369   6.019
 4593SOL     OW14677   5.049   6.469   1.631
 4593SOL    HW114678   5.021   6.523   1.711
 4593SOL    HW214679   5.054   6.373   1.657
 4594SOL     OW14680   3.920   1.847   2.335
 4594SOL    HW114681   3.887   1.913   2.268
 4594SOL    HW214682   3.843   1.792   2.369
 4595SOL     OW14683   4.866   3.535   5.871
 4595SOL    HW114684   4.872   3.625   5.827
 4595SOL    HW214685   4.944   3.480   5.845
 4596SOL     OW14686   5.131   0.130   2.334
 4596SOL    HW114687   5.144   0.190   2.255
 4596SOL    HW214688   5.058   0.065   2.316
 4597SOL     OW14689   6.709   4.307   5.580
 4597SOL    HW114690   6.744   4.336   5.670
 4597SOL    HW214691   6.684   4.388   5.527
 4598SOL     OW14692   3.202   3.779   0.406
 4598SOL    HW114693   3.280   3.717   0.403
 4598SOL    HW214694   3.131   3.746   0.343
 4599SOL     OW14695   2.900   5.421   0.497
 4599SOL    HW114696   2.958   5.407   0.417
 4599SOL    HW214697   2.911   5.344   0.560
 4600SOL     OW14698   3.374   4.147   1.373
 4600SOL    HW114699   3.372   4.056   1.331
 4600SOL    HW214700   3.463   4.190   1.356
 4601SOL     OW14701   1.663   5.855   4.082
 4601SOL    HW114702   1.573   5.884   4.049
 4601SOL    HW214703   1.696   5.779   4.026
 4602SOL     OW14704   1.676   0.547   1.032
 4602SOL    HW114705   1.644   0.611   0.962
 4602SOL    HW214706   1.761   0.504   1.001
 4603SOL     OW14707   2.981   1.482   2.077
 4603SOL    HW114708   3.042   1.493   1.999
 4603SOL    HW214709   2.886   1.482   2.046
 4604SOL     OW14710   1.521   0.963   2.330
 4604SOL    HW114711   1.621   0.973   2.334
 4604SOL    HW214712   1.486   1.021   2.257
 4605SOL     OW14713   5.191   5.929   5.613
 4605SOL    HW114714   5.131   5.943   5.534
 4605SOL    HW214715   5.161   5.987   5.688
 4606SOL     OW14716   0.073   5.607   5.032
 4606SOL    HW114717   0.092   5.642   4.941
 4606SOL    HW214718   7.001   5.569   5.034
 4607SOL     OW14719   2.505   2.824   1.231
 4607SOL    HW114720   2.504   2.920   1.260
 4607SOL    HW214721   2.546   2.818   1.140
 4608SOL     OW14722   1.471   3.405   5.037
 4608SOL    HW114723   1.510   3.365   4.954
 4608SOL    HW214724   1.407   3.340   5.078
 4609SOL     OW14725   3.114   7.009   0.485
 4609SOL    HW114726   3.067   6.921   0.486
 4609SOL    HW214727   3.206   6.998   0.522
 4610SOL     OW14728   6.916   3.319   6.636
 4610SOL    HW114729   6.971   3.397   6.605
 4610SOL    HW214730   6.957   3.234   6.603
 4611SOL     OW14731   1.508   4.351   6.633
 4611SOL    HW114732   1.556   4.266   6.609
 4611SOL    HW214733   1.425   4.328   6.683
 4612SOL     OW14734   2.352   0.334   6.032
 4612SOL    HW114735   2.359   0.360   6.129
 4612SOL    HW214736   2.382   0.240   6.021
 4613SOL     OW14737   3.200   5.244   1.715
 4613SOL    HW114738   3.260   5.188   1.657
 4613SOL    HW214739   3.169   5.190   1.792
 4614SOL     OW14740   2.328   4.985   6.986
 4614SOL    HW114741   2.319   4.972   6.888
 4614SOL    HW214742   2.341   4.896   0.010
 4615SOL     OW14743   6.359   3.258   6.877
 4615SOL    HW114744   6.395   3.230   6.789
 4615SOL    HW214745   6.308   3.343   6.866
 4616SOL     OW14746   5.804   0.569   0.051
 4616SOL    HW114747   5.824   0.598   6.978
 4616SOL    HW214748   5.890   0.561   0.102
 4617SOL     OW14749   0.005   3.966   1.881
 4617SOL    HW114750   6.937   3.985   1.925
 4617SOL    HW214751   0.049   3.890   1.927
 4618SOL     OW14752   0.706   2.784   6.591
 4618SOL    HW114753   0.658   2.734   6.663
 4618SOL    HW214754   0.647   2.857   6.556
 4619SOL     OW14755   3.972   0.473   3.383
 4619SOL    HW114756   3.929   0.500   3.297
 4619SOL    HW214757   4.032   0.394   3.367
 4620SOL     OW14758   2.287   5.646   6.770
 4620SOL    HW114759   2.378   5.678   6.795
 4620SOL    HW214760   2.294   5.580   6.695
 4621SOL     OW14761   0.139   0.522   6.322
 4621SOL    HW114762   0.084   0.537   6.404
 4621SOL    HW214763   0.225   0.571   6.329
 4622SOL     OW14764   2.030   3.753   0.708
 4622SOL    HW114765   2.039   3.657   0.736
 4622SOL    HW214766   1.985   3.757   0.618
 4623SOL     OW14767   5.266   4.161   2.351
 4623SOL    HW114768   5.182   4.210   2.374
 4623SOL    HW214769   5.261   4.068   2.386
 4624SOL     OW14770   4.650   6.881   5.622
 4624SOL    HW114771   4.689   6.791   5.601
 4624SOL    HW214772   4.674   6.946   5.551
 4625SOL     OW14773   1.203   3.769   6.250
 4625SOL    HW114774   1.264   3.829   6.199
 4625SOL    HW214775   1.221   3.673   6.225
 4626SOL     OW14776   5.776   5.213   1.826
 4626SOL    HW114777   5.696   5.167   1.865
 4626SOL    HW214778   5.778   5.198   1.727
 4627SOL     OW14779   1.433   0.084   5.562
 4627SOL    HW114780   1.470   0.075   5.654
 4627SOL    HW214781   1.418   0.181   5.541
 4628SOL     OW14782   6.292   2.746   2.165
 4628SOL    HW114783   6.372   2.738   2.105
 4628SOL    HW214784   6.321   2.742   2.260
 4629SOL     OW14785   4.330   4.836   4.336
 4629SOL    HW114786   4.366   4.896   4.408
 4629SOL    HW214787   4.405   4.781   4.299
 4630SOL     OW14788   1.951   6.579   2.303
 4630SOL    HW114789   1.913   6.539   2.387
 4630SOL    HW214790   1.893   6.554   2.226
 4631SOL     OW14791   1.677   0.404   2.999
 4631SOL    HW114792   1.691   0.464   3.078
 4631SOL    HW214793   1.678   0.458   2.915
 4632SOL     OW14794   5.904   5.516   4.163
 4632SOL    HW114795   5.819   5.473   4.193
 4632SOL    HW214796   5.976   5.495   4.229
 4633SOL     OW14797   5.661   2.365   5.974
 4633SOL    HW114798   5.759   2.383   5.967
 4633SOL    HW214799   5.645   2.267   5.976
 4634SOL     OW14800   2.871   4.208   0.563
 4634SOL    HW114801   2.788   4.252   0.597
 4634SOL    HW214802   2.851   4.161   0.478
 4635SOL     OW14803   5.495   3.037   1.912
 4635SOL    HW114804   5.417   3.009   1.857
 4635SOL    HW214805   5.572   2.975   1.893
 4636SOL     OW14806   0.706   5.883   1.612
 4636SOL    HW114807   0.663   5.924   1.532
 4636SOL    HW214808   0.795   5.845   1.587
 4637SOL     OW14809   1.441   0.638   4.298
 4637SOL    HW114810   1.412   0.729   4.326
 4637SOL    HW214811   1.387   0.569   4.348
 4638SOL     OW14812   4.560   4.727   5.887
 4638SOL    HW114813   4.529   4.750   5.979
 4638SOL    HW214814   4.650   4.767   5.870
 4639SOL     OW14815   0.225   2.026   4.635
 4639SOL    HW114816   0.150   2.090   4.654
 4639SOL    HW214817   0.263   2.045   4.544
 4640SOL     OW14818   6.283   4.825   2.787
 4640SOL    HW114819   6.245   4.829   2.879
 4640SOL    HW214820   6.383   4.820   2.793
 4641SOL     OW14821   2.954   3.306   5.463
 4641SOL    HW114822   2.872   3.306   5.406
 4641SOL    HW214823   2.992   3.213   5.467
 4642SOL     OW14824   6.375   5.960   3.763
 4642SOL    HW114825   6.417   5.872   3.742
 4642SOL    HW214826   6.447   6.029   3.772
 4643SOL     OW14827   4.236   3.077   0.883
 4643SOL    HW114828   4.314   3.117   0.834
 4643SOL    HW214829   4.219   3.129   0.966
 4644SOL     OW14830   3.812   4.559   5.311
 4644SOL    HW114831   3.731   4.613   5.289
 4644SOL    HW214832   3.800   4.467   5.275
 4645SOL     OW14833   1.985   6.327   4.999
 4645SOL    HW114834   2.080   6.354   5.010
 4645SOL    HW214835   1.950   6.290   5.086
 4646SOL     OW14836   3.757   0.635   1.207
 4646SOL    HW114837   3.671   0.628   1.257
 4646SOL    HW214838   3.778   0.732   1.192
 4647SOL     OW14839   6.847   0.529   4.721
 4647SOL    HW114840   6.763   0.504   4.770
 4647SOL    HW214841   6.925   0.483   4.762
 4648SOL     OW14842   1.749   5.815   3.120
 4648SOL    HW114843   1.690   5.856   3.051
 4648SOL    HW214844   1.827   5.875   3.138
 4649SOL     OW14845   5.587   6.627   5.996
 4649SOL    HW114846   5.627   6.537   5.980
 4649SOL    HW214847   5.651   6.698   5.968
 4650SOL     OW14848   6.650   4.669   1.538
 4650SOL    HW114849   6.742   4.666   1.500
 4650SOL    HW214850   6.654   4.651   1.637
 4651SOL     OW14851   6.532   2.651   2.029
 4651SOL    HW114852   6.473   2.585   1.981
 4651SOL    HW214853   6.581   2.604   2.102
 4652SOL     OW14854   0.108   5.966   5.256
 4652SOL    HW114855   0.152   5.878   5.274
 4652SOL    HW214856   0.058   5.961   5.170
 4653SOL     OW14857   0.554   5.224   6.444
 4653SOL    HW114858   0.509   5.273   6.519
 4653SOL    HW214859   0.592   5.138   6.479
 4654SOL     OW14860   1.130   1.686   6.691
 4654SOL    HW114861   1.158   1.709   6.598
 4654SOL    HW214862   1.206   1.641   6.739
 4655SOL     OW14863   0.176   5.657   3.420
 4655SOL    HW114864   0.124   5.673   3.336
 4655SOL    HW214865   0.198   5.745   3.463
 4656SOL     OW14866   2.467   6.595   2.924
 4656SOL    HW114867   2.484   6.670   2.989
 4656SOL    HW214868   2.424   6.632   2.842
 4657SOL     OW14869   6.213   0.692   6.056
 4657SOL    HW114870   6.141   0.752   6.023
 4657SOL    HW214871   6.187   0.596   6.040
 4658SOL     OW14872   4.925   0.906   4.210
 4658SOL    HW114873   4.847   0.844   4.203
 4658SOL    HW214874   4.892   1.001   4.213
 4659SOL     OW14875   1.720   2.794   4.291
 4659SOL    HW114876   1.682   2.806   4.383
 4659SOL    HW214877   1.794   2.727   4.294
 4660SOL     OW14878   6.389   1.834   5.132
 4660SOL    HW114879   6.289   1.838   5.127
 4660SOL    HW214880   6.428   1.848   5.041
 4661SOL     OW14881   3.869   2.949   3.240
 4661SOL    HW114882   3.782   2.903   3.259
 4661SOL    HW214883   3.895   2.932   3.145
 4662SOL     OW14884   5.825   0.177   3.790
 4662SOL    HW114885   5.908   0.207   3.742
 4662SOL    HW214886   5.790   0.094   3.747
 4663SOL     OW14887   0.836   2.770   1.787
 4663SOL    HW114888   0.887   2.811   1.711
 4663SOL    HW214889   0.898   2.719   1.845
 4664SOL     OW14890   3.426   3.637   0.390
 4664SOL    HW114891   3.480   3.584   0.456
 4664SOL    HW214892   3.420   3.586   0.304
 4665SOL     OW14893   5.544   0.235   6.647
 4665SOL    HW114894   5.468   0.268   6.703
 4665SOL    HW214895   5.541   0.135   6.643
 4666SOL     OW14896   2.100   2.109   0.565
 4666SOL    HW114897   2.067   2.175   0.632
 4666SOL    HW214898   2.023   2.072   0.513
 4667SOL     OW14899   0.745   5.266   4.523
 4667SOL    HW114900   0.786   5.221   4.602
 4667SOL    HW214901   0.757   5.365   4.531
 4668SOL     OW14902   4.905   0.776   5.244
 4668SOL    HW114903   4.923   0.688   5.199
 4668SOL    HW214904   4.913   0.765   5.343
 4669SOL     OW14905   2.392   1.397   1.916
 4669SOL    HW114906   2.402   1.379   2.014
 4669SOL    HW214907   2.297   1.417   1.895
 4670SOL     OW14908   2.708   1.496   4.353
 4670SOL    HW114909   2.759   1.477   4.437
 4670SOL    HW214910   2.703   1.595   4.339
 4671SOL     OW14911   5.802   2.068   1.931
 4671SOL    HW114912   5.764   2.003   1.866
 4671SOL    HW214913   5.747   2.152   1.931
 4672SOL     OW14914   2.705   2.750   5.395
 4672SOL    HW114915   2.735   2.843   5.374
 4672SOL    HW214916   2.785   2.691   5.406
 4673SOL     OW14917   4.605   0.689   2.423
 4673SOL    HW114918   4.631   0.783   2.445
 4673SOL    HW214919   4.515   0.689   2.379
 4674SOL     OW14920   4.870   6.469   5.108
 4674SOL    HW114921   4.832   6.502   5.194
 4674SOL    HW214922   4.956   6.422   5.125
 4675SOL     OW14923   1.014   4.560   6.852
 4675SOL    HW114924   1.010   4.591   6.947
 4675SOL    HW214925   1.067   4.626   6.798
 4676SOL     OW14926   0.678   5.022   3.899
 4676SOL    HW114927   0.661   4.924   3.899
 4676SOL    HW214928   0.703   5.052   3.991
 4677SOL     OW14929   1.446   3.301   0.415
 4677SOL    HW114930   1.368   3.278   0.474
 4677SOL    HW214931   1.529   3.258   0.451
 4678SOL     OW14932   1.265   4.434   1.952
 4678SOL    HW114933   1.250   4.512   2.014
 4678SOL    HW214934   1.177   4.402   1.917
 4679SOL     OW14935   4.216   0.321   1.931
 4679SOL    HW114936   4.124   0.358   1.918
 4679SOL    HW214937   4.211   0.222   1.942
 4680SOL     OW14938   2.244   0.441   6.666
 4680SOL    HW114939   2.309   0.398   6.728
 4680SOL    HW214940   2.204   0.521   6.711
 4681SOL     OW14941   5.186   5.537   2.239
 4681SOL    HW114942   5.235   5.585   2.311
 4681SOL    HW214943   5.240   5.536   2.155
 4682SOL     OW14944   3.543   3.937   6.008
 4682SOL    HW114945   3.473   3.873   5.976
 4682SOL    HW214946   3.594   3.973   5.930
 4683SOL     OW14947   6.196   4.741   3.659
 4683SOL    HW114948   6.232   4.807   3.724
 4683SOL    HW214949   6.102   4.717   3.684
 4684SOL     OW14950   5.734   6.576   6.476
 4684SOL    HW114951   5.645   6.574   6.522
 4684SOL    HW214952   5.757   6.484   6.444
 4685SOL     OW14953   3.058   4.016   4.288
 4685SOL    HW114954   3.151   4.049   4.270
 4685SOL    HW214955   3.034   3.945   4.222
 4686SOL     OW14956   1.634   0.194   6.811
 4686SOL    HW114957   1.635   0.284   6.855
 4686SOL    HW214958   1.551   0.184   6.756
 4687SOL     OW14959   2.108   0.901   2.863
 4687SOL    HW114960   2.137   0.908   2.768
 4687SOL    HW214961   2.135   0.811   2.900
 4688SOL     OW14962   5.149   2.941   6.180
 4688SOL    HW114963   5.055   2.953   6.149
 4688SOL    HW214964   5.200   2.890   6.111
 4689SOL     OW14965   6.990   1.376   0.571
 4689SOL    HW114966   6.966   1.462   0.615
 4689SOL    HW214967   0.050   1.337   0.616
 4690SOL     OW14968   2.885   2.524   0.745
 4690SOL    HW114969   2.947   2.600   0.725
 4690SOL    HW214970   2.937   2.438   0.743
 4691SOL     OW14971   6.454   3.605   1.656
 4691SOL    HW114972   6.495   3.564   1.575
 4691SOL    HW214973   6.354   3.606   1.647
 4692SOL     OW14974   5.226   2.930   2.910
 4692SOL    HW114975   5.211   2.989   2.990
 4692SOL    HW214976   5.252   2.838   2.941
 4693SOL     OW14977   0.846   0.290   2.437
 4693SOL    HW114978   0.910   0.225   2.395
 4693SOL    HW214979   0.892   0.340   2.510
 4694SOL     OW14980   2.139   0.042   6.516
 4694SOL    HW114981   2.150   6.964   6.527
 4694SOL    HW214982   2.208   0.076   6.451
 4695SOL     OW14983   2.345   5.070   2.286
 4695SOL    HW114984   2.445   5.081   2.288
 4695SOL    HW214985   2.304   5.148   2.240
 4696SOL     OW14986   1.201   6.368   6.164
 4696SOL    HW114987   1.222   6.294   6.100
 4696SOL    HW214988   1.150   6.332   6.242
 4697SOL     OW14989   4.488   5.871   1.542
 4697SOL    HW114990   4.529   5.884   1.451
 4697SOL    HW214991   4.558   5.878   1.612
 4698SOL     OW14992   5.576   1.388   4.496
 4698SOL    HW114993   5.566   1.295   4.532
 4698SOL    HW214994   5.551   1.389   4.400
 4699SOL     OW14995   1.229   1.061   2.593
 4699SOL    HW114996   1.135   1.091   2.605
 4699SOL    HW214997   1.280   1.131   2.543
 4700SOL     OW14998   6.076   1.645   2.899
 4700SOL    HW114999   6.012   1.618   2.827
 4700SOL    HW215000   6.075   1.576   2.971
 4701SOL     OW15001   3.225   2.583   1.775
 4701SOL    HW115002   3.157   2.526   1.821
 4701SOL    HW215003   3.263   2.648   1.841
 4702SOL     OW15004   6.088   5.312   0.341
 4702SOL    HW115005   6.184   5.341   0.342
 4702SOL    HW215006   6.080   5.223   0.296
 4703SOL     OW15007   1.020   5.453   3.786
 4703SOL    HW115008   1.010   5.501   3.873
 4703SOL    HW215009   0.984   5.361   3.794
 4704SOL     OW15010   1.547   4.919   4.102
 4704SOL    HW115011   1.540   4.830   4.057
 4704SOL    HW215012   1.636   4.927   4.146
 4705SOL     OW15013   3.582   1.999   1.773
 4705SOL    HW115014   3.562   2.062   1.847
 4705SOL    HW215015   3.590   2.049   1.687
 4706SOL     OW15016   2.496   0.750   0.930
 4706SOL    HW115017   2.506   0.828   0.992
 4706SOL    HW215018   2.409   0.758   0.882
 4707SOL     OW15019   1.447   5.528   2.018
 4707SOL    HW115020   1.533   5.477   2.020
 4707SOL    HW215021   1.371   5.465   2.004
 4708SOL     OW15022   1.421   2.966   5.564
 4708SOL    HW115023   1.438   2.868   5.549
 4708SOL    HW215024   1.495   3.003   5.621
 4709SOL     OW15025   5.929   4.240   5.741
 4709SOL    HW115026   5.938   4.330   5.786
 4709SOL    HW215027   5.909   4.254   5.644
 4710SOL     OW15028   6.356   6.322   5.085
 4710SOL    HW115029   6.263   6.341   5.117
 4710SOL    HW215030   6.363   6.346   4.988
 4711SOL     OW15031   4.783   4.510   2.342
 4711SOL    HW115032   4.683   4.508   2.338
 4711SOL    HW215033   4.819   4.564   2.266
 4712SOL     OW15034   4.354   4.312   5.715
 4712SOL    HW115035   4.257   4.307   5.738
 4712SOL    HW215036   4.407   4.331   5.797
 4713SOL     OW15037   5.381   3.864   0.798
 4713SOL    HW115038   5.479   3.886   0.806
 4713SOL    HW215039   5.371   3.776   0.751
 4714SOL     OW15040   4.469   2.335   6.867
 4714SOL    HW115041   4.474   2.252   6.923
 4714SOL    HW215042   4.404   2.399   6.909
 4715SOL     OW15043   6.556   0.858   1.750
 4715SOL    HW115044   6.534   0.955   1.762
 4715SOL    HW215045   6.548   0.834   1.654
 4716SOL     OW15046   3.744   4.365   5.751
 4716SOL    HW115047   3.671   4.420   5.711
 4716SOL    HW215048   3.821   4.362   5.687
 4717SOL     OW15049   1.998   5.027   5.742
 4717SOL    HW115050   1.936   5.028   5.663
 4717SOL    HW215051   1.945   5.025   5.826
 4718SOL     OW15052   4.927   4.426   1.587
 4718SOL    HW115053   4.958   4.409   1.680
 4718SOL    HW215054   4.924   4.524   1.570
 4719SOL     OW15055   6.393   4.562   3.978
 4719SOL    HW115056   6.423   4.602   3.891
 4719SOL    HW215057   6.472   4.519   4.023
 4720SOL     OW15058   2.648   3.262   6.800
 4720SOL    HW115059   2.595   3.178   6.787
 4720SOL    HW215060   2.745   3.240   6.803
 4721SOL     OW15061   0.666   3.161   3.412
 4721SOL    HW115062   0.574   3.187   3.383
 4721SOL    HW215063   0.731   3.232   3.383
 4722SOL     OW15064   1.185   5.331   6.770
 4722SOL    HW115065   1.105   5.279   6.740
 4722SOL    HW215066   1.213   5.300   6.860
 4723SOL     OW15067   2.939   4.846   6.689
 4723SOL    HW115068   2.958   4.869   6.594
 4723SOL    HW215069   2.841   4.852   6.706
 4724SOL     OW15070   0.718   0.165   4.141
 4724SOL    HW115071   0.756   0.234   4.202
 4724SOL    HW215072   0.761   0.174   4.050
 4725SOL     OW15073   5.818   4.821   1.055
 4725SOL    HW115074   5.772   4.740   1.089
 4725SOL    HW215075   5.831   4.813   0.956
 4726SOL     OW15076   1.994   2.924   5.421
 4726SOL    HW115077   2.067   2.976   5.376
 4726SOL    HW215078   1.921   2.987   5.448
 4727SOL     OW15079   6.410   4.387   1.197
 4727SOL    HW115080   6.403   4.418   1.101
 4727SOL    HW215081   6.353   4.306   1.210
 4728SOL     OW15082   5.834   1.890   3.866
 4728SOL    HW115083   5.735   1.906   3.861
 4728SOL    HW215084   5.852   1.812   3.925
 4729SOL     OW15085   5.704   1.161   1.717
 4729SOL    HW115086   5.741   1.216   1.792
 4729SOL    HW215087   5.651   1.085   1.754
 4730SOL     OW15088   4.084   0.739   3.443
 4730SOL    HW115089   4.161   0.698   3.492
 4730SOL    HW215090   4.007   0.675   3.444
 4731SOL     OW15091   3.139   6.889   1.085
 4731SOL    HW115092   3.101   6.975   1.119
 4731SOL    HW215093   3.154   6.897   0.987
 4732SOL     OW15094   0.246   4.812   4.873
 4732SOL    HW115095   0.291   4.862   4.800
 4732SOL    HW215096   0.158   4.776   4.841
 4733SOL     OW15097   1.462   4.098   2.657
 4733SOL    HW115098   1.499   4.130   2.745
 4733SOL    HW215099   1.490   4.004   2.642
 4734SOL     OW15100   4.691   4.083   0.051
 4734SOL    HW115101   4.727   4.063   6.981
 4734SOL    HW215102   4.695   4.182   0.068
 4735SOL     OW15103   0.199   0.640   4.805
 4735SOL    HW115104   0.164   0.547   4.806
 4735SOL    HW215105   0.299   0.638   4.800
 4736SOL     OW15106   6.264   1.250   4.116
 4736SOL    HW115107   6.240   1.344   4.092
 4736SOL    HW215108   6.285   1.244   4.213
 4737SOL     OW15109   2.129   5.022   0.604
 4737SOL    HW115110   2.184   5.016   0.521
 4737SOL    HW215111   2.100   4.930   0.632
 4738SOL     OW15112   0.655   5.648   4.315
 4738SOL    HW115113   0.718   5.665   4.240
 4738SOL    HW215114   0.618   5.736   4.348
 4739SOL     OW15115   5.923   3.610   3.082
 4739SOL    HW115116   5.835   3.563   3.068
 4739SOL    HW215117   5.994   3.542   3.103
 4740SOL     OW15118   1.388   6.754   0.491
 4740SOL    HW115119   1.395   6.748   0.591
 4740SOL    HW215120   1.472   6.720   0.449
 4741SOL     OW15121   5.442   4.551   0.918
 4741SOL    HW115122   5.516   4.488   0.893
 4741SOL    HW215123   5.356   4.501   0.925
 4742SOL     OW15124   2.603   5.774   2.197
 4742SOL    HW115125   2.657   5.851   2.229
 4742SOL    HW215126   2.632   5.749   2.104
 4743SOL     OW15127   2.508   3.556   0.904
 4743SOL    HW115128   2.509   3.550   1.004
 4743SOL    HW215129   2.591   3.515   0.867
 4744SOL     OW15130   2.721   1.878   5.662
 4744SOL    HW115131   2.671   1.840   5.584
 4744SOL    HW215132   2.716   1.978   5.659
 4745SOL     OW15133   4.260   5.493   4.785
 4745SOL    HW115134   4.302   5.583   4.783
 4745SOL    HW215135   4.208   5.478   4.701
 4746SOL     OW15136   5.715   1.038   1.473
 4746SOL    HW115137   5.711   1.086   1.560
 4746SOL    HW215138   5.719   0.940   1.489
 4747SOL     OW15139   0.432   2.827   2.127
 4747SOL    HW115140   0.421   2.925   2.112
 4747SOL    HW215141   0.501   2.791   2.065
 4748SOL     OW15142   2.106   0.392   0.700
 4748SOL    HW115143   2.117   0.451   0.620
 4748SOL    HW215144   2.113   0.296   0.672
 4749SOL     OW15145   3.094   0.175   0.272
 4749SOL    HW115146   3.103   0.119   0.354
 4749SOL    HW215147   3.000   0.210   0.266
 4750SOL     OW15148   0.767   1.543   4.543
 4750SOL    HW115149   0.682   1.594   4.555
 4750SOL    HW215150   0.796   1.549   4.448
 4751SOL     OW15151   1.008   3.543   5.998
 4751SOL    HW115152   0.945   3.615   6.029
 4751SOL    HW215153   1.072   3.521   6.072
 4752SOL     OW15154   2.178   5.706   1.309
 4752SOL    HW115155   2.201   5.662   1.396
 4752SOL    HW215156   2.262   5.731   1.261
 4753SOL     OW15157   0.316   0.130   6.116
 4753SOL    HW115158   0.240   0.122   6.181
 4753SOL    HW215159   0.377   0.052   6.127
 4754SOL     OW15160   0.639   0.757   6.002
 4754SOL    HW115161   0.697   0.685   6.041
 4754SOL    HW215162   0.557   0.767   6.057
 4755SOL     OW15163   2.911   0.447   1.737
 4755SOL    HW115164   2.982   0.377   1.722
 4755SOL    HW215165   2.850   0.417   1.810
 4756SOL     OW15166   5.559   2.500   1.559
 4756SOL    HW115167   5.479   2.558   1.547
 4756SOL    HW215168   5.628   2.524   1.490
 4757SOL     OW15169   2.727   1.598   1.164
 4757SOL    HW115170   2.663   1.669   1.195
 4757SOL    HW215171   2.809   1.642   1.126
 4758SOL     OW15172   5.566   3.396   5.912
 4758SOL    HW115173   5.529   3.487   5.930
 4758SOL    HW215174   5.631   3.401   5.837
 4759SOL     OW15175   5.995   3.986   6.543
 4759SOL    HW115176   5.951   3.976   6.453
 4759SOL    HW215177   5.963   4.070   6.586
 4760SOL     OW15178   2.408   2.831   0.401
 4760SOL    HW115179   2.434   2.925   0.379
 4760SOL    HW215180   2.491   2.774   0.402
 4761SOL     OW15181   1.779   5.703   6.318
 4761SOL    HW115182   1.711   5.717   6.247
 4761SOL    HW215183   1.837   5.785   6.325
 4762SOL     OW15184   3.647   6.878   2.331
 4762SOL    HW115185   3.576   6.940   2.365
 4762SOL    HW215186   3.715   6.931   2.281
 4763SOL     OW15187   5.895   5.675   5.331
 4763SOL    HW115188   5.872   5.709   5.240
 4763SOL    HW215189   5.812   5.642   5.375
 4764SOL     OW15190   4.009   3.110   4.260
 4764SOL    HW115191   4.018   3.089   4.358
 4764SOL    HW215192   3.945   3.186   4.248
 4765SOL     OW15193   6.302   5.494   6.249
 4765SOL    HW115194   6.344   5.408   6.279
 4765SOL    HW215195   6.320   5.507   6.151
 4766SOL     OW15196   3.455   0.748   3.417
 4766SOL    HW115197   3.392   0.755   3.495
 4766SOL    HW215198   3.547   0.771   3.448
 4767SOL     OW15199   3.959   6.719   6.909
 4767SOL    HW115200   3.920   6.655   6.974
 4767SOL    HW215201   3.887   6.749   6.846
 4768SOL     OW15202   1.069   0.772   4.842
 4768SOL    HW115203   1.124   0.694   4.871
 4768SOL    HW215204   1.018   0.749   4.759
 4769SOL     OW15205   4.492   0.927   2.205
 4769SOL    HW115206   4.558   0.977   2.148
 4769SOL    HW215207   4.488   0.969   2.295
 4770SOL     OW15208   2.154   0.807   4.168
 4770SOL    HW115209   2.153   0.855   4.081
 4770SOL    HW215210   2.070   0.755   4.179
 4771SOL     OW15211   4.088   4.258   5.309
 4771SOL    HW115212   4.105   4.340   5.255
 4771SOL    HW215213   4.173   4.227   5.351
 4772SOL     OW15214   2.508   3.045   6.934
 4772SOL    HW115215   2.478   3.071   0.006
 4772SOL    HW215216   2.428   3.020   6.879
 4773SOL     OW15217   0.242   5.220   4.589
 4773SOL    HW115218   0.332   5.229   4.546
 4773SOL    HW215219   0.194   5.307   4.583
 4774SOL     OW15220   1.812   4.153   6.704
 4774SOL    HW115221   1.788   4.171   6.799
 4774SOL    HW215222   1.729   4.137   6.651
 4775SOL     OW15223   1.897   1.871   2.190
 4775SOL    HW115224   1.957   1.951   2.180
 4775SOL    HW215225   1.947   1.788   2.167
 4776SOL     OW15226   4.220   4.699   2.328
 4776SOL    HW115227   4.161   4.660   2.257
 4776SOL    HW215228   4.232   4.633   2.402
 4777SOL     OW15229   2.594   3.769   1.649
 4777SOL    HW115230   2.653   3.849   1.646
 4777SOL    HW215231   2.646   3.691   1.685
 4778SOL     OW15232   5.211   3.637   3.105
 4778SOL    HW115233   5.251   3.684   3.183
 4778SOL    HW215234   5.282   3.624   3.035
 4779SOL     OW15235   4.748   1.060   2.730
 4779SOL    HW115236   4.742   1.159   2.713
 4779SOL    HW215237   4.661   1.017   2.707
 4780SOL     OW15238   1.803   0.523   5.564
 4780SOL    HW115239   1.799   0.622   5.556
 4780SOL    HW215240   1.840   0.484   5.479
 4781SOL     OW15241   2.249   5.728   2.847
 4781SOL    HW115242   2.214   5.752   2.937
 4781SOL    HW215243   2.176   5.740   2.779
 4782SOL     OW15244   5.943   5.536   0.256
 4782SOL    HW115245   5.986   5.447   0.245
 4782SOL    HW215246   6.011   5.609   0.244
 4783SOL     OW15247   5.995   3.851   2.713
 4783SOL    HW115248   5.936   3.928   2.738
 4783SOL    HW215249   6.046   3.819   2.793
 4784SOL     OW15250   5.331   4.537   5.532
 4784SOL    HW115251   5.308   4.576   5.621
 4784SOL    HW215252   5.249   4.534   5.475
 4785SOL     OW15253   6.120   6.841   0.362
 4785SOL    HW115254   6.091   6.822   0.456
 4785SOL    HW215255   6.053   6.902   0.319
 4786SOL     OW15256   1.083   3.112   2.361
 4786SOL    HW115257   1.059   3.183   2.294
 4786SOL    HW215258   1.178   3.084   2.347
 4787SOL     OW15259   4.532   2.136   3.178
 4787SOL    HW115260   4.489   2.059   3.227
 4787SOL    HW215261   4.494   2.142   3.086
 4788SOL     OW15262   2.548   6.729   5.009
 4788SOL    HW115263   2.578   6.680   4.927
 4788SOL    HW215264   2.568   6.826   5.000
 4789SOL     OW15265   5.079   6.420   0.435
 4789SOL    HW115266   5.006   6.418   0.504
 4789SOL    HW215267   5.144   6.347   0.453
 4790SOL     OW15268   5.487   6.764   6.731
 4790SOL    HW115269   5.522   6.719   6.813
 4790SOL    HW215270   5.424   6.837   6.757
 4791SOL     OW15271   4.946   1.942   3.781
 4791SOL    HW115272   4.975   1.933   3.876
 4791SOL    HW215273   4.917   1.853   3.746
 4792SOL     OW15274   3.228   2.292   1.154
 4792SOL    HW115275   3.320   2.329   1.166
 4792SOL    HW215276   3.170   2.322   1.230
 4793SOL     OW15277   0.701   0.032   6.632
 4793SOL    HW115278   0.791   7.012   6.616
 4793SOL    HW215279   0.702   0.127   6.600
 4794SOL     OW15280   5.033   1.238   1.814
 4794SOL    HW115281   4.994   1.319   1.859
 4794SOL    HW215282   5.021   1.158   1.872
 4795SOL     OW15283   6.111   3.213   4.146
 4795SOL    HW115284   6.132   3.115   4.151
 4795SOL    HW215285   6.035   3.234   4.208
 4796SOL     OW15286   5.861   3.512   0.977
 4796SOL    HW115287   5.926   3.513   0.901
 4796SOL    HW215288   5.798   3.589   0.968
 4797SOL     OW15289   0.823   4.973   4.401
 4797SOL    HW115290   0.749   5.030   4.438
 4797SOL    HW215291   0.889   5.032   4.354
 4798SOL     OW15292   6.703   5.296   5.789
 4798SOL    HW115293   6.612   5.258   5.799
 4798SOL    HW215294   6.729   5.344   5.873
 4799SOL     OW15295   4.682   1.141   4.835
 4799SOL    HW115296   4.652   1.053   4.871
 4799SOL    HW215297   4.684   1.208   4.909
 4800SOL     OW15298   2.053   2.905   4.245
 4800SOL    HW115299   2.011   2.996   4.242
 4800SOL    HW215300   2.059   2.874   4.339
 4801SOL     OW15301   0.777   2.745   0.567
 4801SOL    HW115302   0.778   2.762   0.666
 4801SOL    HW215303   0.864   2.775   0.527
 4802SOL     OW15304   2.013   0.565   1.714
 4802SOL    HW115305   2.022   0.663   1.695
 4802SOL    HW215306   1.942   0.550   1.782
 4803SOL     OW15307   1.100   0.685   0.847
 4803SOL    HW115308   1.179   0.710   0.903
 4803SOL    HW215309   1.016   0.702   0.898
 4804SOL     OW15310   4.280   5.496   6.820
 4804SOL    HW115311   4.212   5.423   6.818
 4804SOL    HW215312   4.280   5.540   6.909
 4805SOL     OW15313   0.188   0.586   1.202
 4805SOL    HW115314   0.137   0.504   1.179
 4805SOL    HW215315   0.216   0.633   1.118
 4806SOL     OW15316   6.991   2.530   3.932
 4806SOL    HW115317   6.935   2.611   3.909
 4806SOL    HW215318   0.030   2.509   3.855
 4807SOL     OW15319   1.065   6.838   2.319
 4807SOL    HW115320   0.972   6.860   2.347
 4807SOL    HW215321   1.064   6.756   2.262
 4808SOL     OW15322   5.556   3.219   0.774
 4808SOL    HW115323   5.654   3.236   0.784
 4808SOL    HW215324   5.539   3.120   0.771
 4809SOL     OW15325   4.365   6.865   0.573
 4809SOL    HW115326   4.334   6.895   0.664
 4809SOL    HW215327   4.428   6.933   0.536
 4810SOL     OW15328   1.739   6.948   1.165
 4810SOL    HW115329   1.760   6.851   1.158
 4810SOL    HW215330   1.823   7.000   1.183
 4811SOL     OW15331   5.572   4.691   3.081
 4811SOL    HW115332   5.656   4.694   3.026
 4811SOL    HW215333   5.523   4.607   3.061
 4812SOL     OW15334   6.134   5.044   4.287
 4812SOL    HW115335   6.180   4.956   4.282
 4812SOL    HW215336   6.111   5.065   4.382
 4813SOL     OW15337   5.797   3.284   2.876
 4813SOL    HW115338   5.724   3.217   2.862
 4813SOL    HW215339   5.881   3.236   2.903
 4814SOL     OW15340   6.601   3.201   1.490
 4814SOL    HW115341   6.516   3.162   1.454
 4814SOL    HW215342   6.678   3.149   1.456
 4815SOL     OW15343   4.712   0.974   3.052
 4815SOL    HW115344   4.797   1.005   3.009
 4815SOL    HW215345   4.638   1.037   3.029
 4816SOL     OW15346   5.302   4.453   3.328
 4816SOL    HW115347   5.258   4.542   3.344
 4816SOL    HW215348   5.293   4.397   3.410
 4817SOL     OW15349   6.643   1.781   7.010
 4817SOL    HW115350   6.634   1.761   0.087
 4817SOL    HW215351   6.557   1.762   6.964
 4818SOL     OW15352   0.448   6.171   3.492
 4818SOL    HW115353   0.542   6.136   3.482
 4818SOL    HW215354   0.444   6.265   3.460
 4819SOL     OW15355   2.622   2.859   0.957
 4819SOL    HW115356   2.701   2.799   0.963
 4819SOL    HW215357   2.571   2.839   0.873
 4820SOL     OW15358   0.259   3.250   2.579
 4820SOL    HW115359   0.224   3.187   2.509
 4820SOL    HW215360   0.347   3.217   2.613
 4821SOL     OW15361   0.724   6.011   3.729
 4821SOL    HW115362   0.672   6.033   3.812
 4821SOL    HW215363   0.813   6.055   3.733
 4822SOL     OW15364   2.416   4.463   4.279
 4822SOL    HW115365   2.502   4.505   4.310
 4822SOL    HW215366   2.343   4.485   4.344
 4823SOL     OW15367   2.151   2.816   0.941
 4823SOL    HW115368   2.147   2.796   1.039
 4823SOL    HW215369   2.104   2.902   0.922
 4824SOL     OW15370   6.382   1.806   0.321
 4824SOL    HW115371   6.409   1.743   0.394
 4824SOL    HW215372   6.366   1.897   0.360
 4825SOL     OW15373   1.311   6.796   4.126
 4825SOL    HW115374   1.325   6.720   4.189
 4825SOL    HW215375   1.350   6.774   4.037
 4826SOL     OW15376   3.896   6.480   1.115
 4826SOL    HW115377   3.868   6.430   1.033
 4826SOL    HW215378   3.944   6.417   1.177
 4827SOL     OW15379   6.530   1.300   1.176
 4827SOL    HW115380   6.603   1.359   1.212
 4827SOL    HW215381   6.470   1.354   1.117
 4828SOL     OW15382   5.176   1.157   5.563
 4828SOL    HW115383   5.079   1.152   5.540
 4828SOL    HW215384   5.189   1.229   5.632
 4829SOL     OW15385   4.174   6.274   5.378
 4829SOL    HW115386   4.219   6.361   5.401
 4829SOL    HW215387   4.196   6.206   5.448
 4830SOL     OW15388   1.753   6.626   3.789
 4830SOL    HW115389   1.832   6.610   3.848
 4830SOL    HW215390   1.717   6.718   3.804
 4831SOL     OW15391   3.721   4.742   5.538
 4831SOL    HW115392   3.801   4.732   5.479
 4831SOL    HW215393   3.638   4.721   5.485
 4832SOL     OW15394   4.094   3.775   5.035
 4832SOL    HW115395   4.034   3.805   4.961
 4832SOL    HW215396   4.151   3.851   5.066
 4833SOL     OW15397   6.312   2.178   5.682
 4833SOL    HW115398   6.407   2.145   5.681
 4833SOL    HW215399   6.289   2.214   5.591
 4834SOL     OW15400   0.232   5.964   1.686
 4834SOL    HW115401   0.273   5.915   1.609
 4834SOL    HW215402   0.302   5.978   1.757
 4835SOL     OW15403   0.384   3.624   6.310
 4835SOL    HW115404   0.414   3.586   6.222
 4835SOL    HW215405   0.420   3.569   6.385
 4836SOL     OW15406   4.327   2.053   5.678
 4836SOL    HW115407   4.389   1.981   5.645
 4836SOL    HW215408   4.380   2.125   5.722
 4837SOL     OW15409   1.151   3.860   4.359
 4837SOL    HW115410   1.066   3.904   4.328
 4837SOL    HW215411   1.135   3.816   4.447
 4838SOL     OW15412   1.702   4.084   5.934
 4838SOL    HW115413   1.727   4.120   5.844
 4838SOL    HW215414   1.729   3.988   5.940
 4839SOL     OW15415   2.713   1.501   1.978
 4839SOL    HW115416   2.656   1.505   1.896
 4839SOL    HW215417   2.665   1.548   2.053
 4840SOL     OW15418   5.326   2.737   5.315
 4840SOL    HW115419   5.323   2.807   5.244
 4840SOL    HW215420   5.348   2.779   5.403
 4841SOL     OW15421   2.750   6.156   2.927
 4841SOL    HW115422   2.819   6.101   2.880
 4841SOL    HW215423   2.726   6.235   2.870
 4842SOL     OW15424   4.091   5.988   3.579
 4842SOL    HW115425   4.125   5.987   3.485
 4842SOL    HW215426   3.992   6.007   3.578
 4843SOL     OW15427   6.304   1.678   1.121
 4843SOL    HW115428   6.339   1.772   1.127
 4843SOL    HW215429   6.369   1.622   1.070
 4844SOL     OW15430   1.764   4.856   6.955
 4844SOL    HW115431   1.787   4.927   0.002
 4844SOL    HW215432   1.673   4.820   6.975
 4845SOL     OW15433   4.883   3.870   5.071
 4845SOL    HW115434   4.867   3.906   4.979
 4845SOL    HW215435   4.831   3.786   5.083
 4846SOL     OW15436   6.728   3.772   4.749
 4846SOL    HW115437   6.753   3.791   4.844
 4846SOL    HW215438   6.723   3.673   4.735
 4847SOL     OW15439   3.420   6.763   0.036
 4847SOL    HW115440   3.429   6.784   0.134
 4847SOL    HW215441   3.423   6.848   7.004
 4848SOL     OW15442   4.979   1.863   4.042
 4848SOL    HW115443   5.071   1.825   4.056
 4848SOL    HW215444   4.970   1.949   4.092
 4849SOL     OW15445   1.645   6.186   1.736
 4849SOL    HW115446   1.726   6.242   1.750
 4849SOL    HW215447   1.588   6.189   1.818
 4850SOL     OW15448   3.162   6.588   1.738
 4850SOL    HW115449   3.082   6.589   1.678
 4850SOL    HW215450   3.213   6.673   1.726
 4851SOL     OW15451   4.344   4.717   6.948
 4851SOL    HW115452   4.249   4.697   6.923
 4851SOL    HW215453   4.357   4.703   0.025
 4852SOL     OW15454   4.900   4.402   5.896
 4852SOL    HW115455   4.827   4.437   5.837
 4852SOL    HW215456   4.978   4.374   5.839
 4853SOL     OW15457   4.349   0.412   2.898
 4853SOL    HW115458   4.421   0.444   2.836
 4853SOL    HW215459   4.260   0.418   2.853
 4854SOL     OW15460   4.406   6.692   2.058
 4854SOL    HW115461   4.417   6.595   2.081
 4854SOL    HW215462   4.323   6.727   2.101
 4855SOL     OW15463   4.925   5.087   5.746
 4855SOL    HW115464   5.016   5.077   5.786
 4855SOL    HW215465   4.929   5.155   5.673
 4856SOL     OW15466   0.576   2.493   3.006
 4856SOL    HW115467   0.595   2.410   2.953
 4856SOL    HW215468   0.644   2.562   2.983
 4857SOL     OW15469   1.545   2.291   5.049
 4857SOL    HW115470   1.520   2.308   4.954
 4857SOL    HW215471   1.494   2.213   5.085
 4858SOL     OW15472   1.828   5.610   4.836
 4858SOL    HW115473   1.776   5.606   4.922
 4858SOL    HW215474   1.785   5.677   4.775
 4859SOL     OW15475   6.705   5.645   3.385
 4859SOL    HW115476   6.714   5.582   3.307
 4859SOL    HW215477   6.620   5.697   3.376
 4860SOL     OW15478   3.948   5.404   1.685
 4860SOL    HW115479   3.932   5.331   1.752
 4860SOL    HW215480   3.923   5.371   1.594
 4861SOL     OW15481   6.488   4.696   5.622
 4861SOL    HW115482   6.471   4.602   5.593
 4861SOL    HW215483   6.521   4.697   5.716
 4862SOL     OW15484   2.190   5.880   4.402
 4862SOL    HW115485   2.219   5.787   4.423
 4862SOL    HW215486   2.094   5.880   4.377
 4863SOL     OW15487   5.805   1.302   1.957
 4863SOL    HW115488   5.894   1.348   1.949
 4863SOL    HW215489   5.745   1.356   2.015
 4864SOL     OW15490   2.030   2.579   1.557
 4864SOL    HW115491   1.956   2.589   1.625
 4864SOL    HW215492   1.991   2.549   1.470
 4865SOL     OW15493   3.900   6.439   5.102
 4865SOL    HW115494   3.971   6.375   5.075
 4865SOL    HW215495   3.925   6.481   5.189
 4866SOL     OW15496   0.373   5.448   1.452
 4866SOL    HW115497   0.330   5.480   1.536
 4866SOL    HW215498   0.469   5.476   1.451
 4867SOL     OW15499   5.653   5.009   5.252
 4867SOL    HW115500   5.619   4.947   5.182
 4867SOL    HW215501   5.730   4.967   5.300
 4868SOL     OW15502   1.453   6.000   1.656
 4868SOL    HW115503   1.369   5.997   1.710
 4868SOL    HW215504   1.508   6.079   1.685
 4869SOL     OW15505   6.559   1.128   1.775
 4869SOL    HW115506   6.624   1.160   1.843
 4869SOL    HW215507   6.479   1.187   1.775
 4870SOL     OW15508   6.232   0.952   0.976
 4870SOL    HW115509   6.161   1.020   0.995
 4870SOL    HW215510   6.303   0.958   1.046
 4871SOL     OW15511   1.701   3.467   4.538
 4871SOL    HW115512   1.734   3.511   4.622
 4871SOL    HW215513   1.666   3.537   4.475
 4872SOL     OW15514   1.416   2.232   3.740
 4872SOL    HW115515   1.334   2.177   3.728
 4872SOL    HW215516   1.396   2.328   3.717
 4873SOL     OW15517   1.138   6.551   5.139
 4873SOL    HW115518   1.103   6.626   5.084
 4873SOL    HW215519   1.237   6.542   5.125
 4874SOL     OW15520   6.034   2.626   3.482
 4874SOL    HW115521   6.064   2.594   3.573
 4874SOL    HW215522   5.951   2.577   3.456
 4875SOL     OW15523   0.373   2.859   6.815
 4875SOL    HW115524   0.425   2.925   6.870
 4875SOL    HW215525   0.433   2.783   6.790
 4876SOL     OW15526   6.750   1.484   0.015
 4876SOL    HW115527   6.747   1.581   7.010
 4876SOL    HW215528   6.771   1.429   6.955
 4877SOL     OW15529   4.877   1.811   1.889
 4877SOL    HW115530   4.856   1.909   1.892
 4877SOL    HW215531   4.975   1.798   1.896
 4878SOL     OW15532   1.017   2.857   1.577
 4878SOL    HW115533   1.065   2.945   1.568
 4878SOL    HW215534   1.084   2.783   1.582
 4879SOL     OW15535   4.322   5.863   3.697
 4879SOL    HW115536   4.345   5.770   3.668
 4879SOL    HW215537   4.237   5.892   3.653
 4880SOL     OW15538   5.943   1.550   5.559
 4880SOL    HW115539   5.903   1.589   5.476
 4880SOL    HW215540   5.956   1.623   5.627
 4881SOL     OW15541   2.591   5.635   5.884
 4881SOL    HW115542   2.559   5.620   5.790
 4881SOL    HW215543   2.512   5.651   5.944
 4882SOL     OW15544   5.404   5.699   6.778
 4882SOL    HW115545   5.421   5.694   6.877
 4882SOL    HW215546   5.397   5.795   6.750
 4883SOL     OW15547   6.276   5.266   6.587
 4883SOL    HW115548   6.186   5.308   6.595
 4883SOL    HW215549   6.337   5.327   6.535
 4884SOL     OW15550   3.749   6.457   2.019
 4884SOL    HW115551   3.662   6.427   2.058
 4884SOL    HW215552   3.739   6.549   1.980
 4885SOL     OW15553   1.539   0.604   1.873
 4885SOL    HW115554   1.503   0.596   1.966
 4885SOL    HW215555   1.471   0.647   1.814
 4886SOL     OW15556   6.083   0.554   5.409
 4886SOL    HW115557   6.044   0.605   5.485
 4886SOL    HW215558   6.132   0.474   5.443
 4887SOL     OW15559   0.850   1.752   5.166
 4887SOL    HW115560   0.869   1.823   5.099
 4887SOL    HW215561   0.928   1.689   5.171
 4888SOL     OW15562   3.615   6.091   1.732
 4888SOL    HW115563   3.603   5.992   1.724
 4888SOL    HW215564   3.696   6.110   1.788
 4889SOL     OW15565   1.334   3.354   6.765
 4889SOL    HW115566   1.361   3.445   6.731
 4889SOL    HW215567   1.299   3.300   6.689
 4890SOL     OW15568   0.388   0.466   4.121
 4890SOL    HW115569   0.305   0.521   4.129
 4890SOL    HW215570   0.397   0.407   4.201
 4891SOL     OW15571   0.919   4.346   0.473
 4891SOL    HW115572   0.967   4.275   0.422
 4891SOL    HW215573   0.903   4.316   0.567
 4892SOL     OW15574   2.153   5.698   2.379
 4892SOL    HW115575   2.120   5.676   2.471
 4892SOL    HW215576   2.101   5.645   2.312
 4893SOL     OW15577   0.477   3.987   6.198
 4893SOL    HW115578   0.496   3.906   6.143
 4893SOL    HW215579   0.394   4.031   6.164
 4894SOL     OW15580   0.571   6.811   3.481
 4894SOL    HW115581   0.587   6.908   3.502
 4894SOL    HW215582   0.514   6.804   3.398
 4895SOL     OW15583   6.369   4.014   6.689
 4895SOL    HW115584   6.449   4.026   6.748
 4895SOL    HW215585   6.343   3.918   6.688
 4896SOL     OW15586   4.268   6.800   4.214
 4896SOL    HW115587   4.327   6.726   4.183
 4896SOL    HW215588   4.218   6.838   4.136
 4897SOL     OW15589   2.787   6.268   6.614
 4897SOL    HW115590   2.704   6.253   6.666
 4897SOL    HW215591   2.780   6.222   6.526
 4898SOL     OW15592   5.847   2.342   4.832
 4898SOL    HW115593   5.823   2.267   4.771
 4898SOL    HW215594   5.919   2.398   4.789
 4899SOL     OW15595   5.707   4.208   4.586
 4899SOL    HW115596   5.701   4.109   4.594
 4899SOL    HW215597   5.794   4.233   4.545
 4900SOL     OW15598   1.169   6.408   4.722
 4900SOL    HW115599   1.074   6.422   4.694
 4900SOL    HW215600   1.171   6.375   4.816
 4901SOL     OW15601   6.754   6.445   3.013
 4901SOL    HW115602   6.851   6.436   3.036
 4901SOL    HW215603   6.708   6.358   3.033
 4902SOL     OW15604   3.859   4.804   0.825
 4902SOL    HW115605   3.951   4.797   0.862
 4902SOL    HW215606   3.799   4.739   0.873
 4903SOL     OW15607   5.966   5.134   6.034
 4903SOL    HW115608   6.028   5.171   6.103
 4903SOL    HW215609   5.906   5.207   6.001
 4904SOL     OW15610   2.481   0.703   3.268
 4904SOL    HW115611   2.495   0.753   3.182
 4904SOL    HW215612   2.568   0.666   3.300
 4905SOL     OW15613   6.587   3.476   3.220
 4905SOL    HW115614   6.570   3.569   3.187
 4905SOL    HW215615   6.610   3.478   3.317
 4906SOL     OW15616   5.382   0.453   1.387
 4906SOL    HW115617   5.468   0.424   1.429
 4906SOL    HW215618   5.363   0.395   1.308
 4907SOL     OW15619   2.954   1.994   1.678
 4907SOL    HW115620   3.031   2.025   1.734
 4907SOL    HW215621   2.980   2.000   1.581
 4908SOL     OW15622   4.284   5.995   0.280
 4908SOL    HW115623   4.288   6.071   0.344
 4908SOL    HW215624   4.190   5.983   0.249
 4909SOL     OW15625   6.302   6.996   5.510
 4909SOL    HW115626   6.392   6.961   5.538
 4909SOL    HW215627   6.315   0.057   5.453
 4910SOL     OW15628   5.390   6.338   5.870
 4910SOL    HW115629   5.314   6.293   5.918
 4910SOL    HW215630   5.431   6.274   5.806
 4911SOL     OW15631   0.652   3.972   6.694
 4911SOL    HW115632   0.587   3.972   6.770
 4911SOL    HW215633   0.606   4.000   6.610
 4912SOL     OW15634   2.501   2.625   1.427
 4912SOL    HW115635   2.408   2.593   1.410
 4912SOL    HW215636   2.524   2.698   1.362
 4913SOL     OW15637   2.555   2.957   1.737
 4913SOL    HW115638   2.508   2.869   1.748
 4913SOL    HW215639   2.591   2.964   1.644
 4914SOL     OW15640   1.694   6.751   2.712
 4914SOL    HW115641   1.679   6.842   2.674
 4914SOL    HW215642   1.792   6.730   2.708
 4915SOL     OW15643   3.393   6.697   3.508
 4915SOL    HW115644   3.364   6.618   3.455
 4915SOL    HW215645   3.429   6.667   3.596
 4916SOL     OW15646   1.420   1.879   1.935
 4916SOL    HW115647   1.504   1.875   1.989
 4916SOL    HW215648   1.351   1.820   1.977
 4917SOL     OW15649   1.865   3.371   6.299
 4917SOL    HW115650   1.826   3.429   6.228
 4917SOL    HW215651   1.953   3.409   6.329
 4918SOL     OW15652   2.305   0.346   3.531
 4918SOL    HW115653   2.395   0.302   3.527
 4918SOL    HW215654   2.236   0.277   3.551
 4919SOL     OW15655   2.363   3.189   1.727
 4919SOL    HW115656   2.362   3.268   1.789
 4919SOL    HW215657   2.419   3.117   1.768
 4920SOL     OW15658   3.433   1.012   0.079
 4920SOL    HW115659   3.359   0.974   0.023
 4920SOL    HW215660   3.452   0.950   0.155
 4921SOL     OW15661   6.486   4.883   2.009
 4921SOL    HW115662   6.539   4.923   1.934
 4921SOL    HW215663   6.389   4.900   1.994
 4922SOL     OW15664   0.852   3.084   5.919
 4922SOL    HW115665   0.938   3.082   5.867
 4922SOL    HW215666   0.781   3.040   5.865
 4923SOL     OW15667   2.696   2.217   6.597
 4923SOL    HW115668   2.700   2.136   6.656
 4923SOL    HW215669   2.731   2.193   6.507
 4924SOL     OW15670   0.352   3.231   4.084
 4924SOL    HW115671   0.406   3.245   4.166
 4924SOL    HW215672   0.346   3.316   4.032
 4925SOL     OW15673   4.909   5.478   5.643
 4925SOL    HW115674   4.913   5.382   5.614
 4925SOL    HW215675   4.994   5.524   5.619
 4926SOL     OW15676   4.238   3.113   0.384
 4926SOL    HW115677   4.263   3.208   0.406
 4926SOL    HW215678   4.321   3.059   0.374
 4927SOL     OW15679   3.245   4.045   2.128
 4927SOL    HW115680   3.221   4.142   2.127
 4927SOL    HW215681   3.253   4.013   2.223
 4928SOL     OW15682   0.541   0.545   0.392
 4928SOL    HW115683   0.546   0.480   0.467
 4928SOL    HW215684   0.574   0.634   0.423
 4929SOL     OW15685   1.352   4.917   4.341
 4929SOL    HW115686   1.435   4.934   4.288
 4929SOL    HW215687   1.374   4.860   4.421
 4930SOL     OW15688   0.380   3.260   0.547
 4930SOL    HW115689   0.305   3.303   0.497
 4930SOL    HW215690   0.344   3.202   0.620
 4931SOL     OW15691   5.610   6.920   1.447
 4931SOL    HW115692   5.664   6.993   1.488
 4931SOL    HW215693   5.547   6.882   1.515
 4932SOL     OW15694   3.643   1.771   1.176
 4932SOL    HW115695   3.598   1.859   1.158
 4932SOL    HW215696   3.588   1.697   1.136
 4933SOL     OW15697   3.045   6.890   4.640
 4933SOL    HW115698   3.144   6.884   4.635
 4933SOL    HW215699   3.004   6.810   4.597
 4934SOL     OW15700   2.194   5.889   5.129
 4934SOL    HW115701   2.143   5.892   5.215
 4934SOL    HW215702   2.209   5.983   5.096
 4935SOL     OW15703   2.022   2.451   0.556
 4935SOL    HW115704   2.102   2.508   0.574
 4935SOL    HW215705   1.978   2.427   0.642
 4936SOL     OW15706   5.779   4.421   1.319
 4936SOL    HW115707   5.865   4.446   1.275
 4936SOL    HW215708   5.730   4.504   1.346
 4937SOL     OW15709   0.710   3.403   4.512
 4937SOL    HW115710   0.643   3.416   4.585
 4937SOL    HW215711   0.667   3.418   4.423
 4938SOL     OW15712   3.555   4.439   1.646
 4938SOL    HW115713   3.504   4.456   1.562
 4938SOL    HW215714   3.545   4.518   1.707
 4939SOL     OW15715   1.287   1.401   1.179
 4939SOL    HW115716   1.257   1.464   1.251
 4939SOL    HW215717   1.307   1.452   1.096
 4940SOL     OW15718   1.021   1.751   5.524
 4940SOL    HW115719   1.058   1.841   5.498
 4940SOL    HW215720   0.975   1.759   5.613
 4941SOL     OW15721   4.155   2.268   5.499
 4941SOL    HW115722   4.182   2.342   5.560
 4941SOL    HW215723   4.101   2.201   5.550
 4942SOL     OW15724   6.588   0.892   3.252
 4942SOL    HW115725   6.662   0.903   3.186
 4942SOL    HW215726   6.598   0.805   3.300
 4943SOL     OW15727   4.571   2.236   6.404
 4943SOL    HW115728   4.504   2.168   6.430
 4943SOL    HW215729   4.602   2.286   6.485
 4944SOL     OW15730   1.164   4.934   0.655
 4944SOL    HW115731   1.228   4.882   0.711
 4944SOL    HW215732   1.187   5.031   0.660
 4945SOL     OW15733   2.909   0.647   5.294
 4945SOL    HW115734   2.952   0.561   5.321
 4945SOL    HW215735   2.829   0.664   5.351
 4946SOL     OW15736   2.921   5.951   0.479
 4946SOL    HW115737   2.835   6.001   0.495
 4946SOL    HW215738   2.981   5.962   0.558
 4947SOL     OW15739   0.997   0.240   1.223
 4947SOL    HW115740   0.964   0.199   1.308
 4947SOL    HW215741   1.089   0.277   1.237
 4948SOL     OW15742   1.597   2.421   2.045
 4948SOL    HW115743   1.594   2.340   2.103
 4948SOL    HW215744   1.506   2.437   2.005
 4949SOL     OW15745   6.230   4.520   5.627
 4949SOL    HW115746   6.307   4.496   5.686
 4949SOL    HW215747   6.226   4.619   5.614
 4950SOL     OW15748   4.003   4.034   5.171
 4950SOL    HW115749   4.039   4.122   5.200
 4950SOL    HW215750   3.968   4.042   5.077
 4951SOL     OW15751   4.827   5.136   3.299
 4951SOL    HW115752   4.776   5.189   3.367
 4951SOL    HW215753   4.839   5.042   3.333
 4952SOL     OW15754   0.724   1.076   6.730
 4952SOL    HW115755   0.755   0.981   6.721
 4952SOL    HW215756   0.724   1.102   6.827
 4953SOL     OW15757   1.390   2.118   5.185
 4953SOL    HW115758   1.326   2.118   5.261
 4953SOL    HW215759   1.372   2.039   5.127
 4954SOL     OW15760   2.951   3.966   5.084
 4954SOL    HW115761   3.045   3.996   5.099
 4954SOL    HW215762   2.888   4.033   5.124
 4955SOL     OW15763   3.846   5.866   0.008
 4955SOL    HW115764   3.855   5.768   0.018
 4955SOL    HW215765   3.900   5.913   0.078
 4956SOL     OW15766   2.492   0.466   5.016
 4956SOL    HW115767   2.512   0.502   4.925
 4956SOL    HW215768   2.571   0.480   5.076
 4957SOL     OW15769   5.656   5.135   0.055
 4957SOL    HW115770   5.702   5.156   6.990
 4957SOL    HW215771   5.580   5.073   0.038
 4958SOL     OW15772   3.570   5.384   0.070
 4958SOL    HW115773   3.470   5.380   0.078
 4958SOL    HW215774   3.594   5.420   7.001
 4959SOL     OW15775   6.909   2.373   2.481
 4959SOL    HW115776   6.979   2.313   2.521
 4959SOL    HW215777   6.819   2.333   2.497
 4960SOL     OW15778   5.232   4.382   4.163
 4960SOL    HW115779   5.212   4.289   4.194
 4960SOL    HW215780   5.303   4.423   4.219
 4961SOL     OW15781   3.651   2.874   2.487
 4961SOL    HW115782   3.632   2.842   2.394
 4961SOL    HW215783   3.579   2.841   2.548
 4962SOL     OW15784   1.659   2.791   0.078
 4962SOL    HW115785   1.745   2.842   0.087
 4962SOL    HW215786   1.649   2.729   0.157
 4963SOL     OW15787   0.574   4.304   6.372
 4963SOL    HW115788   0.593   4.388   6.424
 4963SOL    HW215789   0.548   4.329   6.279
 4964SOL     OW15790   1.686   4.642   4.088
 4964SOL    HW115791   1.667   4.705   4.013
 4964SOL    HW215792   1.783   4.647   4.112
 4965SOL     OW15793   2.254   6.991   2.943
 4965SOL    HW115794   2.168   0.006   2.905
 4965SOL    HW215795   2.312   0.047   2.971
 4966SOL     OW15796   4.180   0.056   5.208
 4966SOL    HW115797   4.095   0.005   5.219
 4966SOL    HW215798   4.258   7.017   5.228
 4967SOL     OW15799   4.598   4.277   4.028
 4967SOL    HW115800   4.611   4.275   4.127
 4967SOL    HW215801   4.683   4.250   3.983
 4968SOL     OW15802   6.646   3.046   4.105
 4968SOL    HW115803   6.732   3.091   4.083
 4968SOL    HW215804   6.664   2.954   4.141
 4969SOL     OW15805   0.473   5.837   4.428
 4969SOL    HW115806   0.431   5.868   4.343
 4969SOL    HW215807   0.526   5.911   4.468
 4970SOL     OW15808   2.036   1.376   1.624
 4970SOL    HW115809   2.080   1.322   1.553
 4970SOL    HW215810   2.031   1.472   1.594
 4971SOL     OW15811   0.048   5.659   1.345
 4971SOL    HW115812   6.995   5.718   1.378
 4971SOL    HW215813   0.135   5.688   1.387
 4972SOL     OW15814   0.100   4.169   7.014
 4972SOL    HW115815   0.039   4.110   6.961
 4972SOL    HW215816   0.048   4.218   0.063
 4973SOL     OW15817   5.652   1.807   6.762
 4973SOL    HW115818   5.619   1.886   6.812
 4973SOL    HW215819   5.620   1.811   6.667
 4974SOL     OW15820   3.305   0.082   5.550
 4974SOL    HW115821   3.289   0.090   5.452
 4974SOL    HW215822   3.224   0.115   5.599
 4975SOL     OW15823   5.547   4.261   1.237
 4975SOL    HW115824   5.458   4.307   1.229
 4975SOL    HW215825   5.619   4.329   1.245
 4976SOL     OW15826   0.494   0.259   3.755
 4976SOL    HW115827   0.561   0.230   3.824
 4976SOL    HW215828   0.510   0.355   3.731
 4977SOL     OW15829   1.482   3.932   5.489
 4977SOL    HW115830   1.511   3.843   5.454
 4977SOL    HW215831   1.457   3.923   5.586
 4978SOL     OW15832   6.564   4.271   4.702
 4978SOL    HW115833   6.655   4.259   4.664
 4978SOL    HW215834   6.569   4.335   4.780
 4979SOL     OW15835   2.686   6.790   6.489
 4979SOL    HW115836   2.643   6.778   6.399
 4979SOL    HW215837   2.742   6.710   6.509
 4980SOL     OW15838   5.887   3.242   4.329
 4980SOL    HW115839   5.835   3.232   4.414
 4980SOL    HW215840   5.836   3.300   4.265
 4981SOL     OW15841   3.529   6.189   3.450
 4981SOL    HW115842   3.435   6.173   3.421
 4981SOL    HW215843   3.591   6.133   3.395
 4982SOL     OW15844   3.973   1.953   4.937
 4982SOL    HW115845   3.925   1.929   4.852
 4982SOL    HW215846   3.943   1.892   5.011
 4983SOL     OW15847   6.179   3.569   2.746
 4983SOL    HW115848   6.182   3.640   2.816
 4983SOL    HW215849   6.086   3.536   2.735
 4984SOL     OW15850   4.935   3.605   4.853
 4984SOL    HW115851   4.979   3.516   4.840
 4984SOL    HW215852   4.887   3.606   4.941
 4985SOL     OW15853   5.604   0.349   2.297
 4985SOL    HW115854   5.584   0.315   2.389
 4985SOL    HW215855   5.598   0.449   2.296
 4986SOL     OW15856   1.211   4.937   1.360
 4986SOL    HW115857   1.149   4.889   1.422
 4986SOL    HW215858   1.288   4.878   1.337
 4987SOL     OW15859   1.788   2.735   2.878
 4987SOL    HW115860   1.793   2.747   2.977
 4987SOL    HW215861   1.838   2.652   2.851
 4988SOL     OW15862   6.304   5.412   4.165
 4988SOL    HW115863   6.334   5.494   4.116
 4988SOL    HW215864   6.348   5.409   4.255
 4989SOL     OW15865   6.388   0.109   3.694
 4989SOL    HW115866   6.477   0.063   3.699
 4989SOL    HW215867   6.394   0.197   3.741
 4990SOL     OW15868   4.508   1.685   6.596
 4990SOL    HW115869   4.585   1.661   6.655
 4990SOL    HW215870   4.513   1.631   6.512
 4991SOL     OW15871   1.494   6.048   6.317
 4991SOL    HW115872   1.493   6.148   6.321
 4991SOL    HW215873   1.538   6.019   6.232
 4992SOL     OW15874   1.492   4.069   4.113
 4992SOL    HW115875   1.479   3.970   4.113
 4992SOL    HW215876   1.412   4.114   4.153
 4993SOL     OW15877   2.164   6.303   3.636
 4993SOL    HW115878   2.078   6.307   3.688
 4993SOL    HW215879   2.219   6.227   3.670
 4994SOL     OW15880   3.453   5.414   5.141
 4994SOL    HW115881   3.366   5.366   5.129
 4994SOL    HW215882   3.522   5.349   5.173
 4995SOL     OW15883   0.407   0.807   6.159
 4995SOL    HW115884   0.409   0.728   6.221
 4995SOL    HW215885   0.461   0.882   6.198
 4996SOL     OW15886   6.791   0.959   3.552
 4996SOL    HW115887   6.815   1.041   3.500
 4996SOL    HW215888   6.706   0.974   3.601
 4997SOL     OW15889   4.230   1.752   0.710
 4997SOL    HW115890   4.298   1.698   0.660
 4997SOL    HW215891   4.225   1.720   0.804
 4998SOL     OW15892   1.074   4.181   3.527
 4998SOL    HW115893   0.986   4.223   3.504
 4998SOL    HW215894   1.141   4.202   3.456
 4999SOL     OW15895   0.788   3.364   3.871
 4999SOL    HW115896   0.880   3.325   3.864
 4999SOL    HW215897   0.782   3.447   3.816
 5000SOL     OW15898   2.603   6.825   3.050
 5000SOL    HW115899   2.700   6.799   3.060
 5000SOL    HW215900   2.591   6.874   2.964
 5001SOL     OW15901   0.615   5.631   3.070
 5001SOL    HW115902   0.637   5.680   3.154
 5001SOL    HW215903   0.541   5.678   3.022
 5002SOL     OW15904   1.650   4.714   3.732
 5002SOL    HW115905   1.696   4.778   3.794
 5002SOL    HW215906   1.553   4.710   3.755
 5003SOL     OW15907   3.350   0.555   2.351
 5003SOL    HW115908   3.328   0.610   2.432
 5003SOL    HW215909   3.294   0.472   2.351
 5004SOL     OW15910   3.855   6.047   0.429
 5004SOL    HW115911   3.808   6.041   0.517
 5004SOL    HW215912   3.896   6.137   0.419
 5005SOL     OW15913   3.361   2.740   1.020
 5005SOL    HW115914   3.427   2.810   0.991
 5005SOL    HW215915   3.365   2.730   1.119
 5006SOL     OW15916   5.207   0.647   1.969
 5006SOL    HW115917   5.116   0.625   2.004
 5006SOL    HW215918   5.230   0.741   1.994
 5007SOL     OW15919   6.363   5.619   2.150
 5007SOL    HW115920   6.361   5.599   2.248
 5007SOL    HW215921   6.328   5.540   2.099
 5008SOL     OW15922   4.963   0.019   3.357
 5008SOL    HW115923   4.962   6.950   3.401
 5008SOL    HW215924   5.047   0.067   3.382
 5009SOL     OW15925   0.532   1.948   0.481
 5009SOL    HW115926   0.490   2.038   0.491
 5009SOL    HW215927   0.611   1.942   0.543
 5010SOL     OW15928   4.904   3.803   1.284
 5010SOL    HW115929   4.995   3.763   1.280
 5010SOL    HW215930   4.899   3.879   1.218
 5011SOL     OW15931   1.923   2.697   6.227
 5011SOL    HW115932   1.961   2.622   6.173
 5011SOL    HW215933   1.923   2.781   6.173
 5012SOL     OW15934   6.258   1.531   5.879
 5012SOL    HW115935   6.320   1.536   5.801
 5012SOL    HW215936   6.191   1.458   5.864
 5013SOL     OW15937   5.448   0.045   5.764
 5013SOL    HW115938   5.386   0.106   5.715
 5013SOL    HW215939   5.468   0.084   5.854
 5014SOL     OW15940   5.967   3.533   1.368
 5014SOL    HW115941   6.046   3.555   1.425
 5014SOL    HW215942   5.928   3.618   1.331
 5015SOL     OW15943   6.074   5.417   4.363
 5015SOL    HW115944   6.152   5.401   4.301
 5015SOL    HW215945   6.108   5.442   4.454
 5016SOL     OW15946   1.624   2.992   6.324
 5016SOL    HW115947   1.723   2.996   6.340
 5016SOL    HW215948   1.577   2.983   6.412
 5017SOL     OW15949   0.051   2.572   1.797
 5017SOL    HW115950   6.995   2.544   1.855
 5017SOL    HW215951   0.100   2.648   1.842
 5018SOL     OW15952   1.232   0.986   6.705
 5018SOL    HW115953   1.238   0.942   6.615
 5018SOL    HW215954   1.319   1.030   6.727
 5019SOL     OW15955   1.570   4.389   3.984
 5019SOL    HW115956   1.475   4.401   3.955
 5019SOL    HW215957   1.596   4.462   4.047
 5020SOL     OW15958   1.875   0.286   4.203
 5020SOL    HW115959   1.789   0.335   4.193
 5020SOL    HW215960   1.859   0.188   4.192
 5021SOL     OW15961   2.775   0.865   1.378
 5021SOL    HW115962   2.824   0.876   1.464
 5021SOL    HW215963   2.840   0.866   1.302
 5022SOL     OW15964   6.532   2.722   1.125
 5022SOL    HW115965   6.450   2.761   1.085
 5022SOL    HW215966   6.610   2.783   1.107
 5023SOL     OW15967   0.270   3.882   3.045
 5023SOL    HW115968   0.334   3.815   3.084
 5023SOL    HW215969   0.226   3.843   2.964
 5024SOL     OW15970   5.092   3.997   0.562
 5024SOL    HW115971   5.082   4.054   0.644
 5024SOL    HW215972   5.028   4.028   0.492
 5025SOL     OW15973   4.927   2.082   4.644
 5025SOL    HW115974   4.914   2.101   4.741
 5025SOL    HW215975   4.874   2.148   4.589
 5026SOL     OW15976   5.343   6.135   4.755
 5026SOL    HW115977   5.390   6.222   4.737
 5026SOL    HW215978   5.245   6.145   4.737
 5027SOL     OW15979   5.291   6.624   0.867
 5027SOL    HW115980   5.205   6.574   0.874
 5027SOL    HW215981   5.326   6.618   0.774
 5028SOL     OW15982   6.095   1.822   2.243
 5028SOL    HW115983   6.085   1.857   2.150
 5028SOL    HW215984   6.070   1.893   2.309
 5029SOL     OW15985   5.023   2.014   2.575
 5029SOL    HW115986   5.109   2.047   2.614
 5029SOL    HW215987   5.013   1.917   2.595
 5030SOL     OW15988   0.130   3.613   0.297
 5030SOL    HW115989   0.088   3.700   0.321
 5030SOL    HW215990   0.217   3.630   0.251
 5031SOL     OW15991   6.500   0.200   5.783
 5031SOL    HW115992   6.544   0.166   5.866
 5031SOL    HW215993   6.421   0.143   5.761
 5032SOL     OW15994   2.526   3.923   6.027
 5032SOL    HW115995   2.601   3.860   6.005
 5032SOL    HW215996   2.562   4.014   6.045
 5033SOL     OW15997   2.364   0.083   5.956
 5033SOL    HW115998   2.304   0.012   5.993
 5033SOL    HW215999   2.427   0.042   5.890
 5034SOL     OW16000   4.514   5.909   4.656
 5034SOL    HW116001   4.508   5.837   4.587
 5034SOL    HW216002   4.485   5.996   4.617
 5035SOL     OW16003   2.167   3.677   3.747
 5035SOL    HW116004   2.267   3.682   3.750
 5035SOL    HW216005   2.137   3.587   3.777
 5036SOL     OW16006   1.382   2.767   4.857
 5036SOL    HW116007   1.448   2.834   4.823
 5036SOL    HW216008   1.307   2.814   4.904
 5037SOL     OW16009   4.544   4.098   1.005
 5037SOL    HW116010   4.466   4.154   1.033
 5037SOL    HW216011   4.548   4.015   1.062
 5038SOL     OW16012   3.193   3.784   3.603
 5038SOL    HW116013   3.176   3.690   3.574
 5038SOL    HW216014   3.281   3.789   3.650
 5039SOL     OW16015   1.044   3.719   0.241
 5039SOL    HW116016   0.950   3.687   0.231
 5039SOL    HW216017   1.052   3.811   0.203
 5040SOL     OW16018   0.293   1.592   5.193
 5040SOL    HW116019   0.387   1.562   5.206
 5040SOL    HW216020   0.250   1.538   5.121
 5041SOL     OW16021   0.124   2.067   1.416
 5041SOL    HW116022   0.130   2.026   1.507
 5041SOL    HW216023   0.110   1.995   1.348
 5042SOL     OW16024   1.055   2.057   5.660
 5042SOL    HW116025   1.071   2.120   5.736
 5042SOL    HW216026   1.078   2.101   5.574
 5043SOL     OW16027   3.289   6.627   2.086
 5043SOL    HW116028   3.372   6.592   2.129
 5043SOL    HW216029   3.241   6.552   2.040
 5044SOL     OW16030   0.175   5.631   6.952
 5044SOL    HW116031   0.121   5.714   6.937
 5044SOL    HW216032   0.118   5.550   6.939
 5045SOL     OW16033   5.472   2.552   0.771
 5045SOL    HW116034   5.524   2.467   0.764
 5045SOL    HW216035   5.483   2.590   0.863
 5046SOL     OW16036   3.718   3.261   2.588
 5046SOL    HW116037   3.745   3.343   2.638
 5046SOL    HW216038   3.742   3.271   2.491
 5047SOL     OW16039   1.906   3.690   3.660
 5047SOL    HW116040   1.847   3.629   3.712
 5047SOL    HW216041   1.998   3.688   3.699
 5048SOL     OW16042   2.627   0.243   6.536
 5048SOL    HW116043   2.613   0.145   6.522
 5048SOL    HW216044   2.705   0.257   6.598
 5049SOL     OW16045   4.335   1.827   6.907
 5049SOL    HW116046   4.298   1.747   6.860
 5049SOL    HW216047   4.292   1.838   6.996
 5050SOL     OW16048   1.606   0.439   0.705
 5050SOL    HW116049   1.516   0.428   0.747
 5050SOL    HW216050   1.616   0.533   0.673
 5051SOL     OW16051   4.894   5.126   1.425
 5051SOL    HW116052   4.802   5.133   1.465
 5051SOL    HW216053   4.951   5.069   1.484
 5052SOL     OW16054   1.788   2.862   5.029
 5052SOL    HW116055   1.781   2.821   4.938
 5052SOL    HW216056   1.864   2.820   5.079
 5053SOL     OW16057   6.854   1.064   1.127
 5053SOL    HW116058   6.844   1.091   1.223
 5053SOL    HW216059   6.767   1.027   1.094
 5054SOL     OW16060   3.879   5.390   3.633
 5054SOL    HW116061   3.805   5.441   3.677
 5054SOL    HW216062   3.965   5.410   3.678
 5055SOL     OW16063   0.311   3.578   5.698
 5055SOL    HW116064   0.250   3.581   5.619
 5055SOL    HW216065   0.321   3.670   5.736
 5056SOL     OW16066   6.242   3.867   3.887
 5056SOL    HW116067   6.149   3.881   3.852
 5056SOL    HW216068   6.289   3.956   3.893
 5057SOL     OW16069   0.120   5.675   2.216
 5057SOL    HW116070   0.071   5.594   2.248
 5057SOL    HW216071   0.191   5.699   2.282
 5058SOL     OW16072   2.818   5.495   5.885
 5058SOL    HW116073   2.886   5.518   5.955
 5058SOL    HW216074   2.735   5.549   5.901
 5059SOL     OW16075   6.894   0.517   2.375
 5059SOL    HW116076   6.829   0.539   2.303
 5059SOL    HW216077   6.987   0.517   2.338
 5060SOL     OW16078   0.091   2.620   6.150
 5060SOL    HW116079   0.173   2.564   6.136
 5060SOL    HW216080   0.118   2.716   6.160
 5061SOL     OW16081   5.261   3.686   1.075
 5061SOL    HW116082   5.192   3.629   1.118
 5061SOL    HW216083   5.251   3.780   1.107
 5062SOL     OW16084   6.500   0.107   0.598
 5062SOL    HW116085   6.436   0.082   0.526
 5062SOL    HW216086   6.564   0.032   0.614
 5063SOL     OW16087   1.245   6.168   2.255
 5063SOL    HW116088   1.178   6.134   2.321
 5063SOL    HW216089   1.297   6.242   2.297
 5064SOL     OW16090   4.993   3.943   0.123
 5064SOL    HW116091   5.021   3.847   0.120
 5064SOL    HW216092   4.917   3.958   0.060
 5065SOL     OW16093   2.859   6.382   6.162
 5065SOL    HW116094   2.827   6.387   6.068
 5065SOL    HW216095   2.940   6.323   6.167
 5066SOL     OW16096   4.703   4.822   1.249
 5066SOL    HW116097   4.719   4.916   1.220
 5066SOL    HW216098   4.667   4.822   1.343
 5067SOL     OW16099   5.269   1.180   6.710
 5067SOL    HW116100   5.227   1.268   6.688
 5067SOL    HW216101   5.228   1.144   6.794
 5068SOL     OW16102   3.734   4.636   1.362
 5068SOL    HW116103   3.783   4.710   1.317
 5068SOL    HW216104   3.800   4.569   1.396
 5069SOL     OW16105   6.599   5.418   2.871
 5069SOL    HW116106   6.540   5.394   2.793
 5069SOL    HW216107   6.563   5.500   2.915
 5070SOL     OW16108   4.871   3.250   3.912
 5070SOL    HW116109   4.924   3.167   3.928
 5070SOL    HW216110   4.785   3.245   3.962
 5071SOL     OW16111   4.317   0.971   6.980
 5071SOL    HW116112   4.335   0.876   7.007
 5071SOL    HW216113   4.395   1.007   6.929
 5072SOL     OW16114   0.892   4.008   0.914
 5072SOL    HW116115   0.855   3.971   1.000
 5072SOL    HW216116   0.989   4.027   0.925
 5073SOL     OW16117   4.377   2.242   4.213
 5073SOL    HW116118   4.325   2.184   4.276
 5073SOL    HW216119   4.347   2.225   4.119
 5074SOL     OW16120   4.071   4.827   5.139
 5074SOL    HW116121   3.997   4.877   5.094
 5074SOL    HW216122   4.040   4.793   5.227
 5075SOL     OW16123   6.484   6.843   3.930
 5075SOL    HW116124   6.475   6.928   3.982
 5075SOL    HW216125   6.395   6.817   3.892
 5076SOL     OW16126   4.051   0.619   1.133
 5076SOL    HW116127   3.955   0.647   1.141
 5076SOL    HW216128   4.068   0.543   1.195
 5077SOL     OW16129   6.573   2.889   2.314
 5077SOL    HW116130   6.643   2.926   2.375
 5077SOL    HW216131   6.550   2.957   2.245
 5078SOL     OW16132   0.010   1.067   4.079
 5078SOL    HW116133   0.053   1.023   4.000
 5078SOL    HW216134   6.933   1.047   4.079
 5079SOL     OW16135   4.573   4.921   4.884
 5079SOL    HW116136   4.614   4.997   4.834
 5079SOL    HW216137   4.494   4.887   4.832
 5080SOL     OW16138   5.978   0.565   5.654
 5080SOL    HW116139   5.878   0.567   5.656
 5080SOL    HW216140   6.009   0.470   5.663
 5081SOL     OW16141   3.324   3.599   3.039
 5081SOL    HW116142   3.293   3.537   3.110
 5081SOL    HW216143   3.296   3.565   2.950
 5082SOL     OW16144   0.203   0.390   6.047
 5082SOL    HW116145   0.249   0.305   6.069
 5082SOL    HW216146   0.181   0.440   6.131
 5083SOL     OW16147   1.037   5.805   1.965
 5083SOL    HW116148   0.985   5.890   1.972
 5083SOL    HW216149   1.110   5.816   1.897
 5084SOL     OW16150   1.141   5.722   2.201
 5084SOL    HW116151   1.235   5.755   2.198
 5084SOL    HW216152   1.089   5.762   2.125
 5085SOL     OW16153   6.716   3.449   6.760
 5085SOL    HW116154   6.800   3.409   6.725
 5085SOL    HW216155   6.719   3.449   6.860
 5086SOL     OW16156   6.801   5.468   4.822
 5086SOL    HW116157   6.734   5.490   4.752
 5086SOL    HW216158   6.892   5.496   4.791
 5087SOL     OW16159   6.708   5.396   5.110
 5087SOL    HW116160   6.788   5.385   5.170
 5087SOL    HW216161   6.734   5.453   5.032
 5088SOL     OW16162   5.926   1.005   0.567
 5088SOL    HW116163   5.929   0.909   0.597
 5088SOL    HW216164   6.018   1.043   0.566
 5089SOL     OW16165   5.709   2.672   4.474
 5089SOL    HW116166   5.721   2.574   4.457
 5089SOL    HW216167   5.760   2.699   4.555
 5090SOL     OW16168   0.794   5.212   0.507
 5090SOL    HW116169   0.790   5.173   0.599
 5090SOL    HW216170   0.705   5.252   0.484
 5091SOL     OW16171   1.205   6.591   3.850
 5091SOL    HW116172   1.297   6.585   3.889
 5091SOL    HW216173   1.139   6.555   3.917
 5092SOL     OW16174   3.251   3.000   1.289
 5092SOL    HW116175   3.155   2.982   1.270
 5092SOL    HW216176   3.292   2.920   1.332
 5093SOL     OW16177   1.125   1.964   1.206
 5093SOL    HW116178   1.062   2.025   1.157
 5093SOL    HW216179   1.187   1.920   1.140
 5094SOL     OW16180   0.019   0.382   6.989
 5094SOL    HW116181   0.071   0.369   0.053
 5094SOL    HW216182   6.942   0.384   7.011
 5095SOL     OW16183   3.048   0.222   5.513
 5095SOL    HW116184   3.007   0.134   5.488
 5095SOL    HW216185   3.000   0.260   5.591
 5096SOL     OW16186   3.535   6.191   2.836
 5096SOL    HW116187   3.558   6.287   2.822
 5096SOL    HW216188   3.467   6.184   2.909
 5097SOL     OW16189   1.029   1.468   6.099
 5097SOL    HW116190   0.996   1.382   6.061
 5097SOL    HW216191   1.106   1.450   6.160
 5098SOL     OW16192   6.867   2.719   2.813
 5098SOL    HW116193   6.891   2.622   2.815
 5098SOL    HW216194   6.889   2.757   2.724
 5099SOL     OW16195   0.948   0.817   4.103
 5099SOL    HW116196   0.974   0.848   4.011
 5099SOL    HW216197   1.004   0.739   4.129
 5100SOL     OW16198   4.923   5.427   5.958
 5100SOL    HW116199   4.921   5.428   5.858
 5100SOL    HW216200   5.015   5.404   5.990
 5101SOL     OW16201   4.685   6.314   0.488
 5101SOL    HW116202   4.690   6.227   0.536
 5101SOL    HW216203   4.749   6.379   0.530
 5102SOL     OW16204   3.606   5.267   3.935
 5102SOL    HW116205   3.592   5.220   4.022
 5102SOL    HW216206   3.573   5.210   3.860
 5103SOL     OW16207   1.447   1.572   4.157
 5103SOL    HW116208   1.417   1.639   4.090
 5103SOL    HW216209   1.496   1.618   4.231
 5104SOL     OW16210   0.679   0.672   1.149
 5104SOL    HW116211   0.637   0.741   1.208
 5104SOL    HW216212   0.618   0.592   1.143
 5105SOL     OW16213   2.013   2.969   6.141
 5105SOL    HW116214   2.058   2.977   6.230
 5105SOL    HW216215   1.952   3.047   6.128
 5106SOL     OW16216   2.680   0.064   2.257
 5106SOL    HW116217   2.597   0.092   2.305
 5106SOL    HW216218   2.754   0.128   2.276
 5107SOL     OW16219   2.170   6.817   6.612
 5107SOL    HW116220   2.231   6.753   6.566
 5107SOL    HW216221   2.154   6.787   6.706
 5108SOL     OW16222   3.532   4.080   4.001
 5108SOL    HW116223   3.497   4.067   4.094
 5108SOL    HW216224   3.631   4.066   4.000
 5109SOL     OW16225   6.530   1.922   2.351
 5109SOL    HW116226   6.584   2.005   2.335
 5109SOL    HW216227   6.433   1.947   2.359
 5110SOL     OW16228   2.166   6.023   5.650
 5110SOL    HW116229   2.162   6.112   5.605
 5110SOL    HW216230   2.203   5.955   5.586
 5111SOL     OW16231   1.509   0.917   0.116
 5111SOL    HW116232   1.410   0.918   0.099
 5111SOL    HW216233   1.557   0.950   0.035
 5112SOL     OW16234   0.186   6.618   3.418
 5112SOL    HW116235   0.257   6.577   3.361
 5112SOL    HW216236   0.228   6.661   3.499
 5113SOL     OW16237   0.395   0.596   6.357
 5113SOL    HW116238   0.375   0.573   6.452
 5113SOL    HW216239   0.486   0.562   6.333
 5114SOL     OW16240   4.040   5.760   6.539
 5114SOL    HW116241   4.051   5.858   6.523
 5114SOL    HW216242   3.954   5.729   6.499
 5115SOL     OW16243   2.178   3.778   5.119
 5115SOL    HW116244   2.238   3.711   5.163
 5115SOL    HW216245   2.230   3.861   5.098
 5116SOL     OW16246   6.623   3.403   0.996
 5116SOL    HW116247   6.535   3.357   0.982
 5116SOL    HW216248   6.628   3.484   0.937
 5117SOL     OW16249   2.926   5.166   2.769
 5117SOL    HW116250   2.840   5.121   2.790
 5117SOL    HW216251   2.988   5.159   2.847
 5118SOL     OW16252   3.748   6.706   1.889
 5118SOL    HW116253   3.802   6.782   1.855
 5118SOL    HW216254   3.666   6.695   1.833
 5119SOL     OW16255   6.121   0.107   2.613
 5119SOL    HW116256   6.074   0.025   2.578
 5119SOL    HW216257   6.058   0.158   2.671
 5120SOL     OW16258   3.237   1.321   2.071
 5120SOL    HW116259   3.160   1.366   2.115
 5120SOL    HW216260   3.321   1.338   2.123
 5121SOL     OW16261   0.564   3.524   3.975
 5121SOL    HW116262   0.640   3.584   3.949
 5121SOL    HW216263   0.589   3.429   3.956
 5122SOL     OW16264   2.630   5.235   3.437
 5122SOL    HW116265   2.647   5.147   3.394
 5122SOL    HW216266   2.532   5.252   3.442
 5123SOL     OW16267   6.520   3.574   1.923
 5123SOL    HW116268   6.512   3.580   1.823
 5123SOL    HW216269   6.429   3.569   1.963
 5124SOL     OW16270   2.673   6.178   0.859
 5124SOL    HW116271   2.723   6.218   0.936
 5124SOL    HW216272   2.601   6.118   0.895
 5125SOL     OW16273   0.208   2.160   5.659
 5125SOL    HW116274   0.163   2.163   5.748
 5125SOL    HW216275   0.296   2.113   5.667
 5126SOL     OW16276   4.372   2.151   0.334
 5126SOL    HW116277   4.281   2.111   0.349
 5126SOL    HW216278   4.372   2.246   0.366
 5127SOL     OW16279   5.405   3.306   6.583
 5127SOL    HW116280   5.385   3.398   6.549
 5127SOL    HW216281   5.330   3.245   6.560
 5128SOL     OW16282   6.764   0.053   6.425
 5128SOL    HW116283   6.794   0.148   6.410
 5128SOL    HW216284   6.837   7.011   6.399
 5129SOL     OW16285   4.888   2.573   3.838
 5129SOL    HW116286   4.799   2.604   3.871
 5129SOL    HW216287   4.875   2.501   3.771
 5130SOL     OW16288   1.743   6.551   5.161
 5130SOL    HW116289   1.691   6.496   5.227
 5130SOL    HW216290   1.839   6.555   5.189
 5131SOL     OW16291   3.541   5.031   3.134
 5131SOL    HW116292   3.605   4.960   3.104
 5131SOL    HW216293   3.573   5.071   3.220
 5132SOL     OW16294   4.112   1.965   6.648
 5132SOL    HW116295   4.183   1.902   6.679
 5132SOL    HW216296   4.150   2.057   6.642
 5133SOL     OW16297   4.720   4.510   6.721
 5133SOL    HW116298   4.626   4.530   6.747
 5133SOL    HW216299   4.783   4.549   6.789
 5134SOL     OW16300   5.610   5.854   0.134
 5134SOL    HW116301   5.613   5.790   0.057
 5134SOL    HW216302   5.643   5.808   0.217
 5135SOL     OW16303   6.484   3.113   2.186
 5135SOL    HW116304   6.400   3.124   2.133
 5135SOL    HW216305   6.523   3.203   2.206
 5136SOL     OW16306   0.372   0.673   4.507
 5136SOL    HW116307   0.368   0.585   4.555
 5136SOL    HW216308   0.302   0.675   4.436
 5137SOL     OW16309   5.415   0.372   3.480
 5137SOL    HW116310   5.487   0.366   3.550
 5137SOL    HW216311   5.436   0.446   3.417
 5138SOL     OW16312   2.850   3.350   2.316
 5138SOL    HW116313   2.768   3.313   2.358
 5138SOL    HW216314   2.827   3.394   2.229
 5139SOL     OW16315   4.393   0.193   4.510
 5139SOL    HW116316   4.317   0.217   4.449
 5139SOL    HW216317   4.408   0.267   4.575
 5140SOL     OW16318   3.275   3.781   6.383
 5140SOL    HW116319   3.292   3.878   6.367
 5140SOL    HW216320   3.362   3.735   6.403
 5141SOL     OW16321   1.172   3.186   1.344
 5141SOL    HW116322   1.265   3.187   1.381
 5141SOL    HW216323   1.172   3.141   1.255
 5142SOL     OW16324   0.662   6.908   2.591
 5142SOL    HW116325   0.654   6.998   2.634
 5142SOL    HW216326   0.582   6.853   2.614
 5143SOL     OW16327   6.951   6.029   2.167
 5143SOL    HW116328   6.866   6.043   2.216
 5143SOL    HW216329   6.932   6.020   2.069
 5144SOL     OW16330   2.166   3.397   4.895
 5144SOL    HW116331   2.230   3.341   4.946
 5144SOL    HW216332   2.080   3.405   4.945
 5145SOL     OW16333   2.266   5.795   5.524
 5145SOL    HW116334   2.329   5.801   5.447
 5145SOL    HW216335   2.289   5.714   5.579
 5146SOL     OW16336   5.915   5.691   6.483
 5146SOL    HW116337   5.999   5.740   6.505
 5146SOL    HW216338   5.937   5.603   6.440
 5147SOL     OW16339   5.943   2.179   4.035
 5147SOL    HW116340   5.870   2.110   4.032
 5147SOL    HW216341   6.029   2.136   4.008
 5148SOL     OW16342   6.342   1.542   0.179
 5148SOL    HW116343   6.402   1.617   0.152
 5148SOL    HW216344   6.398   1.463   0.206
 5149SOL     OW16345   4.205   5.724   4.385
 5149SOL    HW116346   4.298   5.724   4.421
 5149SOL    HW216347   4.142   5.756   4.455
 5150SOL     OW16348   6.587   0.621   3.354
 5150SOL    HW116349   6.637   0.594   3.437
 5150SOL    HW216350   6.505   0.564   3.345
 5151SOL     OW16351   5.149   5.179   1.298
 5151SOL    HW116352   5.197   5.093   1.277
 5151SOL    HW216353   5.050   5.163   1.295
 5152SOL     OW16354   2.332   2.150   0.783
 5152SOL    HW116355   2.250   2.183   0.735
 5152SOL    HW216356   2.364   2.220   0.846
 5153SOL     OW16357   2.416   2.588   0.587
 5153SOL    HW116358   2.461   2.650   0.651
 5153SOL    HW216359   2.484   2.550   0.524
 5154SOL     OW16360   0.516   2.629   0.508
 5154SOL    HW116361   0.529   2.587   0.419
 5154SOL    HW216362   0.594   2.688   0.529
 5155SOL     OW16363   1.787   1.372   6.947
 5155SOL    HW116364   1.822   1.282   6.922
 5155SOL    HW216365   1.711   1.361   7.012
 5156SOL     OW16366   5.186   5.185   6.356
 5156SOL    HW116367   5.119   5.210   6.426
 5156SOL    HW216368   5.143   5.126   6.288
 5157SOL     OW16369   3.698   0.999   1.905
 5157SOL    HW116370   3.773   0.964   1.849
 5157SOL    HW216371   3.709   1.097   1.919
 5158SOL     OW16372   1.476   2.201   2.169
 5158SOL    HW116373   1.514   2.134   2.233
 5158SOL    HW216374   1.439   2.154   2.089
 5159SOL     OW16375   6.815   3.209   5.541
 5159SOL    HW116376   6.743   3.279   5.534
 5159SOL    HW216377   6.774   3.118   5.536
 5160SOL     OW16378   0.048   0.004   3.158
 5160SOL    HW116379   6.991   6.964   3.175
 5160SOL    HW216380   0.123   7.001   3.221
 5161SOL     OW16381   1.143   1.722   5.951
 5161SOL    HW116382   1.131   1.627   5.981
 5161SOL    HW216383   1.204   1.725   5.872
 5162SOL     OW16384   0.450   6.766   4.995
 5162SOL    HW116385   0.504   6.687   4.968
 5162SOL    HW216386   0.505   6.825   5.054
 5163SOL     OW16387   2.893   0.885   1.647
 5163SOL    HW116388   2.811   0.832   1.670
 5163SOL    HW216389   2.973   0.841   1.688
 5164SOL     OW16390   2.633   3.842   6.895
 5164SOL    HW116391   2.658   3.855   6.799
 5164SOL    HW216392   2.543   3.799   6.900
 5165SOL     OW16393   1.838   4.943   5.963
 5165SOL    HW116394   1.894   4.861   5.950
 5165SOL    HW216395   1.872   4.993   6.043
 5166SOL     OW16396   6.972   5.327   5.699
 5166SOL    HW116397   6.875   5.317   5.722
 5166SOL    HW216398   6.981   5.388   5.619
 5167SOL     OW16399   5.929   3.827   5.893
 5167SOL    HW116400   6.021   3.830   5.932
 5167SOL    HW216401   5.906   3.733   5.868
 5168SOL     OW16402   4.875   1.724   3.624
 5168SOL    HW116403   4.862   1.763   3.533
 5168SOL    HW216404   4.832   1.634   3.628
 5169SOL     OW16405   5.404   5.713   4.370
 5169SOL    HW116406   5.343   5.696   4.292
 5169SOL    HW216407   5.445   5.804   4.360
 5170SOL     OW16408   1.992   4.290   5.842
 5170SOL    HW116409   2.070   4.350   5.823
 5170SOL    HW216410   2.016   4.228   5.917
 5171SOL     OW16411   2.415   6.464   6.294
 5171SOL    HW116412   2.325   6.450   6.252
 5171SOL    HW216413   2.433   6.391   6.360
 5172SOL     OW16414   5.814   5.404   6.308
 5172SOL    HW116415   5.907   5.412   6.346
 5172SOL    HW216416   5.801   5.475   6.239
 5173SOL     OW16417   4.206   5.398   4.531
 5173SOL    HW116418   4.178   5.412   4.436
 5173SOL    HW216419   4.198   5.302   4.555
 5174SOL     OW16420   1.090   6.004   2.855
 5174SOL    HW116421   1.098   6.082   2.794
 5174SOL    HW216422   1.041   6.031   2.938
 5175SOL     OW16423   2.451   1.921   6.472
 5175SOL    HW116424   2.470   1.962   6.383
 5175SOL    HW216425   2.357   1.889   6.475
 5176SOL     OW16426   6.084   6.193   6.482
 5176SOL    HW116427   6.097   6.127   6.408
 5176SOL    HW216428   6.023   6.266   6.451
 5177SOL     OW16429   5.447   5.892   0.728
 5177SOL    HW116430   5.370   5.912   0.668
 5177SOL    HW216431   5.440   5.798   0.761
 5178SOL     OW16432   0.441   3.954   1.243
 5178SOL    HW116433   0.519   3.957   1.180
 5178SOL    HW216434   0.474   3.953   1.337
 5179SOL     OW16435   4.918   5.307   3.085
 5179SOL    HW116436   4.891   5.270   3.174
 5179SOL    HW216437   4.927   5.233   3.019
 5180SOL     OW16438   1.738   4.949   1.935
 5180SOL    HW116439   1.821   4.911   1.893
 5180SOL    HW216440   1.745   5.049   1.936
 5181SOL     OW16441   7.010   1.427   5.127
 5181SOL    HW116442   0.071   1.445   5.071
 5181SOL    HW216443   7.019   1.338   5.171
 5182SOL     OW16444   2.117   6.682   1.884
 5182SOL    HW116445   2.044   6.641   1.940
 5182SOL    HW216446   2.078   6.755   1.828
 5183SOL     OW16447   4.749   2.510   3.300
 5183SOL    HW116448   4.838   2.463   3.306
 5183SOL    HW216449   4.720   2.537   3.392
 5184SOL     OW16450   2.030   2.026   2.927
 5184SOL    HW116451   1.972   2.104   2.948
 5184SOL    HW216452   2.109   2.056   2.873
 5185SOL     OW16453   6.463   6.817   1.956
 5185SOL    HW116454   6.549   6.794   1.911
 5185SOL    HW216455   6.432   6.907   1.926
 5186SOL     OW16456   6.122   2.257   6.634
 5186SOL    HW116457   6.113   2.342   6.687
 5186SOL    HW216458   6.168   2.188   6.689
 5187SOL     OW16459   1.524   4.836   5.241
 5187SOL    HW116460   1.595   4.826   5.171
 5187SOL    HW216461   1.491   4.745   5.267
 5188SOL     OW16462   0.059   0.309   1.389
 5188SOL    HW116463   7.007   0.244   1.411
 5188SOL    HW216464   0.067   0.317   1.290
 5189SOL     OW16465   5.044   5.969   6.831
 5189SOL    HW116466   5.035   6.051   6.887
 5189SOL    HW216467   4.953   5.933   6.811
 5190SOL     OW16468   1.766   4.812   0.711
 5190SOL    HW116469   1.860   4.778   0.702
 5190SOL    HW216470   1.764   4.910   0.693
 5191SOL     OW16471   2.772   4.281   1.671
 5191SOL    HW116472   2.776   4.324   1.581
 5191SOL    HW216473   2.842   4.321   1.730
 5192SOL     OW16474   0.817   4.723   3.213
 5192SOL    HW116475   0.775   4.632   3.221
 5192SOL    HW216476   0.915   4.716   3.226
 5193SOL     OW16477   4.489   0.886   5.376
 5193SOL    HW116478   4.542   0.803   5.390
 5193SOL    HW216479   4.411   0.887   5.439
 5194SOL     OW16480   4.275   1.825   4.872
 5194SOL    HW116481   4.320   1.912   4.888
 5194SOL    HW216482   4.316   1.754   4.930
 5195SOL     OW16483   1.374   0.707   5.685
 5195SOL    HW116484   1.402   0.765   5.608
 5195SOL    HW216485   1.282   0.671   5.667
 5196SOL     OW16486   5.621   6.504   3.456
 5196SOL    HW116487   5.670   6.417   3.463
 5196SOL    HW216488   5.634   6.542   3.365
 5197SOL     OW16489   1.358   3.265   4.613
 5197SOL    HW116490   1.279   3.213   4.645
 5197SOL    HW216491   1.390   3.227   4.526
 5198SOL     OW16492   6.042   5.087   3.020
 5198SOL    HW116493   5.977   5.106   3.094
 5198SOL    HW216494   6.133   5.072   3.059
 5199SOL     OW16495   0.258   4.551   1.128
 5199SOL    HW116496   0.283   4.459   1.158
 5199SOL    HW216497   0.178   4.582   1.180
 5200SOL     OW16498   6.511   3.776   5.102
 5200SOL    HW116499   6.437   3.805   5.041
 5200SOL    HW216500   6.505   3.828   5.188
 5201SOL     OW16501   1.088   5.962   4.931
 5201SOL    HW116502   1.057   5.985   4.838
 5201SOL    HW216503   1.181   5.995   4.944
 5202SOL     OW16504   0.174   4.337   1.912
 5202SOL    HW116505   0.109   4.408   1.939
 5202SOL    HW216506   0.215   4.360   1.824
 5203SOL     OW16507   6.501   3.619   6.801
 5203SOL    HW116508   6.578   3.559   6.779
 5203SOL    HW216509   6.533   3.691   6.863
 5204SOL     OW16510   5.439   5.235   6.307
 5204SOL    HW116511   5.484   5.146   6.318
 5204SOL    HW216512   5.340   5.222   6.308
 5205SOL     OW16513   2.888   6.513   0.293
 5205SOL    HW116514   2.809   6.474   0.340
 5205SOL    HW216515   2.856   6.580   0.226
 5206SOL     OW16516   0.052   4.308   4.470
 5206SOL    HW116517   0.148   4.280   4.467
 5206SOL    HW216518   0.046   4.405   4.491
 5207SOL     OW16519   1.725   4.938   2.958
 5207SOL    HW116520   1.823   4.944   2.939
 5207SOL    HW216521   1.674   4.963   2.876
 5208SOL     OW16522   5.288   1.127   0.030
 5208SOL    HW116523   5.318   1.086   0.116
 5208SOL    HW216524   5.193   1.155   0.038
 5209SOL     OW16525   5.438   5.115   3.188
 5209SOL    HW116526   5.443   5.211   3.158
 5209SOL    HW216527   5.348   5.096   3.227
 5210SOL     OW16528   4.810   4.407   2.862
 5210SOL    HW116529   4.831   4.454   2.777
 5210SOL    HW216530   4.741   4.459   2.912
 5211SOL     OW16531   3.075   3.624   2.177
 5211SOL    HW116532   3.027   3.637   2.264
 5211SOL    HW216533   3.138   3.548   2.186
 5212SOL     OW16534   0.750   0.064   6.325
 5212SOL    HW116535   0.721   6.990   6.338
 5212SOL    HW216536   0.850   0.069   6.333
 5213SOL     OW16537   4.148   2.197   6.403
 5213SOL    HW116538   4.054   2.177   6.432
 5213SOL    HW216539   4.155   2.294   6.379
 5214SOL     OW16540   4.697   1.483   0.473
 5214SOL    HW116541   4.748   1.539   0.407
 5214SOL    HW216542   4.750   1.473   0.557
 5215SOL     OW16543   5.702   5.007   3.661
 5215SOL    HW116544   5.683   4.916   3.698
 5215SOL    HW216545   5.800   5.027   3.672
 5216SOL     OW16546   4.239   6.015   1.631
 5216SOL    HW116547   4.231   6.011   1.730
 5216SOL    HW216548   4.311   5.953   1.601
 5217SOL     OW16549   2.785   4.712   3.717
 5217SOL    HW116550   2.751   4.805   3.733
 5217SOL    HW216551   2.730   4.667   3.647
 5218SOL     OW16552   1.959   0.092   3.972
 5218SOL    HW116553   1.946   7.019   4.005
 5218SOL    HW216554   2.045   0.128   4.008
 5219SOL     OW16555   2.290   6.996   0.705
 5219SOL    HW116556   2.295   6.981   0.804
 5219SOL    HW216557   2.382   7.004   0.668
 5220SOL     OW16558   1.360   0.029   1.530
 5220SOL    HW116559   1.335   6.953   1.532
 5220SOL    HW216560   1.413   0.048   1.448
 5221SOL     OW16561   4.143   1.205   0.021
 5221SOL    HW116562   4.209   1.144   6.997
 5221SOL    HW216563   4.052   1.164   0.018
 5222SOL     OW16564   0.644   6.689   2.897
 5222SOL    HW116565   0.656   6.596   2.861
 5222SOL    HW216566   0.568   6.733   2.850
 5223SOL     OW16567   4.666   6.512   0.977
 5223SOL    HW116568   4.690   6.589   0.918
 5223SOL    HW216569   4.599   6.541   1.045
 5224SOL     OW16570   5.637   1.067   3.275
 5224SOL    HW116571   5.589   0.986   3.306
 5224SOL    HW216572   5.735   1.048   3.268
 5225SOL     OW16573   0.002   6.711   5.723
 5225SOL    HW116574   6.957   6.638   5.745
 5225SOL    HW216575   0.060   6.729   5.802
 5226SOL     OW16576   2.508   6.644   4.040
 5226SOL    HW116577   2.575   6.702   3.994
 5226SOL    HW216578   2.495   6.677   4.134
 5227SOL     OW16579   5.241   3.609   3.820
 5227SOL    HW116580   5.247   3.708   3.833
 5227SOL    HW216581   5.146   3.579   3.831
 5228SOL     OW16582   5.188   0.813   1.155
 5228SOL    HW116583   5.192   0.816   1.255
 5228SOL    HW216584   5.232   0.894   1.118
 5229SOL     OW16585   1.301   4.502   3.521
 5229SOL    HW116586   1.383   4.464   3.478
 5229SOL    HW216587   1.252   4.559   3.455
 5230SOL     OW16588   1.357   0.362   6.210
 5230SOL    HW116589   1.374   0.273   6.252
 5230SOL    HW216590   1.405   0.433   6.261
 5231SOL     OW16591   3.052   3.109   3.130
 5231SOL    HW116592   3.095   3.091   3.041
 5231SOL    HW216593   2.952   3.106   3.119
 5232SOL     OW16594   5.416   2.850   5.553
 5232SOL    HW116595   5.478   2.796   5.611
 5232SOL    HW216596   5.387   2.932   5.603
 5233SOL     OW16597   1.065   0.410   2.994
 5233SOL    HW116598   1.041   0.314   2.999
 5233SOL    HW216599   1.002   0.457   2.932
 5234SOL     OW16600   3.811   5.361   1.427
 5234SOL    HW116601   3.867   5.408   1.359
 5234SOL    HW216602   3.830   5.263   1.425
 5235SOL     OW16603   0.601   2.719   1.177
 5235SOL    HW116604   0.683   2.769   1.205
 5235SOL    HW216605   0.580   2.741   1.081
 5236SOL     OW16606   6.269   3.300   0.533
 5236SOL    HW116607   6.362   3.295   0.570
 5236SOL    HW216608   6.231   3.390   0.551
 5237SOL     OW16609   1.707   1.718   3.452
 5237SOL    HW116610   1.802   1.728   3.423
 5237SOL    HW216611   1.673   1.805   3.486
 5238SOL     OW16612   1.921   3.596   1.113
 5238SOL    HW116613   1.892   3.671   1.053
 5238SOL    HW216614   1.909   3.509   1.066
 5239SOL     OW16615   2.885   3.599   4.348
 5239SOL    HW116616   2.904   3.691   4.382
 5239SOL    HW216617   2.958   3.536   4.375
 5240SOL     OW16618   3.425   1.790   4.858
 5240SOL    HW116619   3.326   1.797   4.855
 5240SOL    HW216620   3.458   1.824   4.947
 5241SOL     OW16621   2.883   5.580   5.598
 5241SOL    HW116622   2.940   5.573   5.516
 5241SOL    HW216623   2.940   5.607   5.676
 5242SOL     OW16624   4.766   0.463   5.049
 5242SOL    HW116625   4.824   0.537   5.018
 5242SOL    HW216626   4.815   0.407   5.115
 5243SOL     OW16627   0.477   4.139   0.407
 5243SOL    HW116628   0.534   4.220   0.420
 5243SOL    HW216629   0.453   4.100   0.496
 5244SOL     OW16630   5.784   3.261   6.863
 5244SOL    HW116631   5.822   3.236   6.773
 5244SOL    HW216632   5.837   3.337   6.901
 5245SOL     OW16633   4.538   4.812   6.370
 5245SOL    HW116634   4.543   4.714   6.390
 5245SOL    HW216635   4.471   4.855   6.429
 5246SOL     OW16636   1.241   3.996   2.963
 5246SOL    HW116637   1.313   3.941   2.919
 5246SOL    HW216638   1.220   4.075   2.906
 5247SOL     OW16639   0.157   4.533   0.628
 5247SOL    HW116640   0.211   4.613   0.603
 5247SOL    HW216641   0.122   4.543   0.721
 5248SOL     OW16642   4.992   1.154   0.368
 5248SOL    HW116643   4.970   1.083   0.300
 5248SOL    HW216644   4.996   1.243   0.323
 5249SOL     OW16645   1.475   5.399   6.563
 5249SOL    HW116646   1.552   5.399   6.626
 5249SOL    HW216647   1.404   5.462   6.595
 5250SOL     OW16648   1.181   1.336   5.601
 5250SOL    HW116649   1.193   1.385   5.515
 5250SOL    HW216650   1.105   1.376   5.652
 5251SOL     OW16651   0.779   3.034   0.648
 5251SOL    HW116652   0.685   3.067   0.634
 5251SOL    HW216653   0.839   3.080   0.582
 5252SOL     OW16654   5.187   0.008   1.148
 5252SOL    HW116655   5.210   6.995   1.057
 5252SOL    HW216656   5.093   7.003   1.171
 5253SOL     OW16657   5.846   2.942   3.925
 5253SOL    HW116658   5.772   2.876   3.911
 5253SOL    HW216659   5.839   2.981   4.017
 5254SOL     OW16660   4.945   0.318   4.071
 5254SOL    HW116661   4.961   0.409   4.110
 5254SOL    HW216662   5.024   0.260   4.088
 5255SOL     OW16663   3.032   5.803   4.416
 5255SOL    HW116664   3.123   5.776   4.449
 5255SOL    HW216665   2.963   5.779   4.485
 5256SOL     OW16666   5.125   6.626   1.936
 5256SOL    HW116667   5.111   6.527   1.948
 5256SOL    HW216668   5.223   6.647   1.945
 5257SOL     OW16669   3.372   1.382   3.399
 5257SOL    HW116670   3.470   1.386   3.378
 5257SOL    HW216671   3.342   1.469   3.437
 5258SOL     OW16672   6.054   1.942   2.012
 5258SOL    HW116673   5.961   1.962   1.980
 5258SOL    HW216674   6.117   2.010   1.976
 5259SOL     OW16675   5.464   4.045   1.096
 5259SOL    HW116676   5.470   3.970   1.161
 5259SOL    HW216677   5.484   4.131   1.143
 5260SOL     OW16678   5.022   2.510   1.633
 5260SOL    HW116679   5.026   2.496   1.732
 5260SOL    HW216680   4.943   2.568   1.611
 5261SOL     OW16681   2.420   2.672   4.560
 5261SOL    HW116682   2.418   2.681   4.460
 5261SOL    HW216683   2.474   2.591   4.584
 5262SOL     OW16684   1.543   0.324   1.368
 5262SOL    HW116685   1.491   0.321   1.453
 5262SOL    HW216686   1.489   0.369   1.297
 5263SOL     OW16687   0.908   6.631   6.856
 5263SOL    HW116688   0.832   6.631   6.791
 5263SOL    HW216689   0.873   6.643   6.949
 5264SOL     OW16690   1.087   1.677   1.307
 5264SOL    HW116691   1.154   1.751   1.294
 5264SOL    HW216692   0.999   1.704   1.268
 5265SOL     OW16693   5.506   4.986   3.452
 5265SOL    HW116694   5.517   5.050   3.375
 5265SOL    HW216695   5.568   5.011   3.526
 5266SOL     OW16696   1.224   0.020   0.855
 5266SOL    HW116697   1.212   0.004   0.953
 5266SOL    HW216698   1.305   0.075   0.840
 5267SOL     OW16699   4.211   3.761   5.425
 5267SOL    HW116700   4.287   3.826   5.434
 5267SOL    HW216701   4.230   3.697   5.351
 5268SOL     OW16702   5.391   5.326   5.897
 5268SOL    HW116703   5.421   5.234   5.871
 5268SOL    HW216704   5.458   5.366   5.960
 5269SOL     OW16705   1.993   4.721   5.935
 5269SOL    HW116706   2.057   4.728   6.011
 5269SOL    HW216707   1.918   4.661   5.960
 5270SOL     OW16708   6.810   2.509   3.211
 5270SOL    HW116709   6.741   2.496   3.140
 5270SOL    HW216710   6.782   2.462   3.295
 5271SOL     OW16711   5.494   3.904   5.777
 5271SOL    HW116712   5.464   3.944   5.690
 5271SOL    HW216713   5.563   3.962   5.819
 5272SOL     OW16714   1.846   1.189   3.924
 5272SOL    HW116715   1.777   1.255   3.954
 5272SOL    HW216716   1.863   1.123   3.997
 5273SOL     OW16717   7.018   0.311   5.034
 5273SOL    HW116718   6.918   0.313   5.027
 5273SOL    HW216719   0.028   0.216   5.046
 5274SOL     OW16720   0.822   5.785   4.840
 5274SOL    HW116721   0.784   5.699   4.808
 5274SOL    HW216722   0.911   5.800   4.797
 5275SOL     OW16723   1.555   6.551   6.730
 5275SOL    HW116724   1.472   6.587   6.771
 5275SOL    HW216725   1.620   6.625   6.714
 5276SOL     OW16726   0.199   0.058   0.642
 5276SOL    HW116727   0.253   0.010   0.712
 5276SOL    HW216728   0.195   0.156   0.665
 5277SOL     OW16729   0.404   1.014   2.693
 5277SOL    HW116730   0.340   1.074   2.645
 5277SOL    HW216731   0.488   1.007   2.640
 5278SOL     OW16732   0.823   3.686   6.134
 5278SOL    HW116733   0.735   3.668   6.089
 5278SOL    HW216734   0.808   3.707   6.230
 5279SOL     OW16735   3.004   6.561   6.994
 5279SOL    HW116736   2.904   6.565   6.994
 5279SOL    HW216737   3.034   6.466   6.999
 5280SOL     OW16738   4.631   6.291   5.069
 5280SOL    HW116739   4.629   6.218   5.001
 5280SOL    HW216740   4.726   6.306   5.098
 5281SOL     OW16741   2.823   6.772   4.871
 5281SOL    HW116742   2.830   6.872   4.876
 5281SOL    HW216743   2.908   6.731   4.903
 5282SOL     OW16744   0.523   6.428   0.661
 5282SOL    HW116745   0.515   6.350   0.599
 5282SOL    HW216746   0.476   6.507   0.622
 5283SOL     OW16747   1.022   0.855   3.830
 5283SOL    HW116748   0.983   0.922   3.768
 5283SOL    HW216749   1.030   0.767   3.783
 5284SOL     OW16750   4.936   3.510   2.045
 5284SOL    HW116751   4.860   3.553   1.997
 5284SOL    HW216752   4.950   3.418   2.009
 5285SOL     OW16753   1.306   2.187   4.247
 5285SOL    HW116754   1.266   2.095   4.253
 5285SOL    HW216755   1.378   2.188   4.178
 5286SOL     OW16756   6.698   2.854   1.539
 5286SOL    HW116757   6.744   2.771   1.508
 5286SOL    HW216758   6.607   2.859   1.498
 5287SOL     OW16759   1.148   5.459   1.676
 5287SOL    HW116760   1.179   5.379   1.624
 5287SOL    HW216761   1.057   5.486   1.644
 5288SOL     OW16762   4.309   0.714   1.808
 5288SOL    HW116763   4.353   0.695   1.895
 5288SOL    HW216764   4.220   0.669   1.804
 5289SOL     OW16765   2.794   4.395   5.879
 5289SOL    HW116766   2.887   4.428   5.899
 5289SOL    HW216767   2.733   4.473   5.864
 5290SOL     OW16768   1.871   3.312   4.724
 5290SOL    HW116769   1.967   3.332   4.706
 5290SOL    HW216770   1.814   3.365   4.661
 5291SOL     OW16771   3.116   4.890   4.373
 5291SOL    HW116772   3.199   4.843   4.345
 5291SOL    HW216773   3.110   4.890   4.473
 5292SOL     OW16774   0.520   3.782   4.472
 5292SOL    HW116775   0.437   3.835   4.454
 5292SOL    HW216776   0.565   3.817   4.554
 5293SOL     OW16777   2.410   0.407   4.400
 5293SOL    HW116778   2.341   0.475   4.426
 5293SOL    HW216779   2.367   0.338   4.342
 5294SOL     OW16780   4.739   6.732   4.821
 5294SOL    HW116781   4.740   6.832   4.826
 5294SOL    HW216782   4.661   6.697   4.873
 5295SOL     OW16783   2.180   1.078   2.145
 5295SOL    HW116784   2.223   0.989   2.161
 5295SOL    HW216785   2.135   1.078   2.056
 5296SOL     OW16786   4.765   4.932   1.863
 5296SOL    HW116787   4.731   4.895   1.949
 5296SOL    HW216788   4.693   4.928   1.794
 5297SOL     OW16789   2.508   5.647   6.395
 5297SOL    HW116790   2.437   5.717   6.393
 5297SOL    HW216791   2.594   5.686   6.427
 5298SOL     OW16792   2.182   1.871   0.608
 5298SOL    HW116793   2.282   1.864   0.601
 5298SOL    HW216794   2.154   1.966   0.593
 5299SOL     OW16795   2.333   0.786   1.780
 5299SOL    HW116796   2.421   0.807   1.737
 5299SOL    HW216797   2.287   0.872   1.805
 5300SOL     OW16798   3.167   4.992   0.070
 5300SOL    HW116799   3.164   5.062   7.019
 5300SOL    HW216800   3.150   4.902   0.030
 5301SOL     OW16801   6.063   6.971   5.892
 5301SOL    HW116802   6.118   6.887   5.900
 5301SOL    HW216803   5.967   6.948   5.907
 5302SOL     OW16804   5.145   5.864   2.848
 5302SOL    HW116805   5.199   5.782   2.863
 5302SOL    HW216806   5.193   5.925   2.784
 5303SOL     OW16807   1.083   5.493   5.284
 5303SOL    HW116808   1.168   5.445   5.263
 5303SOL    HW216809   1.008   5.452   5.233
 5304SOL     OW16810   0.145   0.647   3.235
 5304SOL    HW116811   0.059   0.666   3.282
 5304SOL    HW216812   0.197   0.578   3.287
 5305SOL     OW16813   0.032   5.433   4.186
 5305SOL    HW116814   0.092   5.420   4.107
 5305SOL    HW216815   0.041   5.355   4.248
 5306SOL     OW16816   0.715   2.184   5.772
 5306SOL    HW116817   0.686   2.118   5.842
 5306SOL    HW216818   0.809   2.164   5.745
 5307SOL     OW16819   6.965   1.703   1.386
 5307SOL    HW116820   6.947   1.612   1.349
 5307SOL    HW216821   6.883   1.759   1.380
 5308SOL     OW16822   1.976   4.042   2.817
 5308SOL    HW116823   2.009   3.978   2.886
 5308SOL    HW216824   1.987   4.002   2.726
 5309SOL     OW16825   6.069   5.363   3.108
 5309SOL    HW116826   6.122   5.442   3.076
 5309SOL    HW216827   6.004   5.335   3.037
 5310SOL     OW16828   6.172   2.746   3.263
 5310SOL    HW116829   6.267   2.723   3.243
 5310SOL    HW216830   6.137   2.685   3.334
 5311SOL     OW16831   5.762   0.156   0.378
 5311SOL    HW116832   5.848   0.112   0.355
 5311SOL    HW216833   5.779   0.251   0.405
 5312SOL     OW16834   6.121   6.268   0.483
 5312SOL    HW116835   6.201   6.328   0.490
 5312SOL    HW216836   6.136   6.186   0.539
 5313SOL     OW16837   1.105   6.530   5.657
 5313SOL    HW116838   1.121   6.562   5.751
 5313SOL    HW216839   1.064   6.604   5.604
 5314SOL     OW16840   5.977   1.029   1.620
 5314SOL    HW116841   5.980   1.026   1.520
 5314SOL    HW216842   5.953   1.121   1.650
 5315SOL     OW16843   4.496   1.869   4.050
 5315SOL    HW116844   4.567   1.836   3.988
 5315SOL    HW216845   4.460   1.956   4.015
 5316SOL     OW16846   0.777   2.616   4.976
 5316SOL    HW116847   0.833   2.554   5.031
 5316SOL    HW216848   0.794   2.599   4.879
 5317SOL     OW16849   5.873   2.561   6.625
 5317SOL    HW116850   5.952   2.620   6.612
 5317SOL    HW216851   5.877   2.485   6.560
 5318SOL     OW16852   0.220   4.095   6.563
 5318SOL    HW116853   0.295   4.113   6.626
 5318SOL    HW216854   0.223   4.161   6.488
 5319SOL     OW16855   4.032   6.260   2.221
 5319SOL    HW116856   3.998   6.354   2.223
 5319SOL    HW216857   3.958   6.198   2.197
 5320SOL     OW16858   4.011   5.901   1.054
 5320SOL    HW116859   4.028   5.853   1.139
 5320SOL    HW216860   3.946   5.850   0.998
 5321SOL     OW16861   2.040   4.531   5.642
 5321SOL    HW116862   2.047   4.484   5.554
 5321SOL    HW216863   1.973   4.604   5.635
 5322SOL     OW16864   4.234   0.033   1.985
 5322SOL    HW116865   4.330   0.007   1.994
 5322SOL    HW216866   4.189   6.996   1.917
 5323SOL     OW16867   4.142   0.546   5.670
 5323SOL    HW116868   4.199   0.479   5.622
 5323SOL    HW216869   4.201   0.617   5.709
 5324SOL     OW16870   1.921   1.949   1.379
 5324SOL    HW116871   2.002   1.923   1.432
 5324SOL    HW216872   1.839   1.942   1.436
 5325SOL     OW16873   2.187   2.378   5.134
 5325SOL    HW116874   2.143   2.342   5.216
 5325SOL    HW216875   2.218   2.472   5.151
 5326SOL     OW16876   6.438   6.847   1.571
 5326SOL    HW116877   6.396   6.866   1.482
 5326SOL    HW216878   6.530   6.886   1.573
 5327SOL     OW16879   0.071   2.618   5.596
 5327SOL    HW116880   0.103   2.598   5.688
 5327SOL    HW216881   0.129   2.572   5.529
 5328SOL     OW16882   4.861   5.416   0.426
 5328SOL    HW116883   4.933   5.381   0.366
 5328SOL    HW216884   4.772   5.385   0.393
 5329SOL     OW16885   1.977   6.622   6.141
 5329SOL    HW116886   1.953   6.556   6.070
 5329SOL    HW216887   1.943   6.712   6.116
 5330SOL     OW16888   2.369   4.641   0.990
 5330SOL    HW116889   2.387   4.543   0.992
 5330SOL    HW216890   2.454   4.690   0.968
 5331SOL     OW16891   6.320   1.149   6.058
 5331SOL    HW116892   6.360   1.058   6.067
 5331SOL    HW216893   6.369   1.214   6.116
 5332SOL     OW16894   0.312   4.744   1.454
 5332SOL    HW116895   0.305   4.748   1.354
 5332SOL    HW216896   0.220   4.739   1.493
 5333SOL     OW16897   0.952   6.095   5.135
 5333SOL    HW116898   0.873   6.042   5.167
 5333SOL    HW216899   1.000   6.044   5.063
 5334SOL     OW16900   3.719   0.255   4.415
 5334SOL    HW116901   3.724   0.353   4.434
 5334SOL    HW216902   3.628   0.233   4.378
 5335SOL     OW16903   7.017   5.838   6.891
 5335SOL    HW116904   0.004   5.878   6.982
 5335SOL    HW216905   0.021   5.906   6.822
 5336SOL     OW16906   1.094   4.059   1.513
 5336SOL    HW116907   1.187   4.064   1.549
 5336SOL    HW216908   1.086   3.982   1.450
 5337SOL     OW16909   5.562   3.703   1.382
 5337SOL    HW116910   5.618   3.639   1.434
 5337SOL    HW216911   5.515   3.764   1.445
 5338SOL     OW16912   6.257   1.487   6.855
 5338SOL    HW116913   6.158   1.486   6.846
 5338SOL    HW216914   6.290   1.395   6.874
 5339SOL     OW16915   6.942   0.280   2.023
 5339SOL    HW116916   6.877   0.314   2.090
 5339SOL    HW216917   6.922   0.319   1.933
 5340SOL     OW16918   5.593   2.623   5.990
 5340SOL    HW116919   5.513   2.618   5.929
 5340SOL    HW216920   5.633   2.532   5.999
 5341SOL     OW16921   3.852   0.389   0.844
 5341SOL    HW116922   3.787   0.345   0.782
 5341SOL    HW216923   3.945   0.374   0.810
 5342SOL     OW16924   2.447   0.967   5.941
 5342SOL    HW116925   2.502   0.929   6.015
 5342SOL    HW216926   2.506   1.021   5.881
 5343SOL     OW16927   3.966   3.974   2.207
 5343SOL    HW116928   4.014   4.033   2.142
 5343SOL    HW216929   3.870   4.003   2.213
 5344SOL     OW16930   2.001   2.362   2.672
 5344SOL    HW116931   2.050   2.438   2.630
 5344SOL    HW216932   1.978   2.384   2.767
 5345SOL     OW16933   4.732   0.136   2.211
 5345SOL    HW116934   4.809   0.194   2.234
 5345SOL    HW216935   4.666   0.187   2.156
 5346SOL     OW16936   2.481   6.717   3.260
 5346SOL    HW116937   2.536   6.743   3.180
 5346SOL    HW216938   2.502   6.622   3.285
 5347SOL     OW16939   0.019   1.903   2.233
 5347SOL    HW116940   0.091   1.877   2.169
 5347SOL    HW216941   7.004   1.993   2.209
 5348SOL     OW16942   6.786   0.851   0.563
 5348SOL    HW116943   6.705   0.853   0.504
 5348SOL    HW216944   6.776   0.779   0.632
 5349SOL     OW16945   6.548   0.202   1.568
 5349SOL    HW116946   6.561   0.255   1.652
 5349SOL    HW216947   6.592   0.113   1.577
 5350SOL     OW16948   2.605   0.318   0.047
 5350SOL    HW116949   2.653   0.305   0.134
 5350SOL    HW216950   2.511   0.348   0.065
 5351SOL     OW16951   4.251   0.458   2.161
 5351SOL    HW116952   4.262   0.399   2.081
 5351SOL    HW216953   4.320   0.434   2.230
 5352SOL     OW16954   3.628   6.443   3.428
 5352SOL    HW116955   3.598   6.348   3.441
 5352SOL    HW216956   3.563   6.504   3.473
 5353SOL     OW16957   5.706   0.485   5.612
 5353SOL    HW116958   5.633   0.420   5.633
 5353SOL    HW216959   5.682   0.576   5.645
 5354SOL     OW16960   1.369   3.316   1.493
 5354SOL    HW116961   1.439   3.341   1.426
 5354SOL    HW216962   1.394   3.350   1.583
 5355SOL     OW16963   4.097   1.317   5.232
 5355SOL    HW116964   4.031   1.359   5.169
 5355SOL    HW216965   4.176   1.285   5.181
 5356SOL     OW16966   6.059   3.482   0.491
 5356SOL    HW116967   5.966   3.447   0.488
 5356SOL    HW216968   6.110   3.445   0.413
 5357SOL     OW16969   3.704   6.858   0.792
 5357SOL    HW116970   3.777   6.791   0.777
 5357SOL    HW216971   3.645   6.862   0.712
 5358SOL     OW16972   4.868   3.026   1.371
 5358SOL    HW116973   4.828   2.952   1.316
 5358SOL    HW216974   4.804   3.102   1.376
 5359SOL     OW16975   2.992   6.885   6.884
 5359SOL    HW116976   3.027   6.909   6.975
 5359SOL    HW216977   3.023   6.793   6.859
 5360SOL     OW16978   3.973   0.361   6.634
 5360SOL    HW116979   3.890   0.311   6.659
 5360SOL    HW216980   3.963   0.399   6.542
 5361SOL     OW16981   2.042   0.701   6.344
 5361SOL    HW116982   2.060   0.603   6.355
 5361SOL    HW216983   1.968   0.715   6.279
 5362SOL     OW16984   3.894   5.840   3.781
 5362SOL    HW116985   3.916   5.817   3.686
 5362SOL    HW216986   3.796   5.856   3.790
 5363SOL     OW16987   0.845   5.062   5.066
 5363SOL    HW116988   0.778   4.998   5.104
 5363SOL    HW216989   0.926   5.064   5.125
 5364SOL     OW16990   0.772   6.581   6.628
 5364SOL    HW116991   0.864   6.552   6.600
 5364SOL    HW216992   0.708   6.568   6.551
 5365SOL     OW16993   3.724   1.353   6.419
 5365SOL    HW116994   3.770   1.347   6.331
 5365SOL    HW216995   3.744   1.272   6.474
 5366SOL     OW16996   3.414   4.350   6.551
 5366SOL    HW116997   3.340   4.310   6.605
 5366SOL    HW216998   3.498   4.352   6.605
 5367SOL     OW16999   0.420   4.652   0.924
 5367SOL    HW117000   0.360   4.621   0.997
 5367SOL    HW217001   0.375   4.639   0.835
 5368SOL     OW17002   6.576   0.946   3.727
 5368SOL    HW117003   6.520   0.874   3.768
 5368SOL    HW217004   6.522   1.031   3.720
 5369SOL     OW17005   1.760   3.735   2.501
 5369SOL    HW117006   1.752   3.652   2.557
 5369SOL    HW217007   1.784   3.709   2.408
 5370SOL     OW17008   3.823   2.954   1.576
 5370SOL    HW117009   3.912   2.999   1.561
 5370SOL    HW217010   3.762   2.974   1.499
 5371SOL     OW17011   1.659   4.090   4.841
 5371SOL    HW117012   1.642   4.176   4.794
 5371SOL    HW217013   1.690   4.108   4.934
 5372SOL     OW17014   2.893   5.883   3.085
 5372SOL    HW117015   2.861   5.948   3.015
 5372SOL    HW217016   2.832   5.804   3.087
 5373SOL     OW17017   1.719   5.139   3.755
 5373SOL    HW117018   1.764   5.228   3.755
 5373SOL    HW217019   1.703   5.110   3.850
 5374SOL     OW17020   3.154   2.642   0.599
 5374SOL    HW117021   3.162   2.543   0.600
 5374SOL    HW217022   3.238   2.684   0.635
 5375SOL     OW17023   1.744   3.846   4.638
 5375SOL    HW117024   1.791   3.881   4.719
 5375SOL    HW217025   1.802   3.857   4.558
 5376SOL     OW17026   2.610   4.147   6.925
 5376SOL    HW117027   2.644   4.053   6.922
 5376SOL    HW217028   2.636   4.190   7.012
 5377SOL     OW17029   0.770   1.723   1.338
 5377SOL    HW117030   0.781   1.634   1.381
 5377SOL    HW217031   0.765   1.794   1.408
 5378SOL     OW17032   4.567   7.016   0.464
 5378SOL    HW117033   4.566   7.009   0.364
 5378SOL    HW217034   4.601   0.086   0.490
 5379SOL     OW17035   6.609   6.719   1.004
 5379SOL    HW117036   6.510   6.716   0.993
 5379SOL    HW217037   6.631   6.741   1.099
 5380SOL     OW17038   2.546   0.500   4.141
 5380SOL    HW117039   2.553   0.594   4.109
 5380SOL    HW217040   2.481   0.495   4.217
 5381SOL     OW17041   5.577   3.224   1.724
 5381SOL    HW117042   5.551   3.183   1.811
 5381SOL    HW217043   5.513   3.298   1.702
 5382SOL     OW17044   2.055   0.400   1.505
 5382SOL    HW117045   2.023   0.446   1.423
 5382SOL    HW217046   2.014   0.442   1.586
 5383SOL     OW17047   1.980   2.431   4.971
 5383SOL    HW117048   1.897   2.431   5.026
 5383SOL    HW217049   2.060   2.428   5.031
 5384SOL     OW17050   5.841   6.574   4.322
 5384SOL    HW117051   5.849   6.609   4.416
 5384SOL    HW217052   5.931   6.566   4.281
 5385SOL     OW17053   3.327   4.003   2.711
 5385SOL    HW117054   3.404   4.066   2.706
 5385SOL    HW217055   3.264   4.032   2.784
 5386SOL     OW17056   5.749   0.217   5.828
 5386SOL    HW117057   5.719   0.307   5.861
 5386SOL    HW217058   5.754   0.218   5.728
 5387SOL     OW17059   3.293   5.391   1.464
 5387SOL    HW117060   3.233   5.427   1.392
 5387SOL    HW217061   3.247   5.398   1.552
 5388SOL     OW17062   6.020   6.651   2.904
 5388SOL    HW117063   5.954   6.724   2.885
 5388SOL    HW217064   6.085   6.644   2.829
 5389SOL     OW17065   5.186   1.960   1.373
 5389SOL    HW117066   5.091   1.992   1.375
 5389SOL    HW217067   5.231   1.993   1.290
 5390SOL     OW17068   6.157   4.773   6.028
 5390SOL    HW117069   6.104   4.693   6.000
 5390SOL    HW217070   6.101   4.830   6.089
 5391SOL     OW17071   2.858   3.776   0.008
 5391SOL    HW117072   2.850   3.715   0.086
 5391SOL    HW217073   2.766   3.800   6.996
 5392SOL     OW17074   6.313   2.998   2.774
 5392SOL    HW117075   6.317   2.962   2.868
 5392SOL    HW217076   6.234   2.960   2.727
 5393SOL     OW17077   6.266   6.754   5.968
 5393SOL    HW117078   6.237   6.695   5.893
 5393SOL    HW217079   6.233   6.718   6.055
 5394SOL     OW17080   1.906   4.090   5.411
 5394SOL    HW117081   1.828   4.038   5.375
 5394SOL    HW217082   1.991   4.049   5.378
 5395SOL     OW17083   4.563   0.499   0.835
 5395SOL    HW117084   4.642   0.555   0.813
 5395SOL    HW217085   4.517   0.538   0.915
 5396SOL     OW17086   5.026   2.869   2.126
 5396SOL    HW117087   4.973   2.850   2.044
 5396SOL    HW217088   4.976   2.931   2.185
 5397SOL     OW17089   0.852   2.817   1.363
 5397SOL    HW117090   0.766   2.801   1.411
 5397SOL    HW217091   0.927   2.822   1.429
 5398SOL     OW17092   3.389   3.300   2.028
 5398SOL    HW117093   3.301   3.258   2.051
 5398SOL    HW217094   3.378   3.362   1.950
 5399SOL     OW17095   0.508   6.002   0.553
 5399SOL    HW117096   0.525   6.081   0.493
 5399SOL    HW217097   0.479   5.924   0.498
 5400SOL     OW17098   2.130   4.062   6.631
 5400SOL    HW117099   2.043   4.110   6.638
 5400SOL    HW217100   2.154   4.049   6.535
 5401SOL     OW17101   6.701   1.812   1.338
 5401SOL    HW117102   6.688   1.836   1.242
 5401SOL    HW217103   6.619   1.765   1.371
 5402SOL     OW17104   1.382   6.186   2.619
 5402SOL    HW117105   1.358   6.090   2.605
 5402SOL    HW217106   1.445   6.193   2.697
 5403SOL     OW17107   6.233   3.519   6.891
 5403SOL    HW117108   6.325   3.557   6.889
 5403SOL    HW217109   6.198   3.511   6.797
 5404SOL     OW17110   1.479   3.413   3.114
 5404SOL    HW117111   1.510   3.385   3.023
 5404SOL    HW217112   1.452   3.333   3.167
 5405SOL     OW17113   6.930   3.659   5.709
 5405SOL    HW117114   6.965   3.744   5.749
 5405SOL    HW217115   7.001   3.619   5.651
 5406SOL     OW17116   1.785   0.157   4.579
 5406SOL    HW117117   1.723   0.127   4.651
 5406SOL    HW217118   1.810   0.080   4.521
 5407SOL     OW17119   4.359   3.332   6.933
 5407SOL    HW117120   4.353   3.429   6.958
 5407SOL    HW217121   4.271   3.301   6.897
 5408SOL     OW17122   3.269   1.222   0.310
 5408SOL    HW117123   3.280   1.322   0.317
 5408SOL    HW217124   3.340   1.186   0.250
 5409SOL     OW17125   3.874   0.502   2.471
 5409SOL    HW117126   3.793   0.559   2.459
 5409SOL    HW217127   3.914   0.481   2.381
 5410SOL     OW17128   1.607   2.918   2.814
 5410SOL    HW117129   1.678   2.849   2.829
 5410SOL    HW217130   1.530   2.877   2.765
 5411SOL     OW17131   1.775   4.964   4.277
 5411SOL    HW117132   1.784   4.881   4.332
 5411SOL    HW217133   1.732   5.036   4.331
 5412SOL     OW17134   6.210   2.298   1.864
 5412SOL    HW117135   6.125   2.300   1.917
 5412SOL    HW217136   6.190   2.272   1.769
 5413SOL     OW17137   2.641   0.423   2.165
 5413SOL    HW117138   2.635   0.517   2.199
 5413SOL    HW217139   2.550   0.384   2.159
 5414SOL     OW17140   4.626   0.676   5.452
 5414SOL    HW117141   4.719   0.708   5.473
 5414SOL    HW217142   4.631   0.599   5.388
 5415SOL     OW17143   5.935   3.855   2.449
 5415SOL    HW117144   5.935   3.755   2.442
 5415SOL    HW217145   5.957   3.882   2.542
 5416SOL     OW17146   4.081   5.006   4.263
 5416SOL    HW117147   4.011   4.936   4.248
 5416SOL    HW217148   4.167   4.962   4.286
 5417SOL     OW17149   3.286   6.892   5.735
 5417SOL    HW117150   3.326   6.805   5.707
 5417SOL    HW217151   3.301   6.960   5.664
 5418SOL     OW17152   4.025   0.983   3.320
 5418SOL    HW117153   3.974   1.014   3.401
 5418SOL    HW217154   4.072   0.898   3.342
 5419SOL     OW17155   3.223   4.324   0.095
 5419SOL    HW117156   3.176   4.382   0.027
 5419SOL    HW217157   3.230   4.231   0.060
 5420SOL     OW17158   1.085   2.795   2.410
 5420SOL    HW117159   1.101   2.868   2.476
 5420SOL    HW217160   1.083   2.707   2.457
 5421SOL     OW17161   1.651   3.162   1.055
 5421SOL    HW117162   1.751   3.168   1.055
 5421SOL    HW217163   1.622   3.093   1.121
 5422SOL     OW17164   1.520   4.066   6.995
 5422SOL    HW117165   1.454   4.006   0.019
 5422SOL    HW217166   1.597   4.011   6.961
 5423SOL     OW17167   5.468   3.279   6.119
 5423SOL    HW117168   5.544   3.224   6.152
 5423SOL    HW217169   5.491   3.318   6.030
 5424SOL     OW17170   5.191   3.639   5.536
 5424SOL    HW117171   5.098   3.617   5.505
 5424SOL    HW217172   5.220   3.724   5.492
 5425SOL     OW17173   5.137   0.146   4.162
 5425SOL    HW117174   5.154   0.048   4.169
 5425SOL    HW217175   5.224   0.195   4.159
 5426SOL     OW17176   0.274   6.921   4.830
 5426SOL    HW117177   0.339   6.973   4.775
 5426SOL    HW217178   0.314   6.901   4.920
 5427SOL     OW17179   4.308   6.598   0.087
 5427SOL    HW117180   4.261   6.629   0.004
 5427SOL    HW217181   4.288   6.660   0.162
 5428SOL     OW17182   2.007   0.889   6.819
 5428SOL    HW117183   1.972   0.833   6.744
 5428SOL    HW217184   1.988   0.844   6.906
 5429SOL     OW17185   1.375   2.330   6.131
 5429SOL    HW117186   1.340   2.328   6.225
 5429SOL    HW217187   1.432   2.411   6.118
 5430SOL     OW17188   2.503   1.907   5.232
 5430SOL    HW117189   2.463   1.875   5.146
 5430SOL    HW217190   2.517   2.005   5.228
 5431SOL     OW17191   3.724   5.992   4.469
 5431SOL    HW117192   3.718   5.892   4.468
 5431SOL    HW217193   3.737   6.025   4.375
 5432SOL     OW17194   5.816   5.961   1.432
 5432SOL    HW117195   5.849   5.868   1.418
 5432SOL    HW217196   5.716   5.961   1.428
 5433SOL     OW17197   0.030   2.285   4.295
 5433SOL    HW117198   6.955   2.287   4.322
 5433SOL    HW217199   0.039   2.231   4.211
 5434SOL     OW17200   2.725   0.257   5.330
 5434SOL    HW117201   2.644   0.261   5.271
 5434SOL    HW217202   2.734   0.342   5.381
 5435SOL     OW17203   4.509   1.303   2.014
 5435SOL    HW117204   4.583   1.239   2.032
 5435SOL    HW217205   4.472   1.287   1.922
 5436SOL     OW17206   4.889   4.063   2.435
 5436SOL    HW117207   4.887   4.138   2.501
 5436SOL    HW217208   4.836   4.088   2.354
 5437SOL     OW17209   3.116   4.485   6.933
 5437SOL    HW117210   3.118   4.486   6.833
 5437SOL    HW217211   3.182   4.551   6.968
 5438SOL     OW17212   6.747   1.138   1.383
 5438SOL    HW117213   6.821   1.116   1.447
 5438SOL    HW217214   6.684   1.203   1.426
 5439SOL     OW17215   1.504   2.759   1.326
 5439SOL    HW117216   1.431   2.821   1.298
 5439SOL    HW217217   1.470   2.665   1.326
 5440SOL     OW17218   1.582   1.488   0.852
 5440SOL    HW117219   1.650   1.556   0.822
 5440SOL    HW217220   1.628   1.403   0.875
 5441SOL     OW17221   3.650   1.851   4.490
 5441SOL    HW117222   3.589   1.815   4.419
 5441SOL    HW217223   3.671   1.779   4.556
 5442SOL     OW17224   3.110   0.646   2.497
 5442SOL    HW117225   3.050   0.722   2.521
 5442SOL    HW217226   3.122   0.644   2.397
 5443SOL     OW17227   2.795   6.965   5.836
 5443SOL    HW117228   2.861   6.890   5.841
 5443SOL    HW217229   2.844   0.031   5.823
 5444SOL     OW17230   0.081   0.614   3.577
 5444SOL    HW117231   0.042   0.703   3.603
 5444SOL    HW217232   0.064   0.548   3.650
 5445SOL     OW17233   5.965   3.651   1.734
 5445SOL    HW117234   5.886   3.625   1.679
 5445SOL    HW217235   5.941   3.650   1.831
 5446SOL     OW17236   0.054   5.790   5.880
 5446SOL    HW117237   0.102   5.756   5.961
 5446SOL    HW217238   7.013   5.865   5.906
 5447SOL     OW17239   2.763   2.271   1.121
 5447SOL    HW117240   2.786   2.344   1.186
 5447SOL    HW217241   2.788   2.182   1.161
 5448SOL     OW17242   5.632   1.964   6.169
 5448SOL    HW117243   5.550   1.907   6.159
 5448SOL    HW217244   5.623   2.021   6.251
 5449SOL     OW17245   0.270   3.198   6.387
 5449SOL    HW117246   0.264   3.294   6.360
 5449SOL    HW217247   0.318   3.146   6.316
 5450SOL     OW17248   2.117   6.060   0.804
 5450SOL    HW117249   2.198   6.118   0.812
 5450SOL    HW217250   2.072   6.053   0.893
 5451SOL     OW17251   1.404   0.234   2.683
 5451SOL    HW117252   1.372   0.292   2.758
 5451SOL    HW217253   1.501   0.251   2.666
 5452SOL     OW17254   2.641   3.757   5.606
 5452SOL    HW117255   2.647   3.842   5.657
 5452SOL    HW217256   2.557   3.756   5.552
 5453SOL     OW17257   0.316   5.221   6.261
 5453SOL    HW117258   0.387   5.226   6.332
 5453SOL    HW217259   0.226   5.231   6.303
 5454SOL     OW17260   0.627   3.965   5.265
 5454SOL    HW117261   0.667   3.875   5.254
 5454SOL    HW217262   0.543   3.971   5.211
 5455SOL     OW17263   0.240   3.082   0.726
 5455SOL    HW117264   0.278   2.993   0.703
 5455SOL    HW217265   0.141   3.074   0.742
 5456SOL     OW17266   3.005   6.740   1.405
 5456SOL    HW117267   3.045   6.832   1.396
 5456SOL    HW217268   3.078   6.672   1.397
 5457SOL     OW17269   6.306   3.764   0.366
 5457SOL    HW117270   6.269   3.701   0.434
 5457SOL    HW217271   6.232   3.803   0.312
 5458SOL     OW17272   2.237   4.478   6.119
 5458SOL    HW117273   2.187   4.408   6.170
 5458SOL    HW217274   2.215   4.471   6.022
 5459SOL     OW17275   2.540   4.271   6.182
 5459SOL    HW117276   2.490   4.228   6.257
 5459SOL    HW217277   2.581   4.201   6.125
 5460SOL     OW17278   3.974   6.820   3.169
 5460SOL    HW117279   3.881   6.840   3.137
 5460SOL    HW217280   3.982   6.846   3.265
 5461SOL     OW17281   4.549   6.460   4.836
 5461SOL    HW117282   4.631   6.411   4.865
 5461SOL    HW217283   4.530   6.439   4.740
 5462SOL     OW17284   0.807   0.513   1.643
 5462SOL    HW117285   0.836   0.418   1.657
 5462SOL    HW217286   0.728   0.516   1.582
 5463SOL     OW17287   6.995   3.092   0.825
 5463SOL    HW117288   6.940   3.124   0.903
 5463SOL    HW217289   7.006   2.993   0.831
 5464SOL     OW17290   2.105   6.162   4.122
 5464SOL    HW117291   2.169   6.146   4.197
 5464SOL    HW217292   2.154   6.205   4.046
 5465SOL     OW17293   2.125   6.188   6.501
 5465SOL    HW117294   2.100   6.284   6.486
 5465SOL    HW217295   2.042   6.134   6.513
 5466SOL     OW17296   5.261   4.991   4.952
 5466SOL    HW117297   5.351   5.033   4.939
 5466SOL    HW217298   5.255   4.907   4.897
 5467SOL     OW17299   5.664   1.379   2.227
 5467SOL    HW117300   5.574   1.419   2.241
 5467SOL    HW217301   5.735   1.446   2.250
 5468SOL     OW17302   4.240   1.684   5.731
 5468SOL    HW117303   4.264   1.712   5.638
 5468SOL    HW217304   4.320   1.648   5.778
 5469SOL     OW17305   4.358   4.283   1.031
 5469SOL    HW117306   4.343   4.379   1.056
 5469SOL    HW217307   4.274   4.231   1.049
 5470SOL     OW17308   0.259   5.438   3.305
 5470SOL    HW117309   0.269   5.460   3.209
 5470SOL    HW217310   0.225   5.517   3.355
 5471SOL     OW17311   6.352   5.032   2.271
 5471SOL    HW117312   6.402   5.111   2.308
 5471SOL    HW217313   6.256   5.057   2.257
 5472SOL     OW17314   3.507   5.191   5.922
 5472SOL    HW117315   3.440   5.248   5.969
 5472SOL    HW217316   3.586   5.246   5.896
 5473SOL     OW17317   1.412   4.152   3.382
 5473SOL    HW117318   1.433   4.065   3.426
 5473SOL    HW217319   1.458   4.226   3.431
 5474SOL     OW17320   1.677   6.368   3.708
 5474SOL    HW117321   1.625   6.322   3.780
 5474SOL    HW217322   1.683   6.466   3.727
 5475SOL     OW17323   3.063   2.762   1.634
 5475SOL    HW117324   3.072   2.835   1.702
 5475SOL    HW217325   3.114   2.682   1.665
 5476SOL     OW17326   1.815   3.387   6.636
 5476SOL    HW117327   1.876   3.319   6.676
 5476SOL    HW217328   1.746   3.341   6.580
 5477SOL     OW17329   1.828   2.681   2.545
 5477SOL    HW117330   1.904   2.740   2.572
 5477SOL    HW217331   1.837   2.657   2.448
 5478SOL     OW17332   0.463   5.601   5.940
 5478SOL    HW117333   0.387   5.552   5.896
 5478SOL    HW217334   0.521   5.535   5.988
 5479SOL     OW17335   4.454   6.823   4.666
 5479SOL    HW117336   4.420   6.805   4.574
 5479SOL    HW217337   4.524   6.894   4.662
 5480SOL     OW17338   0.808   2.550   5.395
 5480SOL    HW117339   0.892   2.529   5.444
 5480SOL    HW217340   0.733   2.494   5.431
 5481SOL     OW17341   4.743   6.496   3.432
 5481SOL    HW117342   4.773   6.463   3.342
 5481SOL    HW217343   4.702   6.587   3.422
 5482SOL     OW17344   1.880   5.197   2.164
 5482SOL    HW117345   1.825   5.184   2.246
 5482SOL    HW217346   1.942   5.120   2.152
 5483SOL     OW17347   0.478   2.654   5.989
 5483SOL    HW117348   0.400   2.651   6.051
 5483SOL    HW217349   0.446   2.647   5.894
 5484SOL     OW17350   4.886   6.906   4.158
 5484SOL    HW117351   4.983   6.893   4.137
 5484SOL    HW217352   4.831   6.889   4.076
 5485SOL     OW17353   3.958   0.184   4.853
 5485SOL    HW117354   3.921   0.143   4.936
 5485SOL    HW217355   3.894   0.252   4.818
 5486SOL     OW17356   2.845   5.134   4.095
 5486SOL    HW117357   2.751   5.110   4.120
 5486SOL    HW217358   2.902   5.052   4.093
 5487SOL     OW17359   3.168   5.129   5.534
 5487SOL    HW117360   3.092   5.187   5.505
 5487SOL    HW217361   3.136   5.035   5.544
 5488SOL     OW17362   4.728   1.677   6.764
 5488SOL    HW117363   4.817   1.673   6.719
 5488SOL    HW217364   4.737   1.723   6.853
 5489SOL     OW17365   0.261   3.403   3.920
 5489SOL    HW117366   0.195   3.365   3.854
 5489SOL    HW217367   0.277   3.499   3.898
 5490SOL     OW17368   0.904   5.610   2.712
 5490SOL    HW117369   0.850   5.544   2.765
 5490SOL    HW217370   0.879   5.703   2.738
 5491SOL     OW17371   6.248   3.696   0.672
 5491SOL    HW117372   6.236   3.618   0.734
 5491SOL    HW217373   6.174   3.761   0.686
 5492SOL     OW17374   0.020   1.533   6.214
 5492SOL    HW117375   6.988   1.610   6.249
 5492SOL    HW217376   0.052   1.477   6.291
 5493SOL     OW17377   4.349   3.966   0.622
 5493SOL    HW117378   4.325   3.881   0.670
 5493SOL    HW217379   4.442   3.958   0.586
 5494SOL     OW17380   6.108   3.187   5.584
 5494SOL    HW117381   6.142   3.093   5.581
 5494SOL    HW217382   6.077   3.208   5.676
 5495SOL     OW17383   5.744   0.030   6.820
 5495SOL    HW117384   5.654   7.014   6.799
 5495SOL    HW217385   5.752   0.123   6.782
 5496SOL     OW17386   4.383   6.937   5.613
 5496SOL    HW117387   4.380   7.019   5.669
 5496SOL    HW217388   4.478   6.912   5.595
 5497SOL     OW17389   0.798   0.579   5.269
 5497SOL    HW117390   0.784   0.514   5.344
 5497SOL    HW217391   0.717   0.637   5.259
 5498SOL     OW17392   0.237   5.026   1.150
 5498SOL    HW117393   0.201   5.116   1.173
 5498SOL    HW217394   0.318   5.007   1.206
 5499SOL     OW17395   2.091   0.333   4.041
 5499SOL    HW117396   2.032   0.329   4.122
 5499SOL    HW217397   2.054   0.399   3.976
 5500SOL     OW17398   2.257   0.112   1.125
 5500SOL    HW117399   2.229   0.190   1.070
 5500SOL    HW217400   2.340   0.135   1.175
 5501SOL     OW17401   4.498   3.399   6.633
 5501SOL    HW117402   4.511   3.444   6.722
 5501SOL    HW217403   4.506   3.300   6.645
 5502SOL     OW17404   4.847   3.422   6.416
 5502SOL    HW117405   4.750   3.441   6.402
 5502SOL    HW217406   4.888   3.390   6.331
 5503SOL     OW17407   5.976   2.993   0.736
 5503SOL    HW117408   5.898   2.988   0.674
 5503SOL    HW217409   5.979   2.909   0.791
 5504SOL     OW17410   3.928   2.089   0.109
 5504SOL    HW117411   4.022   2.117   0.092
 5504SOL    HW217412   3.892   2.042   0.028
 5505SOL     OW17413   2.635   4.813   2.480
 5505SOL    HW117414   2.592   4.782   2.565
 5505SOL    HW217415   2.615   4.748   2.407
 5506SOL     OW17416   6.632   2.490   6.301
 5506SOL    HW117417   6.578   2.416   6.341
 5506SOL    HW217418   6.574   2.547   6.243
 5507SOL     OW17419   4.023   6.881   0.442
 5507SOL    HW117420   4.020   6.975   0.477
 5507SOL    HW217421   3.950   6.869   0.374
 5508SOL     OW17422   0.350   1.157   6.263
 5508SOL    HW117423   0.277   1.161   6.331
 5508SOL    HW217424   0.396   1.245   6.258
 5509SOL     OW17425   6.398   4.303   6.925
 5509SOL    HW117426   6.359   4.261   7.007
 5509SOL    HW217427   6.357   4.262   6.844
 5510SOL     OW17428   4.985   5.269   6.534
 5510SOL    HW117429   4.902   5.309   6.496
 5510SOL    HW217430   4.961   5.191   6.593
 5511SOL     OW17431   0.725   2.583   6.027
 5511SOL    HW117432   0.759   2.585   6.121
 5511SOL    HW217433   0.627   2.606   6.027
 5512SOL     OW17434   1.971   0.622   2.190
 5512SOL    HW117435   1.996   0.527   2.208
 5512SOL    HW217436   1.988   0.677   2.273
 5513SOL     OW17437   3.528   4.570   6.864
 5513SOL    HW117438   3.526   4.668   6.885
 5513SOL    HW217439   3.609   4.548   6.810
 5514SOL     OW17440   3.122   1.001   0.227
 5514SOL    HW117441   3.177   1.072   0.270
 5514SOL    HW217442   3.116   1.018   0.129
 5515SOL     OW17443   3.654   5.779   2.324
 5515SOL    HW117444   3.572   5.724   2.314
 5515SOL    HW217445   3.731   5.720   2.348
 5516SOL     OW17446   1.530   2.016   5.557
 5516SOL    HW117447   1.556   2.111   5.576
 5516SOL    HW217448   1.536   1.962   5.641
 5517SOL     OW17449   0.939   2.091   3.415
 5517SOL    HW117450   0.933   2.013   3.477
 5517SOL    HW217451   1.035   2.109   3.394
 5518SOL     OW17452   4.635   5.134   6.683
 5518SOL    HW117453   4.589   5.205   6.737
 5518SOL    HW217454   4.578   5.052   6.680
 5519SOL     OW17455   5.475   2.463   5.757
 5519SOL    HW117456   5.553   2.430   5.809
 5519SOL    HW217457   5.402   2.394   5.759
 5520SOL     OW17458   4.938   6.923   1.164
 5520SOL    HW117459   4.884   6.946   1.082
 5520SOL    HW217460   4.938   6.824   1.177
 5521SOL     OW17461   4.462   6.911   1.886
 5521SOL    HW117462   4.422   6.910   1.795
 5521SOL    HW217463   4.436   6.828   1.935
 5522SOL     OW17464   5.483   6.514   0.206
 5522SOL    HW117465   5.530   6.461   0.277
 5522SOL    HW217466   5.548   6.576   0.162
 5523SOL     OW17467   5.166   2.236   1.161
 5523SOL    HW117468   5.140   2.267   1.253
 5523SOL    HW217469   5.257   2.196   1.164
 5524SOL     OW17470   2.541   1.396   3.107
 5524SOL    HW117471   2.592   1.397   3.021
 5524SOL    HW217472   2.563   1.313   3.159
 5525SOL     OW17473   6.921   1.648   1.059
 5525SOL    HW117474   6.877   1.585   1.123
 5525SOL    HW217475   7.020   1.647   1.075
 5526SOL     OW17476   5.579   4.438   4.065
 5526SOL    HW117477   5.675   4.439   4.035
 5526SOL    HW217478   5.542   4.531   4.062
 5527SOL     OW17479   6.455   0.347   2.953
 5527SOL    HW117480   6.410   0.405   2.884
 5527SOL    HW217481   6.535   0.304   2.912
 5528SOL     OW17482   1.362   2.008   6.995
 5528SOL    HW117483   1.392   2.045   6.907
 5528SOL    HW217484   1.432   2.025   0.044
 5529SOL     OW17485   2.993   0.561   2.146
 5529SOL    HW117486   3.009   0.464   2.129
 5529SOL    HW217487   2.907   0.573   2.195
 5530SOL     OW17488   0.754   1.826   0.899
 5530SOL    HW117489   0.825   1.755   0.900
 5530SOL    HW217490   0.765   1.886   0.978
 5531SOL     OW17491   1.672   4.301   1.789
 5531SOL    HW117492   1.749   4.358   1.815
 5531SOL    HW217493   1.701   4.206   1.781
 5532SOL     OW17494   0.484   3.478   6.522
 5532SOL    HW117495   0.507   3.548   6.590
 5532SOL    HW217496   0.568   3.443   6.480
 5533SOL     OW17497   3.745   1.100   2.807
 5533SOL    HW117498   3.727   1.015   2.855
 5533SOL    HW217499   3.840   1.128   2.823
 5534SOL     OW17500   1.400   0.173   4.470
 5534SOL    HW117501   1.322   0.123   4.431
 5534SOL    HW217502   1.381   0.196   4.565
 5535SOL     OW17503   6.943   2.002   2.875
 5535SOL    HW117504   0.022   2.008   2.873
 5535SOL    HW217505   6.914   1.918   2.828
 5536SOL     OW17506   4.510   6.391   4.563
 5536SOL    HW117507   4.599   6.409   4.521
 5536SOL    HW217508   4.438   6.421   4.502
 5537SOL     OW17509   2.660   2.447   3.153
 5537SOL    HW117510   2.583   2.510   3.167
 5537SOL    HW217511   2.661   2.416   3.058
 5538SOL     OW17512   4.582   5.356   4.066
 5538SOL    HW117513   4.532   5.441   4.048
 5538SOL    HW217514   4.676   5.378   4.093
 5539SOL     OW17515   1.960   4.371   6.776
 5539SOL    HW117516   1.920   4.291   6.732
 5539SOL    HW217517   2.029   4.411   6.716
 5540SOL     OW17518   3.832   5.686   1.760
 5540SOL    HW117519   3.864   5.593   1.742
 5540SOL    HW217520   3.749   5.703   1.707
 5541SOL     OW17521   4.676   0.810   5.957
 5541SOL    HW117522   4.749   0.831   6.023
 5541SOL    HW217523   4.621   0.892   5.941
 5542SOL     OW17524   5.359   4.788   6.542
 5542SOL    HW117525   5.424   4.832   6.604
 5542SOL    HW217526   5.367   4.828   6.451
 5543SOL     OW17527   0.678   1.787   4.867
 5543SOL    HW117528   0.776   1.802   4.855
 5543SOL    HW217529   0.632   1.875   4.872
 5544SOL     OW17530   5.604   0.796   6.882
 5544SOL    HW117531   5.591   0.895   6.883
 5544SOL    HW217532   5.602   0.761   6.975
 5545SOL     OW17533   2.287   2.158   1.706
 5545SOL    HW117534   2.381   2.141   1.734
 5545SOL    HW217535   2.235   2.196   1.783
 5546SOL     OW17536   4.278   5.424   5.984
 5546SOL    HW117537   4.222   5.454   6.062
 5546SOL    HW217538   4.288   5.500   5.920
 5547SOL     OW17539   3.586   5.180   4.182
 5547SOL    HW117540   3.669   5.200   4.233
 5547SOL    HW217541   3.556   5.086   4.200
 5548SOL     OW17542   0.492   1.621   4.543
 5548SOL    HW117543   0.505   1.715   4.575
 5548SOL    HW217544   0.403   1.588   4.575
 5549SOL     OW17545   3.205   5.187   6.898
 5549SOL    HW117546   3.250   5.145   6.819
 5549SOL    HW217547   3.110   5.209   6.874
 5550SOL     OW17548   2.684   6.534   2.469
 5550SOL    HW117549   2.686   6.441   2.506
 5550SOL    HW217550   2.716   6.598   2.539
 5551SOL     OW17551   0.205   1.151   2.569
 5551SOL    HW117552   0.113   1.163   2.607
 5551SOL    HW217553   0.203   1.174   2.472
 5552SOL     OW17554   1.413   2.791   2.667
 5552SOL    HW117555   1.348   2.740   2.723
 5552SOL    HW217556   1.443   2.734   2.590
 5553SOL     OW17557   4.783   6.408   6.060
 5553SOL    HW117558   4.748   6.397   5.967
 5553SOL    HW217559   4.866   6.354   6.071
 5554SOL     OW17560   3.168   1.083   4.818
 5554SOL    HW117561   3.125   1.170   4.841
 5554SOL    HW217562   3.110   1.008   4.848
 5555SOL     OW17563   0.741   6.286   1.233
 5555SOL    HW117564   0.736   6.375   1.187
 5555SOL    HW217565   0.649   6.250   1.245
 5556SOL     OW17566   0.014   1.090   4.991
 5556SOL    HW117567   6.949   1.142   4.988
 5556SOL    HW217568   0.001   1.002   4.945
 5557SOL     OW17569   3.353   0.287   2.615
 5557SOL    HW117570   3.318   0.208   2.667
 5557SOL    HW217571   3.424   0.333   2.669
 5558SOL     OW17572   5.293   1.759   5.847
 5558SOL    HW117573   5.253   1.713   5.767
 5558SOL    HW217574   5.225   1.821   5.887
 5559SOL     OW17575   2.175   1.049   1.075
 5559SOL    HW117576   2.230   1.125   1.041
 5559SOL    HW217577   2.162   0.982   1.002
 5560SOL     OW17578   0.335   1.312   4.623
 5560SOL    HW117579   0.306   1.404   4.649
 5560SOL    HW217580   0.432   1.301   4.643
 5561SOL     OW17581   1.583   4.322   2.173
 5561SOL    HW117582   1.484   4.322   2.161
 5561SOL    HW217583   1.614   4.231   2.201
 5562SOL     OW17584   3.351   2.117   6.619
 5562SOL    HW117585   3.443   2.086   6.595
 5562SOL    HW217586   3.352   2.216   6.633
 5563SOL     OW17587   4.030   4.265   1.345
 5563SOL    HW117588   4.008   4.207   1.424
 5563SOL    HW217589   4.063   4.208   1.270
 5564SOL     OW17590   6.015   1.715   1.884
 5564SOL    HW117591   5.919   1.703   1.907
 5564SOL    HW217592   6.051   1.796   1.931
 5565SOL     OW17593   1.977   2.729   5.210
 5565SOL    HW117594   1.993   2.791   5.287
 5565SOL    HW217595   2.058   2.726   5.152
 5566SOL     OW17596   2.564   3.775   0.289
 5566SOL    HW117597   2.502   3.712   0.336
 5566SOL    HW217598   2.595   3.845   0.354
 5567SOL     OW17599   1.882   5.289   3.356
 5567SOL    HW117600   1.875   5.199   3.397
 5567SOL    HW217601   1.792   5.333   3.357
 5568SOL     OW17602   3.694   2.646   6.874
 5568SOL    HW117603   3.620   2.685   6.929
 5568SOL    HW217604   3.740   2.719   6.823
 5569SOL     OW17605   4.532   1.935   0.274
 5569SOL    HW117606   4.478   2.017   0.257
 5569SOL    HW217607   4.471   1.855   0.280
 5570SOL     OW17608   1.214   2.775   5.715
 5570SOL    HW117609   1.295   2.721   5.692
 5570SOL    HW217610   1.149   2.771   5.639
 5571SOL     OW17611   6.819   4.505   6.359
 5571SOL    HW117612   6.732   4.488   6.313
 5571SOL    HW217613   6.852   4.421   6.401
 5572SOL     OW17614   0.808   3.345   5.556
 5572SOL    HW117615   0.829   3.346   5.653
 5572SOL    HW217616   0.787   3.251   5.527
 5573SOL     OW17617   6.680   4.005   6.718
 5573SOL    HW117618   6.703   3.912   6.748
 5573SOL    HW217619   6.667   4.006   6.619
 5574SOL     OW17620   1.629   6.665   4.120
 5574SOL    HW117621   1.621   6.756   4.163
 5574SOL    HW217622   1.723   6.631   4.132
 5575SOL     OW17623   0.953   1.378   2.786
 5575SOL    HW117624   0.868   1.348   2.830
 5575SOL    HW217625   1.031   1.355   2.844
 5576SOL     OW17626   5.873   6.391   5.563
 5576SOL    HW117627   5.906   6.479   5.598
 5576SOL    HW217628   5.786   6.368   5.606
 5577SOL     OW17629   1.994   4.330   4.745
 5577SOL    HW117630   1.978   4.266   4.670
 5577SOL    HW217631   2.025   4.280   4.825
 5578SOL     OW17632   3.929   1.902   6.011
 5578SOL    HW117633   3.961   1.959   6.087
 5578SOL    HW217634   3.994   1.906   5.936
 5579SOL     OW17635   5.131   4.591   1.776
 5579SOL    HW117636   5.209   4.654   1.771
 5579SOL    HW217637   5.128   4.548   1.867
 5580SOL     OW17638   5.623   1.565   1.739
 5580SOL    HW117639   5.681   1.505   1.683
 5580SOL    HW217640   5.528   1.539   1.726
 5581SOL     OW17641   3.150   2.814   0.287
 5581SOL    HW117642   3.174   2.719   0.267
 5581SOL    HW217643   3.058   2.833   0.253
 5582SOL     OW17644   3.218   2.924   3.203
 5582SOL    HW117645   3.150   2.995   3.186
 5582SOL    HW217646   3.238   2.920   3.301
 5583SOL     OW17647   4.065   0.592   0.051
 5583SOL    HW117648   4.108   0.631   0.132
 5583SOL    HW217649   3.993   0.653   0.018
 5584SOL     OW17650   4.973   3.527   3.868
 5584SOL    HW117651   4.972   3.565   3.960
 5584SOL    HW217652   4.932   3.436   3.869
 5585SOL     OW17653   0.511   0.209   3.272
 5585SOL    HW117654   0.601   0.170   3.290
 5585SOL    HW217655   0.440   0.145   3.302
 5586SOL     OW17656   2.369   0.435   0.021
 5586SOL    HW117657   2.344   0.442   6.945
 5586SOL    HW217658   2.286   0.439   0.078
 5587SOL     OW17659   3.862   6.356   3.525
 5587SOL    HW117660   3.897   6.264   3.516
 5587SOL    HW217661   3.778   6.366   3.471
 5588SOL     OW17662   5.468   6.492   6.519
 5588SOL    HW117663   5.452   6.498   6.420
 5588SOL    HW217664   5.399   6.545   6.568
 5589SOL     OW17665   1.873   4.015   0.143
 5589SOL    HW117666   1.946   4.063   0.095
 5589SOL    HW217667   1.892   4.015   0.241
 5590SOL     OW17668   6.758   0.514   3.568
 5590SOL    HW117669   6.713   0.444   3.622
 5590SOL    HW217670   6.857   0.503   3.575
 5591SOL     OW17671   5.673   0.336   0.049
 5591SOL    HW117672   5.707   0.286   6.990
 5591SOL    HW217673   5.719   0.424   0.055
 5592SOL     OW17674   1.252   3.075   2.687
 5592SOL    HW117675   1.197   2.993   2.669
 5592SOL    HW217676   1.344   3.048   2.716
 5593SOL     OW17677   2.190   4.109   4.808
 5593SOL    HW117678   2.098   4.070   4.802
 5593SOL    HW217679   2.232   4.082   4.894
 5594SOL     OW17680   2.492   1.434   6.077
 5594SOL    HW117681   2.589   1.456   6.083
 5594SOL    HW217682   2.465   1.381   6.158
 5595SOL     OW17683   0.493   3.148   6.605
 5595SOL    HW117684   0.409   3.137   6.553
 5595SOL    HW217685   0.487   3.095   6.690
 5596SOL     OW17686   4.904   3.567   4.345
 5596SOL    HW117687   4.860   3.478   4.326
 5596SOL    HW217688   4.913   3.618   4.259
 5597SOL     OW17689   0.091   1.832   6.579
 5597SOL    HW117690   0.001   1.846   6.539
 5597SOL    HW217691   0.157   1.893   6.534
 5598SOL     OW17692   5.988   0.956   4.140
 5598SOL    HW117693   5.983   0.883   4.072
 5598SOL    HW217694   5.996   0.917   4.231
 5599SOL     OW17695   5.560   3.300   3.173
 5599SOL    HW117696   5.487   3.273   3.236
 5599SOL    HW217697   5.536   3.271   3.080
 5600SOL     OW17698   1.861   2.796   1.970
 5600SOL    HW117699   1.949   2.771   2.009
 5600SOL    HW217700   1.826   2.877   2.015
 5601SOL     OW17701   6.125   2.597   6.547
 5601SOL    HW117702   6.214   2.560   6.573
 5601SOL    HW217703   6.107   2.576   6.451
 5602SOL     OW17704   6.325   1.657   2.881
 5602SOL    HW117705   6.358   1.668   2.788
 5602SOL    HW217706   6.225   1.661   2.882
 5603SOL     OW17707   3.657   2.018   6.635
 5603SOL    HW117708   3.739   1.968   6.664
 5603SOL    HW217709   3.684   2.095   6.578
 5604SOL     OW17710   0.938   5.220   3.105
 5604SOL    HW117711   0.877   5.198   3.180
 5604SOL    HW217712   0.890   5.279   3.040
 5605SOL     OW17713   3.373   6.651   4.549
 5605SOL    HW117714   3.463   6.627   4.512
 5605SOL    HW217715   3.344   6.580   4.612
 5606SOL     OW17716   4.456   3.579   1.068
 5606SOL    HW117717   4.502   3.575   0.980
 5606SOL    HW217718   4.398   3.660   1.072
 5607SOL     OW17719   0.666   2.287   2.866
 5607SOL    HW117720   0.709   2.227   2.934
 5607SOL    HW217721   0.672   2.245   2.776
 5608SOL     OW17722   6.425   0.378   3.719
 5608SOL    HW117723   6.517   0.356   3.686
 5608SOL    HW217724   6.408   0.476   3.707
 5609SOL     OW17725   6.525   0.501   0.025
 5609SOL    HW117726   6.529   0.403   0.004
 5609SOL    HW217727   6.600   0.548   6.998
 5610SOL     OW17728   5.672   6.382   5.951
 5610SOL    HW117729   5.581   6.388   5.909
 5610SOL    HW217730   5.673   6.306   6.016
 5611SOL     OW17731   6.326   3.919   1.357
 5611SOL    HW117732   6.421   3.892   1.371
 5611SOL    HW217733   6.322   4.004   1.305
 5612SOL     OW17734   4.719   2.260   1.453
 5612SOL    HW117735   4.653   2.202   1.500
 5612SOL    HW217736   4.733   2.343   1.507
 5613SOL     OW17737   6.530   5.203   5.404
 5613SOL    HW117738   6.501   5.278   5.345
 5613SOL    HW217739   6.456   5.178   5.466
 5614SOL     OW17740   5.366   2.392   4.892
 5614SOL    HW117741   5.305   2.324   4.932
 5614SOL    HW217742   5.457   2.383   4.932
 5615SOL     OW17743   0.472   3.162   2.729
 5615SOL    HW117744   0.489   3.065   2.748
 5615SOL    HW217745   0.538   3.218   2.778
 5616SOL     OW17746   1.197   3.544   1.802
 5616SOL    HW117747   1.153   3.622   1.846
 5616SOL    HW217748   1.147   3.461   1.823
 5617SOL     OW17749   0.564   5.180   5.472
 5617SOL    HW117750   0.634   5.248   5.494
 5617SOL    HW217751   0.475   5.225   5.465
 5618SOL     OW17752   4.575   0.506   2.755
 5618SOL    HW117753   4.671   0.527   2.771
 5618SOL    HW217754   4.523   0.591   2.746
 5619SOL     OW17755   2.969   3.772   3.463
 5619SOL    HW117756   3.043   3.784   3.529
 5619SOL    HW217757   2.881   3.784   3.508
 5620SOL     OW17758   5.089   4.873   5.466
 5620SOL    HW117759   5.071   4.775   5.467
 5620SOL    HW217760   5.008   4.923   5.498
 5621SOL     OW17761   1.196   3.027   6.397
 5621SOL    HW117762   1.175   3.025   6.299
 5621SOL    HW217763   1.276   2.969   6.415
 5622SOL     OW17764   5.893   5.593   3.328
 5622SOL    HW117765   5.908   5.529   3.252
 5622SOL    HW217766   5.980   5.634   3.355
 5623SOL     OW17767   4.707   4.809   3.677
 5623SOL    HW117768   4.668   4.819   3.585
 5623SOL    HW217769   4.713   4.712   3.701
 5624SOL     OW17770   4.938   3.944   3.956
 5624SOL    HW117771   4.935   3.877   3.882
 5624SOL    HW217772   5.022   3.932   4.009
 5625SOL     OW17773   3.061   6.699   6.367
 5625SOL    HW117774   3.038   6.714   6.271
 5625SOL    HW217775   3.060   6.787   6.415
 5626SOL     OW17776   1.996   4.756   6.506
 5626SOL    HW117777   2.068   4.825   6.506
 5626SOL    HW217778   1.937   4.768   6.586
 5627SOL     OW17779   1.292   5.185   0.993
 5627SOL    HW117780   1.225   5.141   1.053
 5627SOL    HW217781   1.355   5.116   0.957
 5628SOL     OW17782   1.676   3.161   0.103
 5628SOL    HW117783   1.687   3.127   0.196
 5628SOL    HW217784   1.585   3.139   0.070
 5629SOL     OW17785   6.656   3.123   4.385
 5629SOL    HW117786   6.616   3.105   4.475
 5629SOL    HW217787   6.631   3.049   4.322
 5630SOL     OW17788   1.642   4.153   0.331
 5630SOL    HW117789   1.579   4.228   0.313
 5630SOL    HW217790   1.630   4.082   0.261
 5631SOL     OW17791   3.896   0.616   2.892
 5631SOL    HW117792   3.826   0.639   2.825
 5631SOL    HW217793   3.985   0.613   2.847
 5632SOL     OW17794   3.676   6.663   6.761
 5632SOL    HW117795   3.657   6.758   6.789
 5632SOL    HW217796   3.590   6.613   6.756
 5633SOL     OW17797   1.499   5.059   5.489
 5633SOL    HW117798   1.481   4.981   5.548
 5633SOL    HW217799   1.540   5.026   5.403
 5634SOL     OW17800   2.294   0.191   1.704
 5634SOL    HW117801   2.361   0.116   1.702
 5634SOL    HW217802   2.268   0.214   1.610
 5635SOL     OW17803   3.604   0.318   2.421
 5635SOL    HW117804   3.522   0.319   2.479
 5635SOL    HW217805   3.671   0.255   2.458
 5636SOL     OW17806   5.153   0.122   4.707
 5636SOL    HW117807   5.218   0.047   4.697
 5636SOL    HW217808   5.079   0.110   4.641
 5637SOL     OW17809   4.860   0.005   5.083
 5637SOL    HW117810   4.777   0.001   5.027
 5637SOL    HW217811   4.940   0.001   5.023
 5638SOL     OW17812   0.313   5.657   0.175
 5638SOL    HW117813   0.246   5.682   0.245
 5638SOL    HW217814   0.271   5.664   0.085
 5639SOL     OW17815   2.916   6.928   2.152
 5639SOL    HW117816   2.919   0.007   2.145
 5639SOL    HW217817   2.837   6.901   2.208
 5640SOL     OW17818   3.832   6.906   3.908
 5640SOL    HW117819   3.848   6.962   3.989
 5640SOL    HW217820   3.822   6.811   3.935
 5641SOL     OW17821   6.368   4.514   3.642
 5641SOL    HW117822   6.467   4.525   3.627
 5641SOL    HW217823   6.325   4.604   3.648
 5642SOL     OW17824   2.512   2.474   6.279
 5642SOL    HW117825   2.433   2.478   6.217
 5642SOL    HW217826   2.562   2.388   6.264
 5643SOL     OW17827   5.645   3.304   3.737
 5643SOL    HW117828   5.630   3.322   3.834
 5643SOL    HW217829   5.729   3.350   3.707
 5644SOL     OW17830   3.535   0.577   5.817
 5644SOL    HW117831   3.598   0.649   5.848
 5644SOL    HW217832   3.576   0.528   5.741
 5645SOL     OW17833   5.694   6.850   2.797
 5645SOL    HW117834   5.732   6.779   2.737
 5645SOL    HW217835   5.596   6.833   2.811
 5646SOL     OW17836   6.587   0.268   3.336
 5646SOL    HW117837   6.682   0.297   3.326
 5646SOL    HW217838   6.583   0.182   3.388
 5647SOL     OW17839   6.021   3.697   6.261
 5647SOL    HW117840   5.921   3.695   6.264
 5647SOL    HW217841   6.055   3.756   6.335
 5648SOL     OW17842   2.073   1.648   4.144
 5648SOL    HW117843   2.138   1.621   4.215
 5648SOL    HW217844   2.092   1.742   4.116
 5649SOL     OW17845   0.452   0.266   4.940
 5649SOL    HW117846   0.485   0.245   5.032
 5649SOL    HW217847   0.492   0.352   4.908
 5650SOL     OW17848   6.832   4.887   5.260
 5650SOL    HW117849   6.835   4.985   5.279
 5650SOL    HW217850   6.768   4.842   5.323
 5651SOL     OW17851   6.015   0.423   2.394
 5651SOL    HW117852   6.048   0.493   2.457
 5651SOL    HW217853   5.921   0.444   2.366
 5652SOL     OW17854   5.262   4.502   0.056
 5652SOL    HW117855   5.254   4.548   6.988
 5652SOL    HW217856   5.319   4.421   0.046
 5653SOL     OW17857   1.900   5.959   6.910
 5653SOL    HW117858   1.803   5.937   6.920
 5653SOL    HW217859   1.941   5.899   6.841
 5654SOL     OW17860   1.835   0.028   7.013
 5654SOL    HW117861   1.896   0.087   6.960
 5654SOL    HW217862   1.741   0.044   6.985
 5655SOL     OW17863   6.303   5.216   3.214
 5655SOL    HW117864   6.234   5.278   3.176
 5655SOL    HW217865   6.264   5.124   3.221
 5656SOL     OW17866   3.865   5.160   6.022
 5656SOL    HW117867   3.808   5.194   5.947
 5656SOL    HW217868   3.935   5.099   5.984
 5657SOL     OW17869   4.969   4.997   2.174
 5657SOL    HW117870   4.928   4.976   2.263
 5657SOL    HW217871   4.974   5.096   2.163
 5658SOL     OW17872   4.665   6.834   5.908
 5658SOL    HW117873   4.572   6.809   5.938
 5658SOL    HW217874   4.659   6.893   5.828
 5659SOL     OW17875   3.898   3.976   3.270
 5659SOL    HW117876   3.867   3.882   3.265
 5659SOL    HW217877   3.981   3.987   3.215
 5660SOL     OW17878   0.079   5.664   1.741
 5660SOL    HW117879   0.026   5.717   1.675
 5660SOL    HW217880   0.110   5.724   1.815
 5661SOL     OW17881   6.387   5.833   4.700
 5661SOL    HW117882   6.396   5.878   4.611
 5661SOL    HW217883   6.422   5.894   4.772
 5662SOL     OW17884   1.691   4.504   4.328
 5662SOL    HW117885   1.654   4.569   4.261
 5662SOL    HW217886   1.736   4.429   4.280
 5663SOL     OW17887   2.171   3.718   1.181
 5663SOL    HW117888   2.077   3.686   1.194
 5663SOL    HW217889   2.182   3.754   1.089
 5664SOL     OW17890   6.364   6.204   2.192
 5664SOL    HW117891   6.286   6.182   2.134
 5664SOL    HW217892   6.343   6.179   2.287
 5665SOL     OW17893   1.560   1.020   5.776
 5665SOL    HW117894   1.579   1.118   5.770
 5665SOL    HW217895   1.547   0.983   5.684
 5666SOL     OW17896   5.777   5.221   6.837
 5666SOL    HW117897   5.723   5.289   6.786
 5666SOL    HW217898   5.851   5.268   6.885
 5667SOL     OW17899   5.736   4.444   2.371
 5667SOL    HW117900   5.718   4.539   2.397
 5667SOL    HW217901   5.660   4.387   2.402
 5668SOL     OW17902   6.698   2.252   6.873
 5668SOL    HW117903   6.608   2.285   6.844
 5668SOL    HW217904   6.720   2.289   6.963
 5669SOL     OW17905   0.219   2.741   4.685
 5669SOL    HW117906   0.202   2.817   4.622
 5669SOL    HW217907   0.147   2.738   4.754
 5670SOL     OW17908   1.268   3.389   2.066
 5670SOL    HW117909   1.302   3.466   2.012
 5670SOL    HW217910   1.332   3.368   2.139
 5671SOL     OW17911   0.946   0.914   5.277
 5671SOL    HW117912   1.004   0.834   5.292
 5671SOL    HW217913   0.877   0.919   5.350
 5672SOL     OW17914   4.559   4.103   5.742
 5672SOL    HW117915   4.477   4.047   5.743
 5672SOL    HW217916   4.585   4.127   5.836
 5673SOL     OW17917   1.864   6.938   0.876
 5673SOL    HW117918   1.833   6.844   0.885
 5673SOL    HW217919   1.946   6.952   0.932
 5674SOL     OW17920   0.259   2.971   1.645
 5674SOL    HW117921   0.310   2.914   1.710
 5674SOL    HW217922   0.176   2.922   1.616
 5675SOL     OW17923   3.779   1.228   5.612
 5675SOL    HW117924   3.778   1.132   5.639
 5675SOL    HW217925   3.726   1.239   5.527
 5676SOL     OW17926   2.338   6.782   2.252
 5676SOL    HW117927   2.378   6.870   2.276
 5676SOL    HW217928   2.338   6.770   2.153
 5677SOL     OW17929   6.207   0.220   3.001
 5677SOL    HW117930   6.288   0.277   2.997
 5677SOL    HW217931   6.217   0.142   2.939
 5678SOL     OW17932   0.928   5.202   2.620
 5678SOL    HW117933   0.924   5.245   2.529
 5678SOL    HW217934   0.841   5.216   2.666
 5679SOL     OW17935   3.948   5.788   5.684
 5679SOL    HW117936   3.884   5.849   5.730
 5679SOL    HW217937   4.024   5.766   5.745
 5680SOL     OW17938   1.753   6.741   6.639
 5680SOL    HW117939   1.806   6.781   6.714
 5680SOL    HW217940   1.815   6.717   6.563
 5681SOL     OW17941   3.005   4.204   6.418
 5681SOL    HW117942   2.986   4.243   6.509
 5681SOL    HW217943   3.087   4.247   6.380
 5682SOL     OW17944   2.044   2.921   3.971
 5682SOL    HW117945   2.042   2.923   4.071
 5682SOL    HW217946   1.966   2.869   3.937
 5683SOL     OW17947   4.129   3.222   5.096
 5683SOL    HW117948   4.193   3.169   5.152
 5683SOL    HW217949   4.154   3.319   5.099
 5684SOL     OW17950   3.077   3.851   3.176
 5684SOL    HW117951   3.005   3.851   3.246
 5684SOL    HW217952   3.165   3.868   3.219
 5685SOL     OW17953   0.267   6.218   1.532
 5685SOL    HW117954   0.184   6.271   1.512
 5685SOL    HW217955   0.243   6.136   1.584
 5686SOL     OW17956   3.386   4.542   0.095
 5686SOL    HW117957   3.344   4.454   0.118
 5686SOL    HW217958   3.426   4.537   0.003
 5687SOL     OW17959   4.351   5.727   6.643
 5687SOL    HW117960   4.299   5.674   6.710
 5687SOL    HW217961   4.314   5.819   6.637
 5688SOL     OW17962   5.329   1.504   2.438
 5688SOL    HW117963   5.258   1.462   2.381
 5688SOL    HW217964   5.319   1.471   2.532
 5689SOL     OW17965   4.320   3.619   5.865
 5689SOL    HW117966   4.260   3.586   5.793
 5689SOL    HW217967   4.415   3.613   5.834
 5690SOL     OW17968   3.803   0.119   3.278
 5690SOL    HW117969   3.870   0.163   3.219
 5690SOL    HW217970   3.839   0.032   3.311
 5691SOL     OW17971   3.587   0.189   4.048
 5691SOL    HW117972   3.585   0.283   4.084
 5691SOL    HW217973   3.677   0.148   4.066
 5692SOL     OW17974   5.722   2.279   6.882
 5692SOL    HW117975   5.650   2.323   6.934
 5692SOL    HW217976   5.799   2.259   6.942
 5693SOL     OW17977   4.961   2.646   2.475
 5693SOL    HW117978   4.987   2.693   2.560
 5693SOL    HW217979   4.883   2.694   2.434
 5694SOL     OW17980   1.673   2.023   4.481
 5694SOL    HW117981   1.657   2.118   4.453
 5694SOL    HW217982   1.691   2.020   4.579
 5695SOL     OW17983   1.958   4.125   3.531
 5695SOL    HW117984   1.926   4.185   3.604
 5695SOL    HW217985   2.058   4.117   3.536
 5696SOL     OW17986   2.768   0.768   6.282
 5696SOL    HW117987   2.749   0.698   6.352
 5696SOL    HW217988   2.829   0.837   6.321
 5697SOL     OW17989   6.569   3.770   0.329
 5697SOL    HW117990   6.470   3.756   0.339
 5697SOL    HW217991   6.585   3.841   0.259
 5698SOL     OW17992   1.650   4.440   3.722
 5698SOL    HW117993   1.659   4.539   3.733
 5698SOL    HW217994   1.629   4.398   3.811
 5699SOL     OW17995   0.322   2.439   5.103
 5699SOL    HW117996   0.288   2.400   5.189
 5699SOL    HW217997   0.272   2.398   5.027
 5700SOL     OW17998   1.365   5.321   3.676
 5700SOL    HW117999   1.383   5.233   3.630
 5700SOL    HW218000   1.300   5.374   3.621
 5701SOL     OW18001   4.967   3.953   2.882
 5701SOL    HW118002   5.036   3.987   2.945
 5701SOL    HW218003   4.953   3.855   2.898
 5702SOL     OW18004   3.589   0.212   6.928
 5702SOL    HW118005   3.582   0.265   7.013
 5702SOL    HW218006   3.677   0.165   6.925
 5703SOL     OW18007   4.617   4.388   1.687
 5703SOL    HW118008   4.703   4.404   1.737
 5703SOL    HW218009   4.550   4.346   1.749
 5704SOL     OW18010   4.998   4.102   3.654
 5704SOL    HW118011   4.942   4.109   3.571
 5704SOL    HW218012   4.986   4.011   3.694
 5705SOL     OW18013   6.400   1.678   3.753
 5705SOL    HW118014   6.386   1.765   3.801
 5705SOL    HW218015   6.494   1.674   3.719
 5706SOL     OW18016   1.996   1.268   6.606
 5706SOL    HW118017   2.052   1.347   6.581
 5706SOL    HW218018   2.018   1.192   6.546
 5707SOL     OW18019   3.659   1.544   0.240
 5707SOL    HW118020   3.686   1.634   0.206
 5707SOL    HW218021   3.560   1.533   0.231
 5708SOL     OW18022   0.018   6.785   0.928
 5708SOL    HW118023   0.036   6.694   0.965
 5708SOL    HW218024   7.010   6.846   1.002
 5709SOL     OW18025   1.394   2.770   1.043
 5709SOL    HW118026   1.363   2.828   0.967
 5709SOL    HW218027   1.475   2.718   1.013
 5710SOL     OW18028   3.512   4.549   0.323
 5710SOL    HW118029   3.464   4.563   0.236
 5710SOL    HW218030   3.572   4.627   0.341
 5711SOL     OW18031   5.311   1.794   5.330
 5711SOL    HW118032   5.258   1.875   5.304
 5711SOL    HW218033   5.404   1.822   5.353
 5712SOL     OW18034   6.545   6.869   0.054
 5712SOL    HW118035   6.561   6.842   6.979
 5712SOL    HW218036   6.457   6.916   0.060
 5713SOL     OW18037   0.410   2.555   2.666
 5713SOL    HW118038   0.403   2.550   2.766
 5713SOL    HW218039   0.321   2.582   2.629
 5714SOL     OW18040   2.198   0.638   6.827
 5714SOL    HW118041   2.256   0.714   6.797
 5714SOL    HW218042   2.127   0.673   6.889
 5715SOL     OW18043   1.730   0.329   3.379
 5715SOL    HW118044   1.786   0.342   3.461
 5715SOL    HW218045   1.783   0.357   3.298
 5716SOL     OW18046   1.981   2.268   5.308
 5716SOL    HW118047   1.999   2.177   5.269
 5716SOL    HW218048   1.919   2.318   5.248
 5717SOL     OW18049   0.646   3.364   5.888
 5717SOL    HW118050   0.739   3.329   5.876
 5717SOL    HW218051   0.597   3.359   5.801
 5718SOL     OW18052   2.991   4.939   6.214
 5718SOL    HW118053   3.073   4.990   6.185
 5718SOL    HW218054   2.937   4.995   6.277
 5719SOL     OW18055   2.098   0.913   0.473
 5719SOL    HW118056   2.155   0.920   0.391
 5719SOL    HW218057   2.095   1.002   0.518
 5720SOL     OW18058   1.628   5.848   3.651
 5720SOL    HW118059   1.635   5.845   3.551
 5720SOL    HW218060   1.683   5.774   3.690
 5721SOL     OW18061   6.775   4.130   0.029
 5721SOL    HW118062   6.828   4.062   6.999
 5721SOL    HW218063   6.827   4.215   0.035
 5722SOL     OW18064   5.510   1.309   4.248
 5722SOL    HW118065   5.542   1.215   4.255
 5722SOL    HW218066   5.571   1.360   4.187
 5723SOL     OW18067   0.593   4.515   1.266
 5723SOL    HW118068   0.528   4.451   1.225
 5723SOL    HW218069   0.602   4.596   1.207
 5724SOL     OW18070   5.061   2.780   5.954
 5724SOL    HW118071   4.979   2.814   6.000
 5724SOL    HW218072   5.058   2.805   5.858
 5725SOL     OW18073   5.508   6.643   5.641
 5725SOL    HW118074   5.581   6.694   5.686
 5725SOL    HW218075   5.521   6.645   5.542
 5726SOL     OW18076   4.373   4.775   5.690
 5726SOL    HW118077   4.405   4.741   5.778
 5726SOL    HW218078   4.296   4.838   5.705
 5727SOL     OW18079   5.576   3.104   4.344
 5727SOL    HW118080   5.639   3.065   4.278
 5727SOL    HW218081   5.624   3.124   4.429
 5728SOL     OW18082   4.458   0.747   5.110
 5728SOL    HW118083   4.490   0.655   5.133
 5728SOL    HW218084   4.467   0.807   5.190
 5729SOL     OW18085   1.329   2.879   3.749
 5729SOL    HW118086   1.312   2.868   3.847
 5729SOL    HW218087   1.380   2.964   3.734
 5730SOL     OW18088   4.163   4.351   0.351
 5730SOL    HW118089   4.068   4.362   0.380
 5730SOL    HW218090   4.196   4.261   0.378
 5731SOL     OW18091   4.172   1.093   4.981
 5731SOL    HW118092   4.253   1.143   5.013
 5731SOL    HW218093   4.180   1.076   4.883
 5732SOL     OW18094   5.356   4.590   4.870
 5732SOL    HW118095   5.343   4.494   4.843
 5732SOL    HW218096   5.453   4.613   4.866
 5733SOL     OW18097   2.716   0.106   1.843
 5733SOL    HW118098   2.722   0.131   1.746
 5733SOL    HW218099   2.644   0.038   1.856
 5734SOL     OW18100   1.336   6.937   6.053
 5734SOL    HW118101   1.400   6.871   6.092
 5734SOL    HW218102   1.291   6.988   6.127
 5735SOL     OW18103   5.402   1.273   1.063
 5735SOL    HW118104   5.444   1.239   0.980
 5735SOL    HW218105   5.432   1.368   1.079
 5736SOL     OW18106   5.389   3.869   6.624
 5736SOL    HW118107   5.434   3.855   6.712
 5736SOL    HW218108   5.295   3.834   6.629
 5737SOL     OW18109   5.438   5.633   2.236
 5737SOL    HW118110   5.410   5.675   2.322
 5737SOL    HW218111   5.519   5.680   2.200
 5738SOL     OW18112   2.498   0.856   1.323
 5738SOL    HW118113   2.596   0.863   1.344
 5738SOL    HW218114   2.476   0.920   1.249
 5739SOL     OW18115   2.136   0.749   4.918
 5739SOL    HW118116   2.060   0.687   4.896
 5739SOL    HW218117   2.100   0.840   4.939
 5740SOL     OW18118   4.934   3.406   2.337
 5740SOL    HW118119   4.932   3.413   2.237
 5740SOL    HW218120   4.889   3.486   2.377
 5741SOL     OW18121   1.441   3.180   4.337
 5741SOL    HW118122   1.412   3.245   4.267
 5741SOL    HW218123   1.401   3.090   4.317
 5742SOL     OW18124   5.770   5.771   2.313
 5742SOL    HW118125   5.851   5.829   2.297
 5742SOL    HW218126   5.743   5.728   2.227
 5743SOL     OW18127   3.738   5.754   0.315
 5743SOL    HW118128   3.787   5.762   0.402
 5743SOL    HW218129   3.803   5.736   0.242
 5744SOL     OW18130   5.407   6.004   3.653
 5744SOL    HW118131   5.335   5.938   3.634
 5744SOL    HW218132   5.402   6.078   3.587
 5745SOL     OW18133   0.783   3.576   2.756
 5745SOL    HW118134   0.748   3.522   2.680
 5745SOL    HW218135   0.714   3.642   2.785
 5746SOL     OW18136   5.163   0.414   3.125
 5746SOL    HW118137   5.262   0.419   3.136
 5746SOL    HW218138   5.140   0.338   3.065
 5747SOL     OW18139   1.965   0.143   1.462
 5747SOL    HW118140   2.026   0.223   1.465
 5747SOL    HW218141   1.948   0.118   1.367
 5748SOL     OW18142   6.024   6.490   7.007
 5748SOL    HW118143   6.106   6.547   7.015
 5748SOL    HW218144   5.963   6.529   6.939
 5749SOL     OW18145   2.305   6.022   6.341
 5749SOL    HW118146   2.266   6.102   6.386
 5749SOL    HW218147   2.247   5.998   6.262
 5750SOL     OW18148   6.283   2.801   4.529
 5750SOL    HW118149   6.343   2.761   4.460
 5750SOL    HW218150   6.327   2.882   4.568
 5751SOL     OW18151   0.224   3.545   4.568
 5751SOL    HW118152   0.141   3.528   4.515
 5751SOL    HW218153   0.200   3.593   4.653
 5752SOL     OW18154   5.529   1.041   0.574
 5752SOL    HW118155   5.491   1.103   0.642
 5752SOL    HW218156   5.562   1.094   0.496
 5753SOL     OW18157   3.504   3.740   4.197
 5753SOL    HW118158   3.466   3.829   4.222
 5753SOL    HW218159   3.540   3.695   4.280
 5754SOL     OW18160   6.377   5.985   1.019
 5754SOL    HW118161   6.393   5.959   1.114
 5754SOL    HW218162   6.299   6.047   1.013
 5755SOL     OW18163   1.419   2.970   6.565
 5755SOL    HW118164   1.439   3.041   6.632
 5755SOL    HW218165   1.360   2.901   6.606
 5756SOL     OW18166   6.064   6.174   1.837
 5756SOL    HW118167   6.091   6.140   1.747
 5756SOL    HW218168   6.003   6.107   1.881
 5757SOL     OW18169   0.555   1.321   3.744
 5757SOL    HW118170   0.506   1.305   3.830
 5757SOL    HW218171   0.489   1.335   3.670
 5758SOL     OW18172   6.188   6.781   3.289
 5758SOL    HW118173   6.163   6.829   3.373
 5758SOL    HW218174   6.166   6.838   3.210
 5759SOL     OW18175   1.927   0.122   2.587
 5759SOL    HW118176   1.852   0.062   2.616
 5759SOL    HW218177   1.894   0.186   2.518
 5760SOL     OW18178   0.512   2.006   6.416
 5760SOL    HW118179   0.589   2.041   6.469
 5760SOL    HW218180   0.467   1.932   6.467
 5761SOL     OW18181   6.696   6.518   4.622
 5761SOL    HW118182   6.744   6.488   4.704
 5761SOL    HW218183   6.651   6.606   4.639
 5762SOL     OW18184   1.037   5.434   5.641
 5762SOL    HW118185   1.052   5.523   5.684
 5762SOL    HW218186   1.106   5.370   5.672
 5763SOL     OW18187   5.447   0.338   0.547
 5763SOL    HW118188   5.494   0.343   0.459
 5763SOL    HW218189   5.492   0.399   0.612
 5764SOL     OW18190   4.425   6.126   4.540
 5764SOL    HW118191   4.419   6.112   4.442
 5764SOL    HW218192   4.460   6.217   4.559
 5765SOL     OW18193   0.015   5.458   2.349
 5765SOL    HW118194   0.028   5.359   2.354
 5765SOL    HW218195   6.991   5.489   2.433
 5766SOL     OW18196   0.781   1.089   4.026
 5766SOL    HW118197   0.791   1.188   4.029
 5766SOL    HW218198   0.689   1.065   3.994
 5767SOL     OW18199   4.726   6.786   0.393
 5767SOL    HW118200   4.666   6.709   0.413
 5767SOL    HW218201   4.679   6.871   0.416
 5768SOL     OW18202   1.212   0.968   4.737
 5768SOL    HW118203   1.153   1.048   4.738
 5768SOL    HW218204   1.159   0.888   4.766
 5769SOL     OW18205   0.696   2.742   5.642
 5769SOL    HW118206   0.740   2.778   5.560
 5769SOL    HW218207   0.712   2.644   5.649
 5770SOL     OW18208   1.948   4.671   2.276
 5770SOL    HW118209   2.011   4.597   2.302
 5770SOL    HW218210   1.861   4.631   2.248
 5771SOL     OW18211   2.815   5.076   3.592
 5771SOL    HW118212   2.748   5.150   3.591
 5771SOL    HW218213   2.826   5.040   3.499
 5772SOL     OW18214   2.807   0.098   3.066
 5772SOL    HW118215   2.754   0.089   3.150
 5772SOL    HW218216   2.884   0.160   3.082
 5773SOL     OW18217   5.650   0.927   3.758
 5773SOL    HW118218   5.555   0.960   3.758
 5773SOL    HW218219   5.685   0.929   3.664
 5774SOL     OW18220   0.884   6.704   3.416
 5774SOL    HW118221   0.799   6.657   3.441
 5774SOL    HW218222   0.949   6.637   3.379
 5775SOL     OW18223   6.053   5.054   2.256
 5775SOL    HW118224   6.005   4.966   2.260
 5775SOL    HW218225   6.021   5.105   2.177
 5776SOL     OW18226   2.776   0.849   4.300
 5776SOL    HW118227   2.812   0.931   4.344
 5776SOL    HW218228   2.683   0.867   4.267
 5777SOL     OW18229   1.088   0.655   1.508
 5777SOL    HW118230   1.057   0.570   1.551
 5777SOL    HW218231   1.010   0.712   1.484
 5778SOL     OW18232   6.938   0.374   0.845
 5778SOL    HW118233   6.926   0.276   0.826
 5778SOL    HW218234   6.875   0.427   0.789
 5779SOL     OW18235   5.977   1.677   0.481
 5779SOL    HW118236   6.035   1.653   0.403
 5779SOL    HW218237   6.014   1.756   0.528
 5780SOL     OW18238   4.968   4.663   4.092
 5780SOL    HW118239   4.939   4.601   4.019
 5780SOL    HW218240   4.911   4.746   4.089
 5781SOL     OW18241   1.621   5.418   6.083
 5781SOL    HW118242   1.674   5.486   6.031
 5781SOL    HW218243   1.643   5.426   6.180
 5782SOL     OW18244   0.060   1.080   0.063
 5782SOL    HW118245   0.025   1.170   0.088
 5782SOL    HW218246   0.140   1.058   0.120
 5783SOL     OW18247   2.470   2.628   6.923
 5783SOL    HW118248   2.376   2.613   6.954
 5783SOL    HW218249   2.470   2.652   6.826
 5784SOL     OW18250   0.195   6.601   6.522
 5784SOL    HW118251   0.129   6.619   6.595
 5784SOL    HW218252   0.235   6.687   6.491
 5785SOL     OW18253   1.782   1.256   0.869
 5785SOL    HW118254   1.820   1.167   0.843
 5785SOL    HW218255   1.852   1.311   0.914
 5786SOL     OW18256   6.077   5.371   1.301
 5786SOL    HW118257   6.134   5.398   1.379
 5786SOL    HW218258   6.092   5.434   1.225
 5787SOL     OW18259   2.256   2.971   5.620
 5787SOL    HW118260   2.210   2.919   5.548
 5787SOL    HW218261   2.353   2.981   5.597
 5788SOL     OW18262   3.244   0.766   3.674
 5788SOL    HW118263   3.186   0.686   3.671
 5788SOL    HW218264   3.214   0.827   3.748
 5789SOL     OW18265   3.777   4.931   6.149
 5789SOL    HW118266   3.787   4.967   6.242
 5789SOL    HW218267   3.795   5.004   6.084
 5790SOL     OW18268   1.155   3.978   3.691
 5790SOL    HW118269   1.145   4.066   3.645
 5790SOL    HW218270   1.217   3.986   3.769
 5791SOL     OW18271   1.731   0.570   3.194
 5791SOL    HW118272   1.677   0.554   3.277
 5791SOL    HW218273   1.751   0.668   3.186
 5792SOL     OW18274   0.172   2.241   2.566
 5792SOL    HW118275   0.257   2.283   2.534
 5792SOL    HW218276   0.192   2.153   2.610
 5793SOL     OW18277   6.468   0.731   4.565
 5793SOL    HW118278   6.436   0.671   4.491
 5793SOL    HW218279   6.540   0.685   4.616
 5794SOL     OW18280   6.323   4.535   6.274
 5794SOL    HW118281   6.253   4.568   6.211
 5794SOL    HW218282   6.293   4.450   6.316
 5795SOL     OW18283   5.638   4.162   6.655
 5795SOL    HW118284   5.629   4.064   6.642
 5795SOL    HW218285   5.567   4.194   6.718
 5796SOL     OW18286   3.084   2.407   0.957
 5796SOL    HW118287   3.124   2.353   1.031
 5796SOL    HW218288   3.128   2.497   0.954
 5797SOL     OW18289   2.874   2.547   5.428
 5797SOL    HW118290   2.873   2.479   5.355
 5797SOL    HW218291   2.845   2.504   5.514
 5798SOL     OW18292   6.475   5.412   4.621
 5798SOL    HW118293   6.555   5.471   4.621
 5798SOL    HW218294   6.464   5.371   4.531
 5799SOL     OW18295   5.198   0.889   4.115
 5799SOL    HW118296   5.246   0.964   4.161
 5799SOL    HW218297   5.113   0.869   4.164
 5800SOL     OW18298   6.161   6.043   6.701
 5800SOL    HW118299   6.113   6.101   6.636
 5800SOL    HW218300   6.179   5.954   6.660
 5801SOL     OW18301   2.106   0.958   2.572
 5801SOL    HW118302   2.206   0.957   2.577
 5801SOL    HW218303   2.077   1.039   2.521
 5802SOL     OW18304   0.825   2.921   4.910
 5802SOL    HW118305   0.825   3.018   4.885
 5802SOL    HW218306   0.856   2.910   5.004
 5803SOL     OW18307   1.760   4.918   1.331
 5803SOL    HW118308   1.730   5.013   1.317
 5803SOL    HW218309   1.694   4.856   1.289
 5804SOL     OW18310   6.916   2.673   6.444
 5804SOL    HW118311   6.910   2.738   6.368
 5804SOL    HW218312   6.834   2.679   6.501
 5805SOL     OW18313   6.112   3.422   6.617
 5805SOL    HW118314   6.148   3.433   6.524
 5805SOL    HW218315   6.050   3.343   6.620
 5806SOL     OW18316   6.833   0.039   6.711
 5806SOL    HW118317   6.864   0.129   6.682
 5806SOL    HW218318   6.848   6.993   6.637
 5807SOL     OW18319   2.241   3.573   1.659
 5807SOL    HW118320   2.308   3.530   1.720
 5807SOL    HW218321   2.152   3.528   1.670
 5808SOL     OW18322   6.112   1.806   3.475
 5808SOL    HW118323   6.099   1.814   3.574
 5808SOL    HW218324   6.187   1.743   3.456
 5809SOL     OW18325   0.356   2.922   4.309
 5809SOL    HW118326   0.379   3.002   4.254
 5809SOL    HW218327   0.339   2.843   4.249
 5810SOL     OW18328   2.209   2.140   2.757
 5810SOL    HW118329   2.279   2.140   2.686
 5810SOL    HW218330   2.137   2.205   2.733
 5811SOL     OW18331   2.978   0.167   2.340
 5811SOL    HW118332   2.908   0.152   2.411
 5811SOL    HW218333   3.054   0.218   2.380
 5812SOL     OW18334   4.748   0.554   4.500
 5812SOL    HW118335   4.817   0.598   4.442
 5812SOL    HW218336   4.694   0.491   4.444
 5813SOL     OW18337   1.813   1.079   5.225
 5813SOL    HW118338   1.860   1.063   5.312
 5813SOL    HW218339   1.724   1.121   5.242
 5814SOL     OW18340   6.951   5.160   0.385
 5814SOL    HW118341   7.014   5.115   0.448
 5814SOL    HW218342   6.875   5.200   0.436
 5815SOL     OW18343   3.905   1.321   3.669
 5815SOL    HW118344   3.833   1.307   3.736
 5815SOL    HW218345   3.991   1.341   3.717
 5816SOL     OW18346   5.270   6.901   0.929
 5816SOL    HW118347   5.342   6.921   0.862
 5816SOL    HW218348   5.250   6.803   0.928
 5817SOL     OW18349   6.069   1.908   6.095
 5817SOL    HW118350   6.117   1.890   6.009
 5817SOL    HW218351   6.135   1.910   6.170
 5818SOL     OW18352   6.196   6.216   5.421
 5818SOL    HW118353   6.228   6.246   5.511
 5818SOL    HW218354   6.258   6.146   5.386
 5819SOL     OW18355   5.846   0.487   0.893
 5819SOL    HW118356   5.786   0.513   0.816
 5819SOL    HW218357   5.794   0.434   0.959
 5820SOL     OW18358   5.753   5.328   2.229
 5820SOL    HW118359   5.731   5.330   2.326
 5820SOL    HW218360   5.668   5.336   2.176
 5821SOL     OW18361   3.177   6.628   2.792
 5821SOL    HW118362   3.110   6.683   2.841
 5821SOL    HW218363   3.138   6.596   2.706
 5822SOL     OW18364   0.644   1.229   2.205
 5822SOL    HW118365   0.701   1.200   2.129
 5822SOL    HW218366   0.684   1.309   2.249
 5823SOL     OW18367   2.104   2.817   4.494
 5823SOL    HW118368   2.128   2.906   4.532
 5823SOL    HW218369   2.093   2.751   4.568
 5824SOL     OW18370   4.280   0.484   3.398
 5824SOL    HW118371   4.307   0.416   3.330
 5824SOL    HW218372   4.282   0.444   3.489
 5825SOL     OW18373   3.399   1.072   1.328
 5825SOL    HW118374   3.313   1.022   1.341
 5825SOL    HW218375   3.407   1.143   1.399
 5826SOL     OW18376   6.763   6.962   4.154
 5826SOL    HW118377   6.671   6.989   4.125
 5826SOL    HW218378   6.759   6.871   4.195
 5827SOL     OW18379   1.861   5.059   5.521
 5827SOL    HW118380   1.789   5.117   5.486
 5827SOL    HW218381   1.862   4.972   5.471
 5828SOL     OW18382   6.627   2.039   1.763
 5828SOL    HW118383   6.558   2.087   1.817
 5828SOL    HW218384   6.706   2.019   1.820
 5829SOL     OW18385   1.327   1.671   1.660
 5829SOL    HW118386   1.268   1.603   1.704
 5829SOL    HW218387   1.420   1.634   1.651
 5830SOL     OW18388   2.101   0.918   5.413
 5830SOL    HW118389   2.182   0.916   5.355
 5830SOL    HW218390   2.072   0.825   5.435
 5831SOL     OW18391   5.871   5.948   3.132
 5831SOL    HW118392   5.791   5.894   3.104
 5831SOL    HW218393   5.840   6.031   3.178
 5832SOL     OW18394   3.491   3.340   4.561
 5832SOL    HW118395   3.410   3.353   4.618
 5832SOL    HW218396   3.464   3.330   4.466
 5833SOL     OW18397   3.384   3.181   4.861
 5833SOL    HW118398   3.349   3.268   4.825
 5833SOL    HW218399   3.356   3.107   4.799
 5834SOL     OW18400   6.352   0.645   0.159
 5834SOL    HW118401   6.275   0.651   0.094
 5834SOL    HW218402   6.420   0.582   0.123
 5835SOL     OW18403   5.295   2.900   4.438
 5835SOL    HW118404   5.284   2.881   4.536
 5835SOL    HW218405   5.352   2.830   4.396
 5836SOL     OW18406   3.358   7.019   2.856
 5836SOL    HW118407   3.283   6.985   2.799
 5836SOL    HW218408   3.340   0.094   2.882
 5837SOL     OW18409   4.434   4.589   6.611
 5837SOL    HW118410   4.392   4.665   6.561
 5837SOL    HW218411   4.362   4.534   6.653
 5838SOL     OW18412   0.778   1.480   5.495
 5838SOL    HW118413   0.830   1.552   5.541
 5838SOL    HW218414   0.837   1.435   5.427
 5839SOL     OW18415   6.989   2.360   2.218
 5839SOL    HW118416   6.974   2.374   2.316
 5839SOL    HW218417   0.050   2.410   2.189
 5840SOL     OW18418   3.021   5.340   0.276
 5840SOL    HW118419   3.114   5.345   0.314
 5840SOL    HW218420   2.989   5.245   0.277
 5841SOL     OW18421   6.252   2.450   2.948
 5841SOL    HW118422   6.319   2.520   2.924
 5841SOL    HW218423   6.249   2.438   3.047
 5842SOL     OW18424   3.828   3.102   0.210
 5842SOL    HW118425   3.736   3.142   0.206
 5842SOL    HW218426   3.896   3.172   0.190
 5843SOL     OW18427   0.979   3.240   1.109
 5843SOL    HW118428   1.077   3.254   1.117
 5843SOL    HW218429   0.948   3.268   1.018
 5844SOL     OW18430   1.633   5.935   6.846
 5844SOL    HW118431   1.551   5.913   6.899
 5844SOL    HW218432   1.612   6.008   6.781
 5845SOL     OW18433   1.080   2.420   4.711
 5845SOL    HW118434   1.002   2.476   4.680
 5845SOL    HW218435   1.162   2.447   4.661
 5846SOL     OW18436   0.595   3.221   6.161
 5846SOL    HW118437   0.508   3.171   6.159
 5846SOL    HW218438   0.613   3.261   6.071
 5847SOL     OW18439   1.476   2.558   4.052
 5847SOL    HW118440   1.479   2.459   4.044
 5847SOL    HW218441   1.384   2.591   4.032
 5848SOL     OW18442   1.232   5.033   3.254
 5848SOL    HW118443   1.321   5.069   3.227
 5848SOL    HW218444   1.244   4.968   3.330
 5849SOL     OW18445   2.971   6.779   5.874
 5849SOL    HW118446   3.065   6.771   5.841
 5849SOL    HW218447   2.961   6.726   5.958
 5850SOL     OW18448   0.553   4.440   3.556
 5850SOL    HW118449   0.518   4.347   3.556
 5850SOL    HW218450   0.649   4.440   3.526
 5851SOL     OW18451   5.245   3.074   2.122
 5851SOL    HW118452   5.338   3.040   2.108
 5851SOL    HW218453   5.184   2.997   2.139
 5852SOL     OW18454   4.440   5.937   2.749
 5852SOL    HW118455   4.419   5.858   2.806
 5852SOL    HW218456   4.356   5.968   2.703
 5853SOL     OW18457   4.683   4.210   5.534
 5853SOL    HW118458   4.634   4.189   5.450
 5853SOL    HW218459   4.643   4.159   5.610
 5854SOL     OW18460   0.954   0.867   6.454
 5854SOL    HW118461   1.042   0.825   6.433
 5854SOL    HW218462   0.960   0.966   6.441
 5855SOL     OW18463   1.829   1.351   5.182
 5855SOL    HW118464   1.841   1.252   5.182
 5855SOL    HW218465   1.890   1.393   5.115
 5856SOL     OW18466   2.260   4.956   2.908
 5856SOL    HW118467   2.297   5.004   2.829
 5856SOL    HW218468   2.322   4.881   2.933
 5857SOL     OW18469   0.048   2.313   5.218
 5857SOL    HW118470   0.007   2.223   5.201
 5857SOL    HW218471   6.998   2.375   5.253
 5858SOL     OW18472   4.003   6.892   3.435
 5858SOL    HW118473   3.909   6.893   3.468
 5858SOL    HW218474   4.045   6.803   3.458
 5859SOL     OW18475   6.206   5.865   1.888
 5859SOL    HW118476   6.282   5.925   1.861
 5859SOL    HW218477   6.203   5.859   1.988
 5860SOL     OW18478   0.354   3.559   0.849
 5860SOL    HW118479   0.437   3.576   0.796
 5860SOL    HW218480   0.377   3.555   0.946
 5861SOL     OW18481   6.211   1.988   3.957
 5861SOL    HW118482   6.175   1.940   4.037
 5861SOL    HW218483   6.304   1.957   3.939
 5862SOL     OW18484   4.652   4.499   3.761
 5862SOL    HW118485   4.594   4.513   3.841
 5862SOL    HW218486   4.748   4.495   3.789
 5863SOL     OW18487   2.135   1.574   1.255
 5863SOL    HW118488   2.120   1.654   1.197
 5863SOL    HW218489   2.098   1.592   1.346
 5864SOL     OW18490   4.076   5.680   0.387
 5864SOL    HW118491   4.001   5.703   0.449
 5864SOL    HW218492   4.156   5.737   0.408
 5865SOL     OW18493   4.595   0.817   3.528
 5865SOL    HW118494   4.685   0.858   3.546
 5865SOL    HW218495   4.524   0.869   3.575
 5866SOL     OW18496   2.958   2.028   0.137
 5866SOL    HW118497   3.033   2.095   0.131
 5866SOL    HW218498   2.904   2.031   0.053
 5867SOL     OW18499   0.334   2.639   1.290
 5867SOL    HW118500   0.306   2.548   1.320
 5867SOL    HW218501   0.408   2.632   1.223
 5868SOL     OW18502   1.670   6.667   4.479
 5868SOL    HW118503   1.713   6.752   4.510
 5868SOL    HW218504   1.589   6.688   4.425
 5869SOL     OW18505   3.216   4.923   3.946
 5869SOL    HW118506   3.193   4.999   3.885
 5869SOL    HW218507   3.133   4.871   3.967
 5870SOL     OW18508   5.208   5.388   4.023
 5870SOL    HW118509   5.177   5.293   4.016
 5870SOL    HW218510   5.151   5.447   3.966
 5871SOL     OW18511   2.759   3.596   0.191
 5871SOL    HW118512   2.694   3.669   0.210
 5871SOL    HW218513   2.719   3.507   0.215
 5872SOL     OW18514   3.836   5.550   4.216
 5872SOL    HW118515   3.781   5.480   4.262
 5872SOL    HW218516   3.853   5.521   4.121
 5873SOL     OW18517   1.893   3.158   6.981
 5873SOL    HW118518   1.807   3.154   0.011
 5873SOL    HW218519   1.876   3.142   6.884
 5874SOL     OW18520   1.182   4.098   6.659
 5874SOL    HW118521   1.105   4.108   6.595
 5874SOL    HW218522   1.246   4.030   6.624
 5875SOL     OW18523   3.810   2.325   0.543
 5875SOL    HW118524   3.752   2.332   0.624
 5875SOL    HW218525   3.905   2.344   0.569
 5876SOL     OW18526   3.922   4.094   6.216
 5876SOL    HW118527   3.967   4.160   6.157
 5876SOL    HW218528   3.866   4.142   6.284
 5877SOL     OW18529   6.184   0.240   2.293
 5877SOL    HW118530   6.120   0.308   2.329
 5877SOL    HW218531   6.265   0.237   2.351
 5878SOL     OW18532   5.031   4.209   2.209
 5878SOL    HW118533   4.933   4.226   2.203
 5878SOL    HW218534   5.052   4.119   2.170
 5879SOL     OW18535   3.113   4.282   5.230
 5879SOL    HW118536   3.032   4.341   5.233
 5879SOL    HW218537   3.125   4.235   5.317
 5880SOL     OW18538   5.648   2.001   6.951
 5880SOL    HW118539   5.711   1.992   0.008
 5880SOL    HW218540   5.668   2.086   6.902
 5881SOL     OW18541   1.598   6.298   2.754
 5881SOL    HW118542   1.597   6.306   2.654
 5881SOL    HW218543   1.673   6.238   2.781
 5882SOL     OW18544   1.453   4.854   5.648
 5882SOL    HW118545   1.437   4.760   5.619
 5882SOL    HW218546   1.501   4.854   5.735
 5883SOL     OW18547   6.690   5.622   0.171
 5883SOL    HW118548   6.673   5.658   0.079
 5883SOL    HW218549   6.785   5.642   0.197
 5884SOL     OW18550   6.682   0.935   2.126
 5884SOL    HW118551   6.660   0.889   2.212
 5884SOL    HW218552   6.766   0.895   2.088
 5885SOL     OW18553   0.127   5.304   1.018
 5885SOL    HW118554   0.043   5.250   1.025
 5885SOL    HW218555   0.164   5.322   1.109
 5886SOL     OW18556   2.055   4.863   3.514
 5886SOL    HW118557   2.059   4.907   3.424
 5886SOL    HW218558   1.971   4.809   3.521
 5887SOL     OW18559   3.284   3.055   0.035
 5887SOL    HW118560   3.284   3.006   0.122
 5887SOL    HW218561   3.367   3.031   7.004
 5888SOL     OW18562   2.417   5.917   1.188
 5888SOL    HW118563   2.479   5.841   1.208
 5888SOL    HW218564   2.437   5.993   1.250
 5889SOL     OW18565   5.615   1.201   2.431
 5889SOL    HW118566   5.647   1.235   2.342
 5889SOL    HW218567   5.626   1.273   2.500
 5890SOL     OW18568   2.563   4.852   3.432
 5890SOL    HW118569   2.475   4.895   3.453
 5890SOL    HW218570   2.581   4.779   3.498
 5891SOL     OW18571   2.585   3.615   6.497
 5891SOL    HW118572   2.555   3.520   6.504
 5891SOL    HW218573   2.507   3.673   6.473
 5892SOL     OW18574   1.327   2.947   0.456
 5892SOL    HW118575   1.291   3.017   0.518
 5892SOL    HW218576   1.261   2.930   0.383
 5893SOL     OW18577   0.750   6.328   1.513
 5893SOL    HW118578   0.721   6.336   1.418
 5893SOL    HW218579   0.835   6.379   1.526
 5894SOL     OW18580   2.032   5.750   6.735
 5894SOL    HW118581   2.131   5.733   6.742
 5894SOL    HW218582   1.982   5.675   6.777
 5895SOL     OW18583   5.746   4.040   3.585
 5895SOL    HW118584   5.748   4.105   3.661
 5895SOL    HW218585   5.813   4.066   3.517
 5896SOL     OW18586   5.539   2.377   2.540
 5896SOL    HW118587   5.474   2.304   2.521
 5896SOL    HW218588   5.490   2.463   2.555
 5897SOL     OW18589   2.991   2.303   0.674
 5897SOL    HW118590   2.965   2.217   0.632
 5897SOL    HW218591   3.019   2.287   0.769
 5898SOL     OW18592   2.441   0.812   6.666
 5898SOL    HW118593   2.504   0.787   6.740
 5898SOL    HW218594   2.436   0.912   6.659
 5899SOL     OW18595   6.923   0.072   0.105
 5899SOL    HW118596   6.979   0.097   0.183
 5899SOL    HW218597   6.875   0.153   0.071
 5900SOL     OW18598   6.161   6.335   2.587
 5900SOL    HW118599   6.187   6.406   2.521
 5900SOL    HW218600   6.068   6.353   2.621
 5901SOL     OW18601   2.249   0.606   5.137
 5901SOL    HW118602   2.211   0.653   5.057
 5901SOL    HW218603   2.314   0.537   5.107
 5902SOL     OW18604   3.942   4.279   5.573
 5902SOL    HW118605   3.976   4.294   5.480
 5902SOL    HW218606   3.902   4.188   5.580
 5903SOL     OW18607   6.489   1.872   4.878
 5903SOL    HW118608   6.470   1.781   4.842
 5903SOL    HW218609   6.582   1.898   4.854
 5904SOL     OW18610   0.093   4.811   1.214
 5904SOL    HW118611   0.117   4.904   1.187
 5904SOL    HW218612   0.055   4.812   1.307
 5905SOL     OW18613   6.099   2.570   5.118
 5905SOL    HW118614   6.075   2.476   5.096
 5905SOL    HW218615   6.016   2.626   5.121
 5906SOL     OW18616   4.578   1.099   5.968
 5906SOL    HW118617   4.531   1.184   5.992
 5906SOL    HW218618   4.624   1.110   5.879
 5907SOL     OW18619   1.392   2.962   5.853
 5907SOL    HW118620   1.489   2.937   5.853
 5907SOL    HW218621   1.339   2.891   5.805
 5908SOL     OW18622   4.285   4.011   6.635
 5908SOL    HW118623   4.223   3.992   6.559
 5908SOL    HW218624   4.233   4.043   6.714
 5909SOL     OW18625   6.073   4.928   4.007
 5909SOL    HW118626   6.070   5.007   4.067
 5909SOL    HW218627   5.990   4.874   4.018
 5910SOL     OW18628   3.308   4.425   0.934
 5910SOL    HW118629   3.319   4.488   0.857
 5910SOL    HW218630   3.309   4.476   1.020
 5911SOL     OW18631   6.288   0.304   6.483
 5911SOL    HW118632   6.362   0.367   6.462
 5911SOL    HW218633   6.290   0.281   6.580
 5912SOL     OW18634   0.487   3.385   5.653
 5912SOL    HW118635   0.453   3.341   5.570
 5912SOL    HW218636   0.425   3.459   5.679
 5913SOL     OW18637   1.641   2.512   4.611
 5913SOL    HW118638   1.587   2.553   4.537
 5913SOL    HW218639   1.706   2.446   4.572
 5914SOL     OW18640   1.466   5.919   0.896
 5914SOL    HW118641   1.463   5.864   0.979
 5914SOL    HW218642   1.448   6.015   0.919
 5915SOL     OW18643   5.684   3.607   4.794
 5915SOL    HW118644   5.625   3.681   4.824
 5915SOL    HW218645   5.726   3.564   4.874
 5916SOL     OW18646   3.123   0.201   6.470
 5916SOL    HW118647   3.202   0.223   6.414
 5916SOL    HW218648   3.093   0.283   6.519
 5917SOL     OW18649   3.872   3.929   2.700
 5917SOL    HW118650   3.936   3.899   2.629
 5917SOL    HW218651   3.913   3.917   2.790
 5918SOL     OW18652   2.332   2.197   3.975
 5918SOL    HW118653   2.298   2.232   4.062
 5918SOL    HW218654   2.404   2.130   3.992
 5919SOL     OW18655   1.505   2.064   6.753
 5919SOL    HW118656   1.513   2.161   6.732
 5919SOL    HW218657   1.447   2.020   6.684
 5920SOL     OW18658   2.694   5.277   0.003
 5920SOL    HW118659   2.706   5.183   0.032
 5920SOL    HW218660   2.774   5.331   0.030
 5921SOL     OW18661   4.065   5.347   5.752
 5921SOL    HW118662   4.112   5.314   5.834
 5921SOL    HW218663   4.123   5.413   5.704
 5922SOL     OW18664   6.270   4.586   1.313
 5922SOL    HW118665   6.281   4.640   1.230
 5922SOL    HW218666   6.320   4.499   1.304
 5923SOL     OW18667   0.449   0.649   3.529
 5923SOL    HW118668   0.531   0.599   3.559
 5923SOL    HW218669   0.367   0.598   3.554
 5924SOL     OW18670   6.165   1.956   4.423
 5924SOL    HW118671   6.199   2.035   4.473
 5924SOL    HW218672   6.232   1.882   4.427
 5925SOL     OW18673   6.326   6.008   0.302
 5925SOL    HW118674   6.346   6.106   0.303
 5925SOL    HW218675   6.234   5.993   0.265
 5926SOL     OW18676   3.607   5.721   1.956
 5926SOL    HW118677   3.683   5.697   1.895
 5926SOL    HW218678   3.536   5.650   1.949
 5927SOL     OW18679   2.285   5.169   1.744
 5927SOL    HW118680   2.247   5.208   1.828
 5927SOL    HW218681   2.225   5.095   1.712
 5928SOL     OW18682   0.982   5.917   1.055
 5928SOL    HW118683   1.016   5.893   1.146
 5928SOL    HW218684   1.050   5.973   1.007
 5929SOL     OW18685   0.508   6.576   5.379
 5929SOL    HW118686   0.569   6.546   5.306
 5929SOL    HW218687   0.462   6.661   5.351
 5930SOL     OW18688   6.120   1.130   5.022
 5930SOL    HW118689   6.024   1.133   5.051
 5930SOL    HW218690   6.145   1.036   4.999
 5931SOL     OW18691   5.687   4.870   0.475
 5931SOL    HW118692   5.713   4.961   0.443
 5931SOL    HW218693   5.692   4.805   0.400
 5932SOL     OW18694   2.078   0.115   0.187
 5932SOL    HW118695   2.018   0.111   0.108
 5932SOL    HW218696   2.027   0.090   0.270
 5933SOL     OW18697   6.395   3.404   3.024
 5933SOL    HW118698   6.440   3.391   2.935
 5933SOL    HW218699   6.455   3.458   3.083
 5934SOL     OW18700   4.002   3.842   2.444
 5934SOL    HW118701   4.055   3.760   2.427
 5934SOL    HW218702   4.004   3.901   2.363
 5935SOL     OW18703   4.041   3.227   3.074
 5935SOL    HW118704   3.954   3.181   3.058
 5935SOL    HW218705   4.062   3.226   3.171
 5936SOL     OW18706   6.620   6.281   6.321
 5936SOL    HW118707   6.531   6.258   6.360
 5936SOL    HW218708   6.658   6.360   6.370
 5937SOL     OW18709   1.446   4.309   0.255
 5937SOL    HW118710   1.392   4.329   0.173
 5937SOL    HW218711   1.385   4.276   0.328
 5938SOL     OW18712   2.098   4.294   0.586
 5938SOL    HW118713   2.116   4.386   0.622
 5938SOL    HW218714   2.099   4.229   0.662
 5939SOL     OW18715   1.649   1.599   2.307
 5939SOL    HW118716   1.643   1.687   2.354
 5939SOL    HW218717   1.601   1.529   2.361
 5940SOL     OW18718   3.854   5.079   3.308
 5940SOL    HW118719   3.839   5.109   3.214
 5940SOL    HW218720   3.772   5.096   3.363
 5941SOL     OW18721   6.735   3.028   2.918
 5941SOL    HW118722   6.663   3.025   2.849
 5941SOL    HW218723   6.727   2.949   2.979
 5942SOL     OW18724   0.054   1.810   4.428
 5942SOL    HW118725   0.042   1.736   4.494
 5942SOL    HW218726   0.034   1.897   4.471
 5943SOL     OW18727   1.440   4.989   0.930
 5943SOL    HW118728   1.370   4.924   0.902
 5943SOL    HW218729   1.488   4.955   1.011
 5944SOL     OW18730   5.009   2.358   3.338
 5944SOL    HW118731   5.095   2.390   3.299
 5944SOL    HW218732   5.020   2.263   3.369
 5945SOL     OW18733   6.725   5.442   6.254
 5945SOL    HW118734   6.771   5.454   6.343
 5945SOL    HW218735   6.642   5.388   6.267
 5946SOL     OW18736   3.707   2.618   5.433
 5946SOL    HW118737   3.746   2.695   5.485
 5946SOL    HW218738   3.608   2.627   5.430
 5947SOL     OW18739   4.891   3.954   1.833
 5947SOL    HW118740   4.939   3.958   1.745
 5947SOL    HW218741   4.809   4.012   1.829
 5948SOL     OW18742   3.232   5.231   3.292
 5948SOL    HW118743   3.287   5.152   3.265
 5948SOL    HW218744   3.218   5.229   3.391
 5949SOL     OW18745   4.368   4.550   2.793
 5949SOL    HW118746   4.401   4.515   2.705
 5949SOL    HW218747   4.371   4.650   2.792
 5950SOL     OW18748   5.978   2.764   4.297
 5950SOL    HW118749   5.931   2.767   4.385
 5950SOL    HW218750   6.045   2.689   4.297
 5951SOL     OW18751   2.282   0.246   4.225
 5951SOL    HW118752   2.230   0.211   4.302
 5951SOL    HW218753   2.220   0.277   4.153
 5952SOL     OW18754   0.410   5.778   5.114
 5952SOL    HW118755   0.371   5.825   5.035
 5952SOL    HW218756   0.476   5.838   5.159
 5953SOL     OW18757   1.203   3.037   6.079
 5953SOL    HW118758   1.145   3.032   5.998
 5953SOL    HW218759   1.296   3.008   6.054
 5954SOL     OW18760   1.058   5.006   6.622
 5954SOL    HW118761   1.012   5.076   6.676
 5954SOL    HW218762   1.119   5.049   6.556
 5955SOL     OW18763   5.007   5.113   2.911
 5955SOL    HW118764   4.990   5.100   2.813
 5955SOL    HW218765   5.026   5.024   2.953
 5956SOL     OW18766   0.074   2.348   6.765
 5956SOL    HW118767   0.009   2.292   6.714
 5956SOL    HW218768   0.042   2.358   6.859
 5957SOL     OW18769   4.547   6.512   5.706
 5957SOL    HW118770   4.494   6.433   5.737
 5957SOL    HW218771   4.498   6.596   5.730
 5958SOL     OW18772   0.816   5.351   2.393
 5958SOL    HW118773   0.813   5.274   2.329
 5958SOL    HW218774   0.906   5.394   2.390
 5959SOL     OW18775   1.272   0.816   6.493
 5959SOL    HW118776   1.297   0.738   6.552
 5959SOL    HW218777   1.353   0.846   6.443
 5960SOL     OW18778   3.656   6.645   5.695
 5960SOL    HW118779   3.747   6.606   5.710
 5960SOL    HW218780   3.645   6.670   5.599
 5961SOL     OW18781   2.389   0.905   5.512
 5961SOL    HW118782   2.488   0.917   5.521
 5961SOL    HW218783   2.369   0.851   5.431
 5962SOL     OW18784   5.093   3.850   2.412
 5962SOL    HW118785   5.092   3.782   2.339
 5962SOL    HW218786   5.011   3.906   2.407
 5963SOL     OW18787   4.148   3.767   1.692
 5963SOL    HW118788   4.114   3.834   1.758
 5963SOL    HW218789   4.121   3.675   1.722
 5964SOL     OW18790   1.962   3.798   5.650
 5964SOL    HW118791   2.003   3.808   5.560
 5964SOL    HW218792   1.909   3.881   5.672
 5965SOL     OW18793   1.877   1.626   3.747
 5965SOL    HW118794   1.936   1.548   3.770
 5965SOL    HW218795   1.911   1.669   3.663
 5966SOL     OW18796   2.131   5.738   3.787
 5966SOL    HW118797   2.111   5.755   3.884
 5966SOL    HW218798   2.130   5.825   3.738
 5967SOL     OW18799   4.693   5.930   2.189
 5967SOL    HW118800   4.742   5.964   2.109
 5967SOL    HW218801   4.629   5.999   2.221
 5968SOL     OW18802   0.216   1.643   3.674
 5968SOL    HW118803   0.169   1.683   3.595
 5968SOL    HW218804   0.155   1.644   3.753
 5969SOL     OW18805   5.925   2.799   2.797
 5969SOL    HW118806   5.942   2.765   2.889
 5969SOL    HW218807   6.013   2.810   2.749
 5970SOL     OW18808   1.996   3.233   3.571
 5970SOL    HW118809   2.005   3.317   3.516
 5970SOL    HW218810   1.972   3.257   3.665
 5971SOL     OW18811   2.803   6.574   3.045
 5971SOL    HW118812   2.738   6.505   3.013
 5971SOL    HW218813   2.896   6.548   3.019
 5972SOL     OW18814   5.259   0.235   1.850
 5972SOL    HW118815   5.331   0.229   1.781
 5972SOL    HW218816   5.169   0.239   1.806
 5973SOL     OW18817   1.541   4.355   2.994
 5973SOL    HW118818   1.563   4.313   2.905
 5973SOL    HW218819   1.459   4.412   2.984
 5974SOL     OW18820   1.180   3.497   6.230
 5974SOL    HW118821   1.244   3.421   6.223
 5974SOL    HW218822   1.104   3.472   6.290
 5975SOL     OW18823   2.516   2.659   6.657
 5975SOL    HW118824   2.420   2.675   6.633
 5975SOL    HW218825   2.572   2.735   6.625
 5976SOL     OW18826   3.317   2.962   4.696
 5976SOL    HW118827   3.307   2.909   4.612
 5976SOL    HW218828   3.368   2.909   4.763
 5977SOL     OW18829   0.507   3.669   3.475
 5977SOL    HW118830   0.443   3.610   3.427
 5977SOL    HW218831   0.521   3.754   3.422
 5978SOL     OW18832   4.861   5.414   2.302
 5978SOL    HW118833   4.936   5.478   2.283
 5978SOL    HW218834   4.797   5.414   2.225
 5979SOL     OW18835   0.768   1.329   1.805
 5979SOL    HW118836   0.689   1.375   1.848
 5979SOL    HW218837   0.739   1.240   1.770
 5980SOL     OW18838   6.464   3.318   6.079
 5980SOL    HW118839   6.379   3.267   6.089
 5980SOL    HW218840   6.475   3.346   5.984
 5981SOL     OW18841   4.307   1.909   1.137
 5981SOL    HW118842   4.387   1.969   1.128
 5981SOL    HW218843   4.224   1.964   1.130
 5982SOL     OW18844   5.954   2.089   0.033
 5982SOL    HW118845   6.026   2.140   0.080
 5982SOL    HW218846   5.995   2.020   6.994
 5983SOL     OW18847   0.937   0.667   4.620
 5983SOL    HW118848   0.846   0.627   4.605
 5983SOL    HW218849   0.976   0.693   4.532
 5984SOL     OW18850   0.430   6.802   5.838
 5984SOL    HW118851   0.400   6.754   5.756
 5984SOL    HW218852   0.446   6.736   5.911
 5985SOL     OW18853   4.997   3.196   4.507
 5985SOL    HW118854   5.071   3.201   4.439
 5985SOL    HW218855   4.969   3.101   4.519
 5986SOL     OW18856   3.140   3.029   2.878
 5986SOL    HW118857   3.111   2.999   2.786
 5986SOL    HW218858   3.227   2.985   2.901
 5987SOL     OW18859   4.795   0.109   5.825
 5987SOL    HW118860   4.697   0.092   5.838
 5987SOL    HW218861   4.820   0.091   5.730
 5988SOL     OW18862   3.605   0.313   5.459
 5988SOL    HW118863   3.625   0.315   5.361
 5988SOL    HW218864   3.519   0.361   5.477
 5989SOL     OW18865   2.762   1.997   6.970
 5989SOL    HW118866   2.763   2.084   6.920
 5989SOL    HW218867   2.801   1.926   6.912
 5990SOL     OW18868   3.503   5.057   2.346
 5990SOL    HW118869   3.410   5.041   2.312
 5990SOL    HW218870   3.501   5.126   2.418
 5991SOL     OW18871   2.842   5.372   3.927
 5991SOL    HW118872   2.937   5.377   3.896
 5991SOL    HW218873   2.831   5.291   3.985
 5992SOL     OW18874   3.962   2.177   4.082
 5992SOL    HW118875   3.881   2.231   4.058
 5992SOL    HW218876   3.962   2.159   4.181
 5993SOL     OW18877   3.440   5.530   3.864
 5993SOL    HW118878   3.504   5.562   3.935
 5993SOL    HW218879   3.351   5.574   3.877
 5994SOL     OW18880   6.250   2.047   1.481
 5994SOL    HW118881   6.345   2.031   1.508
 5994SOL    HW218882   6.190   1.985   1.532
 5995SOL     OW18883   0.819   4.364   1.270
 5995SOL    HW118884   0.732   4.412   1.281
 5995SOL    HW218885   0.852   4.332   1.358
 5996SOL     OW18886   0.781   5.649   5.455
 5996SOL    HW118887   0.871   5.681   5.425
 5996SOL    HW218888   0.734   5.723   5.503
 5997SOL     OW18889   0.570   0.553   1.448
 5997SOL    HW118890   0.489   0.563   1.506
 5997SOL    HW218891   0.602   0.644   1.421
 5998SOL     OW18892   4.274   2.306   3.567
 5998SOL    HW118893   4.271   2.317   3.468
 5998SOL    HW218894   4.185   2.274   3.600
 5999SOL     OW18895   2.361   2.568   3.302
 5999SOL    HW118896   2.383   2.499   3.371
 5999SOL    HW218897   2.355   2.658   3.346
 6000SOL     OW18898   4.793   0.224   3.320
 6000SOL    HW118899   4.829   0.138   3.355
 6000SOL    HW218900   4.864   0.295   3.328
 6001SOL     OW18901   6.370   2.087   0.097
 6001SOL    HW118902   6.305   2.013   0.115
 6001SOL    HW218903   6.463   2.054   0.112
 6002SOL     OW18904   1.814   0.523   1.935
 6002SOL    HW118905   1.724   0.564   1.920
 6002SOL    HW218906   1.859   0.571   2.011
 6003SOL     OW18907   5.494   4.406   3.735
 6003SOL    HW118908   5.444   4.387   3.819
 6003SOL    HW218909   5.438   4.381   3.656
 6004SOL     OW18910   6.992   3.308   1.779
 6004SOL    HW118911   6.969   3.250   1.857
 6004SOL    HW218912   0.020   3.255   1.710
 6005SOL     OW18913   2.038   6.077   2.158
 6005SOL    HW118914   2.063   5.994   2.108
 6005SOL    HW218915   1.988   6.139   2.098
 6006SOL     OW18916   2.203   5.663   0.715
 6006SOL    HW118917   2.203   5.738   0.648
 6006SOL    HW218918   2.193   5.701   0.807
 6007SOL     OW18919   4.854   3.108   4.987
 6007SOL    HW118920   4.868   3.017   4.948
 6007SOL    HW218921   4.943   3.154   4.995
 6008SOL     OW18922   4.694   3.974   1.387
 6008SOL    HW118923   4.757   3.896   1.389
 6008SOL    HW218924   4.741   4.054   1.424
 6009SOL     OW18925   4.044   1.379   4.874
 6009SOL    HW118926   4.018   1.470   4.904
 6009SOL    HW218927   3.984   1.311   4.916
 6010SOL     OW18928   1.200   4.052   3.259
 6010SOL    HW118929   1.278   4.097   3.302
 6010SOL    HW218930   1.223   4.028   3.165
 6011SOL     OW18931   6.774   2.697   1.859
 6011SOL    HW118932   6.756   2.676   1.955
 6011SOL    HW218933   6.732   2.627   1.801
 6012SOL     OW18934   0.415   2.741   1.690
 6012SOL    HW118935   0.407   2.643   1.672
 6012SOL    HW218936   0.477   2.782   1.623
 6013SOL     OW18937   5.806   0.663   2.375
 6013SOL    HW118938   5.717   0.648   2.331
 6013SOL    HW218939   5.872   0.694   2.306
 6014SOL     OW18940   6.174   0.356   1.250
 6014SOL    HW118941   6.218   0.422   1.311
 6014SOL    HW218942   6.225   0.350   1.164
 6015SOL     OW18943   5.738   0.372   4.601
 6015SOL    HW118944   5.822   0.407   4.644
 6015SOL    HW218945   5.737   0.272   4.608
 6016SOL     OW18946   2.172   6.874   5.155
 6016SOL    HW118947   2.075   6.895   5.144
 6016SOL    HW218948   2.197   6.877   5.252
 6017SOL     OW18949   0.090   3.706   2.553
 6017SOL    HW118950   7.011   3.693   2.564
 6017SOL    HW218951   0.135   3.617   2.559
 6018SOL     OW18952   2.704   5.193   1.422
 6018SOL    HW118953   2.656   5.113   1.386
 6018SOL    HW218954   2.798   5.167   1.444
 6019SOL     OW18955   5.771   6.179   3.267
 6019SOL    HW118956   5.843   6.248   3.262
 6019SOL    HW218957   5.710   6.199   3.344
 6020SOL     OW18958   2.614   6.853   2.765
 6020SOL    HW118959   2.616   6.952   2.756
 6020SOL    HW218960   2.526   6.818   2.731
 6021SOL     OW18961   3.948   0.758   4.114
 6021SOL    HW118962   3.992   0.805   4.038
 6021SOL    HW218963   3.883   0.819   4.158
 6022SOL     OW18964   4.845   0.871   5.766
 6022SOL    HW118965   4.924   0.901   5.820
 6022SOL    HW218966   4.772   0.841   5.829
 6023SOL     OW18967   0.645   2.143   2.563
 6023SOL    HW118968   0.597   2.105   2.642
 6023SOL    HW218969   0.643   2.076   2.488
 6024SOL     OW18970   0.143   5.708   2.755
 6024SOL    HW118971   0.127   5.617   2.792
 6024SOL    HW218972   0.096   5.718   2.668
 6025SOL     OW18973   4.009   2.129   2.637
 6025SOL    HW118974   4.078   2.190   2.598
 6025SOL    HW218975   3.991   2.054   2.573
 6026SOL     OW18976   0.445   4.166   5.752
 6026SOL    HW118977   0.466   4.114   5.668
 6026SOL    HW218978   0.521   4.158   5.816
 6027SOL     OW18979   3.565   3.239   0.203
 6027SOL    HW118980   3.556   3.226   0.105
 6027SOL    HW218981   3.495   3.186   0.251
 6028SOL     OW18982   1.074   4.426   0.181
 6028SOL    HW118983   0.980   4.396   0.165
 6028SOL    HW218984   1.075   4.495   0.254
 6029SOL     OW18985   0.785   4.525   2.087
 6029SOL    HW118986   0.748   4.438   2.053
 6029SOL    HW218987   0.710   4.590   2.100
 6030SOL     OW18988   1.842   6.664   1.160
 6030SOL    HW118989   1.874   6.654   1.255
 6030SOL    HW218990   1.859   6.579   1.110
 6031SOL     OW18991   4.973   0.546   4.225
 6031SOL    HW118992   4.892   0.605   4.222
 6031SOL    HW218993   5.008   0.542   4.318
 6032SOL     OW18994   0.395   3.588   2.593
 6032SOL    HW118995   0.323   3.547   2.649
 6032SOL    HW218996   0.463   3.631   2.652
 6033SOL     OW18997   0.308   6.603   4.726
 6033SOL    HW118998   0.216   6.597   4.765
 6033SOL    HW218999   0.361   6.671   4.778
 6034SOL     OW19000   2.416   4.408   5.191
 6034SOL    HW119001   2.435   4.322   5.240
 6034SOL    HW219002   2.410   4.389   5.093
 6035SOL     OW19003   5.348   6.958   3.928
 6035SOL    HW119004   5.334   0.036   3.933
 6035SOL    HW219005   5.355   6.930   3.832
 6036SOL     OW19006   0.230   0.664   4.270
 6036SOL    HW119007   0.196   0.757   4.285
 6036SOL    HW219008   0.161   0.611   4.220
 6037SOL     OW19009   0.482   5.572   4.957
 6037SOL    HW119010   0.449   5.640   5.022
 6037SOL    HW219011   0.523   5.619   4.879
 6038SOL     OW19012   6.070   3.818   6.737
 6038SOL    HW119013   6.148   3.763   6.709
 6038SOL    HW219014   6.052   3.889   6.669
 6039SOL     OW19015   4.111   3.289   4.579
 6039SOL    HW119016   4.135   3.192   4.575
 6039SOL    HW219017   4.098   3.317   4.674
 6040SOL     OW19018   1.508   1.151   0.905
 6040SOL    HW119019   1.605   1.175   0.893
 6040SOL    HW219020   1.477   1.184   0.994
 6041SOL     OW19021   0.866   2.564   0.381
 6041SOL    HW119022   0.904   2.608   0.299
 6041SOL    HW219023   0.801   2.626   0.424
 6042SOL     OW19024   5.613   5.733   4.856
 6042SOL    HW119025   5.543   5.713   4.788
 6042SOL    HW219026   5.632   5.651   4.910
 6043SOL     OW19027   6.875   4.397   4.224
 6043SOL    HW119028   6.834   4.308   4.203
 6043SOL    HW219029   6.951   4.384   4.288
 6044SOL     OW19030   1.330   0.615   1.380
 6044SOL    HW119031   1.389   0.696   1.378
 6044SOL    HW219032   1.241   0.639   1.418
 6045SOL     OW19033   6.589   4.202   0.841
 6045SOL    HW119034   6.625   4.113   0.816
 6045SOL    HW219035   6.566   4.203   0.938
 6046SOL     OW19036   2.353   3.309   0.519
 6046SOL    HW119037   2.332   3.352   0.607
 6046SOL    HW219038   2.285   3.338   0.451
 6047SOL     OW19039   0.323   6.264   4.692
 6047SOL    HW119040   0.306   6.213   4.776
 6047SOL    HW219041   0.337   6.360   4.713
 6048SOL     OW19042   5.065   6.084   4.857
 6048SOL    HW119043   5.055   6.128   4.768
 6048SOL    HW219044   4.975   6.072   4.898
 6049SOL     OW19045   6.430   5.722   0.229
 6049SOL    HW119046   6.526   5.696   0.221
 6049SOL    HW219047   6.423   5.820   0.245
 6050SOL     OW19048   5.625   4.837   5.729
 6050SOL    HW119049   5.630   4.896   5.649
 6050SOL    HW219050   5.716   4.801   5.749
 6051SOL     OW19051   2.751   1.637   3.254
 6051SOL    HW119052   2.660   1.669   3.228
 6051SOL    HW219053   2.770   1.663   3.349
 6052SOL     OW19054   6.564   1.558   0.437
 6052SOL    HW119055   6.557   1.475   0.381
 6052SOL    HW219056   6.474   1.579   0.475
 6053SOL     OW19057   2.145   0.210   6.188
 6053SOL    HW119058   2.178   0.224   6.095
 6053SOL    HW219059   2.157   0.115   6.214
 6054SOL     OW19060   1.947   4.234   6.324
 6054SOL    HW119061   1.931   4.262   6.229
 6054SOL    HW219062   1.902   4.298   6.386
 6055SOL     OW19063   5.201   0.222   3.571
 6055SOL    HW119064   5.267   0.280   3.523
 6055SOL    HW219065   5.159   0.273   3.646
 6056SOL     OW19066   5.140   3.592   6.145
 6056SOL    HW119067   5.199   3.627   6.072
 6056SOL    HW219068   5.065   3.656   6.160
 6057SOL     OW19069   3.502   0.692   6.291
 6057SOL    HW119070   3.510   0.613   6.353
 6057SOL    HW219071   3.591   0.736   6.283
 6058SOL     OW19072   5.341   1.858   4.948
 6058SOL    HW119073   5.252   1.900   4.965
 6058SOL    HW219074   5.329   1.772   4.897
 6059SOL     OW19075   6.468   6.433   6.033
 6059SOL    HW119076   6.478   6.464   6.128
 6059SOL    HW219077   6.371   6.418   6.013
 6060SOL     OW19078   3.196   6.519   6.511
 6060SOL    HW119079   3.132   6.484   6.579
 6060SOL    HW219080   3.166   6.609   6.480
 6061SOL     OW19081   1.877   1.757   6.891
 6061SOL    HW119082   1.816   1.732   6.966
 6061SOL    HW219083   1.962   1.793   6.929
 6062SOL     OW19084   1.110   0.134   4.079
 6062SOL    HW119085   1.208   0.124   4.091
 6062SOL    HW219086   1.081   0.224   4.112
 6063SOL     OW19087   5.402   5.957   0.281
 6063SOL    HW119088   5.460   5.929   0.205
 6063SOL    HW219089   5.341   6.030   0.251
 6064SOL     OW19090   0.685   5.440   2.606
 6064SOL    HW119091   0.712   5.536   2.612
 6064SOL    HW219092   0.727   5.399   2.525
 6065SOL     OW19093   5.913   6.600   1.767
 6065SOL    HW119094   6.001   6.559   1.790
 6065SOL    HW219095   5.859   6.535   1.712
 6066SOL     OW19096   4.660   1.970   6.110
 6066SOL    HW119097   4.581   2.019   6.074
 6066SOL    HW219098   4.647   1.953   6.208
 6067SOL     OW19099   4.922   2.353   6.624
 6067SOL    HW119100   4.977   2.314   6.698
 6067SOL    HW219101   4.894   2.279   6.563
 6068SOL     OW19102   5.534   1.844   5.779
 6068SOL    HW119103   5.446   1.811   5.815
 6068SOL    HW219104   5.548   1.938   5.809
 6069SOL     OW19105   5.990   4.396   4.644
 6069SOL    HW119106   6.055   4.356   4.579
 6069SOL    HW219107   5.963   4.327   4.712
 6070SOL     OW19108   4.338   2.790   6.534
 6070SOL    HW119109   4.422   2.833   6.566
 6070SOL    HW219110   4.353   2.692   6.519
 6071SOL     OW19111   5.023   6.790   5.497
 6071SOL    HW119112   4.939   6.764   5.545
 6071SOL    HW219113   5.102   6.756   5.547
 6072SOL     OW19114   0.044   1.674   0.715
 6072SOL    HW119115   6.966   1.685   0.706
 6072SOL    HW219116   0.090   1.725   0.642
 6073SOL     OW19117   6.729   1.837   1.059
 6073SOL    HW119118   6.791   1.760   1.051
 6073SOL    HW219119   6.653   1.826   0.995
 6074SOL     OW19120   0.705   0.267   5.425
 6074SOL    HW119121   0.719   0.331   5.501
 6074SOL    HW219122   0.739   0.177   5.452
 6075SOL     OW19123   4.532   4.138   6.567
 6075SOL    HW119124   4.436   4.110   6.573
 6075SOL    HW219125   4.562   4.173   6.655
 6076SOL     OW19126   2.800   0.421   4.170
 6076SOL    HW119127   2.713   0.429   4.121
 6076SOL    HW219128   2.873   0.456   4.111
 6077SOL     OW19129   5.324   4.973   2.678
 6077SOL    HW119130   5.343   5.055   2.731
 6077SOL    HW219131   5.330   4.892   2.737
 6078SOL     OW19132   2.159   4.430   3.710
 6078SOL    HW119133   2.154   4.508   3.771
 6078SOL    HW219134   2.209   4.355   3.754
 6079SOL     OW19135   2.777   1.593   0.560
 6079SOL    HW119136   2.830   1.523   0.609
 6079SOL    HW219137   2.700   1.549   0.514
 6080SOL     OW19138   5.959   2.713   3.065
 6080SOL    HW119139   6.040   2.704   3.124
 6080SOL    HW219140   5.886   2.758   3.116
 6081SOL     OW19141   0.807   4.010   2.868
 6081SOL    HW119142   0.739   3.952   2.823
 6081SOL    HW219143   0.846   3.961   2.946
 6082SOL     OW19144   3.183   1.644   4.289
 6082SOL    HW119145   3.170   1.743   4.282
 6082SOL    HW219146   3.138   1.610   4.371
 6083SOL     OW19147   1.935   0.034   0.407
 6083SOL    HW119148   1.992   0.064   0.484
 6083SOL    HW219149   1.841   0.065   0.421
 6084SOL     OW19150   0.363   5.255   5.677
 6084SOL    HW119151   0.295   5.221   5.613
 6084SOL    HW219152   0.391   5.347   5.651
 6085SOL     OW19153   5.341   5.440   1.609
 6085SOL    HW119154   5.316   5.361   1.664
 6085SOL    HW219155   5.429   5.423   1.564
 6086SOL     OW19156   2.772   1.670   2.789
 6086SOL    HW119157   2.807   1.702   2.877
 6086SOL    HW219158   2.848   1.637   2.733
 6087SOL     OW19159   3.484   0.653   1.034
 6087SOL    HW119160   3.499   0.582   0.965
 6087SOL    HW219161   3.532   0.736   1.007
 6088SOL     OW19162   0.243   6.929   5.606
 6088SOL    HW119163   0.336   6.903   5.582
 6088SOL    HW219164   0.240   6.957   5.702
 6089SOL     OW19165   6.512   3.793   0.634
 6089SOL    HW119166   6.521   3.865   0.566
 6089SOL    HW219167   6.422   3.750   0.625
 6090SOL     OW19168   0.578   5.948   4.001
 6090SOL    HW119169   0.531   5.909   3.922
 6090SOL    HW219170   0.512   5.999   4.057
 6091SOL     OW19171   6.435   2.078   1.234
 6091SOL    HW119172   6.364   2.141   1.204
 6091SOL    HW219173   6.440   2.077   1.334
 6092SOL     OW19174   1.453   3.176   0.869
 6092SOL    HW119175   1.521   3.198   0.938
 6092SOL    HW219176   1.421   3.260   0.825
 6093SOL     OW19177   1.105   3.906   0.542
 6093SOL    HW119178   1.136   3.841   0.473
 6093SOL    HW219179   1.005   3.905   0.547
 6094SOL     OW19180   0.757   1.408   0.829
 6094SOL    HW119181   0.713   1.468   0.762
 6094SOL    HW219182   0.838   1.367   0.788
 6095SOL     OW19183   6.847   3.816   4.999
 6095SOL    HW119184   6.823   3.831   5.095
 6095SOL    HW219185   6.930   3.867   4.978
 6096SOL     OW19186   4.712   1.629   2.824
 6096SOL    HW119187   4.732   1.672   2.912
 6096SOL    HW219188   4.698   1.530   2.838
 6097SOL     OW19189   3.227   2.121   2.169
 6097SOL    HW119190   3.208   2.210   2.210
 6097SOL    HW219191   3.151   2.095   2.109
 6098SOL     OW19192   1.394   0.451   6.472
 6098SOL    HW119193   1.492   0.473   6.473
 6098SOL    HW219194   1.346   0.512   6.536
 6099SOL     OW19195   5.984   4.445   5.262
 6099SOL    HW119196   5.926   4.385   5.317
 6099SOL    HW219197   6.073   4.456   5.306
 6100SOL     OW19198   6.726   2.376   0.078
 6100SOL    HW119199   6.725   2.320   0.161
 6100SOL    HW219200   6.643   2.431   0.074
 6101SOL     OW19201   6.080   0.188   3.689
 6101SOL    HW119202   6.075   0.181   3.589
 6101SOL    HW219203   6.153   0.128   3.723
 6102SOL     OW19204   3.082   6.712   5.016
 6102SOL    HW119205   3.177   6.697   4.988
 6102SOL    HW219206   3.068   6.809   5.034
 6103SOL     OW19207   5.969   1.357   5.235
 6103SOL    HW119208   5.920   1.432   5.280
 6103SOL    HW219209   6.057   1.343   5.280
 6104SOL     OW19210   1.276   3.395   0.769
 6104SOL    HW119211   1.351   3.453   0.739
 6104SOL    HW219212   1.189   3.435   0.740
 6105SOL     OW19213   3.356   4.922   4.795
 6105SOL    HW119214   3.264   4.884   4.782
 6105SOL    HW219215   3.403   4.927   4.707
 6106SOL     OW19216   2.977   4.885   4.123
 6106SOL    HW119217   2.950   4.791   4.145
 6106SOL    HW219218   3.028   4.924   4.199
 6107SOL     OW19219   2.064   5.115   5.333
 6107SOL    HW119220   2.160   5.087   5.338
 6107SOL    HW219221   2.018   5.094   5.419
 6108SOL     OW19222   5.730   1.718   4.433
 6108SOL    HW119223   5.656   1.755   4.490
 6108SOL    HW219224   5.812   1.707   4.489
 6109SOL     OW19225   6.793   4.033   1.983
 6109SOL    HW119226   6.716   3.975   1.958
 6109SOL    HW219227   6.784   4.061   2.079
 6110SOL     OW19228   3.396   2.122   3.299
 6110SOL    HW119229   3.400   2.052   3.370
 6110SOL    HW219230   3.488   2.137   3.263
 6111SOL     OW19231   0.356   4.625   3.618
 6111SOL    HW119232   0.437   4.567   3.607
 6111SOL    HW219233   0.317   4.611   3.709
 6112SOL     OW19234   1.238   2.427   0.582
 6112SOL    HW119235   1.139   2.411   0.584
 6112SOL    HW219236   1.282   2.371   0.653
 6113SOL     OW19237   1.700   5.207   5.310
 6113SOL    HW119238   1.781   5.263   5.294
 6113SOL    HW219239   1.656   5.186   5.222
 6114SOL     OW19240   5.019   4.650   0.939
 6114SOL    HW119241   5.035   4.667   0.841
 6114SOL    HW219242   4.996   4.736   0.985
 6115SOL     OW19243   6.537   4.378   2.355
 6115SOL    HW119244   6.566   4.315   2.428
 6115SOL    HW219245   6.481   4.451   2.395
 6116SOL     OW19246   3.542   2.020   1.115
 6116SOL    HW119247   3.574   2.103   1.069
 6116SOL    HW219248   3.454   2.039   1.159
 6117SOL     OW19249   5.713   6.592   4.029
 6117SOL    HW119250   5.806   6.558   4.022
 6117SOL    HW219251   5.715   6.691   4.045
 6118SOL     OW19252   6.384   0.438   3.386
 6118SOL    HW119253   6.315   0.399   3.447
 6118SOL    HW219254   6.453   0.369   3.365
 6119SOL     OW19255   5.863   5.775   4.340
 6119SOL    HW119256   5.824   5.736   4.423
 6119SOL    HW219257   5.837   5.719   4.262
 6120SOL     OW19258   2.328   1.827   3.483
 6120SOL    HW119259   2.271   1.900   3.445
 6120SOL    HW219260   2.407   1.867   3.528
 6121SOL     OW19261   6.757   1.791   4.536
 6121SOL    HW119262   6.761   1.758   4.442
 6121SOL    HW219263   6.746   1.713   4.598
 6122SOL     OW19264   3.996   6.443   4.041
 6122SOL    HW119265   3.987   6.385   3.960
 6122SOL    HW219266   4.088   6.432   4.079
 6123SOL     OW19267   5.827   1.615   2.723
 6123SOL    HW119268   5.887   1.552   2.673
 6123SOL    HW219269   5.741   1.569   2.744
 6124SOL     OW19270   2.999   0.155   4.675
 6124SOL    HW119271   3.039   0.064   4.677
 6124SOL    HW219272   2.922   0.156   4.611
 6125SOL     OW19273   0.838   4.458   2.361
 6125SOL    HW119274   0.827   4.358   2.363
 6125SOL    HW219275   0.821   4.492   2.268
 6126SOL     OW19276   3.923   6.026   2.463
 6126SOL    HW119277   3.924   6.122   2.433
 6126SOL    HW219278   3.831   6.003   2.496
 6127SOL     OW19279   2.041   4.968   1.645
 6127SOL    HW119280   2.046   4.871   1.667
 6127SOL    HW219281   2.028   4.980   1.547
 6128SOL     OW19282   5.023   3.200   1.216
 6128SOL    HW119283   4.960   3.138   1.263
 6128SOL    HW219284   5.015   3.187   1.117
 6129SOL     OW19285   6.257   3.753   3.260
 6129SOL    HW119286   6.350   3.730   3.233
 6129SOL    HW219287   6.225   3.834   3.209
 6130SOL     OW19288   5.118   4.465   2.216
 6130SOL    HW119289   5.215   4.472   2.238
 6130SOL    HW219290   5.085   4.373   2.238
 6131SOL     OW19291   6.271   1.518   5.014
 6131SOL    HW119292   6.229   1.442   4.964
 6131SOL    HW219293   6.318   1.482   5.095
 6132SOL     OW19294   6.440   2.724   0.448
 6132SOL    HW119295   6.444   2.678   0.536
 6132SOL    HW219296   6.440   2.823   0.462
 6133SOL     OW19297   1.204   4.553   0.778
 6133SOL    HW119298   1.152   4.478   0.820
 6133SOL    HW219299   1.252   4.519   0.697
 6134SOL     OW19300   4.599   3.643   0.059
 6134SOL    HW119301   4.515   3.651   0.006
 6134SOL    HW219302   4.608   3.722   0.120
 6135SOL     OW19303   5.521   0.044   2.630
 6135SOL    HW119304   5.455   7.016   2.572
 6135SOL    HW219305   5.577   6.997   2.678
 6136SOL     OW19306   0.659   1.172   2.526
 6136SOL    HW119307   0.630   1.111   2.452
 6136SOL    HW219308   0.733   1.231   2.493
 6137SOL     OW19309   3.052   6.926   6.523
 6137SOL    HW119310   2.967   6.937   6.575
 6137SOL    HW219311   3.067   7.007   6.467
 6138SOL     OW19312   5.088   0.164   3.039
 6138SOL    HW119313   5.031   0.090   3.075
 6138SOL    HW219314   5.100   0.151   2.941
 6139SOL     OW19315   2.299   6.058   3.713
 6139SOL    HW119316   2.218   6.010   3.679
 6139SOL    HW219317   2.377   5.995   3.714
 6140SOL     OW19318   1.607   5.121   1.178
 6140SOL    HW119319   1.517   5.095   1.213
 6140SOL    HW219320   1.618   5.221   1.187
 6141SOL     OW19321   6.693   5.962   5.451
 6141SOL    HW119322   6.785   5.999   5.466
 6141SOL    HW219323   6.647   5.950   5.539
 6142SOL     OW19324   0.561   4.203   3.317
 6142SOL    HW119325   0.559   4.147   3.235
 6142SOL    HW219326   0.632   4.273   3.308
 6143SOL     OW19327   6.356   4.265   6.383
 6143SOL    HW119328   6.354   4.166   6.398
 6143SOL    HW219329   6.450   4.293   6.362
 6144SOL     OW19330   0.030   4.609   4.459
 6144SOL    HW119331   0.041   4.591   4.556
 6144SOL    HW219332   0.118   4.632   4.418
 6145SOL     OW19333   5.733   5.265   3.352
 6145SOL    HW119334   5.787   5.181   3.347
 6145SOL    HW219335   5.692   5.273   3.443
 6146SOL     OW19336   5.749   2.585   3.525
 6146SOL    HW119337   5.747   2.594   3.625
 6146SOL    HW219338   5.670   2.532   3.495
 6147SOL     OW19339   1.227   4.217   2.800
 6147SOL    HW119340   1.144   4.211   2.744
 6147SOL    HW219341   1.307   4.202   2.742
 6148SOL     OW19342   6.043   5.736   3.053
 6148SOL    HW119343   6.098   5.805   3.099
 6148SOL    HW219344   5.949   5.741   3.085
 6149SOL     OW19345   1.738   6.179   4.951
 6149SOL    HW119346   1.728   6.080   4.959
 6149SOL    HW219347   1.835   6.202   4.947
 6150SOL     OW19348   4.440   6.227   6.099
 6150SOL    HW119349   4.476   6.144   6.058
 6150SOL    HW219350   4.506   6.264   6.165
 6151SOL     OW19351   4.985   0.502   5.651
 6151SOL    HW119352   5.021   0.505   5.745
 6151SOL    HW219353   4.885   0.498   5.655
 6152SOL     OW19354   6.676   4.475   5.392
 6152SOL    HW119355   6.724   4.444   5.310
 6152SOL    HW219356   6.698   4.570   5.410
 6153SOL     OW19357   4.271   4.806   6.499
 6153SOL    HW119358   4.233   4.767   6.415
 6153SOL    HW219359   4.235   4.899   6.511
 6154SOL     OW19360   5.258   3.216   3.876
 6154SOL    HW119361   5.277   3.215   3.778
 6154SOL    HW219362   5.322   3.155   3.923
 6155SOL     OW19363   2.231   4.790   4.731
 6155SOL    HW119364   2.233   4.767   4.828
 6155SOL    HW219365   2.140   4.823   4.706
 6156SOL     OW19366   5.955   0.483   4.723
 6156SOL    HW119367   5.908   0.559   4.768
 6156SOL    HW219368   6.038   0.517   4.678
 6157SOL     OW19369   1.023   1.478   3.919
 6157SOL    HW119370   1.074   1.440   3.842
 6157SOL    HW219371   0.931   1.438   3.921
 6158SOL     OW19372   5.541   6.752   0.411
 6158SOL    HW119373   5.496   6.765   0.323
 6158SOL    HW219374   5.487   6.690   0.468
 6159SOL     OW19375   5.091   3.510   6.830
 6159SOL    HW119376   5.189   3.523   6.845
 6159SOL    HW219377   5.076   3.458   6.746
 6160SOL     OW19378   6.497   4.445   0.691
 6160SOL    HW119379   6.561   4.440   0.615
 6160SOL    HW219380   6.500   4.359   0.742
 6161SOL     OW19381   6.087   0.060   6.158
 6161SOL    HW119382   6.096   0.031   6.063
 6161SOL    HW219383   6.176   0.055   6.203
 6162SOL     OW19384   5.510   4.922   4.273
 6162SOL    HW119385   5.486   4.987   4.345
 6162SOL    HW219386   5.606   4.897   4.282
 6163SOL     OW19387   6.795   4.039   2.289
 6163SOL    HW119388   6.880   3.994   2.261
 6163SOL    HW219389   6.737   3.973   2.337
 6164SOL     OW19390   4.715   2.873   0.547
 6164SOL    HW119391   4.735   2.968   0.523
 6164SOL    HW219392   4.790   2.835   0.601
 6165SOL     OW19393   3.960   0.353   1.595
 6165SOL    HW119394   3.989   0.354   1.690
 6165SOL    HW219395   3.863   0.377   1.590
 6166SOL     OW19396   3.867   1.198   0.838
 6166SOL    HW119397   3.892   1.218   0.933
 6166SOL    HW219398   3.911   1.113   0.809
 6167SOL     OW19399   0.039   5.504   3.789
 6167SOL    HW119400   0.085   5.507   3.878
 6167SOL    HW219401   0.076   5.429   3.735
 6168SOL     OW19402   0.500   3.040   0.929
 6168SOL    HW119403   0.589   3.027   0.974
 6168SOL    HW219404   0.462   3.129   0.955
 6169SOL     OW19405   1.963   4.352   1.486
 6169SOL    HW119406   1.886   4.410   1.508
 6169SOL    HW219407   2.047   4.406   1.486
 6170SOL     OW19408   6.688   1.957   3.278
 6170SOL    HW119409   6.616   1.889   3.265
 6170SOL    HW219410   6.647   2.045   3.300
 6171SOL     OW19411   6.293   1.099   5.794
 6171SOL    HW119412   6.230   1.023   5.783
 6171SOL    HW219413   6.308   1.116   5.892
 6172SOL     OW19414   1.118   4.767   4.273
 6172SOL    HW119415   1.076   4.730   4.355
 6172SOL    HW219416   1.194   4.827   4.299
 6173SOL     OW19417   5.564   6.155   3.048
 6173SOL    HW119418   5.616   6.180   2.966
 6173SOL    HW219419   5.614   6.187   3.129
 6174SOL     OW19420   6.569   2.430   2.689
 6174SOL    HW119421   6.555   2.528   2.705
 6174SOL    HW219422   6.661   2.404   2.720
 6175SOL     OW19423   3.853   1.616   6.871
 6175SOL    HW119424   3.782   1.599   6.804
 6175SOL    HW219425   3.923   1.676   6.832
 6176SOL     OW19426   2.870   4.117   6.179
 6176SOL    HW119427   2.950   4.152   6.227
 6176SOL    HW219428   2.790   4.124   6.238
 6177SOL     OW19429   5.591   5.388   1.472
 6177SOL    HW119430   5.564   5.298   1.437
 6177SOL    HW219431   5.690   5.399   1.463
 6178SOL     OW19432   4.001   4.870   2.157
 6178SOL    HW119433   4.021   4.854   2.060
 6178SOL    HW219434   3.911   4.834   2.179
 6179SOL     OW19435   5.460   5.207   5.299
 6179SOL    HW119436   5.521   5.136   5.262
 6179SOL    HW219437   5.395   5.165   5.362
 6180SOL     OW19438   2.152   4.036   6.322
 6180SOL    HW119439   2.109   3.946   6.312
 6180SOL    HW219440   2.082   4.106   6.328
 6181SOL     OW19441   6.093   6.242   0.022
 6181SOL    HW119442   6.065   6.337   0.011
 6181SOL    HW219443   6.168   6.221   6.980
 6182SOL     OW19444   2.781   2.476   6.694
 6182SOL    HW119445   2.709   2.538   6.724
 6182SOL    HW219446   2.741   2.389   6.666
 6183SOL     OW19447   0.229   0.799   0.568
 6183SOL    HW119448   0.259   0.727   0.631
 6183SOL    HW219449   0.147   0.843   0.605
 6184SOL     OW19450   3.135   6.783   5.309
 6184SOL    HW119451   3.233   6.793   5.296
 6184SOL    HW219452   3.087   6.851   5.253
 6185SOL     OW19453   3.552   3.049   5.349
 6185SOL    HW119454   3.491   3.088   5.281
 6185SOL    HW219455   3.636   3.104   5.354
 6186SOL     OW19456   1.237   2.191   2.751
 6186SOL    HW119457   1.147   2.229   2.776
 6186SOL    HW219458   1.305   2.224   2.816
 6187SOL     OW19459   3.178   1.743   6.331
 6187SOL    HW119460   3.250   1.697   6.280
 6187SOL    HW219461   3.167   1.837   6.296
 6188SOL     OW19462   1.975   1.540   5.668
 6188SOL    HW119463   1.926   1.508   5.749
 6188SOL    HW219464   1.945   1.487   5.588
 6189SOL     OW19465   6.647   5.158   0.171
 6189SOL    HW119466   6.586   5.163   0.251
 6189SOL    HW219467   6.709   5.235   0.172
 6190SOL     OW19468   0.426   2.691   3.733
 6190SOL    HW119469   0.502   2.722   3.676
 6190SOL    HW219470   0.454   2.694   3.830
 6191SOL     OW19471   2.545   4.078   0.702
 6191SOL    HW119472   2.566   4.175   0.693
 6191SOL    HW219473   2.468   4.055   0.642
 6192SOL     OW19474   3.115   1.704   1.528
 6192SOL    HW119475   3.021   1.673   1.542
 6192SOL    HW219476   3.163   1.641   1.467
 6193SOL     OW19477   3.954   6.049   6.824
 6193SOL    HW119478   4.046   6.061   6.863
 6193SOL    HW219479   3.919   5.959   6.850
 6194SOL     OW19480   5.213   0.124   6.081
 6194SOL    HW119481   5.150   0.051   6.105
 6194SOL    HW219482   5.291   0.086   6.030
 6195SOL     OW19483   4.873   5.913   5.700
 6195SOL    HW119484   4.800   5.876   5.757
 6195SOL    HW219485   4.850   5.901   5.604
 6196SOL     OW19486   6.159   3.485   3.408
 6196SOL    HW119487   6.201   3.402   3.445
 6196SOL    HW219488   6.104   3.463   3.328
 6197SOL     OW19489   1.130   4.997   1.101
 6197SOL    HW119490   1.173   4.968   1.187
 6197SOL    HW219491   1.067   4.926   1.069
 6198SOL     OW19492   6.135   1.272   6.417
 6198SOL    HW119493   6.167   1.361   6.449
 6198SOL    HW219494   6.179   1.199   6.470
 6199SOL     OW19495   2.473   6.952   6.226
 6199SOL    HW119496   2.514   6.868   6.263
 6199SOL    HW219497   2.502   6.964   6.132
 6200SOL     OW19498   1.047   0.153   0.650
 6200SOL    HW119499   1.095   0.202   0.577
 6200SOL    HW219500   1.114   0.112   0.713
 6201SOL     OW19501   0.362   5.338   3.540
 6201SOL    HW119502   0.274   5.311   3.578
 6201SOL    HW219503   0.354   5.351   3.441
 6202SOL     OW19504   5.579   0.598   2.200
 6202SOL    HW119505   5.579   0.678   2.139
 6202SOL    HW219506   5.495   0.597   2.253
 6203SOL     OW19507   6.427   0.984   1.984
 6203SOL    HW119508   6.481   0.979   2.068
 6203SOL    HW219509   6.471   0.928   1.913
 6204SOL     OW19510   1.243   5.549   4.679
 6204SOL    HW119511   1.172   5.551   4.609
 6204SOL    HW219512   1.275   5.455   4.692
 6205SOL     OW19513   5.942   4.793   3.420
 6205SOL    HW119514   5.920   4.776   3.516
 6205SOL    HW219515   6.013   4.728   3.390
 6206SOL     OW19516   5.553   2.074   3.700
 6206SOL    HW119517   5.614   2.152   3.717
 6206SOL    HW219518   5.471   2.105   3.652
 6207SOL     OW19519   1.673   5.682   3.432
 6207SOL    HW119520   1.635   5.613   3.494
 6207SOL    HW219521   1.765   5.654   3.405
 6208SOL     OW19522   3.955   4.513   6.460
 6208SOL    HW119523   4.009   4.445   6.410
 6208SOL    HW219524   3.865   4.523   6.418
 6209SOL     OW19525   3.762   1.278   1.881
 6209SOL    HW119526   3.831   1.245   1.816
 6209SOL    HW219527   3.759   1.378   1.877
 6210SOL     OW19528   5.762   1.094   4.007
 6210SOL    HW119529   5.849   1.143   4.001
 6210SOL    HW219530   5.770   1.007   3.960
 6211SOL     OW19531   4.984   3.251   5.278
 6211SOL    HW119532   4.983   3.349   5.258
 6211SOL    HW219533   4.892   3.213   5.263
 6212SOL     OW19534   5.323   4.306   5.094
 6212SOL    HW119535   5.333   4.330   4.997
 6212SOL    HW219536   5.228   4.287   5.115
 6213SOL     OW19537   5.232   5.930   0.572
 6213SOL    HW119538   5.149   5.916   0.625
 6213SOL    HW219539   5.241   5.858   0.503
 6214SOL     OW19540   6.298   0.056   6.339
 6214SOL    HW119541   6.292   6.995   6.396
 6214SOL    HW219542   6.290   0.137   6.397
 6215SOL     OW19543   5.798   1.884   5.372
 6215SOL    HW119544   5.775   1.792   5.341
 6215SOL    HW219545   5.723   1.920   5.427
 6216SOL     OW19546   5.104   1.989   5.316
 6216SOL    HW119547   5.089   1.976   5.218
 6216SOL    HW219548   5.094   2.085   5.339
 6217SOL     OW19549   0.070   4.298   2.618
 6217SOL    HW119550   0.163   4.273   2.642
 6217SOL    HW219551   0.057   4.290   2.519
 6218SOL     OW19552   4.724   6.667   0.766
 6218SOL    HW119553   4.739   6.761   0.797
 6218SOL    HW219554   4.669   6.667   0.683
 6219SOL     OW19555   2.263   0.043   6.772
 6219SOL    HW119556   2.207   0.041   6.689
 6219SOL    HW219557   2.326   0.120   6.767
 6220SOL     OW19558   3.428   6.839   1.941
 6220SOL    HW119559   3.526   6.820   1.952
 6220SOL    HW219560   3.376   6.780   2.002
 6221SOL     OW19561   4.620   5.414   5.361
 6221SOL    HW119562   4.628   5.418   5.460
 6221SOL    HW219563   4.549   5.479   5.331
 6222SOL     OW19564   6.279   1.035   2.257
 6222SOL    HW119565   6.256   0.938   2.270
 6222SOL    HW219566   6.282   1.056   2.159
 6223SOL     OW19567   6.622   5.087   4.585
 6223SOL    HW119568   6.565   5.100   4.667
 6223SOL    HW219569   6.587   5.009   4.532
 6224SOL     OW19570   4.206   6.745   0.309
 6224SOL    HW119571   4.268   6.731   0.385
 6224SOL    HW219572   4.119   6.783   0.343
 6225SOL     OW19573   5.047   6.242   6.161
 6225SOL    HW119574   5.120   6.220   6.096
 6225SOL    HW219575   5.004   6.158   6.193
 6226SOL     OW19576   0.902   1.077   3.720
 6226SOL    HW119577   0.844   1.124   3.655
 6226SOL    HW219578   0.959   1.143   3.768
 6227SOL     OW19579   2.431   5.155   5.688
 6227SOL    HW119580   2.423   5.062   5.725
 6227SOL    HW219581   2.432   5.220   5.764
 6228SOL     OW19582   0.785   3.622   3.788
 6228SOL    HW119583   0.860   3.639   3.724
 6228SOL    HW219584   0.701   3.665   3.753
 6229SOL     OW19585   0.465   3.994   4.269
 6229SOL    HW119586   0.514   4.050   4.336
 6229SOL    HW219587   0.468   4.039   4.180
 6230SOL     OW19588   0.599   0.853   1.714
 6230SOL    HW119589   0.500   0.865   1.702
 6230SOL    HW219590   0.618   0.758   1.738
 6231SOL     OW19591   2.045   5.512   5.987
 6231SOL    HW119592   2.073   5.590   5.931
 6231SOL    HW219593   2.081   5.428   5.947
 6232SOL     OW19594   4.456   0.337   6.817
 6232SOL    HW119595   4.508   0.263   6.774
 6232SOL    HW219596   4.400   0.383   6.748
 6233SOL     OW19597   0.206   3.864   1.364
 6233SOL    HW119598   0.146   3.802   1.314
 6233SOL    HW219599   0.255   3.922   1.300
 6234SOL     OW19600   5.017   5.809   3.766
 6234SOL    HW119601   4.919   5.801   3.782
 6234SOL    HW219602   5.053   5.886   3.820
 6235SOL     OW19603   0.599   0.810   2.049
 6235SOL    HW119604   0.693   0.843   2.036
 6235SOL    HW219605   0.583   0.730   1.990
 6236SOL     OW19606   6.840   6.009   1.394
 6236SOL    HW119607   6.755   5.962   1.370
 6236SOL    HW219608   6.880   6.050   1.313
 6237SOL     OW19609   3.584   1.058   2.533
 6237SOL    HW119610   3.627   1.022   2.450
 6237SOL    HW219611   3.596   0.993   2.608
 6238SOL     OW19612   2.705   0.591   3.533
 6238SOL    HW119613   2.675   0.686   3.546
 6238SOL    HW219614   2.657   0.532   3.598
 6239SOL     OW19615   4.495   1.639   4.297
 6239SOL    HW119616   4.478   1.647   4.199
 6239SOL    HW219617   4.408   1.633   4.346
 6240SOL     OW19618   3.940   3.055   4.519
 6240SOL    HW119619   3.897   2.967   4.543
 6240SOL    HW219620   3.890   3.129   4.565
 6241SOL     OW19621   3.698   0.106   3.531
 6241SOL    HW119622   3.704   0.112   3.432
 6241SOL    HW219623   3.741   0.187   3.572
 6242SOL     OW19624   2.936   2.131   4.364
 6242SOL    HW119625   2.917   2.158   4.458
 6242SOL    HW219626   2.852   2.093   4.323
 6243SOL     OW19627   4.223   1.370   0.226
 6243SOL    HW119628   4.293   1.327   0.283
 6243SOL    HW219629   4.204   1.312   0.147
 6244SOL     OW19630   4.396   2.322   2.264
 6244SOL    HW119631   4.453   2.240   2.273
 6244SOL    HW219632   4.444   2.400   2.304
 6245SOL     OW19633   6.855   5.085   1.933
 6245SOL    HW119634   6.837   4.997   1.889
 6245SOL    HW219635   6.768   5.129   1.955
 6246SOL     OW19636   0.736   6.532   5.195
 6246SOL    HW119637   0.822   6.496   5.160
 6246SOL    HW219638   0.721   6.624   5.159
 6247SOL     OW19639   5.653   5.217   2.909
 6247SOL    HW119640   5.641   5.118   2.914
 6247SOL    HW219641   5.739   5.237   2.863
 6248SOL     OW19642   4.512   2.559   5.551
 6248SOL    HW119643   4.453   2.598   5.481
 6248SOL    HW219644   4.509   2.616   5.633
 6249SOL     OW19645   5.796   3.516   3.519
 6249SOL    HW119646   5.720   3.558   3.570
 6249SOL    HW219647   5.859   3.588   3.489
 6250SOL     OW19648   5.534   0.075   6.032
 6250SOL    HW119649   5.513   0.027   6.117
 6250SOL    HW219650   5.632   0.068   6.013
 6251SOL     OW19651   2.757   0.565   4.410
 6251SOL    HW119652   2.789   0.654   4.379
 6251SOL    HW219653   2.745   0.503   4.332
 6252SOL     OW19654   3.333   5.395   0.799
 6252SOL    HW119655   3.362   5.316   0.745
 6252SOL    HW219656   3.235   5.408   0.790
 6253SOL     OW19657   4.921   6.091   4.075
 6253SOL    HW119658   4.990   6.035   4.030
 6253SOL    HW219659   4.901   6.053   4.165
 6254SOL     OW19660   0.777   0.237   1.653
 6254SOL    HW119661   0.688   0.194   1.637
 6254SOL    HW219662   0.785   0.261   1.750
 6255SOL     OW19663   1.847   0.801   0.946
 6255SOL    HW119664   1.903   0.851   0.880
 6255SOL    HW219665   1.755   0.788   0.907
 6256SOL     OW19666   6.254   5.365   2.187
 6256SOL    HW119667   6.294   5.322   2.268
 6256SOL    HW219668   6.155   5.368   2.197
 6257SOL     OW19669   3.771   3.449   0.921
 6257SOL    HW119670   3.784   3.441   0.822
 6257SOL    HW219671   3.849   3.499   0.960
 6258SOL     OW19672   4.176   5.135   5.132
 6258SOL    HW119673   4.134   5.199   5.067
 6258SOL    HW219674   4.176   5.043   5.092
 6259SOL     OW19675   4.452   0.963   4.899
 6259SOL    HW119676   4.449   0.900   4.977
 6259SOL    HW219677   4.359   0.977   4.864
 6260SOL     OW19678   3.010   1.921   0.901
 6260SOL    HW119679   2.920   1.960   0.880
 6260SOL    HW219680   3.059   1.983   0.962
 6261SOL     OW19681   3.713   0.102   0.899
 6261SOL    HW119682   3.694   0.010   0.862
 6261SOL    HW219683   3.723   0.096   0.998
 6262SOL     OW19684   6.021   1.064   2.508
 6262SOL    HW119685   6.098   1.005   2.535
 6262SOL    HW219686   5.982   1.107   2.590
 6263SOL     OW19687   6.164   6.032   6.218
 6263SOL    HW119688   6.251   5.984   6.207
 6263SOL    HW219689   6.120   6.042   6.129
 6264SOL     OW19690   0.987   5.929   0.590
 6264SOL    HW119691   0.977   5.989   0.511
 6264SOL    HW219692   0.907   5.870   0.598
 6265SOL     OW19693   4.011   6.950   6.673
 6265SOL    HW119694   3.985   6.984   6.583
 6265SOL    HW219695   4.109   6.967   6.688
 6266SOL     OW19696   3.301   5.437   2.963
 6266SOL    HW119697   3.313   5.453   3.061
 6266SOL    HW219698   3.328   5.343   2.941
 6267SOL     OW19699   0.579   6.218   4.461
 6267SOL    HW119700   0.640   6.140   4.444
 6267SOL    HW219701   0.510   6.192   4.529
 6268SOL     OW19702   3.935   1.721   1.155
 6268SOL    HW119703   3.988   1.804   1.139
 6268SOL    HW219704   3.840   1.735   1.127
 6269SOL     OW19705   6.636   6.167   0.027
 6269SOL    HW119706   6.691   6.137   0.105
 6269SOL    HW219707   6.603   6.260   0.043
 6270SOL     OW19708   1.160   6.049   0.897
 6270SOL    HW119709   1.150   6.106   0.815
 6270SOL    HW219710   1.223   6.093   0.961
 6271SOL     OW19711   6.815   3.245   5.998
 6271SOL    HW119712   6.792   3.342   5.994
 6271SOL    HW219713   6.748   3.192   5.946
 6272SOL     OW19714   0.741   1.235   0.044
 6272SOL    HW119715   0.724   1.281   6.977
 6272SOL    HW219716   0.713   1.294   0.119
 6273SOL     OW19717   0.321   6.528   3.197
 6273SOL    HW119718   0.290   6.434   3.213
 6273SOL    HW219719   0.415   6.537   3.228
 6274SOL     OW19720   2.773   6.471   3.959
 6274SOL    HW119721   2.783   6.545   4.026
 6274SOL    HW219722   2.682   6.431   3.967
 6275SOL     OW19723   2.457   5.728   0.461
 6275SOL    HW119724   2.496   5.785   0.389
 6275SOL    HW219725   2.358   5.721   0.448
 6276SOL     OW19726   2.057   5.311   2.597
 6276SOL    HW119727   1.995   5.278   2.668
 6276SOL    HW219728   2.004   5.331   2.514
 6277SOL     OW19729   5.020   2.469   1.100
 6277SOL    HW119730   5.085   2.393   1.110
 6277SOL    HW219731   5.023   2.525   1.183
 6278SOL     OW19732   3.667   2.535   0.367
 6278SOL    HW119733   3.711   2.588   0.294
 6278SOL    HW219734   3.736   2.482   0.416
 6279SOL     OW19735   1.744   6.456   2.119
 6279SOL    HW119736   1.762   6.542   2.070
 6279SOL    HW219737   1.653   6.460   2.161
 6280SOL     OW19738   5.139   1.127   6.463
 6280SOL    HW119739   5.227   1.173   6.472
 6280SOL    HW219740   5.142   1.065   6.384
 6281SOL     OW19741   4.857   4.211   6.104
 6281SOL    HW119742   4.869   4.278   6.031
 6281SOL    HW219743   4.882   4.252   6.191
 6282SOL     OW19744   0.812   3.621   5.804
 6282SOL    HW119745   0.878   3.660   5.869
 6282SOL    HW219746   0.808   3.522   5.816
 6283SOL     OW19747   2.576   0.217   4.534
 6283SOL    HW119748   2.631   0.268   4.601
 6283SOL    HW219749   2.499   0.273   4.505
 6284SOL     OW19750   1.843   3.135   5.858
 6284SOL    HW119751   1.817   3.200   5.930
 6284SOL    HW219752   1.924   3.170   5.810
 6285SOL     OW19753   0.997   4.107   2.675
 6285SOL    HW119754   0.944   4.075   2.754
 6285SOL    HW219755   1.051   4.031   2.639
 6286SOL     OW19756   0.858   2.388   6.758
 6286SOL    HW119757   0.806   2.393   6.672
 6286SOL    HW219758   0.954   2.371   6.738
 6287SOL     OW19759   4.402   4.731   4.742
 6287SOL    HW119760   4.353   4.737   4.829
 6287SOL    HW219761   4.338   4.744   4.666
 6288SOL     OW19762   3.064   3.638   6.029
 6288SOL    HW119763   3.108   3.578   5.962
 6288SOL    HW219764   3.050   3.728   5.989
 6289SOL     OW19765   2.421   4.745   4.956
 6289SOL    HW119766   2.508   4.728   4.911
 6289SOL    HW219767   2.429   4.728   5.054
 6290SOL     OW19768   6.672   0.015   3.802
 6290SOL    HW119769   6.764   0.003   3.839
 6290SOL    HW219770   6.613   6.961   3.834
 6291SOL     OW19771   3.338   3.755   2.043
 6291SOL    HW119772   3.360   3.699   2.123
 6291SOL    HW219773   3.306   3.845   2.073
 6292SOL     OW19774   1.544   4.321   4.480
 6292SOL    HW119775   1.465   4.291   4.426
 6292SOL    HW219776   1.605   4.376   4.423
 6293SOL     OW19777   2.768   1.483   6.615
 6293SOL    HW119778   2.822   1.547   6.561
 6293SOL    HW219779   2.674   1.483   6.581
 6294SOL     OW19780   2.044   1.306   2.163
 6294SOL    HW119781   2.093   1.219   2.166
 6294SOL    HW219782   1.960   1.295   2.110
 6295SOL     OW19783   4.566   3.345   6.168
 6295SOL    HW119784   4.538   3.437   6.197
 6295SOL    HW219785   4.607   3.350   6.077
 6296SOL     OW19786   0.290   3.070   0.120
 6296SOL    HW119787   0.201   3.069   0.166
 6296SOL    HW219788   0.277   3.066   0.021
 6297SOL     OW19789   6.689   1.120   4.274
 6297SOL    HW119790   6.690   1.038   4.330
 6297SOL    HW219791   6.718   1.098   4.181
 6298SOL     OW19792   0.176   6.721   0.046
 6298SOL    HW119793   0.136   6.784   0.112
 6298SOL    HW219794   0.207   6.638   0.093
 6299SOL     OW19795   3.270   2.125   4.016
 6299SOL    HW119796   3.303   2.126   3.921
 6299SOL    HW219797   3.348   2.115   4.078
 6300SOL     OW19798   2.769   1.987   1.198
 6300SOL    HW119799   2.768   1.929   1.116
 6300SOL    HW219800   2.712   1.945   1.269
 6301SOL     OW19801   4.067   6.506   0.284
 6301SOL    HW119802   4.133   6.580   0.278
 6301SOL    HW219803   4.116   6.418   0.288
 6302SOL     OW19804   1.623   3.446   0.073
 6302SOL    HW119805   1.610   3.349   0.094
 6302SOL    HW219806   1.619   3.460   6.994
 6303SOL     OW19807   6.819   5.262   4.506
 6303SOL    HW119808   6.749   5.214   4.558
 6303SOL    HW219809   6.783   5.289   4.417
 6304SOL     OW19810   2.501   0.951   3.907
 6304SOL    HW119811   2.483   0.981   4.001
 6304SOL    HW219812   2.429   0.985   3.847
 6305SOL     OW19813   0.791   5.266   5.825
 6305SOL    HW119814   0.767   5.295   5.732
 6305SOL    HW219815   0.889   5.243   5.828
 6306SOL     OW19816   0.982   4.324   4.400
 6306SOL    HW119817   0.997   4.318   4.302
 6306SOL    HW219818   1.070   4.339   4.446
 6307SOL     OW19819   3.252   3.328   2.854
 6307SOL    HW119820   3.322   3.305   2.786
 6307SOL    HW219821   3.282   3.297   2.944
 6308SOL     OW19822   1.412   1.933   0.890
 6308SOL    HW119823   1.343   1.879   0.841
 6308SOL    HW219824   1.417   2.024   0.850
 6309SOL     OW19825   1.979   5.878   4.926
 6309SOL    HW119826   1.998   5.883   4.828
 6309SOL    HW219827   2.063   5.893   4.977
 6310SOL     OW19828   0.319   0.013   3.378
 6310SOL    HW119829   0.234   7.014   3.426
 6310SOL    HW219830   0.350   6.951   3.330
 6311SOL     OW19831   6.573   1.187   6.731
 6311SOL    HW119832   6.561   1.240   6.647
 6311SOL    HW219833   6.522   1.101   6.724
 6312SOL     OW19834   3.570   5.508   1.138
 6312SOL    HW119835   3.566   5.409   1.152
 6312SOL    HW219836   3.538   5.530   1.046
 6313SOL     OW19837   5.682   4.788   3.839
 6313SOL    HW119838   5.618   4.787   3.916
 6313SOL    HW219839   5.647   4.729   3.766
 6314SOL     OW19840   2.084   7.016   3.328
 6314SOL    HW119841   2.018   6.967   3.385
 6314SOL    HW219842   2.120   6.955   3.258
 6315SOL     OW19843   2.724   2.326   3.386
 6315SOL    HW119844   2.703   2.237   3.346
 6315SOL    HW219845   2.716   2.396   3.315
 6316SOL     OW19846   4.549   0.519   5.182
 6316SOL    HW119847   4.629   0.508   5.123
 6316SOL    HW219848   4.543   0.440   5.244
 6317SOL     OW19849   4.662   4.701   2.615
 6317SOL    HW119850   4.740   4.722   2.673
 6317SOL    HW219851   4.581   4.747   2.650
 6318SOL     OW19852   6.311   6.984   0.109
 6318SOL    HW119853   6.218   6.970   0.074
 6318SOL    HW219854   6.321   0.057   0.142
 6319SOL     OW19855   4.787   2.242   4.437
 6319SOL    HW119856   4.820   2.319   4.382
 6319SOL    HW219857   4.696   2.216   4.406
 6320SOL     OW19858   6.476   1.357   6.212
 6320SOL    HW119859   6.549   1.344   6.145
 6320SOL    HW219860   6.440   1.450   6.205
 6321SOL     OW19861   0.648   3.466   0.069
 6321SOL    HW119862   0.593   3.428   7.015
 6321SOL    HW219863   0.637   3.566   0.071
 6322SOL     OW19864   1.303   1.835   3.073
 6322SOL    HW119865   1.245   1.754   3.082
 6322SOL    HW219866   1.373   1.818   3.004
 6323SOL     OW19867   2.034   5.910   1.191
 6323SOL    HW119868   2.000   5.945   1.278
 6323SOL    HW219869   2.086   5.826   1.208
 6324SOL     OW19870   4.741   2.794   1.238
 6324SOL    HW119871   4.688   2.769   1.157
 6324SOL    HW219872   4.695   2.762   1.320
 6325SOL     OW19873   1.217   3.559   3.492
 6325SOL    HW119874   1.271   3.548   3.576
 6325SOL    HW219875   1.209   3.656   3.469
 6326SOL     OW19876   4.938   5.232   5.523
 6326SOL    HW119877   4.987   5.294   5.462
 6326SOL    HW219878   4.903   5.154   5.471
 6327SOL     OW19879   0.587   0.831   2.807
 6327SOL    HW119880   0.659   0.865   2.747
 6327SOL    HW219881   0.505   0.887   2.795
 6328SOL     OW19882   4.151   3.556   5.639
 6328SOL    HW119883   4.060   3.525   5.615
 6328SOL    HW219884   4.171   3.642   5.592
 6329SOL     OW19885   0.540   3.185   5.100
 6329SOL    HW119886   0.550   3.088   5.076
 6329SOL    HW219887   0.523   3.238   5.017
 6330SOL     OW19888   4.415   2.087   3.662
 6330SOL    HW119889   4.393   2.166   3.604
 6330SOL    HW219890   4.472   2.023   3.610
 6331SOL     OW19891   1.616   3.601   3.785
 6331SOL    HW119892   1.695   3.610   3.845
 6331SOL    HW219893   1.586   3.692   3.756
 6332SOL     OW19894   4.357   1.709   0.313
 6332SOL    HW119895   4.373   1.711   0.412
 6332SOL    HW219896   4.403   1.630   0.273
 6333SOL     OW19897   5.648   0.792   0.549
 6333SOL    HW119898   5.578   0.861   0.569
 6333SOL    HW219899   5.738   0.829   0.569
 6334SOL     OW19900   2.503   1.158   1.864
 6334SOL    HW119901   2.457   1.245   1.882
 6334SOL    HW219902   2.442   1.099   1.812
 6335SOL     OW19903   6.770   3.499   5.948
 6335SOL    HW119904   6.716   3.560   6.004
 6335SOL    HW219905   6.782   3.538   5.857
 6336SOL     OW19906   1.144   4.550   5.382
 6336SOL    HW119907   1.093   4.464   5.384
 6336SOL    HW219908   1.081   4.626   5.365
 6337SOL     OW19909   5.986   6.955   4.936
 6337SOL    HW119910   5.899   6.998   4.911
 6337SOL    HW219911   6.052   0.004   4.961
 6338SOL     OW19912   0.979   0.633   2.782
 6338SOL    HW119913   0.957   0.692   2.859
 6338SOL    HW219914   0.976   0.686   2.697
 6339SOL     OW19915   0.280   3.529   3.381
 6339SOL    HW119916   0.253   3.567   3.469
 6339SOL    HW219917   0.220   3.566   3.309
 6340SOL     OW19918   2.766   5.147   6.607
 6340SOL    HW119919   2.775   5.138   6.508
 6340SOL    HW219920   2.673   5.120   6.635
 6341SOL     OW19921   0.294   4.529   2.742
 6341SOL    HW119922   0.365   4.551   2.809
 6341SOL    HW219923   0.204   4.545   2.783
 6342SOL     OW19924   2.044   0.811   1.641
 6342SOL    HW119925   1.949   0.830   1.618
 6342SOL    HW219926   2.104   0.864   1.582
 6343SOL     OW19927   1.521   5.395   7.019
 6343SOL    HW119928   1.487   5.332   0.068
 6343SOL    HW219929   1.459   5.472   7.010
 6344SOL     OW19930   1.344   1.780   4.729
 6344SOL    HW119931   1.264   1.784   4.669
 6344SOL    HW219932   1.386   1.871   4.736
 6345SOL     OW19933   6.724   2.818   3.078
 6345SOL    HW119934   6.767   2.741   3.032
 6345SOL    HW219935   6.795   2.873   3.124
 6346SOL     OW19936   0.428   4.937   4.532
 6346SOL    HW119937   0.351   4.938   4.468
 6346SOL    HW219938   0.489   4.861   4.511
 6347SOL     OW19939   1.868   2.401   3.726
 6347SOL    HW119940   1.963   2.431   3.716
 6347SOL    HW219941   1.862   2.334   3.800
 6348SOL     OW19942   0.955   2.832   6.683
 6348SOL    HW119943   0.976   2.926   6.712
 6348SOL    HW219944   0.860   2.829   6.650
 6349SOL     OW19945   5.998   1.113   0.967
 6349SOL    HW119946   5.948   1.181   0.914
 6349SOL    HW219947   5.941   1.033   0.982
 6350SOL     OW19948   0.603   6.011   1.397
 6350SOL    HW119949   0.658   5.995   1.315
 6350SOL    HW219950   0.547   6.093   1.384
 6351SOL     OW19951   5.969   2.744   1.929
 6351SOL    HW119952   5.970   2.669   1.862
 6351SOL    HW219953   6.062   2.779   1.940
 6352SOL     OW19954   4.492   0.652   4.367
 6352SOL    HW119955   4.509   0.636   4.464
 6352SOL    HW219956   4.455   0.568   4.326
 6353SOL     OW19957   3.417   6.838   6.031
 6353SOL    HW119958   3.385   6.868   6.121
 6353SOL    HW219959   3.338   6.828   5.970
 6354SOL     OW19960   5.390   5.061   2.426
 6354SOL    HW119961   5.349   5.019   2.506
 6354SOL    HW219962   5.372   5.159   2.427
 6355SOL     OW19963   4.637   5.936   0.500
 6355SOL    HW119964   4.586   6.016   0.531
 6355SOL    HW219965   4.681   5.956   0.412
 6356SOL     OW19966   6.743   6.720   6.239
 6356SOL    HW119967   6.796   6.727   6.154
 6356SOL    HW219968   6.806   6.708   6.316
 6357SOL     OW19969   4.881   1.863   3.368
 6357SOL    HW119970   4.970   1.831   3.334
 6357SOL    HW219971   4.836   1.917   3.297
 6358SOL     OW19972   1.074   1.758   4.513
 6358SOL    HW119973   1.066   1.670   4.559
 6358SOL    HW219974   0.984   1.800   4.505
 6359SOL     OW19975   6.032   4.997   1.191
 6359SOL    HW119976   6.059   4.995   1.287
 6359SOL    HW219977   5.981   4.914   1.169
 6360SOL     OW19978   1.997   3.051   0.929
 6360SOL    HW119979   2.016   3.077   1.024
 6360SOL    HW219980   1.920   2.986   0.928
 6361SOL     OW19981   0.471   1.959   2.396
 6361SOL    HW119982   0.413   1.878   2.382
 6361SOL    HW219983   0.420   2.041   2.371
 6362SOL     OW19984   1.464   4.993   0.356
 6362SOL    HW119985   1.542   4.995   0.294
 6362SOL    HW219986   1.495   5.016   0.449
 6363SOL     OW19987   1.040   2.582   1.837
 6363SOL    HW119988   1.005   2.499   1.881
 6363SOL    HW219989   1.120   2.616   1.887
 6364SOL     OW19990   3.096   1.122   4.014
 6364SOL    HW119991   3.084   1.043   4.073
 6364SOL    HW219992   3.007   1.155   3.983
 6365SOL     OW19993   6.569   6.951   3.059
 6365SOL    HW119994   6.557   6.977   2.963
 6365SOL    HW219995   6.625   6.868   3.064
 6366SOL     OW19996   5.887   1.525   5.025
 6366SOL    HW119997   5.905   1.623   5.015
 6366SOL    HW219998   5.962   1.483   5.076
 6367SOL     OW19999   0.945   2.334   4.412
 6367SOL    HW120000   1.015   2.327   4.483
 6367SOL    HW220001   0.913   2.242   4.389
 6368SOL     OW20002   5.040   3.478   5.111
 6368SOL    HW120003   4.945   3.509   5.110
 6368SOL    HW220004   5.100   3.558   5.106
 6369SOL     OW20005   3.510   4.174   1.121
 6369SOL    HW120006   3.478   4.222   1.039
 6369SOL    HW220007   3.601   4.135   1.103
 6370SOL     OW20008   5.955   4.199   4.868
 6370SOL    HW120009   5.875   4.258   4.881
 6370SOL    HW220010   5.993   4.175   4.958
 6371SOL     OW20011   5.661   3.980   0.766
 6371SOL    HW120012   5.648   4.046   0.841
 6371SOL    HW220013   5.683   4.030   0.682
 6372SOL     OW20014   6.728   1.430   0.938
 6372SOL    HW120015   6.816   1.397   0.974
 6372SOL    HW220016   6.745   1.494   0.863
 6373SOL     OW20017   5.305   2.585   1.543
 6373SOL    HW120018   5.300   2.604   1.641
 6373SOL    HW220019   5.228   2.526   1.516
 6374SOL     OW20020   4.255   3.643   6.659
 6374SOL    HW120021   4.301   3.678   6.577
 6374SOL    HW220022   4.220   3.551   6.640
 6375SOL     OW20023   4.944   0.781   1.775
 6375SOL    HW120024   4.999   0.859   1.745
 6375SOL    HW220025   4.983   0.742   1.859
 6376SOL     OW20026   2.832   6.579   0.649
 6376SOL    HW120027   2.907   6.561   0.712
 6376SOL    HW220028   2.771   6.500   0.646
 6377SOL     OW20029   0.544   1.138   0.238
 6377SOL    HW120030   0.582   1.176   0.154
 6377SOL    HW220031   0.617   1.097   0.293
 6378SOL     OW20032   5.660   4.040   2.518
 6378SOL    HW120033   5.689   3.953   2.477
 6378SOL    HW220034   5.651   4.028   2.617
 6379SOL     OW20035   2.909   5.463   0.052
 6379SOL    HW120036   2.866   5.550   0.078
 6379SOL    HW220037   2.966   5.430   0.128
 6380SOL     OW20038   1.992   2.989   4.774
 6380SOL    HW120039   2.087   2.959   4.763
 6380SOL    HW220040   1.971   2.997   4.872
 6381SOL     OW20041   3.556   3.773   0.707
 6381SOL    HW120042   3.558   3.759   0.806
 6381SOL    HW220043   3.466   3.809   0.681
 6382SOL     OW20044   1.726   1.425   1.182
 6382SOL    HW120045   1.774   1.512   1.170
 6382SOL    HW220046   1.777   1.353   1.134
 6383SOL     OW20047   2.391   2.127   2.525
 6383SOL    HW120048   2.337   2.067   2.467
 6383SOL    HW220049   2.481   2.141   2.484
 6384SOL     OW20050   6.404   1.882   1.985
 6384SOL    HW120051   6.492   1.928   1.990
 6384SOL    HW220052   6.385   1.837   2.073
 6385SOL     OW20053   6.735   3.549   1.203
 6385SOL    HW120054   6.673   3.483   1.161
 6385SOL    HW220055   6.790   3.503   1.273
 6386SOL     OW20056   3.080   3.734   6.873
 6386SOL    HW120057   3.127   3.647   6.881
 6386SOL    HW220058   2.995   3.731   6.927
 6387SOL     OW20059   6.425   0.890   6.069
 6387SOL    HW120060   6.377   0.803   6.060
 6387SOL    HW220061   6.495   0.898   5.999
 6388SOL     OW20062   6.124   5.040   1.459
 6388SOL    HW120063   6.183   5.117   1.435
 6388SOL    HW220064   6.165   4.990   1.536
 6389SOL     OW20065   6.773   6.540   0.592
 6389SOL    HW120066   6.765   6.604   0.668
 6389SOL    HW220067   6.773   6.446   0.627
 6390SOL     OW20068   5.199   6.542   6.564
 6390SOL    HW120069   5.177   6.558   6.467
 6390SOL    HW220070   5.149   6.606   6.621
 6391SOL     OW20071   1.800   2.283   4.778
 6391SOL    HW120072   1.743   2.354   4.738
 6391SOL    HW220073   1.873   2.325   4.832
 6392SOL     OW20074   4.963   6.511   4.060
 6392SOL    HW120075   5.055   6.474   4.052
 6392SOL    HW220076   4.948   6.577   3.986
 6393SOL     OW20077   2.338   5.191   0.626
 6393SOL    HW120078   2.244   5.156   0.630
 6393SOL    HW220079   2.337   5.290   0.637
 6394SOL     OW20080   1.875   5.666   2.211
 6394SOL    HW120081   1.806   5.723   2.256
 6394SOL    HW220082   1.871   5.680   2.112
 6395SOL     OW20083   1.401   3.908   4.442
 6395SOL    HW120084   1.461   3.863   4.376
 6395SOL    HW220085   1.307   3.908   4.407
 6396SOL     OW20086   1.988   3.484   5.103
 6396SOL    HW120087   2.019   3.408   5.160
 6396SOL    HW220088   1.889   3.479   5.090
 6397SOL     OW20089   6.768   2.763   5.044
 6397SOL    HW120090   6.716   2.678   5.051
 6397SOL    HW220091   6.719   2.827   4.985
 6398SOL     OW20092   1.665   0.249   2.634
 6398SOL    HW120093   1.711   0.251   2.545
 6398SOL    HW220094   1.679   0.336   2.681
 6399SOL     OW20095   2.671   0.016   6.859
 6399SOL    HW120096   2.720   7.002   6.939
 6399SOL    HW220097   2.695   0.112   6.844
 6400SOL     OW20098   0.667   6.435   2.791
 6400SOL    HW120099   0.754   6.386   2.792
 6400SOL    HW220100   0.595   6.378   2.831
 6401SOL     OW20101   3.930   5.208   1.851
 6401SOL    HW120102   3.848   5.154   1.870
 6401SOL    HW220103   4.002   5.148   1.817
 6402SOL     OW20104   3.723   3.881   6.216
 6402SOL    HW120105   3.640   3.888   6.160
 6402SOL    HW220106   3.776   3.966   6.208
 6403SOL     OW20107   4.650   5.423   5.665
 6403SOL    HW120108   4.749   5.425   5.670
 6403SOL    HW220109   4.616   5.333   5.692
 6404SOL     OW20110   4.951   5.664   6.620
 6404SOL    HW120111   4.895   5.700   6.695
 6404SOL    HW220112   5.042   5.642   6.654
 6405SOL     OW20113   4.596   1.185   2.408
 6405SOL    HW120114   4.629   1.094   2.434
 6405SOL    HW220115   4.506   1.176   2.365
 6406SOL     OW20116   0.643   3.486   1.978
 6406SOL    HW120117   0.721   3.523   2.028
 6406SOL    HW220118   0.576   3.558   1.961
 6407SOL     OW20119   0.492   6.857   1.969
 6407SOL    HW120120   0.579   6.832   1.925
 6407SOL    HW220121   0.511   6.891   2.061
 6408SOL     OW20122   0.452   1.255   1.819
 6408SOL    HW120123   0.466   1.161   1.852
 6408SOL    HW220124   0.493   1.319   1.885
 6409SOL     OW20125   5.946   4.105   3.407
 6409SOL    HW120126   5.992   4.191   3.425
 6409SOL    HW220127   6.006   4.029   3.434
 6410SOL     OW20128   1.816   0.817   0.513
 6410SOL    HW120129   1.823   0.914   0.489
 6410SOL    HW220130   1.895   0.768   0.477
 6411SOL     OW20131   0.928   2.632   3.517
 6411SOL    HW120132   1.016   2.594   3.545
 6411SOL    HW220133   0.941   2.699   3.445
 6412SOL     OW20134   3.830   0.086   6.970
 6412SOL    HW120135   3.810   0.078   0.047
 6412SOL    HW220136   3.928   0.076   6.955
 6413SOL     OW20137   4.737   5.817   3.066
 6413SOL    HW120138   4.655   5.781   3.110
 6413SOL    HW220139   4.802   5.743   3.050
 6414SOL     OW20140   3.156   6.985   0.094
 6414SOL    HW120141   3.229   0.004   0.038
 6414SOL    HW220142   3.119   0.035   0.155
 6415SOL     OW20143   0.897   1.877   3.569
 6415SOL    HW120144   0.848   1.866   3.483
 6415SOL    HW220145   0.913   1.787   3.610
 6416SOL     OW20146   3.116   4.683   0.443
 6416SOL    HW120147   3.112   4.585   0.465
 6416SOL    HW220148   3.179   4.698   0.367
 6417SOL     OW20149   4.562   3.538   6.413
 6417SOL    HW120150   4.493   3.609   6.395
 6417SOL    HW220151   4.546   3.497   6.502
 6418SOL     OW20152   4.981   5.642   0.564
 6418SOL    HW120153   5.040   5.590   0.626
 6418SOL    HW220154   4.906   5.585   0.533
 6419SOL     OW20155   0.976   6.962   6.588
 6419SOL    HW120156   1.001   6.873   6.550
 6419SOL    HW220157   1.001   0.013   6.523
 6420SOL     OW20158   2.780   4.724   3.290
 6420SOL    HW120159   2.755   4.709   3.195
 6420SOL    HW220160   2.700   4.756   3.342
 6421SOL     OW20161   5.494   6.635   1.824
 6421SOL    HW120162   5.553   6.716   1.813
 6421SOL    HW220163   5.421   6.638   1.756
 6422SOL     OW20164   0.506   1.893   4.533
 6422SOL    HW120165   0.539   1.915   4.625
 6422SOL    HW220166   0.472   1.976   4.489
 6423SOL     OW20167   1.260   4.365   4.461
 6423SOL    HW120168   1.259   4.275   4.504
 6423SOL    HW220169   1.259   4.436   4.532
 6424SOL     OW20170   6.705   4.031   5.694
 6424SOL    HW120171   6.693   4.129   5.709
 6424SOL    HW220172   6.660   4.004   5.609
 6425SOL     OW20173   0.679   6.665   4.741
 6425SOL    HW120174   0.673   6.620   4.653
 6425SOL    HW220175   0.639   6.607   4.812
 6426SOL     OW20176   4.069   5.296   4.011
 6426SOL    HW120177   4.117   5.333   3.932
 6426SOL    HW220178   4.135   5.265   4.079
 6427SOL     OW20179   3.764   2.990   3.890
 6427SOL    HW120180   3.808   3.080   3.879
 6427SOL    HW220181   3.677   2.989   3.841
 6428SOL     OW20182   6.016   2.318   0.381
 6428SOL    HW120183   5.928   2.340   0.339
 6428SOL    HW220184   6.070   2.264   0.316
 6429SOL     OW20185   2.243   1.595   5.002
 6429SOL    HW120186   2.227   1.689   4.972
 6429SOL    HW220187   2.338   1.570   4.982
 6430SOL     OW20188   5.375   1.592   4.870
 6430SOL    HW120189   5.374   1.597   4.970
 6430SOL    HW220190   5.465   1.560   4.839
 6431SOL     OW20191   3.225   5.545   2.710
 6431SOL    HW120192   3.261   5.515   2.798
 6431SOL    HW220193   3.216   5.465   2.650
 6432SOL     OW20194   4.287   3.363   6.330
 6432SOL    HW120195   4.360   3.322   6.385
 6432SOL    HW220196   4.324   3.394   6.242
 6433SOL     OW20197   3.365   5.250   6.167
 6433SOL    HW120198   3.335   5.285   6.256
 6433SOL    HW220199   3.444   5.190   6.180
 6434SOL     OW20200   6.572   5.061   6.098
 6434SOL    HW120201   6.671   5.073   6.093
 6434SOL    HW220202   6.541   5.007   6.019
 6435SOL     OW20203   4.506   1.508   1.067
 6435SOL    HW120204   4.446   1.455   1.007
 6435SOL    HW220205   4.454   1.543   1.145
 6436SOL     OW20206   0.439   3.052   3.644
 6436SOL    HW120207   0.532   3.089   3.653
 6436SOL    HW220208   0.416   3.000   3.727
 6437SOL     OW20209   1.452   2.662   5.635
 6437SOL    HW120210   1.434   2.585   5.575
 6437SOL    HW220211   1.550   2.683   5.636
 6438SOL     OW20212   0.560   5.079   0.817
 6438SOL    HW120213   0.528   5.063   0.723
 6438SOL    HW220214   0.494   5.040   0.881
 6439SOL     OW20215   5.384   6.658   3.156
 6439SOL    HW120216   5.301   6.708   3.134
 6439SOL    HW220217   5.392   6.577   3.098
 6440SOL     OW20218   2.207   1.707   5.629
 6440SOL    HW120219   2.139   1.639   5.654
 6440SOL    HW220220   2.223   1.769   5.706
 6441SOL     OW20221   0.918   2.336   1.915
 6441SOL    HW120222   0.837   2.299   1.962
 6441SOL    HW220223   1.000   2.300   1.959
 6442SOL     OW20224   2.355   1.896   4.326
 6442SOL    HW120225   2.373   1.955   4.405
 6442SOL    HW220226   2.295   1.821   4.354
 6443SOL     OW20227   2.794   2.663   6.485
 6443SOL    HW120228   2.777   2.607   6.566
 6443SOL    HW220229   2.868   2.623   6.432
 6444SOL     OW20230   0.004   3.535   4.965
 6444SOL    HW120231   0.057   3.599   5.020
 6444SOL    HW220232   6.930   3.532   4.998
 6445SOL     OW20233   3.062   3.091   3.577
 6445SOL    HW120234   2.990   3.134   3.522
 6445SOL    HW220235   3.044   3.108   3.674
 6446SOL     OW20236   1.496   1.149   1.229
 6446SOL    HW120237   1.548   1.081   1.178
 6446SOL    HW220238   1.549   1.234   1.235
 6447SOL     OW20239   5.847   3.730   1.241
 6447SOL    HW120240   5.797   3.771   1.317
 6447SOL    HW220241   5.783   3.680   1.182
 6448SOL     OW20242   4.343   4.238   1.425
 6448SOL    HW120243   4.366   4.296   1.503
 6448SOL    HW220244   4.252   4.261   1.391
 6449SOL     OW20245   4.374   5.022   0.578
 6449SOL    HW120246   4.277   5.028   0.603
 6449SOL    HW220247   4.413   4.938   0.617
 6450SOL     OW20248   4.975   3.654   0.014
 6450SOL    HW120249   4.894   3.648   6.976
 6450SOL    HW220250   5.056   3.634   6.980
 6451SOL     OW20251   4.336   2.800   1.647
 6451SOL    HW120252   4.239   2.781   1.632
 6451SOL    HW220253   4.346   2.857   1.728
 6452SOL     OW20254   4.067   1.842   4.663
 6452SOL    HW120255   4.155   1.852   4.711
 6452SOL    HW220256   4.052   1.922   4.605
 6453SOL     OW20257   2.543   0.591   2.895
 6453SOL    HW120258   2.517   0.519   2.960
 6453SOL    HW220259   2.511   0.680   2.929
 6454SOL     OW20260   5.148   3.770   4.860
 6454SOL    HW120261   5.055   3.737   4.852
 6454SOL    HW220262   5.212   3.692   4.859
 6455SOL     OW20263   0.544   2.770   4.452
 6455SOL    HW120264   0.527   2.792   4.548
 6455SOL    HW220265   0.493   2.833   4.394
 6456SOL     OW20266   6.089   2.035   3.078
 6456SOL    HW120267   6.114   2.109   3.015
 6456SOL    HW220268   6.062   1.955   3.025
 6457SOL     OW20269   2.044   6.063   2.817
 6457SOL    HW120270   2.077   6.125   2.746
 6457SOL    HW220271   2.108   6.064   2.894
 6458SOL     OW20272   0.819   0.109   4.488
 6458SOL    HW120273   0.722   0.087   4.494
 6458SOL    HW220274   0.861   0.055   4.415
 6459SOL     OW20275   0.614   3.246   2.961
 6459SOL    HW120276   0.676   3.323   2.975
 6459SOL    HW220277   0.533   3.257   3.019
 6460SOL     OW20278   1.973   5.111   6.125
 6460SOL    HW120279   1.949   5.158   6.210
 6460SOL    HW220280   2.073   5.110   6.115
 6461SOL     OW20281   0.431   6.587   1.356
 6461SOL    HW120282   0.464   6.516   1.419
 6461SOL    HW220283   0.491   6.591   1.276
 6462SOL     OW20284   2.183   4.061   5.320
 6462SOL    HW120285   2.188   4.157   5.346
 6462SOL    HW220286   2.259   4.039   5.260
 6463SOL     OW20287   4.489   2.797   1.025
 6463SOL    HW120288   4.395   2.811   1.056
 6463SOL    HW220289   4.492   2.719   0.963
 6464SOL     OW20290   0.820   3.852   3.094
 6464SOL    HW120291   0.787   3.875   3.186
 6464SOL    HW220292   0.912   3.814   3.100
 6465SOL     OW20293   2.400   1.181   3.743
 6465SOL    HW120294   2.427   1.277   3.739
 6465SOL    HW220295   2.300   1.175   3.741
 6466SOL     OW20296   6.583   4.803   6.193
 6466SOL    HW120297   6.576   4.901   6.178
 6466SOL    HW220298   6.525   4.776   6.270
 6467SOL     OW20299   2.867   2.901   6.010
 6467SOL    HW120300   2.899   2.886   5.916
 6467SOL    HW220301   2.888   2.822   6.066
 6468SOL     OW20302   0.870   0.774   1.371
 6468SOL    HW120303   0.788   0.816   1.411
 6468SOL    HW220304   0.886   0.812   1.280
 6469SOL     OW20305   1.960   1.141   1.220
 6469SOL    HW120306   1.871   1.104   1.196
 6469SOL    HW220307   2.032   1.091   1.171
 6470SOL     OW20308   5.917   1.748   6.406
 6470SOL    HW120309   5.896   1.728   6.310
 6470SOL    HW220310   5.992   1.814   6.411
 6471SOL     OW20311   0.590   6.301   6.058
 6471SOL    HW120312   0.637   6.241   5.993
 6471SOL    HW220313   0.619   6.395   6.043
 6472SOL     OW20314   0.462   6.383   1.563
 6472SOL    HW120315   0.397   6.307   1.560
 6472SOL    HW220316   0.555   6.348   1.571
 6473SOL     OW20317   2.518   1.603   3.521
 6473SOL    HW120318   2.453   1.644   3.458
 6473SOL    HW220319   2.611   1.614   3.485
 6474SOL     OW20320   4.058   6.673   4.389
 6474SOL    HW120321   4.128   6.721   4.337
 6474SOL    HW220322   4.066   6.697   4.486
 6475SOL     OW20323   5.024   5.750   3.322
 6475SOL    HW120324   5.023   5.848   3.338
 6475SOL    HW220325   5.104   5.710   3.368
 6476SOL     OW20326   4.584   4.084   6.028
 6476SOL    HW120327   4.628   3.996   6.008
 6476SOL    HW220328   4.626   4.125   6.109
 6477SOL     OW20329   0.526   6.228   1.084
 6477SOL    HW120330   0.473   6.204   1.165
 6477SOL    HW220331   0.481   6.304   1.036
 6478SOL     OW20332   1.732   6.343   0.699
 6478SOL    HW120333   1.644   6.354   0.653
 6478SOL    HW220334   1.719   6.292   0.784
 6479SOL     OW20335   4.599   5.623   3.544
 6479SOL    HW120336   4.598   5.625   3.644
 6479SOL    HW220337   4.512   5.656   3.509
 6480SOL     OW20338   3.417   1.245   5.621
 6480SOL    HW120339   3.391   1.317   5.685
 6480SOL    HW220340   3.335   1.203   5.583
 6481SOL     OW20341   4.445   3.126   1.698
 6481SOL    HW120342   4.509   3.090   1.766
 6481SOL    HW220343   4.351   3.101   1.723
 6482SOL     OW20344   4.987   2.960   5.401
 6482SOL    HW120345   5.035   2.947   5.314
 6482SOL    HW220346   4.941   3.048   5.402
 6483SOL     OW20347   2.026   5.809   5.859
 6483SOL    HW120348   1.927   5.794   5.860
 6483SOL    HW220349   2.066   5.761   5.780
 6484SOL     OW20350   3.706   1.484   2.759
 6484SOL    HW120351   3.611   1.460   2.780
 6484SOL    HW220352   3.738   1.429   2.682
 6485SOL     OW20353   2.612   4.990   4.770
 6485SOL    HW120354   2.639   5.034   4.856
 6485SOL    HW220355   2.671   4.910   4.753
 6486SOL     OW20356   0.026   4.001   2.184
 6486SOL    HW120357   0.055   4.023   2.090
 6486SOL    HW220358   0.085   3.928   2.219
 6487SOL     OW20359   6.122   5.102   4.565
 6487SOL    HW120360   6.100   5.186   4.614
 6487SOL    HW220361   6.179   5.044   4.623
 6488SOL     OW20362   3.843   5.108   3.764
 6488SOL    HW120363   3.942   5.103   3.751
 6488SOL    HW220364   3.809   5.194   3.726
 6489SOL     OW20365   6.508   3.076   5.061
 6489SOL    HW120366   6.572   3.066   5.137
 6489SOL    HW220367   6.533   3.156   5.006
 6490SOL     OW20368   1.943   2.810   0.641
 6490SOL    HW120369   2.021   2.815   0.578
 6490SOL    HW220370   1.972   2.841   0.732
 6491SOL     OW20371   1.793   0.901   1.598
 6491SOL    HW120372   1.811   0.911   1.500
 6491SOL    HW220373   1.716   0.838   1.610
 6492SOL     OW20374   4.136   3.500   3.899
 6492SOL    HW120375   4.078   3.550   3.963
 6492SOL    HW220376   4.147   3.406   3.930
 6493SOL     OW20377   1.271   4.926   3.916
 6493SOL    HW120378   1.181   4.933   3.958
 6493SOL    HW220379   1.333   4.992   3.958
 6494SOL     OW20380   6.419   0.992   1.420
 6494SOL    HW120381   6.363   0.909   1.428
 6494SOL    HW220382   6.483   0.996   1.497
 6495SOL     OW20383   6.739   6.733   3.069
 6495SOL    HW120384   6.810   6.750   3.000
 6495SOL    HW220385   6.771   6.664   3.134
 6496SOL     OW20386   3.037   2.278   1.617
 6496SOL    HW120387   3.093   2.196   1.631
 6496SOL    HW220388   3.030   2.328   1.704
 6497SOL     OW20389   0.780   2.061   1.070
 6497SOL    HW120390   0.691   2.087   1.032
 6497SOL    HW220391   0.798   2.114   1.152
 6498SOL     OW20392   1.959   4.646   4.181
 6498SOL    HW120393   2.032   4.581   4.159
 6498SOL    HW220394   1.988   4.705   4.257
 6499SOL     OW20395   5.236   2.471   3.198
 6499SOL    HW120396   5.162   2.479   3.131
 6499SOL    HW220397   5.306   2.540   3.178
 6500SOL     OW20398   1.459   3.834   2.930
 6500SOL    HW120399   1.518   3.894   2.985
 6500SOL    HW220400   1.404   3.777   2.991
 6501SOL     OW20401   6.661   0.670   2.636
 6501SOL    HW120402   6.637   0.684   2.732
 6501SOL    HW220403   6.724   0.592   2.629
 6502SOL     OW20404   0.748   3.029   2.131
 6502SOL    HW120405   0.690   3.010   2.210
 6502SOL    HW220406   0.832   2.975   2.138
 6503SOL     OW20407   7.009   2.878   5.500
 6503SOL    HW120408   0.007   2.786   5.536
 6503SOL    HW220409   6.937   2.872   5.430
 6504SOL     OW20410   4.457   0.107   6.125
 6504SOL    HW120411   4.435   0.016   6.090
 6504SOL    HW220412   4.400   0.176   6.080
 6505SOL     OW20413   0.253   6.271   0.369
 6505SOL    HW120414   0.192   6.237   0.440
 6505SOL    HW220415   0.345   6.235   0.384
 6506SOL     OW20416   6.596   3.880   1.916
 6506SOL    HW120417   6.554   3.958   1.869
 6506SOL    HW220418   6.529   3.807   1.926
 6507SOL     OW20419   3.958   5.514   1.281
 6507SOL    HW120420   4.045   5.478   1.247
 6507SOL    HW220421   3.975   5.590   1.343
 6508SOL     OW20422   6.741   0.537   3.903
 6508SOL    HW120423   6.805   0.608   3.932
 6508SOL    HW220424   6.719   0.549   3.806
 6509SOL     OW20425   2.084   1.716   0.390
 6509SOL    HW120426   2.111   1.769   0.471
 6509SOL    HW220427   2.153   1.726   0.319
 6510SOL     OW20428   3.388   4.937   4.284
 6510SOL    HW120429   3.327   5.012   4.259
 6510SOL    HW220430   3.419   4.891   4.200
 6511SOL     OW20431   3.191   2.802   6.869
 6511SOL    HW120432   3.104   2.829   6.830
 6511SOL    HW220433   3.266   2.836   6.813
 6512SOL     OW20434   5.051   0.896   0.814
 6512SOL    HW120435   5.046   0.798   0.834
 6512SOL    HW220436   5.127   0.936   0.866
 6513SOL     OW20437   3.002   4.895   2.683
 6513SOL    HW120438   3.039   4.865   2.595
 6513SOL    HW220439   2.980   4.992   2.679
 6514SOL     OW20440   5.176   5.668   5.556
 6514SOL    HW120441   5.163   5.765   5.575
 6514SOL    HW220442   5.185   5.618   5.642
 6515SOL     OW20443   0.789   4.942   2.361
 6515SOL    HW120444   0.881   4.906   2.376
 6515SOL    HW220445   0.750   4.901   2.279
 6516SOL     OW20446   6.115   1.442   3.529
 6516SOL    HW120447   6.102   1.503   3.607
 6516SOL    HW220448   6.143   1.352   3.561
 6517SOL     OW20449   6.752   3.960   0.765
 6517SOL    HW120450   6.828   3.992   0.822
 6517SOL    HW220451   6.770   3.867   0.734
 6518SOL     OW20452   0.752   1.399   2.382
 6518SOL    HW120453   0.820   1.470   2.366
 6518SOL    HW220454   0.669   1.440   2.420
 6519SOL     OW20455   1.216   1.495   3.115
 6519SOL    HW120456   1.165   1.551   3.050
 6519SOL    HW220457   1.177   1.403   3.118
 6520SOL     OW20458   6.055   5.621   6.861
 6520SOL    HW120459   6.151   5.604   6.837
 6520SOL    HW220460   6.050   5.693   6.930
 6521SOL     OW20461   1.796   4.168   4.574
 6521SOL    HW120462   1.703   4.192   4.548
 6521SOL    HW220463   1.800   4.072   4.602
 6522SOL     OW20464   2.079   3.090   5.030
 6522SOL    HW120465   2.053   3.102   5.126
 6522SOL    HW220466   2.175   3.066   5.023
 6523SOL     OW20467   5.660   6.644   0.660
 6523SOL    HW120468   5.699   6.614   0.573
 6523SOL    HW220469   5.561   6.635   0.656
 6524SOL     OW20470   3.338   2.811   1.466
 6524SOL    HW120471   3.405   2.780   1.533
 6524SOL    HW220472   3.251   2.829   1.511
 6525SOL     OW20473   2.093   4.906   3.820
 6525SOL    HW120474   2.143   4.819   3.829
 6525SOL    HW220475   2.102   4.941   3.727
 6526SOL     OW20476   6.515   6.716   0.410
 6526SOL    HW120477   6.596   6.658   0.405
 6526SOL    HW220478   6.438   6.670   0.366
 6527SOL     OW20479   4.988   1.526   1.249
 6527SOL    HW120480   5.059   1.576   1.298
 6527SOL    HW220481   4.906   1.519   1.306
 6528SOL     OW20482   4.612   6.531   0.036
 6528SOL    HW120483   4.525   6.579   0.051
 6528SOL    HW220484   4.636   6.479   0.117
 6529SOL     OW20485   4.438   0.320   1.744
 6529SOL    HW120486   4.373   0.328   1.820
 6529SOL    HW220487   4.395   0.270   1.669
 6530SOL     OW20488   6.895   2.801   3.866
 6530SOL    HW120489   6.926   2.838   3.953
 6530SOL    HW220490   6.957   2.828   3.793
 6531SOL     OW20491   4.041   3.065   3.692
 6531SOL    HW120492   3.992   3.058   3.779
 6531SOL    HW220493   3.989   3.018   3.621
 6532SOL     OW20494   0.670   5.721   0.095
 6532SOL    HW120495   0.582   5.761   0.122
 6532SOL    HW220496   0.724   5.704   0.177
 6533SOL     OW20497   5.287   5.406   1.345
 6533SOL    HW120498   5.236   5.321   1.334
 6533SOL    HW220499   5.311   5.419   1.441
 6534SOL     OW20500   6.859   3.162   3.990
 6534SOL    HW120501   6.956   3.168   4.014
 6534SOL    HW220502   6.843   3.204   3.901
 6535SOL     OW20503   5.285   3.877   5.981
 6535SOL    HW120504   5.350   3.909   5.912
 6535SOL    HW220505   5.227   3.953   6.010
 6536SOL     OW20506   0.419   4.762   5.367
 6536SOL    HW120507   0.511   4.796   5.387
 6536SOL    HW220508   0.400   4.683   5.426
 6537SOL     OW20509   6.953   5.499   4.560
 6537SOL    HW120510   6.890   5.424   4.539
 6537SOL    HW220511   6.912   5.586   4.535
 6538SOL     OW20512   1.610   3.304   3.542
 6538SOL    HW120513   1.641   3.242   3.614
 6538SOL    HW220514   1.682   3.371   3.523
 6539SOL     OW20515   4.881   0.023   6.644
 6539SOL    HW120516   4.803   0.008   6.584
 6539SOL    HW220517   4.945   6.967   6.636
 6540SOL     OW20518   0.435   2.286   4.772
 6540SOL    HW120519   0.445   2.384   4.755
 6540SOL    HW220520   0.342   2.266   4.801
 6541SOL     OW20521   3.813   1.597   5.440
 6541SOL    HW120522   3.730   1.541   5.447
 6541SOL    HW220523   3.894   1.537   5.445
 6542SOL     OW20524   1.700   4.575   2.190
 6542SOL    HW120525   1.664   4.482   2.192
 6542SOL    HW220526   1.670   4.622   2.107
 6543SOL     OW20527   4.393   1.342   4.237
 6543SOL    HW120528   4.492   1.356   4.240
 6543SOL    HW220529   4.372   1.250   4.269
 6544SOL     OW20530   0.772   0.349   1.042
 6544SOL    HW120531   0.679   0.356   1.078
 6544SOL    HW220532   0.837   0.377   1.112
 6545SOL     OW20533   5.835   6.098   0.659
 6545SOL    HW120534   5.825   6.092   0.759
 6545SOL    HW220535   5.746   6.114   0.618
 6546SOL     OW20536   4.701   5.149   5.388
 6546SOL    HW120537   4.648   5.232   5.373
 6546SOL    HW220538   4.695   5.090   5.308
 6547SOL     OW20539   0.968   6.293   5.401
 6547SOL    HW120540   0.939   6.351   5.477
 6547SOL    HW220541   0.893   6.283   5.336
 6548SOL     OW20542   1.188   1.846   6.371
 6548SOL    HW120543   1.264   1.789   6.339
 6548SOL    HW220544   1.138   1.882   6.292
 6549SOL     OW20545   3.803   1.311   2.585
 6549SOL    HW120546   3.795   1.227   2.639
 6549SOL    HW220547   3.788   1.290   2.488
 6550SOL     OW20548   6.331   6.679   1.740
 6550SOL    HW120549   6.379   6.711   1.658
 6550SOL    HW220550   6.355   6.736   1.818
 6551SOL     OW20551   2.692   4.886   0.837
 6551SOL    HW120552   2.767   4.856   0.778
 6551SOL    HW220553   2.616   4.917   0.781
 6552SOL     OW20554   2.060   4.132   6.975
 6552SOL    HW120555   2.155   4.143   7.003
 6552SOL    HW220556   2.020   4.221   6.955
 6553SOL     OW20557   6.875   1.791   3.429
 6553SOL    HW120558   6.800   1.828   3.373
 6553SOL    HW220559   6.860   1.693   3.444
 6554SOL     OW20560   1.164   2.461   3.486
 6554SOL    HW120561   1.176   2.445   3.388
 6554SOL    HW220562   1.250   2.492   3.526
 6555SOL     OW20563   1.539   4.140   3.147
 6555SOL    HW120564   1.542   4.225   3.096
 6555SOL    HW220565   1.498   4.156   3.237
 6556SOL     OW20566   4.924   3.438   3.075
 6556SOL    HW120567   5.016   3.407   3.052
 6556SOL    HW220568   4.893   3.390   3.157
 6557SOL     OW20569   2.206   0.613   2.467
 6557SOL    HW120570   2.136   0.548   2.498
 6557SOL    HW220571   2.274   0.625   2.539
 6558SOL     OW20572   5.369   5.603   0.830
 6558SOL    HW120573   5.438   5.586   0.760
 6558SOL    HW220574   5.364   5.524   0.892
 6559SOL     OW20575   0.568   1.940   6.168
 6559SOL    HW120576   0.535   1.992   6.090
 6559SOL    HW220577   0.522   1.971   6.251
 6560SOL     OW20578   6.868   5.047   6.425
 6560SOL    HW120579   6.787   5.094   6.462
 6560SOL    HW220580   6.866   4.951   6.450
 6561SOL     OW20581   2.668   5.289   0.726
 6561SOL    HW120582   2.652   5.376   0.678
 6561SOL    HW220583   2.604   5.220   0.692
 6562SOL     OW20584   4.930   2.544   1.908
 6562SOL    HW120585   4.963   2.534   2.002
 6562SOL    HW220586   4.911   2.641   1.890
 6563SOL     OW20587   6.271   5.387   5.476
 6563SOL    HW120588   6.343   5.456   5.486
 6563SOL    HW220589   6.199   5.423   5.416
 6564SOL     OW20590   5.352   3.087   2.608
 6564SOL    HW120591   5.282   3.133   2.663
 6564SOL    HW220592   5.384   3.149   2.536
 6565SOL     OW20593   5.273   5.739   2.420
 6565SOL    HW120594   5.316   5.715   2.507
 6565SOL    HW220595   5.201   5.807   2.436
 6566SOL     OW20596   5.389   5.351   3.834
 6566SOL    HW120597   5.416   5.446   3.816
 6566SOL    HW220598   5.343   5.345   3.922
 6567SOL     OW20599   3.380   0.752   2.780
 6567SOL    HW120600   3.328   0.816   2.838
 6567SOL    HW220601   3.387   0.789   2.688
 6568SOL     OW20602   5.849   0.890   0.978
 6568SOL    HW120603   5.751   0.873   0.964
 6568SOL    HW220604   5.901   0.847   0.905
 6569SOL     OW20605   1.466   4.727   3.201
 6569SOL    HW120606   1.487   4.702   3.107
 6569SOL    HW220607   1.524   4.803   3.230
 6570SOL     OW20608   4.423   0.413   2.496
 6570SOL    HW120609   4.398   0.356   2.574
 6570SOL    HW220610   4.517   0.446   2.507
 6571SOL     OW20611   2.658   6.426   2.862
 6571SOL    HW120612   2.660   6.408   2.764
 6571SOL    HW220613   2.572   6.470   2.887
 6572SOL     OW20614   1.962   6.200   3.841
 6572SOL    HW120615   1.922   6.145   3.768
 6572SOL    HW220616   2.013   6.141   3.903
 6573SOL     OW20617   0.044   2.060   3.628
 6573SOL    HW120618   0.137   2.034   3.655
 6573SOL    HW220619   0.038   2.064   3.529
 6574SOL     OW20620   0.318   5.431   1.955
 6574SOL    HW120621   0.305   5.435   1.856
 6574SOL    HW220622   0.234   5.396   1.998
 6575SOL     OW20623   6.963   1.502   3.464
 6575SOL    HW120624   0.026   1.550   3.438
 6575SOL    HW220625   6.910   1.480   3.383
 6576SOL     OW20626   3.850   0.042   1.548
 6576SOL    HW120627   3.778   0.086   1.494
 6576SOL    HW220628   3.939   0.082   1.524
 6577SOL     OW20629   3.516   1.218   4.959
 6577SOL    HW120630   3.485   1.150   4.892
 6577SOL    HW220631   3.494   1.309   4.925
 6578SOL     OW20632   0.955   5.418   7.008
 6578SOL    HW120633   0.869   5.466   6.992
 6578SOL    HW220634   0.939   5.338   0.045
 6579SOL     OW20635   1.639   1.909   3.831
 6579SOL    HW120636   1.720   1.850   3.828
 6579SOL    HW220637   1.631   1.957   3.743
 6580SOL     OW20638   3.087   2.507   0.179
 6580SOL    HW120639   2.989   2.525   0.177
 6580SOL    HW220640   3.107   2.433   0.244
 6581SOL     OW20641   0.613   2.768   2.344
 6581SOL    HW120642   0.539   2.802   2.287
 6581SOL    HW220643   0.602   2.801   2.438
 6582SOL     OW20644   4.636   0.526   3.094
 6582SOL    HW120645   4.667   0.535   3.189
 6582SOL    HW220646   4.640   0.615   3.049
 6583SOL     OW20647   2.671   4.448   0.882
 6583SOL    HW120648   2.683   4.542   0.914
 6583SOL    HW220649   2.744   4.390   0.919
 6584SOL     OW20650   3.929   3.010   6.191
 6584SOL    HW120651   3.893   2.944   6.258
 6584SOL    HW220652   3.995   2.963   6.131
 6585SOL     OW20653   5.244   6.907   1.666
 6585SOL    HW120654   5.273   6.948   1.752
 6585SOL    HW220655   5.282   6.958   1.589
 6586SOL     OW20656   6.829   1.285   6.814
 6586SOL    HW120657   6.755   1.218   6.825
 6586SOL    HW220658   6.802   1.355   6.749
 6587SOL     OW20659   3.193   5.267   5.196
 6587SOL    HW120660   3.198   5.315   5.283
 6587SOL    HW220661   3.149   5.178   5.209
 6588SOL     OW20662   0.957   1.397   0.348
 6588SOL    HW120663   0.955   1.492   0.317
 6588SOL    HW220664   0.896   1.342   0.290
 6589SOL     OW20665   6.131   6.893   1.684
 6589SOL    HW120666   6.191   6.967   1.653
 6589SOL    HW220667   6.185   6.810   1.697
 6590SOL     OW20668   1.337   6.305   4.528
 6590SOL    HW120669   1.343   6.205   4.534
 6590SOL    HW220670   1.287   6.340   4.607
 6591SOL     OW20671   6.444   3.128   3.537
 6591SOL    HW120672   6.499   3.095   3.461
 6591SOL    HW220673   6.348   3.130   3.509
 6592SOL     OW20674   0.159   0.937   3.894
 6592SOL    HW120675   0.253   0.912   3.917
 6592SOL    HW220676   0.129   0.886   3.813
 6593SOL     OW20677   1.628   0.530   2.703
 6593SOL    HW120678   1.540   0.578   2.703
 6593SOL    HW220679   1.700   0.593   2.674
 6594SOL     OW20680   5.789   0.289   6.758
 6594SOL    HW120681   5.800   0.387   6.772
 6594SOL    HW220682   5.718   0.273   6.689
 6595SOL     OW20683   1.292   1.628   4.960
 6595SOL    HW120684   1.337   1.540   4.979
 6595SOL    HW220685   1.322   1.661   4.871
 6596SOL     OW20686   5.625   0.522   2.988
 6596SOL    HW120687   5.693   0.458   2.952
 6596SOL    HW220688   5.556   0.541   2.918
 6597SOL     OW20689   0.978   4.776   1.022
 6597SOL    HW120690   0.927   4.693   1.045
 6597SOL    HW220691   0.981   4.787   0.923
 6598SOL     OW20692   1.027   4.849   2.380
 6598SOL    HW120693   1.053   4.753   2.377
 6598SOL    HW220694   1.109   4.906   2.387
 6599SOL     OW20695   0.822   5.484   6.363
 6599SOL    HW120696   0.725   5.484   6.337
 6599SOL    HW220697   0.853   5.578   6.373
 6600SOL     OW20698   4.324   6.335   4.945
 6600SOL    HW120699   4.412   6.375   4.919
 6600SOL    HW220700   4.294   6.273   4.873
 6601SOL     OW20701   1.208   2.811   2.072
 6601SOL    HW120702   1.209   2.727   2.125
 6601SOL    HW220703   1.301   2.831   2.039
 6602SOL     OW20704   6.238   5.567   0.889
 6602SOL    HW120705   6.179   5.492   0.860
 6602SOL    HW220706   6.222   5.646   0.830
 6603SOL     OW20707   0.006   4.252   2.329
 6603SOL    HW120708   6.966   4.325   2.297
 6603SOL    HW220709   7.006   4.167   2.282
 6604SOL     OW20710   1.400   5.354   2.623
 6604SOL    HW120711   1.325   5.396   2.674
 6604SOL    HW220712   1.421   5.410   2.543
 6605SOL     OW20713   0.172   5.112   0.785
 6605SOL    HW120714   0.249   5.048   0.781
 6605SOL    HW220715   0.182   5.170   0.865
 6606SOL     OW20716   1.715   4.152   2.490
 6606SOL    HW120717   1.681   4.137   2.397
 6606SOL    HW220718   1.638   4.151   2.554
 6607SOL     OW20719   6.648   3.506   4.281
 6607SOL    HW120720   6.612   3.455   4.360
 6607SOL    HW220721   6.575   3.560   4.240
 6608SOL     OW20722   1.097   0.645   5.321
 6608SOL    HW120723   1.012   0.592   5.325
 6608SOL    HW220724   1.158   0.605   5.254
 6609SOL     OW20725   3.023   2.539   6.821
 6609SOL    HW120726   3.030   2.634   6.850
 6609SOL    HW220727   2.941   2.527   6.766
 6610SOL     OW20728   2.763   0.003   1.304
 6610SOL    HW120729   2.739   6.936   1.262
 6610SOL    HW220730   2.831   0.049   1.249
 6611SOL     OW20731   3.120   1.308   4.590
 6611SOL    HW120732   3.150   1.215   4.569
 6611SOL    HW220733   3.149   1.332   4.682
 6612SOL     OW20734   0.391   6.938   0.183
 6612SOL    HW120735   0.316   6.932   0.249
 6612SOL    HW220736   0.362   6.995   0.106
 6613SOL     OW20737   3.787   6.389   1.609
 6613SOL    HW120738   3.823   6.432   1.526
 6613SOL    HW220739   3.823   6.296   1.615
 6614SOL     OW20740   3.656   4.579   0.873
 6614SOL    HW120741   3.617   4.535   0.792
 6614SOL    HW220742   3.625   4.532   0.955
 6615SOL     OW20743   3.172   5.511   6.090
 6615SOL    HW120744   3.131   5.432   6.045
 6615SOL    HW220745   3.271   5.511   6.077
 6616SOL     OW20746   4.200   1.617   6.776
 6616SOL    HW120747   4.207   1.625   6.676
 6616SOL    HW220748   4.135   1.544   6.799
 6617SOL     OW20749   3.444   1.601   3.896
 6617SOL    HW120750   3.527   1.578   3.846
 6617SOL    HW220751   3.413   1.692   3.870
 6618SOL     OW20752   5.847   3.401   4.108
 6618SOL    HW120753   5.781   3.475   4.098
 6618SOL    HW220754   5.889   3.383   4.019
 6619SOL     OW20755   4.956   5.215   4.122
 6619SOL    HW120756   4.966   5.179   4.215
 6619SOL    HW220757   5.041   5.200   4.071
 6620SOL     OW20758   1.297   3.072   3.049
 6620SOL    HW120759   1.302   3.040   3.144
 6620SOL    HW220760   1.387   3.102   3.019
 6621SOL     OW20761   3.443   3.612   3.659
 6621SOL    HW120762   3.478   3.697   3.698
 6621SOL    HW220763   3.514   3.570   3.602
 6622SOL     OW20764   0.357   4.925   0.922
 6622SOL    HW120765   0.317   4.965   1.004
 6622SOL    HW220766   0.358   4.826   0.930
 6623SOL     OW20767   3.687   3.559   3.496
 6623SOL    HW120768   3.701   3.630   3.428
 6623SOL    HW220769   3.649   3.477   3.452
 6624SOL     OW20770   2.393   2.258   3.164
 6624SOL    HW120771   2.445   2.265   3.078
 6624SOL    HW220772   2.457   2.253   3.241
 6625SOL     OW20773   0.142   4.266   5.081
 6625SOL    HW120774   0.114   4.198   5.149
 6625SOL    HW220775   0.232   4.303   5.105
 6626SOL     OW20776   3.105   5.870   5.539
 6626SOL    HW120777   3.115   5.791   5.600
 6626SOL    HW220778   3.181   5.933   5.553
 6627SOL     OW20779   2.427   6.867   4.183
 6627SOL    HW120780   2.349   6.850   4.123
 6627SOL    HW220781   2.475   6.949   4.152
 6628SOL     OW20782   3.477   0.766   3.155
 6628SOL    HW120783   3.460   0.755   3.253
 6628SOL    HW220784   3.519   0.856   3.139
 6629SOL     OW20785   4.084   5.731   5.019
 6629SOL    HW120786   4.171   5.777   5.033
 6629SOL    HW220787   4.093   5.634   5.042
 6630SOL     OW20788   1.678   0.145   0.410
 6630SOL    HW120789   1.679   0.244   0.425
 6630SOL    HW220790   1.590   0.108   0.441
 6631SOL     OW20791   1.599   2.312   5.839
 6631SOL    HW120792   1.617   2.285   5.745
 6631SOL    HW220793   1.675   2.368   5.873
 6632SOL     OW20794   1.178   0.285   6.440
 6632SOL    HW120795   1.257   0.346   6.437
 6632SOL    HW220796   1.152   0.268   6.535
 6633SOL     OW20797   4.396   6.325   5.848
 6633SOL    HW120798   4.390   6.312   5.947
 6633SOL    HW220799   4.304   6.320   5.808
 6634SOL     OW20800   2.971   2.194   3.468
 6634SOL    HW120801   2.889   2.250   3.482
 6634SOL    HW220802   2.973   2.161   3.374
 6635SOL     OW20803   5.078   5.793   5.917
 6635SOL    HW120804   5.025   5.858   5.863
 6635SOL    HW220805   5.164   5.835   5.946
 6636SOL     OW20806   4.370   1.153   1.090
 6636SOL    HW120807   4.374   1.223   1.018
 6636SOL    HW220808   4.448   1.091   1.080
 6637SOL     OW20809   0.103   1.901   6.846
 6637SOL    HW120810   0.048   1.979   6.877
 6637SOL    HW220811   0.082   1.883   6.749
 6638SOL     OW20812   3.199   3.535   3.508
 6638SOL    HW120813   3.267   3.547   3.580
 6638SOL    HW220814   3.233   3.469   3.441
 6639SOL     OW20815   4.819   2.676   1.568
 6639SOL    HW120816   4.772   2.761   1.595
 6639SOL    HW220817   4.755   2.618   1.518
 6640SOL     OW20818   1.278   4.134   4.594
 6640SOL    HW120819   1.290   4.110   4.691
 6640SOL    HW220820   1.314   4.061   4.537
 6641SOL     OW20821   6.119   2.485   0.097
 6641SOL    HW120822   6.021   2.490   0.078
 6641SOL    HW220823   6.156   2.578   0.108
 6642SOL     OW20824   1.043   5.148   5.950
 6642SOL    HW120825   0.984   5.145   6.032
 6642SOL    HW220826   1.063   5.054   5.921
 6643SOL     OW20827   4.082   5.690   6.058
 6643SOL    HW120828   4.173   5.690   6.098
 6643SOL    HW220829   4.013   5.688   6.131
 6644SOL     OW20830   2.113   0.527   3.591
 6644SOL    HW120831   2.191   0.469   3.566
 6644SOL    HW220832   2.078   0.572   3.509
 6645SOL     OW20833   4.423   2.271   5.848
 6645SOL    HW120834   4.359   2.336   5.806
 6645SOL    HW220835   4.499   2.321   5.889
 6646SOL     OW20836   4.518   0.081   5.835
 6646SOL    HW120837   4.441   0.137   5.804
 6646SOL    HW220838   4.513   0.070   5.934
 6647SOL     OW20839   3.912   4.451   1.464
 6647SOL    HW120840   3.952   4.380   1.406
 6647SOL    HW220841   3.920   4.425   1.560
 6648SOL     OW20842   3.348   5.506   5.699
 6648SOL    HW120843   3.348   5.413   5.734
 6648SOL    HW220844   3.424   5.557   5.739
 6649SOL     OW20845   4.879   2.960   6.054
 6649SOL    HW120846   4.904   3.015   5.974
 6649SOL    HW220847   4.799   2.999   6.099
 6650SOL     OW20848   2.376   1.374   5.168
 6650SOL    HW120849   2.358   1.353   5.264
 6650SOL    HW220850   2.312   1.445   5.137
 6651SOL     OW20851   0.021   1.544   4.501
 6651SOL    HW120852   6.970   1.511   4.562
 6651SOL    HW220853   7.003   1.559   4.410
 6652SOL     OW20854   0.022   4.456   6.662
 6652SOL    HW120855   6.987   4.393   6.608
 6652SOL    HW220856   0.080   4.403   6.725
 6653SOL     OW20857   5.486   4.284   6.845
 6653SOL    HW120858   5.415   4.352   6.826
 6653SOL    HW220859   5.456   4.224   6.920
 6654SOL     OW20860   6.485   2.265   3.101
 6654SOL    HW120861   6.408   2.202   3.094
 6654SOL    HW220862   6.522   2.263   3.194
 6655SOL     OW20863   6.599   5.877   1.276
 6655SOL    HW120864   6.577   5.961   1.325
 6655SOL    HW220865   6.534   5.805   1.301
 6656SOL     OW20866   4.051   1.004   2.420
 6656SOL    HW120867   4.075   1.080   2.480
 6656SOL    HW220868   4.035   0.922   2.474
 6657SOL     OW20869   4.666   1.763   4.886
 6657SOL    HW120870   4.617   1.832   4.939
 6657SOL    HW220871   4.697   1.802   4.800
 6658SOL     OW20872   7.014   5.671   4.783
 6658SOL    HW120873   0.072   5.721   4.747
 6658SOL    HW220874   6.971   5.620   4.709
 6659SOL     OW20875   0.442   5.416   0.734
 6659SOL    HW120876   0.534   5.413   0.773
 6659SOL    HW220877   0.409   5.323   0.718
 6660SOL     OW20878   0.826   0.379   4.394
 6660SOL    HW120879   0.786   0.456   4.444
 6660SOL    HW220880   0.813   0.295   4.446
 6661SOL     OW20881   4.151   6.214   3.674
 6661SOL    HW120882   4.199   6.209   3.761
 6661SOL    HW220883   4.127   6.122   3.644
 6662SOL     OW20884   3.405   6.966   2.477
 6662SOL    HW120885   3.440   6.899   2.543
 6662SOL    HW220886   3.305   6.965   2.478
 6663SOL     OW20887   1.989   4.340   5.317
 6663SOL    HW120888   1.951   4.253   5.351
 6663SOL    HW220889   2.081   4.353   5.352
 6664SOL     OW20890   3.628   0.032   1.862
 6664SOL    HW120891   3.571   0.024   1.944
 6664SOL    HW220892   3.591   6.995   1.790
 6665SOL     OW20893   2.532   0.354   0.336
 6665SOL    HW120894   2.600   0.331   0.406
 6665SOL    HW220895   2.554   0.443   0.296
 6666SOL     OW20896   2.872   6.158   5.832
 6666SOL    HW120897   2.961   6.154   5.879
 6666SOL    HW220898   2.831   6.067   5.833
 6667SOL     OW20899   1.374   5.652   0.241
 6667SOL    HW120900   1.363   5.751   0.234
 6667SOL    HW220901   1.284   5.609   0.242
 6668SOL     OW20902   6.920   4.002   6.870
 6668SOL    HW120903   6.977   3.949   6.806
 6668SOL    HW220904   6.841   4.039   6.821
 6669SOL     OW20905   1.319   2.805   3.278
 6669SOL    HW120906   1.383   2.793   3.202
 6669SOL    HW220907   1.363   2.776   3.363
 6670SOL     OW20908   3.207   3.389   0.416
 6670SOL    HW120909   3.256   3.469   0.381
 6670SOL    HW220910   3.174   3.407   0.509
 6671SOL     OW20911   4.682   4.819   0.654
 6671SOL    HW120912   4.597   4.784   0.614
 6671SOL    HW220913   4.740   4.742   0.680
 6672SOL     OW20914   1.734   2.950   1.262
 6672SOL    HW120915   1.804   2.885   1.233
 6672SOL    HW220916   1.661   2.900   1.310
 6673SOL     OW20917   5.676   3.612   4.036
 6673SOL    HW120918   5.657   3.693   4.091
 6673SOL    HW220919   5.590   3.568   4.010
 6674SOL     OW20920   6.988   0.351   0.497
 6674SOL    HW120921   6.904   0.371   0.548
 6674SOL    HW220922   0.045   0.347   0.560
 6675SOL     OW20923   4.695   1.327   0.108
 6675SOL    HW120924   4.730   1.300   0.018
 6675SOL    HW220925   4.647   1.249   0.149
 6676SOL     OW20926   0.993   4.124   5.131
 6676SOL    HW120927   0.906   4.133   5.181
 6676SOL    HW220928   1.058   4.191   5.166
 6677SOL     OW20929   0.323   2.330   6.688
 6677SOL    HW120930   0.236   2.350   6.734
 6677SOL    HW220931   0.387   2.291   6.754
 6678SOL     OW20932   3.166   4.299   6.679
 6678SOL    HW120933   3.125   4.380   6.637
 6678SOL    HW220934   3.096   4.229   6.692
 6679SOL     OW20935   1.128   0.619   4.141
 6679SOL    HW120936   1.199   0.599   4.073
 6679SOL    HW220937   1.110   0.538   4.196
 6680SOL     OW20938   6.284   4.846   1.626
 6680SOL    HW120939   6.377   4.845   1.589
 6680SOL    HW220940   6.286   4.876   1.721
 6681SOL     OW20941   2.796   5.916   1.286
 6681SOL    HW120942   2.819   5.846   1.354
 6681SOL    HW220943   2.813   6.007   1.325
 6682SOL     OW20944   2.321   5.481   6.527
 6682SOL    HW120945   2.410   5.445   6.498
 6682SOL    HW220946   2.302   5.566   6.477
 6683SOL     OW20947   6.751   5.655   5.666
 6683SOL    HW120948   6.829   5.704   5.629
 6683SOL    HW220949   6.779   5.604   5.748
 6684SOL     OW20950   2.900   5.730   6.455
 6684SOL    HW120951   2.890   5.653   6.392
 6684SOL    HW220952   2.828   5.726   6.524
 6685SOL     OW20953   4.186   2.782   0.929
 6685SOL    HW120954   4.154   2.749   1.018
 6685SOL    HW220955   4.187   2.882   0.928
 6686SOL     OW20956   4.701   4.676   5.470
 6686SOL    HW120957   4.635   4.601   5.480
 6686SOL    HW220958   4.670   4.755   5.524
 6687SOL     OW20959   0.342   2.122   1.161
 6687SOL    HW120960   0.246   2.113   1.185
 6687SOL    HW220961   0.352   2.115   1.062
 6688SOL     OW20962   4.701   6.137   0.718
 6688SOL    HW120963   4.633   6.190   0.769
 6688SOL    HW220964   4.703   6.043   0.752
 6689SOL     OW20965   3.576   5.012   6.338
 6689SOL    HW120966   3.640   5.086   6.321
 6689SOL    HW220967   3.521   4.996   6.256
 6690SOL     OW20968   0.914   0.709   0.337
 6690SOL    HW120969   0.908   0.694   0.436
 6690SOL    HW220970   0.929   0.622   0.291
 6691SOL     OW20971   2.604   1.772   2.129
 6691SOL    HW120972   2.700   1.792   2.107
 6691SOL    HW220973   2.600   1.717   2.213
 6692SOL     OW20974   4.359   6.428   2.097
 6692SOL    HW120975   4.414   6.352   2.065
 6692SOL    HW220976   4.267   6.422   2.058
 6693SOL     OW20977   3.350   1.473   5.762
 6693SOL    HW120978   3.251   1.460   5.762
 6693SOL    HW220979   3.381   1.494   5.855
 6694SOL     OW20980   4.402   3.799   1.598
 6694SOL    HW120981   4.438   3.890   1.615
 6694SOL    HW220982   4.311   3.791   1.639
 6695SOL     OW20983   2.799   2.406   0.460
 6695SOL    HW120984   2.835   2.414   0.553
 6695SOL    HW220985   2.826   2.317   0.422
 6696SOL     OW20986   3.820   2.854   5.198
 6696SOL    HW120987   3.738   2.805   5.228
 6696SOL    HW220988   3.807   2.887   5.104
 6697SOL     OW20989   4.628   1.858   2.651
 6697SOL    HW120990   4.699   1.888   2.588
 6697SOL    HW220991   4.658   1.775   2.698
 6698SOL     OW20992   2.814   3.643   1.751
 6698SOL    HW120993   2.889   3.633   1.817
 6698SOL    HW220994   2.850   3.638   1.658
 6699SOL     OW20995   1.489   3.220   5.918
 6699SOL    HW120996   1.446   3.132   5.896
 6699SOL    HW220997   1.588   3.208   5.926
 6700SOL     OW20998   5.732   0.668   1.178
 6700SOL    HW120999   5.812   0.619   1.141
 6700SOL    HW221000   5.650   0.638   1.131
 6701SOL     OW21001   5.933   6.830   1.893
 6701SOL    HW121002   5.940   6.735   1.862
 6701SOL    HW221003   5.971   6.891   1.824
 6702SOL     OW21004   4.017   2.971   0.651
 6702SOL    HW121005   4.112   2.954   0.676
 6702SOL    HW221006   3.975   2.886   0.618
 6703SOL     OW21007   0.596   1.433   0.209
 6703SOL    HW121008   0.516   1.380   0.238
 6703SOL    HW221009   0.575   1.483   0.126
 6704SOL     OW21010   3.058   0.048   5.767
 6704SOL    HW121011   3.060   0.145   5.791
 6704SOL    HW221012   3.127   7.019   5.820
 6705SOL     OW21013   6.827   4.412   2.230
 6705SOL    HW121014   6.742   4.431   2.278
 6705SOL    HW221015   6.807   4.375   2.139
 6706SOL     OW21016   0.048   6.463   0.649
 6706SOL    HW121017   6.987   6.452   0.706
 6706SOL    HW221018   0.023   6.508   0.563
 6707SOL     OW21019   4.235   1.068   2.980
 6707SOL    HW121020   4.197   0.977   2.994
 6707SOL    HW221021   4.318   1.079   3.034
 6708SOL     OW21022   0.690   3.106   0.106
 6708SOL    HW121023   0.699   3.204   0.124
 6708SOL    HW221024   0.628   3.065   0.173
 6709SOL     OW21025   2.234   4.169   2.273
 6709SOL    HW121026   2.241   4.071   2.255
 6709SOL    HW221027   2.156   4.206   2.222
 6710SOL     OW21028   4.846   1.740   0.980
 6710SOL    HW121029   4.814   1.646   0.990
 6710SOL    HW221030   4.831   1.771   0.886
 6711SOL     OW21031   3.798   5.754   6.115
 6711SOL    HW121032   3.761   5.662   6.126
 6711SOL    HW221033   3.798   5.802   6.203
 6712SOL     OW21034   4.813   4.193   1.488
 6712SOL    HW121035   4.839   4.289   1.498
 6712SOL    HW221036   4.849   4.140   1.565
 6713SOL     OW21037   1.772   4.054   4.194
 6713SOL    HW121038   1.676   4.059   4.168
 6713SOL    HW221039   1.800   4.141   4.234
 6714SOL     OW21040   5.328   1.116   1.593
 6714SOL    HW121041   5.340   1.132   1.495
 6714SOL    HW221042   5.347   1.200   1.643
 6715SOL     OW21043   0.978   0.084   6.043
 6715SOL    HW121044   1.010   0.178   6.034
 6715SOL    HW221045   0.972   0.041   5.953
 6716SOL     OW21046   1.081   5.478   1.349
 6716SOL    HW121047   1.040   5.550   1.406
 6716SOL    HW221048   1.013   5.406   1.332
 6717SOL     OW21049   6.486   1.877   5.798
 6717SOL    HW121050   6.518   1.957   5.747
 6717SOL    HW221051   6.462   1.804   5.735
 6718SOL     OW21052   4.696   1.902   1.175
 6718SOL    HW121053   4.651   1.868   1.258
 6718SOL    HW221054   4.743   1.827   1.129
 6719SOL     OW21055   1.500   1.517   0.398
 6719SOL    HW121056   1.557   1.589   0.439
 6719SOL    HW221057   1.461   1.461   0.471
 6720SOL     OW21058   1.623   1.273   5.716
 6720SOL    HW121059   1.692   1.345   5.720
 6720SOL    HW221060   1.564   1.286   5.636
 6721SOL     OW21061   6.291   6.629   0.293
 6721SOL    HW121062   6.245   6.716   0.314
 6721SOL    HW221063   6.224   6.555   0.295
 6722SOL     OW21064   5.619   4.522   0.632
 6722SOL    HW121065   5.536   4.576   0.648
 6722SOL    HW221066   5.673   4.520   0.716
 6723SOL     OW21067   1.709   3.198   4.448
 6723SOL    HW121068   1.613   3.181   4.427
 6723SOL    HW221069   1.720   3.294   4.476
 6724SOL     OW21070   2.131   4.263   4.262
 6724SOL    HW121071   2.204   4.234   4.200
 6724SOL    HW221072   2.154   4.238   4.356
 6725SOL     OW21073   4.889   3.281   4.268
 6725SOL    HW121074   4.852   3.189   4.255
 6725SOL    HW221075   4.949   3.281   4.348
 6726SOL     OW21076   0.124   1.387   6.406
 6726SOL    HW121077   0.111   1.448   6.484
 6726SOL    HW221078   0.180   1.309   6.435
 6727SOL     OW21079   0.743   4.600   5.359
 6727SOL    HW121080   0.728   4.603   5.260
 6727SOL    HW221081   0.841   4.612   5.378
 6728SOL     OW21082   3.314   1.215   4.163
 6728SOL    HW121083   3.248   1.182   4.095
 6728SOL    HW221084   3.328   1.313   4.152
 6729SOL     OW21085   4.075   0.921   2.026
 6729SOL    HW121086   4.014   0.938   1.949
 6729SOL    HW221087   4.045   0.839   2.075
 6730SOL     OW21088   0.054   2.021   0.707
 6730SOL    HW121089   0.123   1.983   0.645
 6730SOL    HW221090   0.078   2.000   0.801
 6731SOL     OW21091   4.262   0.302   5.996
 6731SOL    HW121092   4.314   0.380   6.032
 6731SOL    HW221093   4.178   0.291   6.049
 6732SOL     OW21094   6.737   5.073   5.641
 6732SOL    HW121095   6.778   5.060   5.732
 6732SOL    HW221096   6.694   5.163   5.637
 6733SOL     OW21097   4.833   4.963   5.055
 6733SOL    HW121098   4.903   4.994   5.119
 6733SOL    HW221099   4.838   5.017   4.971
 6734SOL     OW21100   5.670   2.139   5.142
 6734SOL    HW121101   5.762   2.104   5.126
 6734SOL    HW221102   5.642   2.119   5.236
 6735SOL     OW21103   5.441   2.675   4.430
 6735SOL    HW121104   5.423   2.638   4.339
 6735SOL    HW221105   5.537   2.662   4.453
 6736SOL     OW21106   3.318   3.852   0.642
 6736SOL    HW121107   3.254   3.835   0.716
 6736SOL    HW221108   3.278   3.824   0.555
 6737SOL     OW21109   6.336   3.664   1.100
 6737SOL    HW121110   6.414   3.702   1.148
 6737SOL    HW221111   6.254   3.718   1.121
 6738SOL     OW21112   2.122   6.693   4.775
 6738SOL    HW121113   2.169   6.697   4.863
 6738SOL    HW221114   2.140   6.605   4.732
 6739SOL     OW21115   6.856   6.542   5.856
 6739SOL    HW121116   6.907   6.483   5.919
 6739SOL    HW221117   6.821   6.621   5.906
 6740SOL     OW21118   0.254   6.734   1.937
 6740SOL    HW121119   0.349   6.755   1.956
 6740SOL    HW221120   0.208   6.703   2.020
 6741SOL     OW21121   3.264   1.735   0.271
 6741SOL    HW121122   3.259   1.710   0.174
 6741SOL    HW221123   3.176   1.772   0.300
 6742SOL     OW21124   6.522   4.303   3.093
 6742SOL    HW121125   6.611   4.262   3.070
 6742SOL    HW221126   6.478   4.337   3.010
 6743SOL     OW21127   4.012   3.674   6.800
 6743SOL    HW121128   4.092   3.665   6.740
 6743SOL    HW221129   3.964   3.759   6.780
 6744SOL     OW21130   6.789   6.774   5.546
 6744SOL    HW121131   6.858   6.777   5.619
 6744SOL    HW221132   6.787   6.683   5.506
 6745SOL     OW21133   6.911   4.227   5.409
 6745SOL    HW121134   6.896   4.277   5.323
 6745SOL    HW221135   6.833   4.241   5.469
 6746SOL     OW21136   0.985   2.401   3.163
 6746SOL    HW121137   1.078   2.384   3.195
 6746SOL    HW221138   0.971   2.499   3.150
 6747SOL     OW21139   0.960   6.374   5.073
 6747SOL    HW121140   1.034   6.439   5.091
 6747SOL    HW221141   0.990   6.282   5.101
 6748SOL     OW21142   1.992   0.962   5.026
 6748SOL    HW121143   1.928   0.916   4.964
 6748SOL    HW221144   1.942   1.019   5.090
 6749SOL     OW21145   4.070   5.075   2.453
 6749SOL    HW121146   3.975   5.105   2.444
 6749SOL    HW221147   4.099   5.084   2.549
 6750SOL     OW21148   3.310   1.061   6.059
 6750SOL    HW121149   3.252   0.985   6.028
 6750SOL    HW221150   3.386   1.072   5.995
 6751SOL     OW21151   4.122   0.648   4.322
 6751SOL    HW121152   4.062   0.708   4.269
 6751SOL    HW221153   4.085   0.555   4.322
 6752SOL     OW21154   2.364   4.731   2.639
 6752SOL    HW121155   2.351   4.700   2.545
 6752SOL    HW221156   2.402   4.656   2.694
 6753SOL     OW21157   3.928   3.206   6.879
 6753SOL    HW121158   3.914   3.302   6.903
 6753SOL    HW221159   3.987   3.199   6.800
 6754SOL     OW21160   6.444   1.131   0.445
 6754SOL    HW121161   6.465   1.040   0.410
 6754SOL    HW221162   6.518   1.163   0.504
 6755SOL     OW21163   3.221   5.812   5.987
 6755SOL    HW121164   3.284   5.860   6.049
 6755SOL    HW221165   3.253   5.717   5.976
 6756SOL     OW21166   3.462   3.421   6.417
 6756SOL    HW121167   3.399   3.361   6.467
 6756SOL    HW221168   3.519   3.366   6.356
 6757SOL     OW21169   4.288   0.189   1.551
 6757SOL    HW121170   4.339   0.114   1.507
 6757SOL    HW221171   4.204   0.206   1.499
 6758SOL     OW21172   4.932   3.039   3.393
 6758SOL    HW121173   5.014   3.050   3.448
 6758SOL    HW221174   4.882   2.958   3.423
 6759SOL     OW21175   1.132   1.576   2.742
 6759SOL    HW121176   1.150   1.615   2.832
 6759SOL    HW221177   1.056   1.512   2.748
 6760SOL     OW21178   5.468   2.208   5.444
 6760SOL    HW121179   5.508   2.297   5.425
 6760SOL    HW221180   5.410   2.180   5.367
 6761SOL     OW21181   3.478   1.509   4.976
 6761SOL    HW121182   3.392   1.487   5.022
 6761SOL    HW221183   3.492   1.608   4.975
 6762SOL     OW21184   5.612   4.874   5.014
 6762SOL    HW121185   5.572   4.923   4.936
 6762SOL    HW221186   5.710   4.866   5.001
 6763SOL     OW21187   5.745   0.121   4.208
 6763SOL    HW121188   5.741   0.095   4.111
 6763SOL    HW221189   5.794   0.051   4.259
 6764SOL     OW21190   0.440   4.775   1.698
 6764SOL    HW121191   0.528   4.803   1.660
 6764SOL    HW221192   0.380   4.745   1.624
 6765SOL     OW21193   0.467   3.671   1.999
 6765SOL    HW121194   0.376   3.711   1.996
 6765SOL    HW221195   0.507   3.686   2.090
 6766SOL     OW21196   5.732   0.108   1.568
 6766SOL    HW121197   5.778   0.192   1.538
 6766SOL    HW221198   5.762   0.086   1.661
 6767SOL     OW21199   3.180   0.414   0.998
 6767SOL    HW121200   3.172   0.462   1.085
 6767SOL    HW221201   3.104   0.351   0.986
 6768SOL     OW21202   1.845   6.771   6.915
 6768SOL    HW121203   1.852   6.857   6.965
 6768SOL    HW221204   1.802   6.702   6.973
 6769SOL     OW21205   5.019   2.978   1.580
 6769SOL    HW121206   4.948   2.986   1.511
 6769SOL    HW221207   4.996   3.035   1.659
 6770SOL     OW21208   0.285   1.524   1.935
 6770SOL    HW121209   0.358   1.480   1.987
 6770SOL    HW221210   0.322   1.559   1.848
 6771SOL     OW21211   4.772   1.741   3.068
 6771SOL    HW121212   4.685   1.705   3.102
 6771SOL    HW221213   4.782   1.837   3.095
 6772SOL     OW21214   3.850   1.555   4.253
 6772SOL    HW121215   3.931   1.496   4.254
 6772SOL    HW221216   3.816   1.566   4.346
 6773SOL     OW21217   0.635   3.677   1.436
 6773SOL    HW121218   0.705   3.609   1.458
 6773SOL    HW221219   0.548   3.651   1.478
 6774SOL     OW21220   0.805   2.603   6.308
 6774SOL    HW121221   0.745   2.633   6.382
 6774SOL    HW221222   0.862   2.679   6.277
 6775SOL     OW21223   1.356   4.262   6.850
 6775SOL    HW121224   1.417   4.193   6.889
 6775SOL    HW221225   1.277   4.217   6.809
 6776SOL     OW21226   5.759   5.568   6.834
 6776SOL    HW121227   5.858   5.564   6.836
 6776SOL    HW221228   5.729   5.663   6.833
 6777SOL     OW21229   4.861   5.645   0.201
 6777SOL    HW121230   4.928   5.718   0.188
 6777SOL    HW221231   4.907   5.564   0.236
 6778SOL     OW21232   6.452   5.556   3.233
 6778SOL    HW121233   6.535   5.537   3.180
 6778SOL    HW221234   6.377   5.580   3.172
 6779SOL     OW21235   6.233   3.504   6.318
 6779SOL    HW121236   6.138   3.534   6.322
 6779SOL    HW221237   6.237   3.413   6.277
 6780SOL     OW21238   0.962   2.857   2.181
 6780SOL    HW121239   1.032   2.856   2.110
 6780SOL    HW221240   1.000   2.822   2.267
 6781SOL     OW21241   5.525   5.098   5.811
 6781SOL    HW121242   5.568   5.121   5.724
 6781SOL    HW221243   5.487   5.006   5.806
 6782SOL     OW21244   5.905   0.785   3.099
 6782SOL    HW121245   5.966   0.706   3.102
 6782SOL    HW221246   5.810   0.754   3.091
 6783SOL     OW21247   0.557   5.803   6.496
 6783SOL    HW121248   0.625   5.746   6.542
 6783SOL    HW221249   0.589   5.898   6.495
 6784SOL     OW21250   4.223   3.040   0.086
 6784SOL    HW121251   4.215   3.066   0.182
 6784SOL    HW221252   4.142   3.072   0.036
 6785SOL     OW21253   6.151   5.818   2.173
 6785SOL    HW121254   6.244   5.781   2.178
 6785SOL    HW221255   6.092   5.754   2.124
 6786SOL     OW21256   1.649   3.712   5.799
 6786SOL    HW121257   1.582   3.777   5.763
 6786SOL    HW221258   1.738   3.758   5.810
 6787SOL     OW21259   1.029   3.656   1.572
 6787SOL    HW121260   1.079   3.612   1.646
 6787SOL    HW221261   1.050   3.611   1.485
 6788SOL     OW21262   2.949   4.402   1.001
 6788SOL    HW121263   3.000   4.316   0.990
 6788SOL    HW221264   2.981   4.468   0.934
 6789SOL     OW21265   0.638   5.849   3.308
 6789SOL    HW121266   0.725   5.836   3.356
 6789SOL    HW221267   0.566   5.868   3.375
 6790SOL     OW21268   1.515   2.788   0.685
 6790SOL    HW121269   1.537   2.799   0.588
 6790SOL    HW221270   1.424   2.826   0.704
 6791SOL     OW21271   3.390   4.121   6.150
 6791SOL    HW121272   3.311   4.080   6.106
 6791SOL    HW221273   3.471   4.064   6.134
 6792SOL     OW21274   0.331   4.824   6.932
 6792SOL    HW121275   0.377   4.752   6.880
 6792SOL    HW221276   0.232   4.816   6.919
 6793SOL     OW21277   5.792   1.513   1.525
 6793SOL    HW121278   5.712   1.486   1.472
 6793SOL    HW221279   5.832   1.596   1.486
 6794SOL     OW21280   4.188   1.011   4.697
 6794SOL    HW121281   4.091   1.025   4.714
 6794SOL    HW221282   4.202   0.924   4.649
 6795SOL     OW21283   3.339   6.145   6.958
 6795SOL    HW121284   3.398   6.078   7.004
 6795SOL    HW221285   3.380   6.170   6.870
 6796SOL     OW21286   3.857   1.986   2.957
 6796SOL    HW121287   3.820   1.918   3.020
 6796SOL    HW221288   3.835   1.959   2.863
 6797SOL     OW21289   6.896   2.446   1.966
 6797SOL    HW121290   6.827   2.387   1.926
 6797SOL    HW221291   6.906   2.425   2.063
 6798SOL     OW21292   6.484   0.341   2.483
 6798SOL    HW121293   6.561   0.355   2.544
 6798SOL    HW221294   6.453   0.246   2.490
 6799SOL     OW21295   4.912   5.623   1.927
 6799SOL    HW121296   4.908   5.692   1.854
 6799SOL    HW221297   4.936   5.668   2.013
 6800SOL     OW21298   3.447   3.980   6.684
 6800SOL    HW121299   3.462   3.883   6.701
 6800SOL    HW221300   3.417   3.994   6.590
 6801SOL     OW21301   0.995   2.325   2.819
 6801SOL    HW121302   0.928   2.281   2.878
 6801SOL    HW221303   0.982   2.424   2.820
 6802SOL     OW21304   2.712   4.663   2.711
 6802SOL    HW121305   2.764   4.703   2.787
 6802SOL    HW221306   2.763   4.675   2.626
 6803SOL     OW21307   4.100   2.117   0.379
 6803SOL    HW121308   4.113   2.162   0.467
 6803SOL    HW221309   4.012   2.071   0.377
 6804SOL     OW21310   0.935   0.107   3.654
 6804SOL    HW121311   1.025   0.142   3.681
 6804SOL    HW221312   0.946   0.029   3.593
 6805SOL     OW21313   5.246   0.872   4.790
 6805SOL    HW121314   5.169   0.828   4.745
 6805SOL    HW221315   5.326   0.868   4.731
 6806SOL     OW21316   5.450   6.338   5.387
 6806SOL    HW121317   5.411   6.410   5.329
 6806SOL    HW221318   5.412   6.345   5.479
 6807SOL     OW21319   3.149   3.105   6.797
 6807SOL    HW121320   3.207   3.078   6.720
 6807SOL    HW221321   3.206   3.128   6.876
 6808SOL     OW21322   2.037   3.192   3.967
 6808SOL    HW121323   2.014   3.227   4.058
 6808SOL    HW221324   2.038   3.092   3.969
 6809SOL     OW21325   1.833   3.641   6.562
 6809SOL    HW121326   1.750   3.675   6.517
 6809SOL    HW221327   1.822   3.544   6.583
 6810SOL     OW21328   5.537   1.546   3.105
 6810SOL    HW121329   5.517   1.638   3.071
 6810SOL    HW221330   5.607   1.504   3.048
 6811SOL     OW21331   4.628   5.612   1.891
 6811SOL    HW121332   4.567   5.596   1.969
 6811SOL    HW221333   4.713   5.561   1.904
 6812SOL     OW21334   3.747   3.017   2.722
 6812SOL    HW121335   3.774   2.961   2.643
 6812SOL    HW221336   3.744   3.113   2.695
 6813SOL     OW21337   5.325   3.328   1.153
 6813SOL    HW121338   5.362   3.243   1.115
 6813SOL    HW221339   5.311   3.394   1.080
 6814SOL     OW21340   2.594   3.237   0.655
 6814SOL    HW121341   2.623   3.142   0.640
 6814SOL    HW221342   2.498   3.246   0.628
 6815SOL     OW21343   1.245   0.076   1.146
 6815SOL    HW121344   1.256   0.167   1.186
 6815SOL    HW221345   1.317   0.016   1.179
 6816SOL     OW21346   6.114   3.806   1.212
 6816SOL    HW121347   6.151   3.837   1.299
 6816SOL    HW221348   6.017   3.783   1.222
 6817SOL     OW21349   0.826   2.315   6.215
 6817SOL    HW121350   0.912   2.288   6.173
 6817SOL    HW221351   0.828   2.413   6.237
 6818SOL     OW21352   3.659   5.508   1.592
 6818SOL    HW121353   3.602   5.563   1.532
 6818SOL    HW221354   3.725   5.456   1.538
 6819SOL     OW21355   3.081   1.427   3.844
 6819SOL    HW121356   2.994   1.404   3.801
 6819SOL    HW221357   3.141   1.347   3.843
 6820SOL     OW21358   1.842   5.378   3.743
 6820SOL    HW121359   1.921   5.321   3.721
 6820SOL    HW221360   1.865   5.474   3.729
 6821SOL     OW21361   2.548   2.410   4.264
 6821SOL    HW121362   2.590   2.394   4.174
 6821SOL    HW221363   2.620   2.417   4.333
 6822SOL     OW21364   5.139   1.962   5.958
 6822SOL    HW121365   5.215   2.028   5.957
 6822SOL    HW221366   5.057   2.006   5.922
 6823SOL     OW21367   3.783   3.607   2.447
 6823SOL    HW121368   3.765   3.648   2.358
 6823SOL    HW221369   3.882   3.599   2.462
 6824SOL     OW21370   1.439   4.820   6.134
 6824SOL    HW121371   1.341   4.839   6.131
 6824SOL    HW221372   1.477   4.851   6.221
 6825SOL     OW21373   5.603   6.887   4.019
 6825SOL    HW121374   5.518   6.912   3.973
 6825SOL    HW221375   5.585   6.867   4.115
 6826SOL     OW21376   0.524   2.852   2.604
 6826SOL    HW121377   0.507   2.944   2.570
 6826SOL    HW221378   0.467   2.835   2.684
 6827SOL     OW21379   5.945   6.156   4.870
 6827SOL    HW121380   5.914   6.190   4.959
 6827SOL    HW221381   5.931   6.226   4.801
 6828SOL     OW21382   2.022   1.635   1.503
 6828SOL    HW121383   1.936   1.642   1.554
 6828SOL    HW221384   2.066   1.725   1.498
 6829SOL     OW21385   5.322   4.936   3.663
 6829SOL    HW121386   5.373   4.858   3.700
 6829SOL    HW221387   5.363   4.963   3.576
 6830SOL     OW21388   5.100   2.431   4.181
 6830SOL    HW121389   5.163   2.373   4.232
 6830SOL    HW221390   5.014   2.440   4.232
 6831SOL     OW21391   7.009   1.344   5.609
 6831SOL    HW121392   6.947   1.267   5.591
 6831SOL    HW221393   0.049   1.320   5.684
 6832SOL     OW21394   2.901   5.395   1.761
 6832SOL    HW121395   2.899   5.411   1.860
 6832SOL    HW221396   2.847   5.314   1.740
 6833SOL     OW21397   4.265   5.590   0.043
 6833SOL    HW121398   4.169   5.612   0.027
 6833SOL    HW221399   4.272   5.515   0.109
 6834SOL     OW21400   3.836   5.562   2.398
 6834SOL    HW121401   3.847   5.495   2.324
 6834SOL    HW221402   3.893   5.642   2.379
 6835SOL     OW21403   3.838   6.996   4.985
 6835SOL    HW121404   3.921   6.942   4.993
 6835SOL    HW221405   3.760   6.935   4.971
 6836SOL     OW21406   3.800   5.871   6.348
 6836SOL    HW121407   3.863   5.933   6.395
 6836SOL    HW221408   3.706   5.898   6.367
 6837SOL     OW21409   0.161   2.654   2.548
 6837SOL    HW121410   0.152   2.735   2.605
 6837SOL    HW221411   0.072   2.633   2.506
 6838SOL     OW21412   2.666   1.876   0.807
 6838SOL    HW121413   2.663   1.975   0.817
 6838SOL    HW221414   2.748   1.850   0.756
 6839SOL     OW21415   4.486   0.812   1.619
 6839SOL    HW121416   4.431   0.772   1.693
 6839SOL    HW221417   4.569   0.853   1.657
 6840SOL     OW21418   0.562   1.224   6.541
 6840SOL    HW121419   0.616   1.262   6.466
 6840SOL    HW221420   0.621   1.170   6.601
 6841SOL     OW21421   0.107   3.397   5.820
 6841SOL    HW121422   0.038   3.327   5.807
 6841SOL    HW221423   0.156   3.413   5.734
 6842SOL     OW21424   2.645   4.645   2.994
 6842SOL    HW121425   2.745   4.650   2.991
 6842SOL    HW221426   2.611   4.587   2.920
 6843SOL     OW21427   4.105   0.214   0.876
 6843SOL    HW121428   4.056   0.131   0.849
 6843SOL    HW221429   4.155   0.250   0.797
 6844SOL     OW21430   5.475   0.589   5.971
 6844SOL    HW121431   5.435   0.498   5.977
 6844SOL    HW221432   5.567   0.587   6.010
 6845SOL     OW21433   5.134   1.926   2.996
 6845SOL    HW121434   5.108   1.941   3.091
 6845SOL    HW221435   5.144   1.827   2.980
 6846SOL     OW21436   2.357   3.658   0.127
 6846SOL    HW121437   2.348   3.560   0.143
 6846SOL    HW221438   2.450   3.688   0.149
 6847SOL     OW21439   6.741   2.708   4.708
 6847SOL    HW121440   6.819   2.739   4.763
 6847SOL    HW221441   6.657   2.750   4.743
 6848SOL     OW21442   6.999   5.029   3.465
 6848SOL    HW121443   6.960   5.093   3.530
 6848SOL    HW221444   6.960   5.045   3.374
 6849SOL     OW21445   3.104   4.236   5.770
 6849SOL    HW121446   3.175   4.296   5.734
 6849SOL    HW221447   3.132   4.201   5.860
 6850SOL     OW21448   4.818   0.113   3.703
 6850SOL    HW121449   4.773   0.202   3.704
 6850SOL    HW221450   4.916   0.126   3.719
 6851SOL     OW21451   1.741   3.842   3.034
 6851SOL    HW121452   1.800   3.870   2.959
 6851SOL    HW221453   1.791   3.783   3.096
 6852SOL     OW21454   4.283   4.501   0.155
 6852SOL    HW121455   4.224   4.452   0.219
 6852SOL    HW221456   4.338   4.568   0.205
 6853SOL     OW21457   3.946   4.787   6.545
 6853SOL    HW121458   3.992   4.703   6.516
 6853SOL    HW221459   3.849   4.780   6.523
 6854SOL     OW21460   5.129   5.428   6.143
 6854SOL    HW121461   5.214   5.480   6.133
 6854SOL    HW221462   5.147   5.346   6.197
 6855SOL     OW21463   4.477   5.087   3.064
 6855SOL    HW121464   4.488   5.107   3.161
 6855SOL    HW221465   4.504   5.166   3.010
 6856SOL     OW21466   0.009   2.785   6.994
 6856SOL    HW121467   6.935   2.803   0.002
 6856SOL    HW221468   0.070   2.802   0.050
 6857SOL     OW21469   0.964   4.173   5.905
 6857SOL    HW121470   0.897   4.242   5.878
 6857SOL    HW221471   0.979   4.110   5.829
 6858SOL     OW21472   1.878   3.977   2.025
 6858SOL    HW121473   1.784   4.002   2.004
 6858SOL    HW221474   1.894   3.985   2.124
 6859SOL     OW21475   2.079   1.956   1.793
 6859SOL    HW121476   2.146   2.006   1.848
 6859SOL    HW221477   2.066   1.865   1.831
 6860SOL     OW21478   0.266   6.006   0.723
 6860SOL    HW121479   0.342   5.990   0.661
 6860SOL    HW221480   0.297   5.998   0.818
 6861SOL     OW21481   6.192   3.263   6.205
 6861SOL    HW121482   6.094   3.277   6.217
 6861SOL    HW221483   6.218   3.174   6.244
 6862SOL     OW21484   0.942   4.660   3.813
 6862SOL    HW121485   0.967   4.729   3.745
 6862SOL    HW221486   0.941   4.570   3.771
 6863SOL     OW21487   5.643   1.500   5.113
 6863SOL    HW121488   5.607   1.407   5.103
 6863SOL    HW221489   5.726   1.510   5.060
 6864SOL     OW21490   1.305   3.286   6.139
 6864SOL    HW121491   1.396   3.276   6.099
 6864SOL    HW221492   1.256   3.200   6.131
 6865SOL     OW21493   2.278   0.655   4.375
 6865SOL    HW121494   2.235   0.694   4.456
 6865SOL    HW221495   2.241   0.699   4.293
 6866SOL     OW21496   1.584   4.588   0.593
 6866SOL    HW121497   1.563   4.636   0.507
 6866SOL    HW221498   1.627   4.652   0.657
 6867SOL     OW21499   2.132   3.291   6.697
 6867SOL    HW121500   2.147   3.349   6.616
 6867SOL    HW221501   2.111   3.349   6.775
 6868SOL     OW21502   3.697   5.365   3.153
 6868SOL    HW121503   3.684   5.287   3.092
 6868SOL    HW221504   3.751   5.435   3.107
 6869SOL     OW21505   2.458   0.655   5.704
 6869SOL    HW121506   2.410   0.650   5.616
 6869SOL    HW221507   2.398   0.698   5.772
 6870SOL     OW21508   5.380   1.953   0.005
 6870SOL    HW121509   5.341   2.005   0.081
 6870SOL    HW221510   5.480   1.953   0.013
 6871SOL     OW21511   6.816   3.219   2.303
 6871SOL    HW121512   6.859   3.195   2.216
 6871SOL    HW221513   6.855   3.304   2.337
 6872SOL     OW21514   1.679   4.269   1.152
 6872SOL    HW121515   1.706   4.364   1.168
 6872SOL    HW221516   1.651   4.227   1.239
 6873SOL     OW21517   0.587   4.342   3.059
 6873SOL    HW121518   0.674   4.330   3.012
 6873SOL    HW221519   0.529   4.262   3.042
 6874SOL     OW21520   4.705   6.479   2.425
 6874SOL    HW121521   4.748   6.504   2.511
 6874SOL    HW221522   4.617   6.435   2.443
 6875SOL     OW21523   2.604   1.150   0.201
 6875SOL    HW121524   2.621   1.052   0.215
 6875SOL    HW221525   2.690   1.196   0.181
 6876SOL     OW21526   5.473   5.408   3.344
 6876SOL    HW121527   5.497   5.410   3.247
 6876SOL    HW221528   5.496   5.318   3.382
 6877SOL     OW21529   0.596   4.127   1.814
 6877SOL    HW121530   0.610   4.168   1.724
 6877SOL    HW221531   0.497   4.118   1.831
 6878SOL     OW21532   1.848   0.818   4.854
 6878SOL    HW121533   1.851   0.722   4.885
 6878SOL    HW221534   1.767   0.832   4.797
 6879SOL     OW21535   1.343   1.777   1.121
 6879SOL    HW121536   1.384   1.692   1.088
 6879SOL    HW221537   1.354   1.849   1.053
 6880SOL     OW21538   1.295   5.944   0.249
 6880SOL    HW121539   1.231   5.997   0.193
 6880SOL    HW221540   1.388   5.978   0.236
 6881SOL     OW21541   6.850   3.426   0.466
 6881SOL    HW121542   6.885   3.417   0.559
 6881SOL    HW221543   6.874   3.345   0.413
 6882SOL     OW21544   3.453   6.222   0.438
 6882SOL    HW121545   3.403   6.205   0.523
 6882SOL    HW221546   3.456   6.138   0.384
 6883SOL     OW21547   5.440   0.676   1.230
 6883SOL    HW121548   5.397   0.759   1.264
 6883SOL    HW221549   5.447   0.609   1.305
 6884SOL     OW21550   2.103   4.344   3.407
 6884SOL    HW121551   2.068   4.417   3.465
 6884SOL    HW221552   2.029   4.309   3.349
 6885SOL     OW21553   6.063   4.530   5.009
 6885SOL    HW121554   6.021   4.514   5.099
 6885SOL    HW221555   6.007   4.487   4.938
 6886SOL     OW21556   5.324   3.364   0.201
 6886SOL    HW121557   5.290   3.333   0.290
 6886SOL    HW221558   5.297   3.298   0.131
 6887SOL     OW21559   5.632   5.993   5.891
 6887SOL    HW121560   5.666   6.019   5.981
 6887SOL    HW221561   5.709   5.961   5.834
 6888SOL     OW21562   6.314   4.125   0.100
 6888SOL    HW121563   6.272   4.056   0.041
 6888SOL    HW221564   6.260   4.134   0.184
 6889SOL     OW21565   0.149   1.749   5.428
 6889SOL    HW121566   0.213   1.805   5.375
 6889SOL    HW221567   0.145   1.657   5.388
 6890SOL     OW21568   4.887   4.468   3.891
 6890SOL    HW121569   4.870   4.372   3.915
 6890SOL    HW221570   4.962   4.473   3.826
 6891SOL     OW21571   1.344   1.552   0.958
 6891SOL    HW121572   1.433   1.522   0.923
 6891SOL    HW221573   1.295   1.603   0.888
 6892SOL     OW21574   2.973   0.857   4.890
 6892SOL    HW121575   2.987   0.778   4.950
 6892SOL    HW221576   2.951   0.824   4.798
 6893SOL     OW21577   6.078   2.817   0.338
 6893SOL    HW121578   6.006   2.836   0.272
 6893SOL    HW221579   6.085   2.894   0.403
 6894SOL     OW21580   5.721   4.701   0.246
 6894SOL    HW121581   5.819   4.687   0.260
 6894SOL    HW221582   5.703   4.722   0.150
 6895SOL     OW21583   0.875   5.958   2.241
 6895SOL    HW121584   0.829   5.946   2.153
 6895SOL    HW221585   0.880   6.056   2.262
 6896SOL     OW21586   4.825   1.529   5.539
 6896SOL    HW121587   4.737   1.531   5.587
 6896SOL    HW221588   4.874   1.614   5.555
 6897SOL     OW21589   4.361   2.631   5.305
 6897SOL    HW121590   4.275   2.602   5.263
 6897SOL    HW221591   4.410   2.691   5.242
 6898SOL     OW21592   1.550   6.824   1.484
 6898SOL    HW121593   1.493   6.761   1.432
 6898SOL    HW221594   1.584   6.897   1.424
 6899SOL     OW21595   5.862   5.972   2.655
 6899SOL    HW121596   5.921   6.034   2.707
 6899SOL    HW221597   5.801   5.923   2.718
 6900SOL     OW21598   6.447   3.372   4.841
 6900SOL    HW121599   6.413   3.440   4.777
 6900SOL    HW221600   6.374   3.346   4.904
 6901SOL     OW21601   5.580   4.987   6.076
 6901SOL    HW121602   5.563   5.062   6.013
 6901SOL    HW221603   5.502   4.925   6.076
 6902SOL     OW21604   0.689   5.880   5.618
 6902SOL    HW121605   0.770   5.939   5.623
 6902SOL    HW221606   0.702   5.801   5.677
 6903SOL     OW21607   1.633   6.140   5.212
 6903SOL    HW121608   1.558   6.073   5.215
 6903SOL    HW221609   1.666   6.148   5.118
 6904SOL     OW21610   0.356   0.443   5.815
 6904SOL    HW121611   0.321   0.401   5.899
 6904SOL    HW221612   0.305   0.408   5.736
 6905SOL     OW21613   5.013   6.137   5.756
 6905SOL    HW121614   4.992   6.222   5.707
 6905SOL    HW221615   4.936   6.074   5.749
 6906SOL     OW21616   2.632   0.693   3.910
 6906SOL    HW121617   2.598   0.787   3.906
 6906SOL    HW221618   2.603   0.644   3.828
 6907SOL     OW21619   5.899   1.827   0.836
 6907SOL    HW121620   5.840   1.822   0.916
 6907SOL    HW221621   5.990   1.858   0.863
 6908SOL     OW21622   3.849   5.473   0.614
 6908SOL    HW121623   3.797   5.421   0.546
 6908SOL    HW221624   3.791   5.490   0.694
 6909SOL     OW21625   5.434   4.537   2.431
 6909SOL    HW121626   5.450   4.441   2.407
 6909SOL    HW221627   5.519   4.589   2.420
 6910SOL     OW21628   0.955   2.556   2.502
 6910SOL    HW121629   0.862   2.554   2.539
 6910SOL    HW221630   0.951   2.562   2.402
 6911SOL     OW21631   2.766   6.614   5.727
 6911SOL    HW121632   2.827   6.676   5.776
 6911SOL    HW221633   2.748   6.650   5.635
 6912SOL     OW21634   2.921   3.975   6.870
 6912SOL    HW121635   2.907   3.922   6.954
 6912SOL    HW221636   2.990   3.930   6.813
 6913SOL     OW21637   4.665   5.796   5.851
 6913SOL    HW121638   4.666   5.739   5.933
 6913SOL    HW221639   4.619   5.748   5.777
 6914SOL     OW21640   6.182   2.390   2.192
 6914SOL    HW121641   6.275   2.355   2.183
 6914SOL    HW221642   6.166   2.420   2.286
 6915SOL     OW21643   6.993   3.284   3.405
 6915SOL    HW121644   0.001   3.198   3.448
 6915SOL    HW221645   0.023   3.297   3.320
 6916SOL     OW21646   4.708   6.309   5.806
 6916SOL    HW121647   4.656   6.226   5.825
 6916SOL    HW221648   4.645   6.382   5.778
 6917SOL     OW21649   3.409   6.103   2.104
 6917SOL    HW121650   3.322   6.060   2.126
 6917SOL    HW221651   3.481   6.034   2.101
 6918SOL     OW21652   2.193   3.413   0.321
 6918SOL    HW121653   2.162   3.339   0.262
 6918SOL    HW221654   2.146   3.497   0.297
 6919SOL     OW21655   6.206   6.190   3.246
 6919SOL    HW121656   6.252   6.212   3.332
 6919SOL    HW221657   6.273   6.190   3.172
 6920SOL     OW21658   6.614   2.061   5.267
 6920SOL    HW121659   6.685   2.023   5.207
 6920SOL    HW221660   6.569   1.986   5.315
 6921SOL     OW21661   4.260   0.109   4.094
 6921SOL    HW121662   4.356   0.122   4.070
 6921SOL    HW221663   4.227   0.023   4.056
 6922SOL     OW21664   2.940   5.250   6.773
 6922SOL    HW121665   2.867   5.204   6.722
 6922SOL    HW221666   2.900   5.304   6.847
 6923SOL     OW21667   5.152   0.092   2.771
 6923SOL    HW121668   5.098   0.018   2.731
 6923SOL    HW221669   5.204   0.138   2.700
 6924SOL     OW21670   3.304   5.750   1.761
 6924SOL    HW121671   3.281   5.652   1.759
 6924SOL    HW221672   3.237   5.800   1.707
 6925SOL     OW21673   6.147   6.544   4.737
 6925SOL    HW121674   6.148   6.630   4.686
 6925SOL    HW221675   6.141   6.563   4.835
 6926SOL     OW21676   2.921   2.082   0.502
 6926SOL    HW121677   2.902   2.070   0.405
 6926SOL    HW221678   2.899   1.998   0.551
 6927SOL     OW21679   3.638   0.410   0.125
 6927SOL    HW121680   3.615   0.494   0.076
 6927SOL    HW221681   3.736   0.391   0.115
 6928SOL     OW21682   3.567   5.179   6.795
 6928SOL    HW121683   3.583   5.274   6.823
 6928SOL    HW221684   3.477   5.171   6.754
 6929SOL     OW21685   4.677   4.860   2.364
 6929SOL    HW121686   4.739   4.809   2.423
 6929SOL    HW221687   4.716   4.951   2.345
 6930SOL     OW21688   1.001   6.453   1.521
 6930SOL    HW121689   1.080   6.439   1.460
 6930SOL    HW221690   1.032   6.498   1.605
 6931SOL     OW21691   3.052   3.514   0.998
 6931SOL    HW121692   3.095   3.594   1.040
 6931SOL    HW221693   3.048   3.439   1.065
 6932SOL     OW21694   4.003   0.428   6.347
 6932SOL    HW121695   3.924   0.482   6.377
 6932SOL    HW221696   4.087   0.474   6.375
 6933SOL     OW21697   2.924   5.714   6.100
 6933SOL    HW121698   2.895   5.795   6.050
 6933SOL    HW221699   3.024   5.707   6.097
 6934SOL     OW21700   4.823   5.073   0.259
 6934SOL    HW121701   4.881   4.992   0.264
 6934SOL    HW221702   4.849   5.128   0.179
 6935SOL     OW21703   3.830   6.227   1.907
 6935SOL    HW121704   3.804   6.320   1.933
 6935SOL    HW221705   3.853   6.224   1.810
 6936SOL     OW21706   0.848   1.711   6.093
 6936SOL    HW121707   0.899   1.776   6.149
 6936SOL    HW221708   0.905   1.631   6.074
 6937SOL     OW21709   5.907   5.347   0.562
 6937SOL    HW121710   5.844   5.270   0.564
 6937SOL    HW221711   5.954   5.350   0.474
 6938SOL     OW21712   2.916   0.798   4.637
 6938SOL    HW121713   2.838   0.791   4.575
 6938SOL    HW221714   2.955   0.707   4.651
 6939SOL     OW21715   5.657   3.655   3.729
 6939SOL    HW121716   5.740   3.690   3.772
 6939SOL    HW221717   5.618   3.581   3.784
 6940SOL     OW21718   2.460   6.562   1.096
 6940SOL    HW121719   2.514   6.582   1.014
 6940SOL    HW221720   2.364   6.552   1.071
 6941SOL     OW21721   3.874   2.998   2.941
 6941SOL    HW121722   3.815   2.988   2.861
 6941SOL    HW221723   3.961   3.039   2.914
 6942SOL     OW21724   6.568   5.081   2.858
 6942SOL    HW121725   6.666   5.063   2.848
 6942SOL    HW221726   6.538   5.142   2.785
 6943SOL     OW21727   4.731   4.939   6.114
 6943SOL    HW121728   4.639   4.901   6.118
 6943SOL    HW221729   4.793   4.886   6.172
 6944SOL     OW21730   0.979   4.809   5.276
 6944SOL    HW121731   0.960   4.795   5.179
 6944SOL    HW221732   1.066   4.857   5.287
 6945SOL     OW21733   5.373   2.018   1.172
 6945SOL    HW121734   5.353   1.963   1.091
 6945SOL    HW221735   5.470   2.042   1.173
 6946SOL     OW21736   5.108   6.239   2.665
 6946SOL    HW121737   5.167   6.320   2.669
 6946SOL    HW221738   5.014   6.266   2.688
 6947SOL     OW21739   6.477   4.331   5.270
 6947SOL    HW121740   6.537   4.384   5.330
 6947SOL    HW221741   6.515   4.238   5.260
 6948SOL     OW21742   6.908   4.279   6.489
 6948SOL    HW121743   6.903   4.211   6.415
 6948SOL    HW221744   6.837   4.259   6.557
 6949SOL     OW21745   2.920   1.378   2.810
 6949SOL    HW121746   2.828   1.354   2.781
 6949SOL    HW221747   2.917   1.423   2.899
 6950SOL     OW21748   1.264   1.136   3.616
 6950SOL    HW121749   1.345   1.122   3.673
 6950SOL    HW221750   1.212   1.051   3.611
 6951SOL     OW21751   1.389   3.601   6.658
 6951SOL    HW121752   1.435   3.688   6.675
 6951SOL    HW221753   1.306   3.617   6.604
 6952SOL     OW21754   4.804   5.522   3.393
 6952SOL    HW121755   4.878   5.589   3.378
 6952SOL    HW221756   4.730   5.565   3.444
 6953SOL     OW21757   6.386   1.246   1.423
 6953SOL    HW121758   6.402   1.147   1.426
 6953SOL    HW221759   6.438   1.286   1.347
 6954SOL     OW21760   6.830   4.073   6.246
 6954SOL    HW121761   6.790   3.984   6.228
 6954SOL    HW221762   6.926   4.061   6.274
 6955SOL     OW21763   4.922   5.407   2.769
 6955SOL    HW121764   4.902   5.433   2.864
 6955SOL    HW221765   4.879   5.472   2.707
 6956SOL     OW21766   5.272   5.235   1.820
 6956SOL    HW121767   5.243   5.140   1.831
 6956SOL    HW221768   5.198   5.296   1.850
 6957SOL     OW21769   5.910   5.326   5.257
 6957SOL    HW121770   5.942   5.240   5.216
 6957SOL    HW221771   5.985   5.392   5.258
 6958SOL     OW21772   3.469   3.287   2.687
 6958SOL    HW121773   3.557   3.259   2.648
 6958SOL    HW221774   3.457   3.386   2.674
 6959SOL     OW21775   1.663   4.168   2.819
 6959SOL    HW121776   1.712   4.118   2.891
 6959SOL    HW221777   1.730   4.215   2.761
 6960SOL     OW21778   4.978   4.742   1.314
 6960SOL    HW121779   4.887   4.780   1.300
 6960SOL    HW221780   4.994   4.669   1.249
 6961SOL     OW21781   4.645   2.880   5.526
 6961SOL    HW121782   4.601   2.822   5.595
 6961SOL    HW221783   4.681   2.822   5.453
 6962SOL     OW21784   2.876   5.888   6.992
 6962SOL    HW121785   2.891   5.943   6.910
 6962SOL    HW221786   2.923   5.929   0.049
 6963SOL     OW21787   0.208   6.501   6.872
 6963SOL    HW121788   0.187   6.426   6.936
 6963SOL    HW221789   0.183   6.588   6.913
 6964SOL     OW21790   2.005   1.833   4.827
 6964SOL    HW121791   1.970   1.739   4.818
 6964SOL    HW221792   1.977   1.870   4.916
 6965SOL     OW21793   1.687   1.732   0.108
 6965SOL    HW121794   1.662   1.636   0.093
 6965SOL    HW221795   1.750   1.739   0.186
 6966SOL     OW21796   1.413   6.574   1.068
 6966SOL    HW121797   1.416   6.623   1.154
 6966SOL    HW221798   1.320   6.540   1.052
 6967SOL     OW21799   3.560   0.671   7.004
 6967SOL    HW121800   3.609   0.732   0.046
 6967SOL    HW221801   3.469   0.709   6.985
 6968SOL     OW21802   3.099   0.500   3.092
 6968SOL    HW121803   3.189   0.509   3.050
 6968SOL    HW221804   3.061   0.591   3.110
 6969SOL     OW21805   1.815   2.682   1.721
 6969SOL    HW121806   1.862   2.727   1.797
 6969SOL    HW221807   1.763   2.749   1.668
 6970SOL     OW21808   3.567   5.649   5.758
 6970SOL    HW121809   3.536   5.743   5.775
 6970SOL    HW221810   3.616   5.646   5.671
 6971SOL     OW21811   5.796   4.000   0.009
 6971SOL    HW121812   5.710   3.951   7.015
 6971SOL    HW221813   5.872   3.934   0.014
 6972SOL     OW21814   5.901   3.869   1.486
 6972SOL    HW121815   5.896   3.968   1.474
 6972SOL    HW221816   5.993   3.843   1.516
 6973SOL     OW21817   0.732   1.311   2.960
 6973SOL    HW121818   0.632   1.314   2.960
 6973SOL    HW221819   0.767   1.342   3.049
 6974SOL     OW21820   3.995   3.181   3.339
 6974SOL    HW121821   4.035   3.173   3.430
 6974SOL    HW221822   3.965   3.091   3.308
 6975SOL     OW21823   3.157   5.150   4.604
 6975SOL    HW121824   3.180   5.212   4.529
 6975SOL    HW221825   3.213   5.172   4.684
 6976SOL     OW21826   4.425   5.214   6.041
 6976SOL    HW121827   4.518   5.240   6.068
 6976SOL    HW221828   4.375   5.294   6.009
 6977SOL     OW21829   4.998   4.792   2.469
 6977SOL    HW121830   5.062   4.729   2.513
 6977SOL    HW221831   4.981   4.762   2.375
 6978SOL     OW21832   0.756   3.590   0.575
 6978SOL    HW121833   0.767   3.557   0.481
 6978SOL    HW221834   0.665   3.564   0.608
 6979SOL     OW21835   1.203   3.600   2.602
 6979SOL    HW121836   1.110   3.594   2.567
 6979SOL    HW221837   1.202   3.592   2.702
 6980SOL     OW21838   2.706   5.022   3.294
 6980SOL    HW121839   2.627   4.970   3.328
 6980SOL    HW221840   2.682   5.068   3.209
 6981SOL     OW21841   4.513   2.966   6.600
 6981SOL    HW121842   4.594   2.969   6.541
 6981SOL    HW221843   4.520   3.037   6.670
 6982SOL     OW21844   0.522   0.342   1.794
 6982SOL    HW121845   0.502   0.270   1.728
 6982SOL    HW221846   0.473   0.324   1.879
 6983SOL     OW21847   6.308   0.109   4.294
 6983SOL    HW121848   6.254   0.171   4.237
 6983SOL    HW221849   6.387   0.077   4.243
 6984SOL     OW21850   1.354   3.683   3.153
 6984SOL    HW121851   1.371   3.743   3.232
 6984SOL    HW221852   1.405   3.598   3.165
 6985SOL     OW21853   4.944   3.023   0.251
 6985SOL    HW121854   4.970   2.934   0.214
 6985SOL    HW221855   4.844   3.026   0.262
 6986SOL     OW21856   4.347   5.157   5.699
 6986SOL    HW121857   4.442   5.159   5.731
 6986SOL    HW221858   4.312   5.250   5.691
 6987SOL     OW21859   6.973   0.965   6.720
 6987SOL    HW121860   6.905   0.982   6.649
 6987SOL    HW221861   7.015   1.052   6.748
 6988SOL     OW21862   2.412   1.546   6.782
 6988SOL    HW121863   2.456   1.511   6.700
 6988SOL    HW221864   2.355   1.475   6.823
 6989SOL     OW21865   0.597   4.073   2.680
 6989SOL    HW121866   0.516   4.054   2.624
 6989SOL    HW221867   0.623   4.169   2.669
 6990SOL     OW21868   3.852   3.684   6.344
 6990SOL    HW121869   3.799   3.762   6.313
 6990SOL    HW221870   3.848   3.679   6.444
 6991SOL     OW21871   5.689   3.488   3.023
 6991SOL    HW121872   5.746   3.434   2.961
 6991SOL    HW221873   5.645   3.427   3.089
 6992SOL     OW21874   1.522   4.781   0.019
 6992SOL    HW121875   1.453   4.723   0.062
 6992SOL    HW221876   1.479   4.866   7.008
 6993SOL     OW21877   3.898   2.274   1.765
 6993SOL    HW121878   3.807   2.291   1.802
 6993SOL    HW221879   3.922   2.348   1.702
 6994SOL     OW21880   2.878   1.400   3.350
 6994SOL    HW121881   2.818   1.472   3.317
 6994SOL    HW221882   2.967   1.408   3.305
 6995SOL     OW21883   0.246   4.276   0.625
 6995SOL    HW121884   0.222   4.370   0.602
 6995SOL    HW221885   0.344   4.263   0.615
 6996SOL     OW21886   0.829   1.281   6.455
 6996SOL    HW121887   0.827   1.232   6.368
 6996SOL    HW221888   0.892   1.236   6.518
 6997SOL     OW21889   6.191   6.345   5.995
 6997SOL    HW121890   6.164   6.279   5.924
 6997SOL    HW221891   6.185   6.301   6.085
 6998SOL     OW21892   0.167   0.307   0.711
 6998SOL    HW121893   0.099   0.361   0.762
 6998SOL    HW221894   0.256   0.314   0.756
 6999SOL     OW21895   6.554   2.849   6.855
 6999SOL    HW121896   6.585   2.929   6.907
 6999SOL    HW221897   6.577   2.766   6.906
 7000SOL     OW21898   0.391   5.894   3.454
 7000SOL    HW121899   0.417   5.837   3.532
 7000SOL    HW221900   0.395   5.990   3.480
 7001SOL     OW21901   6.938   1.525   4.230
 7001SOL    HW121902   6.858   1.478   4.268
 7001SOL    HW221903   6.924   1.542   4.133
 7002SOL     OW21904   1.035   4.945   2.733
 7002SOL    HW121905   1.135   4.957   2.726
 7002SOL    HW221906   0.990   5.029   2.705
 7003SOL     OW21907   0.722   4.773   6.758
 7003SOL    HW121908   0.780   4.707   6.711
 7003SOL    HW221909   0.626   4.750   6.743
 7004SOL     OW21910   1.953   6.730   6.445
 7004SOL    HW121911   1.956   6.746   6.347
 7004SOL    HW221912   2.027   6.780   6.490
 7005SOL     OW21913   1.376   5.450   0.454
 7005SOL    HW121914   1.402   5.518   0.386
 7005SOL    HW221915   1.289   5.408   0.427
 7006SOL     OW21916   0.243   0.352   3.727
 7006SOL    HW121917   0.321   0.298   3.758
 7006SOL    HW221918   0.252   0.371   3.630
 7007SOL     OW21919   2.114   0.447   6.396
 7007SOL    HW121920   2.159   0.441   6.485
 7007SOL    HW221921   2.142   0.370   6.339
 7008SOL     OW21922   5.085   3.307   3.640
 7008SOL    HW121923   5.076   3.210   3.618
 7008SOL    HW221924   5.056   3.324   3.734
 7009SOL     OW21925   4.996   5.745   2.148
 7009SOL    HW121926   5.069   5.682   2.172
 7009SOL    HW221927   4.932   5.753   2.225
 7010SOL     OW21928   5.130   3.164   2.744
 7010SOL    HW121929   5.068   3.217   2.801
 7010SOL    HW221930   5.158   3.082   2.794
 7011SOL     OW21931   2.597   6.674   6.271
 7011SOL    HW121932   2.537   6.594   6.271
 7011SOL    HW221933   2.627   6.694   6.177
 7012SOL     OW21934   0.019   3.446   0.713
 7012SOL    HW121935   7.006   3.372   0.771
 7012SOL    HW221936   7.019   3.534   0.756
 7013SOL     OW21937   3.451   2.712   6.984
 7013SOL    HW121938   3.444   2.695   0.062
 7013SOL    HW221939   3.359   2.726   6.946
 7014SOL     OW21940   5.957   3.206   0.129
 7014SOL    HW121941   5.902   3.124   0.145
 7014SOL    HW221942   6.022   3.189   0.055
 7015SOL     OW21943   6.442   6.089   1.397
 7015SOL    HW121944   6.517   6.152   1.414
 7015SOL    HW221945   6.355   6.136   1.415
 7016SOL     OW21946   3.119   4.798   1.144
 7016SOL    HW121947   3.152   4.890   1.168
 7016SOL    HW221948   3.092   4.751   1.228
 7017SOL     OW21949   6.063   4.917   5.767
 7017SOL    HW121950   6.080   4.872   5.855
 7017SOL    HW221951   5.992   4.986   5.778
 7018SOL     OW21952   5.050   3.782   5.290
 7018SOL    HW121953   5.071   3.856   5.354
 7018SOL    HW221954   5.022   3.820   5.202
 7019SOL     OW21955   3.829   5.362   2.180
 7019SOL    HW121956   3.887   5.427   2.132
 7019SOL    HW221957   3.773   5.312   2.114
 7020SOL     OW21958   0.940   2.014   6.479
 7020SOL    HW121959   1.035   2.011   6.448
 7020SOL    HW221960   0.892   1.933   6.446
 7021SOL     OW21961   1.021   1.521   4.724
 7021SOL    HW121962   1.054   1.427   4.732
 7021SOL    HW221963   0.953   1.526   4.652
 7022SOL     OW21964   2.296   3.763   0.935
 7022SOL    HW121965   2.291   3.821   0.853
 7022SOL    HW221966   2.324   3.671   0.909
 7023SOL     OW21967   0.514   1.642   0.772
 7023SOL    HW121968   0.570   1.657   0.690
 7023SOL    HW221969   0.526   1.719   0.835
 7024SOL     OW21970   3.202   4.071   5.078
 7024SOL    HW121971   3.189   4.145   5.144
 7024SOL    HW221972   3.210   4.110   4.986
 7025SOL     OW21973   2.951   0.877   1.176
 7025SOL    HW121974   3.019   0.910   1.111
 7025SOL    HW221975   2.901   0.801   1.135
 7026SOL     OW21976   3.157   2.047   1.109
 7026SOL    HW121977   3.196   1.993   1.184
 7026SOL    HW221978   3.207   2.133   1.101
 7027SOL     OW21979   3.268   4.820   2.023
 7027SOL    HW121980   3.284   4.729   2.061
 7027SOL    HW221981   3.215   4.812   1.939
 7028SOL     OW21982   3.597   0.376   3.419
 7028SOL    HW121983   3.588   0.410   3.513
 7028SOL    HW221984   3.692   0.351   3.402
 7029SOL     OW21985   3.451   3.898   3.690
 7029SOL    HW121986   3.546   3.890   3.660
 7029SOL    HW221987   3.439   3.984   3.740
 7030SOL     OW21988   6.376   6.959   5.022
 7030SOL    HW121989   6.297   7.014   5.047
 7030SOL    HW221990   6.460   7.012   5.035
 7031SOL     OW21991   4.691   5.884   0.839
 7031SOL    HW121992   4.700   5.855   0.934
 7031SOL    HW221993   4.637   5.816   0.789
 7032SOL     OW21994   4.483   5.031   4.490
 7032SOL    HW121995   4.530   5.049   4.577
 7032SOL    HW221996   4.547   4.988   4.426
 7033SOL     OW21997   1.671   1.578   5.509
 7033SOL    HW121998   1.619   1.571   5.594
 7033SOL    HW221999   1.713   1.669   5.503
 7034SOL     OW22000   6.232   1.418   2.173
 7034SOL    HW122001   6.303   1.456   2.232
 7034SOL    HW222002   6.273   1.387   2.088
 7035SOL     OW22003   2.865   1.763   1.775
 7035SOL    HW122004   2.900   1.853   1.752
 7035SOL    HW222005   2.869   1.749   1.874
 7036SOL     OW22006   6.030   1.462   1.658
 7036SOL    HW122007   5.937   1.466   1.622
 7036SOL    HW222008   6.040   1.527   1.734
 7037SOL     OW22009   1.690   0.279   6.417
 7037SOL    HW122010   1.751   0.278   6.338
 7037SOL    HW222011   1.744   0.285   6.501
 7038SOL     OW22012   0.853   4.672   0.688
 7038SOL    HW122013   0.919   4.640   0.620
 7038SOL    HW222014   0.875   4.766   0.713
 7039SOL     OW22015   6.687   6.942   1.594
 7039SOL    HW122016   6.672   6.887   1.676
 7039SOL    HW222017   6.783   6.934   1.566
 7040SOL     OW22018   5.587   2.608   5.163
 7040SOL    HW122019   5.601   2.537   5.094
 7040SOL    HW222020   5.490   2.631   5.168
 7041SOL     OW22021   1.166   0.206   3.797
 7041SOL    HW122022   1.251   0.255   3.776
 7041SOL    HW222023   1.179   0.151   3.880
 7042SOL     OW22024   5.954   6.097   5.418
 7042SOL    HW122025   5.983   6.015   5.466
 7042SOL    HW222026   6.029   6.163   5.416
 7043SOL     OW22027   1.728   5.782   0.907
 7043SOL    HW122028   1.803   5.817   0.851
 7043SOL    HW222029   1.655   5.851   0.912
 7044SOL     OW22030   4.392   6.171   5.169
 7044SOL    HW122031   4.386   6.243   5.100
 7044SOL    HW222032   4.319   6.182   5.236
 7045SOL     OW22033   5.898   5.936   1.889
 7045SOL    HW122034   5.952   5.870   1.941
 7045SOL    HW222035   5.832   5.888   1.832
 7046SOL     OW22036   2.234   1.769   3.033
 7046SOL    HW122037   2.307   1.818   2.986
 7046SOL    HW222038   2.148   1.820   3.022
 7047SOL     OW22039   0.962   6.915   0.837
 7047SOL    HW122040   0.917   6.948   0.920
 7047SOL    HW222041   1.044   6.970   0.820
 7048SOL     OW22042   0.688   6.350   3.741
 7048SOL    HW122043   0.698   6.430   3.682
 7048SOL    HW222044   0.592   6.323   3.744
 7049SOL     OW22045   3.449   1.478   4.405
 7049SOL    HW122046   3.377   1.545   4.386
 7049SOL    HW222047   3.497   1.457   4.320
 7050SOL     OW22048   3.860   4.192   0.547
 7050SOL    HW122049   3.916   4.227   0.622
 7050SOL    HW222050   3.764   4.188   0.576
 7051SOL     OW22051   1.424   2.281   1.832
 7051SOL    HW122052   1.456   2.345   1.762
 7051SOL    HW222053   1.448   2.188   1.804
 7052SOL     OW22054   4.924   2.254   2.853
 7052SOL    HW122055   4.875   2.312   2.787
 7052SOL    HW222056   4.909   2.158   2.830
 7053SOL     OW22057   1.303   4.904   3.481
 7053SOL    HW122058   1.310   4.810   3.514
 7053SOL    HW222059   1.377   4.959   3.521
 7054SOL     OW22060   5.392   7.007   6.807
 7054SOL    HW122061   5.379   0.019   6.901
 7054SOL    HW222062   5.342   0.046   6.744
 7055SOL     OW22063   2.546   6.963   0.321
 7055SOL    HW122064   2.544   6.863   0.315
 7055SOL    HW222065   2.468   7.001   0.271
 7056SOL     OW22066   6.901   5.423   0.777
 7056SOL    HW122067   6.804   5.425   0.802
 7056SOL    HW222068   6.955   5.396   0.857
 7057SOL     OW22069   3.263   5.712   4.823
 7057SOL    HW122070   3.337   5.680   4.763
 7057SOL    HW222071   3.218   5.632   4.865
 7058SOL     OW22072   6.562   2.212   6.315
 7058SOL    HW122073   6.564   2.157   6.232
 7058SOL    HW222074   6.467   2.238   6.335
 7059SOL     OW22075   1.865   0.351   5.302
 7059SOL    HW122076   1.811   0.302   5.370
 7059SOL    HW222077   1.913   0.285   5.244
 7060SOL     OW22078   3.332   2.520   1.529
 7060SOL    HW122079   3.307   2.589   1.461
 7060SOL    HW222080   3.284   2.539   1.615
 7061SOL     OW22081   1.577   1.123   1.569
 7061SOL    HW122082   1.620   1.033   1.573
 7061SOL    HW222083   1.631   1.188   1.622
 7062SOL     OW22084   3.200   0.755   4.523
 7062SOL    HW122085   3.130   0.827   4.521
 7062SOL    HW222086   3.219   0.726   4.429
 7063SOL     OW22087   0.151   1.294   1.848
 7063SOL    HW122088   0.197   1.350   1.917
 7063SOL    HW222089   0.211   1.283   1.769
 7064SOL     OW22090   3.179   1.175   5.565
 7064SOL    HW122091   3.095   1.224   5.540
 7064SOL    HW222092   3.166   1.129   5.653
 7065SOL     OW22093   3.760   6.177   4.732
 7065SOL    HW122094   3.698   6.197   4.656
 7065SOL    HW222095   3.805   6.261   4.761
 7066SOL     OW22096   3.130   0.263   1.294
 7066SOL    HW122097   3.226   0.240   1.312
 7066SOL    HW222098   3.111   0.355   1.327
 7067SOL     OW22099   2.152   4.138   6.065
 7067SOL    HW122100   2.200   4.089   5.992
 7067SOL    HW222101   2.174   4.096   6.153
 7068SOL     OW22102   5.029   4.182   4.538
 7068SOL    HW122103   5.043   4.182   4.637
 7068SOL    HW222104   4.972   4.104   4.513
 7069SOL     OW22105   4.883   0.726   5.543
 7069SOL    HW122106   4.848   0.775   5.623
 7069SOL    HW222107   4.955   0.662   5.573
 7070SOL     OW22108   0.480   1.009   5.759
 7070SOL    HW122109   0.391   1.009   5.715
 7070SOL    HW222110   0.480   1.073   5.836
 7071SOL     OW22111   4.581   5.895   6.625
 7071SOL    HW122112   4.551   5.800   6.615
 7071SOL    HW222113   4.537   5.951   6.554
 7072SOL     OW22114   0.769   3.740   6.408
 7072SOL    HW122115   0.800   3.766   6.499
 7072SOL    HW222116   0.669   3.730   6.408
 7073SOL     OW22117   4.737   1.057   3.670
 7073SOL    HW122118   4.832   1.083   3.684
 7073SOL    HW222119   4.694   1.038   3.758
 7074SOL     OW22120   5.672   4.203   2.157
 7074SOL    HW122121   5.686   4.258   2.239
 7074SOL    HW222122   5.742   4.225   2.089
 7075SOL     OW22123   2.417   4.998   2.682
 7075SOL    HW122124   2.407   5.029   2.587
 7075SOL    HW222125   2.377   4.907   2.691
 7076SOL     OW22126   5.725   1.963   1.391
 7076SOL    HW122127   5.734   1.867   1.418
 7076SOL    HW222128   5.747   2.022   1.468
 7077SOL     OW22129   3.511   6.059   1.319
 7077SOL    HW122130   3.529   6.102   1.230
 7077SOL    HW222131   3.588   6.000   1.344
 7078SOL     OW22132   6.728   1.249   6.383
 7078SOL    HW122133   6.725   1.349   6.373
 7078SOL    HW222134   6.640   1.211   6.356
 7079SOL     OW22135   2.032   5.452   4.765
 7079SOL    HW122136   1.956   5.510   4.794
 7079SOL    HW222137   2.008   5.407   4.679
 7080SOL     OW22138   4.257   1.503   6.214
 7080SOL    HW122139   4.167   1.459   6.217
 7080SOL    HW222140   4.251   1.587   6.160
 7081SOL     OW22141   2.268   6.435   0.244
 7081SOL    HW122142   2.317   6.381   0.175
 7081SOL    HW222143   2.233   6.518   0.202
 7082SOL     OW22144   0.674   3.865   2.129
 7082SOL    HW122145   0.587   3.909   2.151
 7082SOL    HW222146   0.720   3.916   2.057
 7083SOL     OW22147   5.253   3.119   3.129
 7083SOL    HW122148   5.236   3.215   3.154
 7083SOL    HW222149   5.330   3.084   3.183
 7084SOL     OW22150   1.218   5.219   0.625
 7084SOL    HW122151   1.168   5.217   0.538
 7084SOL    HW222152   1.169   5.276   0.690
 7085SOL     OW22153   0.393   4.020   2.516
 7085SOL    HW122154   0.326   4.078   2.471
 7085SOL    HW222155   0.414   3.941   2.459
 7086SOL     OW22156   4.873   0.670   3.432
 7086SOL    HW122157   4.894   0.583   3.388
 7086SOL    HW222158   4.833   0.732   3.365
 7087SOL     OW22159   5.523   2.423   3.488
 7087SOL    HW122160   5.459   2.422   3.565
 7087SOL    HW222161   5.537   2.329   3.456
 7088SOL     OW22162   5.779   2.718   5.425
 7088SOL    HW122163   5.759   2.808   5.387
 7088SOL    HW222164   5.720   2.701   5.504
 7089SOL     OW22165   2.882   5.644   0.696
 7089SOL    HW122166   2.816   5.717   0.682
 7089SOL    HW222167   2.867   5.571   0.629
 7090SOL     OW22168   4.536   2.971   0.754
 7090SOL    HW122169   4.505   2.925   0.837
 7090SOL    HW222170   4.588   2.907   0.698
 7091SOL     OW22171   6.243   6.618   0.022
 7091SOL    HW122172   6.265   6.709   7.009
 7091SOL    HW222173   6.250   6.616   0.122
 7092SOL     OW22174   4.190   0.169   6.484
 7092SOL    HW122175   4.093   0.176   6.459
 7092SOL    HW222176   4.214   0.244   6.545
 7093SOL     OW22177   3.722   3.476   0.293
 7093SOL    HW122178   3.688   3.482   0.387
 7093SOL    HW222179   3.675   3.403   0.245
 7094SOL     OW22180   4.568   1.109   5.251
 7094SOL    HW122181   4.668   1.111   5.254
 7094SOL    HW222182   4.535   1.029   5.302
 7095SOL     OW22183   2.718   4.727   4.111
 7095SOL    HW122184   2.751   4.750   4.020
 7095SOL    HW222185   2.660   4.645   4.106
 7096SOL     OW22186   6.329   6.429   0.529
 7096SOL    HW122187   6.284   6.517   0.545
 7096SOL    HW222188   6.388   6.407   0.606
 7097SOL     OW22189   5.347   1.652   2.727
 7097SOL    HW122190   5.273   1.588   2.709
 7097SOL    HW222191   5.323   1.742   2.690
 7098SOL     OW22192   0.423   1.374   2.940
 7098SOL    HW122193   0.340   1.322   2.921
 7098SOL    HW222194   0.412   1.427   3.024
 7099SOL     OW22195   3.375   1.905   4.405
 7099SOL    HW122196   3.285   1.902   4.363
 7099SOL    HW222197   3.369   1.952   4.493
 7100SOL     OW22198   0.116   4.253   1.232
 7100SOL    HW122199   0.094   4.349   1.244
 7100SOL    HW222200   0.144   4.236   1.138
 7101SOL     OW22201   2.863   5.881   4.210
 7101SOL    HW122202   2.790   5.813   4.203
 7101SOL    HW222203   2.933   5.849   4.274
 7102SOL     OW22204   5.275   1.383   2.961
 7102SOL    HW122205   5.213   1.339   3.026
 7102SOL    HW222206   5.365   1.339   2.967
 7103SOL     OW22207   5.404   3.982   4.047
 7103SOL    HW122208   5.487   3.927   4.059
 7103SOL    HW222209   5.416   4.070   4.094
 7104SOL     OW22210   5.058   2.798   4.742
 7104SOL    HW122211   5.051   2.792   4.642
 7104SOL    HW222212   5.135   2.856   4.766
 7105SOL     OW22213   3.659   4.095   2.653
 7105SOL    HW122214   3.749   4.053   2.666
 7105SOL    HW222215   3.609   4.095   2.739
 7106SOL     OW22216   2.944   2.047   2.151
 7106SOL    HW122217   2.930   2.125   2.090
 7106SOL    HW222218   2.879   2.051   2.226
 7107SOL     OW22219   3.747   1.178   6.636
 7107SOL    HW122220   3.735   1.238   6.716
 7107SOL    HW222221   3.700   1.091   6.652
 7108SOL     OW22222   3.721   0.316   1.894
 7108SOL    HW122223   3.698   0.227   1.856
 7108SOL    HW222224   3.637   0.369   1.908
 7109SOL     OW22225   3.143   5.231   5.802
 7109SOL    HW122226   3.174   5.218   5.709
 7109SOL    HW222227   3.048   5.263   5.801
 7110SOL     OW22228   2.526   5.990   5.663
 7110SOL    HW122229   2.619   5.952   5.654
 7110SOL    HW222230   2.462   5.917   5.686
 7111SOL     OW22231   6.709   1.052   4.791
 7111SOL    HW122232   6.679   0.956   4.797
 7111SOL    HW222233   6.640   1.106   4.744
 7112SOL     OW22234   0.265   5.241   5.414
 7112SOL    HW122235   0.223   5.152   5.394
 7112SOL    HW222236   0.295   5.284   5.328
 7113SOL     OW22237   3.341   6.713   4.913
 7113SOL    HW122238   3.333   6.813   4.910
 7113SOL    HW222239   3.332   6.676   4.821
 7114SOL     OW22240   5.719   3.751   0.909
 7114SOL    HW122241   5.659   3.731   0.986
 7114SOL    HW222242   5.695   3.840   0.870
 7115SOL     OW22243   4.558   2.885   6.216
 7115SOL    HW122244   4.587   2.977   6.192
 7115SOL    HW222245   4.515   2.842   6.136
 7116SOL     OW22246   6.531   4.601   4.903
 7116SOL    HW122247   6.546   4.658   4.984
 7116SOL    HW222248   6.502   4.659   4.827
 7117SOL     OW22249   4.865   0.258   2.689
 7117SOL    HW122250   4.949   0.231   2.737
 7117SOL    HW222251   4.796   0.285   2.757
 7118SOL     OW22252   4.489   4.334   5.952
 7118SOL    HW122253   4.522   4.259   6.009
 7118SOL    HW222254   4.567   4.388   5.919
 7119SOL     OW22255   2.802   6.416   4.754
 7119SOL    HW122256   2.834   6.381   4.842
 7119SOL    HW222257   2.808   6.344   4.685
 7120SOL     OW22258   4.060   1.435   1.443
 7120SOL    HW122259   4.042   1.531   1.465
 7120SOL    HW222260   4.159   1.418   1.449
 7121SOL     OW22261   1.035   6.238   2.085
 7121SOL    HW122262   1.122   6.220   2.132
 7121SOL    HW222263   0.971   6.280   2.149
 7122SOL     OW22264   3.871   1.833   6.677
 7122SOL    HW122265   3.855   1.763   6.607
 7122SOL    HW222266   3.963   1.871   6.667
 7123SOL     OW22267   4.919   4.650   6.021
 7123SOL    HW122268   4.898   4.568   5.967
 7123SOL    HW222269   4.896   4.732   5.968
 7124SOL     OW22270   2.729   2.961   0.359
 7124SOL    HW122271   2.777   2.880   0.324
 7124SOL    HW222272   2.684   3.009   0.283
 7125SOL     OW22273   1.094   6.626   2.141
 7125SOL    HW122274   1.077   6.538   2.096
 7125SOL    HW222275   1.191   6.650   2.133
 7126SOL     OW22276   4.115   4.521   1.227
 7126SOL    HW122277   4.084   4.482   1.139
 7126SOL    HW222278   4.087   4.460   1.301
 7127SOL     OW22279   2.722   5.917   6.197
 7127SOL    HW122280   2.782   5.838   6.187
 7127SOL    HW222281   2.626   5.887   6.198
 7128SOL     OW22282   3.463   4.039   0.121
 7128SOL    HW122283   3.503   3.952   0.151
 7128SOL    HW222284   3.498   4.113   0.179
 7129SOL     OW22285   0.204   0.439   6.804
 7129SOL    HW122286   0.124   0.426   6.862
 7129SOL    HW222287   0.278   0.480   6.858
 7130SOL     OW22288   3.588   0.468   4.134
 7130SOL    HW122289   3.636   0.527   4.069
 7130SOL    HW222290   3.606   0.500   4.227
 7131SOL     OW22291   2.397   1.638   2.295
 7131SOL    HW122292   2.303   1.661   2.271
 7131SOL    HW222293   2.400   1.599   2.388
 7132SOL     OW22294   4.742   4.472   1.961
 7132SOL    HW122295   4.667   4.410   1.987
 7132SOL    HW222296   4.822   4.417   1.936
 7133SOL     OW22297   4.648   6.044   2.902
 7133SOL    HW122298   4.570   6.007   2.853
 7133SOL    HW222299   4.685   5.975   2.964
 7134SOL     OW22300   4.547   4.944   0.151
 7134SOL    HW122301   4.596   4.865   0.115
 7134SOL    HW222302   4.571   5.025   0.097
 7135SOL     OW22303   2.001   4.410   1.189
 7135SOL    HW122304   2.034   4.501   1.166
 7135SOL    HW222305   1.982   4.405   1.287
 7136SOL     OW22306   1.203   2.673   1.557
 7136SOL    HW122307   1.184   2.576   1.576
 7136SOL    HW222308   1.248   2.680   1.468
 7137SOL     OW22309   2.901   1.110   2.489
 7137SOL    HW122310   2.920   1.025   2.539
 7137SOL    HW222311   2.963   1.181   2.522
 7138SOL     OW22312   0.031   3.240   6.993
 7138SOL    HW122313   0.044   3.339   7.000
 7138SOL    HW222314   6.956   3.220   6.973
 7139SOL     OW22315   5.857   5.693   1.102
 7139SOL    HW122316   5.895   5.774   1.059
 7139SOL    HW222317   5.786   5.654   1.044
 7140SOL     OW22318   6.996   5.169   0.105
 7140SOL    HW122319   6.968   5.126   0.190
 7140SOL    HW222320   6.931   5.241   0.080
 7141SOL     OW22321   3.632   1.394   1.093
 7141SOL    HW122322   3.569   1.390   1.016
 7141SOL    HW222323   3.581   1.411   1.177
 7142SOL     OW22324   4.834   0.229   5.237
 7142SOL    HW122325   4.841   0.139   5.193
 7142SOL    HW222326   4.924   0.257   5.270
 7143SOL     OW22327   3.315   2.578   6.214
 7143SOL    HW122328   3.243   2.593   6.281
 7143SOL    HW222329   3.362   2.665   6.196
 7144SOL     OW22330   6.842   1.080   5.580
 7144SOL    HW122331   6.772   1.030   5.530
 7144SOL    HW222332   6.874   1.025   5.658
 7145SOL     OW22333   6.593   2.438   5.972
 7145SOL    HW122334   6.563   2.525   6.013
 7145SOL    HW222335   6.519   2.372   5.975
 7146SOL     OW22336   0.236   1.566   4.670
 7146SOL    HW122337   0.196   1.638   4.727
 7146SOL    HW222338   0.173   1.542   4.597
 7147SOL     OW22339   6.730   0.030   1.186
 7147SOL    HW122340   6.829   0.019   1.196
 7147SOL    HW222341   6.706   0.030   1.089
 7148SOL     OW22342   6.021   6.811   0.878
 7148SOL    HW122343   6.034   6.824   0.976
 7148SOL    HW222344   5.925   6.826   0.854
 7149SOL     OW22345   5.372   4.141   6.189
 7149SOL    HW122346   5.382   4.164   6.286
 7149SOL    HW222347   5.447   4.082   6.161
 7150SOL     OW22348   2.939   2.316   6.942
 7150SOL    HW122349   3.014   2.251   6.930
 7150SOL    HW222350   2.962   2.402   6.897
 7151SOL     OW22351   5.535   1.223   6.930
 7151SOL    HW122352   5.461   1.181   6.982
 7151SOL    HW222353   5.508   1.230   6.834
 7152SOL     OW22354   4.669   0.076   5.437
 7152SOL    HW122355   4.616   0.152   5.475
 7152SOL    HW222356   4.727   0.109   5.363
 7153SOL     OW22357   4.083   5.949   0.739
 7153SOL    HW122358   4.000   5.894   0.729
 7153SOL    HW222359   4.162   5.897   0.705
 7154SOL     OW22360   5.089   0.946   1.591
 7154SOL    HW122361   5.153   1.012   1.630
 7154SOL    HW222362   5.036   0.989   1.519
 7155SOL     OW22363   1.664   0.163   1.019
 7155SOL    HW122364   1.737   0.231   1.022
 7155SOL    HW222365   1.703   0.072   1.024
 7156SOL     OW22366   6.286   3.849   5.695
 7156SOL    HW122367   6.201   3.902   5.705
 7156SOL    HW222368   6.270   3.755   5.724
 7157SOL     OW22369   0.176   4.072   5.843
 7157SOL    HW122370   0.234   4.113   5.914
 7157SOL    HW222371   0.234   4.024   5.777
 7158SOL     OW22372   5.325   0.229   3.922
 7158SOL    HW122373   5.360   0.276   3.841
 7158SOL    HW222374   5.351   0.280   4.004
 7159SOL     OW22375   0.702   6.381   3.139
 7159SOL    HW122376   0.643   6.333   3.074
 7159SOL    HW222377   0.797   6.360   3.119
 7160SOL     OW22378   5.704   6.929   2.428
 7160SOL    HW122379   5.666   6.936   2.336
 7160SOL    HW222380   5.677   7.009   2.482
 7161SOL     OW22381   3.825   3.732   2.151
 7161SOL    HW122382   3.867   3.821   2.169
 7161SOL    HW222383   3.735   3.745   2.109
 7162SOL     OW22384   6.911   6.242   0.952
 7162SOL    HW122385   6.991   6.239   1.012
 7162SOL    HW222386   6.838   6.185   0.991
 7163SOL     OW22387   6.664   0.057   0.915
 7163SOL    HW122388   6.565   0.069   0.908
 7163SOL    HW222389   6.709   0.146   0.908
 7164SOL     OW22390   1.686   0.478   6.920
 7164SOL    HW122391   1.784   0.499   6.922
 7164SOL    HW222392   1.651   0.478   7.014
 7165SOL     OW22393   4.963   1.959   6.839
 7165SOL    HW122394   5.055   1.998   6.826
 7165SOL    HW222395   4.918   2.007   6.915
 7166SOL     OW22396   6.840   5.768   5.303
 7166SOL    HW122397   6.796   5.841   5.357
 7166SOL    HW222398   6.786   5.752   5.220
 7167SOL     OW22399   0.372   3.188   5.480
 7167SOL    HW122400   0.430   3.121   5.435
 7167SOL    HW222401   0.277   3.157   5.477
 7168SOL     OW22402   1.305   1.353   2.553
 7168SOL    HW122403   1.277   1.331   2.647
 7168SOL    HW222404   1.357   1.439   2.553
 7169SOL     OW22405   1.487   4.408   5.905
 7169SOL    HW122406   1.579   4.395   5.870
 7169SOL    HW222407   1.426   4.437   5.831
 7170SOL     OW22408   4.128   1.464   1.092
 7170SOL    HW122409   4.127   1.364   1.099
 7170SOL    HW222410   4.037   1.499   1.116
 7171SOL     OW22411   6.985   4.415   0.946
 7171SOL    HW122412   6.920   4.404   1.021
 7171SOL    HW222413   6.950   4.368   0.865
 7172SOL     OW22414   0.610   2.390   3.643
 7172SOL    HW122415   0.690   2.422   3.591
 7172SOL    HW222416   0.553   2.333   3.584
 7173SOL     OW22417   3.671   5.542   5.066
 7173SOL    HW122418   3.685   5.639   5.049
 7173SOL    HW222419   3.598   5.530   5.133
 7174SOL     OW22420   6.620   3.826   2.360
 7174SOL    HW122421   6.530   3.807   2.320
 7174SOL    HW222422   6.689   3.766   2.319
 7175SOL     OW22423   6.436   3.742   5.964
 7175SOL    HW122424   6.502   3.708   6.030
 7175SOL    HW222425   6.461   3.711   5.872
 7176SOL     OW22426   0.437   0.940   6.488
 7176SOL    HW122427   0.510   0.982   6.434
 7176SOL    HW222428   0.472   0.857   6.532
 7177SOL     OW22429   1.755   5.544   3.139
 7177SOL    HW122430   1.749   5.637   3.102
 7177SOL    HW222431   1.709   5.540   3.228
 7178SOL     OW22432   1.247   6.321   5.706
 7178SOL    HW122433   1.328   6.352   5.656
 7178SOL    HW222434   1.171   6.383   5.688
 7179SOL     OW22435   4.262   4.985   5.990
 7179SOL    HW122436   4.323   5.062   5.971
 7179SOL    HW222437   4.188   4.984   5.922
 7180SOL     OW22438   1.440   2.921   1.994
 7180SOL    HW122439   1.534   2.921   2.028
 7180SOL    HW222440   1.427   2.999   1.933
 7181SOL     OW22441   2.528   0.582   0.208
 7181SOL    HW122442   2.501   0.541   0.121
 7181SOL    HW222443   2.597   0.652   0.191
 7182SOL     OW22444   1.794   1.488   3.296
 7182SOL    HW122445   1.745   1.522   3.377
 7182SOL    HW222446   1.728   1.443   3.235
 7183SOL     OW22447   1.329   0.288   1.556
 7183SOL    HW122448   1.271   0.329   1.626
 7183SOL    HW222449   1.319   0.189   1.558
 7184SOL     OW22450   6.963   0.814   3.711
 7184SOL    HW122451   6.893   0.865   3.660
 7184SOL    HW222452   6.925   0.787   3.800
 7185SOL     OW22453   3.887   0.441   3.854
 7185SOL    HW122454   3.831   0.523   3.857
 7185SOL    HW222455   3.950   0.441   3.931
 7186SOL     OW22456   6.526   1.055   6.303
 7186SOL    HW122457   6.520   1.000   6.219
 7186SOL    HW222458   6.485   1.005   6.379
 7187SOL     OW22459   3.575   3.225   4.016
 7187SOL    HW122460   3.523   3.296   3.968
 7187SOL    HW222461   3.673   3.240   4.002
 7188SOL     OW22462   4.737   4.572   0.779
 7188SOL    HW122463   4.820   4.533   0.819
 7188SOL    HW222464   4.736   4.555   0.681
 7189SOL     OW22465   0.145   2.348   5.900
 7189SOL    HW122466   0.059   2.394   5.880
 7189SOL    HW222467   0.127   2.262   5.948
 7190SOL     OW22468   5.973   5.348   6.991
 7190SOL    HW122469   6.033   5.269   6.973
 7190SOL    HW222470   6.028   5.431   6.994
 7191SOL     OW22471   6.670   4.908   2.215
 7191SOL    HW122472   6.683   4.833   2.279
 7191SOL    HW222473   6.582   4.899   2.170
 7192SOL     OW22474   2.710   3.863   5.222
 7192SOL    HW122475   2.617   3.894   5.203
 7192SOL    HW222476   2.731   3.784   5.164
 7193SOL     OW22477   3.648   1.565   3.716
 7193SOL    HW122478   3.745   1.586   3.710
 7193SOL    HW222479   3.636   1.466   3.717
 7194SOL     OW22480   2.948   2.195   5.870
 7194SOL    HW122481   2.904   2.178   5.958
 7194SOL    HW222482   2.985   2.288   5.869
 7195SOL     OW22483   0.920   3.358   5.818
 7195SOL    HW122484   0.963   3.434   5.867
 7195SOL    HW222485   0.964   3.272   5.844
 7196SOL     OW22486   2.948   3.724   1.506
 7196SOL    HW122487   3.013   3.664   1.461
 7196SOL    HW222488   2.990   3.813   1.523
 7197SOL     OW22489   3.439   5.014   0.109
 7197SOL    HW122490   3.342   5.025   0.091
 7197SOL    HW222491   3.462   5.057   0.196
 7198SOL     OW22492   0.963   0.637   1.885
 7198SOL    HW122493   0.947   0.582   1.803
 7198SOL    HW222494   0.910   0.598   1.961
 7199SOL     OW22495   5.913   1.007   3.286
 7199SOL    HW122496   5.917   0.918   3.240
 7199SOL    HW222497   5.996   1.059   3.264
 7200SOL     OW22498   1.021   3.297   6.870
 7200SOL    HW122499   0.923   3.288   6.891
 7200SOL    HW222500   1.032   3.349   6.785
 7201SOL     OW22501   5.990   6.141   3.995
 7201SOL    HW122502   6.033   6.082   4.063
 7201SOL    HW222503   6.031   6.123   3.905
 7202SOL     OW22504   4.809   7.014   6.074
 7202SOL    HW122505   4.771   6.935   6.026
 7202SOL    HW222506   4.846   0.058   6.007
 7203SOL     OW22507   0.547   1.714   1.207
 7203SOL    HW122508   0.488   1.771   1.264
 7203SOL    HW222509   0.632   1.694   1.256
 7204SOL     OW22510   5.912   0.928   2.281
 7204SOL    HW122511   5.940   0.979   2.362
 7204SOL    HW222512   5.907   0.991   2.203
 7205SOL     OW22513   2.820   1.582   4.030
 7205SOL    HW122514   2.863   1.502   4.070
 7205SOL    HW222515   2.779   1.558   3.942
 7206SOL     OW22516   2.008   3.404   6.924
 7206SOL    HW122517   1.949   3.479   6.952
 7206SOL    HW222518   1.963   3.317   6.942
 7207SOL     OW22519   1.919   1.489   3.059
 7207SOL    HW122520   1.946   1.394   3.044
 7207SOL    HW222521   1.873   1.498   3.147
 7208SOL     OW22522   3.713   0.643   3.921
 7208SOL    HW122523   3.774   0.711   3.962
 7208SOL    HW222524   3.647   0.689   3.862
 7209SOL     OW22525   3.598   1.021   2.242
 7209SOL    HW122526   3.660   0.993   2.169
 7209SOL    HW222527   3.569   1.115   2.226
 7210SOL     OW22528   3.670   1.262   3.878
 7210SOL    HW122529   3.645   1.325   3.951
 7210SOL    HW222530   3.712   1.180   3.917
 7211SOL     OW22531   4.162   6.211   5.746
 7211SOL    HW122532   4.154   6.182   5.651
 7211SOL    HW222533   4.071   6.221   5.786
 7212SOL     OW22534   0.919   5.274   5.438
 7212SOL    HW122535   0.821   5.284   5.457
 7212SOL    HW222536   0.966   5.358   5.466
 7213SOL     OW22537   4.405   2.650   0.230
 7213SOL    HW122538   4.415   2.698   0.317
 7213SOL    HW222539   4.391   2.717   0.156
 7214SOL     OW22540   6.081   0.963   6.087
 7214SOL    HW122541   6.031   1.010   6.160
 7214SOL    HW222542   6.156   1.021   6.056
 7215SOL     OW22543   6.684   1.710   2.433
 7215SOL    HW122544   6.598   1.659   2.429
 7215SOL    HW222545   6.668   1.806   2.414
 7216SOL     OW22546   5.364   6.707   3.683
 7216SOL    HW122547   5.457   6.675   3.668
 7216SOL    HW222548   5.321   6.727   3.595
 7217SOL     OW22549   1.499   3.198   3.295
 7217SOL    HW122550   1.560   3.128   3.257
 7217SOL    HW222551   1.531   3.224   3.386
 7218SOL     OW22552   6.613   2.336   5.205
 7218SOL    HW122553   6.608   2.241   5.234
 7218SOL    HW222554   6.646   2.341   5.110
 7219SOL     OW22555   2.682   6.399   2.126
 7219SOL    HW122556   2.740   6.467   2.170
 7219SOL    HW222557   2.641   6.438   2.044
 7220SOL     OW22558   6.394   4.048   3.496
 7220SOL    HW122559   6.461   4.046   3.571
 7220SOL    HW222560   6.442   4.044   3.409
 7221SOL     OW22561   4.065   5.214   3.470
 7221SOL    HW122562   4.000   5.233   3.543
 7221SOL    HW222563   4.016   5.180   3.390
 7222SOL     OW22564   0.212   6.114   3.993
 7222SOL    HW122565   0.243   6.167   3.914
 7222SOL    HW222566   0.118   6.138   4.015
 7223SOL     OW22567   0.018   4.760   1.492
 7223SOL    HW122568   6.986   4.816   1.555
 7223SOL    HW222569   0.007   4.663   1.515
 7224SOL     OW22570   4.409   2.172   2.527
 7224SOL    HW122571   4.386   2.074   2.521
 7224SOL    HW222572   4.343   2.225   2.475
 7225SOL     OW22573   0.984   6.129   0.410
 7225SOL    HW122574   1.058   6.186   0.446
 7225SOL    HW222575   0.922   6.185   0.355
 7226SOL     OW22576   6.084   6.452   0.289
 7226SOL    HW122577   6.069   6.439   0.191
 7226SOL    HW222578   6.068   6.366   0.337
 7227SOL     OW22579   1.772   1.493   2.581
 7227SOL    HW122580   1.771   1.568   2.515
 7227SOL    HW222581   1.845   1.507   2.647
 7228SOL     OW22582   5.772   3.113   2.596
 7228SOL    HW122583   5.744   3.207   2.577
 7228SOL    HW222584   5.871   3.106   2.590
 7229SOL     OW22585   5.736   0.283   4.973
 7229SOL    HW122586   5.819   0.229   4.960
 7229SOL    HW222587   5.659   0.239   4.928
 7230SOL     OW22588   2.280   5.542   4.667
 7230SOL    HW122589   2.192   5.562   4.709
 7230SOL    HW222590   2.298   5.444   4.671
 7231SOL     OW22591   3.959   3.404   5.936
 7231SOL    HW122592   3.940   3.342   5.859
 7231SOL    HW222593   3.987   3.351   6.015
 7232SOL     OW22594   4.547   6.036   3.475
 7232SOL    HW122595   4.519   6.032   3.379
 7232SOL    HW222596   4.484   6.095   3.526
 7233SOL     OW22597   0.728   1.180   5.834
 7233SOL    HW122598   0.690   1.205   5.745
 7233SOL    HW222599   0.688   1.239   5.904
 7234SOL     OW22600   5.637   4.625   3.646
 7234SOL    HW122601   5.632   4.616   3.546
 7234SOL    HW222602   5.597   4.544   3.688
 7235SOL     OW22603   6.385   0.064   1.883
 7235SOL    HW122604   6.457   0.129   1.862
 7235SOL    HW222605   6.307   0.078   1.822
 7236SOL     OW22606   1.230   3.910   2.592
 7236SOL    HW122607   1.240   3.811   2.595
 7236SOL    HW222608   1.267   3.944   2.505
 7237SOL     OW22609   5.529   1.406   0.574
 7237SOL    HW122610   5.627   1.420   0.588
 7237SOL    HW222611   5.488   1.490   0.540
 7238SOL     OW22612   4.045   3.286   0.195
 7238SOL    HW122613   4.114   3.331   0.253
 7238SOL    HW222614   4.019   3.349   0.121
 7239SOL     OW22615   5.522   2.558   2.180
 7239SOL    HW122616   5.551   2.645   2.221
 7239SOL    HW222617   5.430   2.536   2.211
 7240SOL     OW22618   6.954   1.709   0.236
 7240SOL    HW122619   6.999   1.734   0.151
 7240SOL    HW222620   6.988   1.620   0.267
 7241SOL     OW22621   2.029   0.421   2.556
 7241SOL    HW122622   1.966   0.364   2.504
 7241SOL    HW222623   2.007   0.414   2.654
 7242SOL     OW22624   6.955   4.654   5.479
 7242SOL    HW122625   6.994   4.741   5.510
 7242SOL    HW222626   6.960   4.649   5.379
 7243SOL     OW22627   5.179   4.651   6.033
 7243SOL    HW122628   5.082   4.625   6.042
 7243SOL    HW222629   5.236   4.570   6.041
 7244SOL     OW22630   0.230   6.171   6.998
 7244SOL    HW122631   0.298   6.211   0.038
 7244SOL    HW222632   0.273   6.100   6.942
 7245SOL     OW22633   1.356   2.844   0.021
 7245SOL    HW122634   1.447   2.814   0.050
 7245SOL    HW222635   1.344   2.826   6.944
 7246SOL     OW22636   4.330   6.864   3.020
 7246SOL    HW122637   4.245   6.847   2.972
 7246SOL    HW222638   4.349   6.962   3.023
 7247SOL     OW22639   3.021   3.746   4.091
 7247SOL    HW122640   3.019   3.660   4.143
 7247SOL    HW222641   2.944   3.747   4.027
 7248SOL     OW22642   2.964   1.265   5.967
 7248SOL    HW122643   3.005   1.198   6.029
 7248SOL    HW222644   3.014   1.265   5.880
 7249SOL     OW22645   3.948   5.313   2.491
 7249SOL    HW122646   3.880   5.248   2.456
 7249SOL    HW222647   3.910   5.405   2.487
 7250SOL     OW22648   5.847   5.461   5.693
 7250SOL    HW122649   5.836   5.551   5.651
 7250SOL    HW222650   5.808   5.391   5.633
 7251SOL     OW22651   0.951   5.132   4.697
 7251SOL    HW122652   0.982   5.191   4.771
 7251SOL    HW222653   0.896   5.057   4.734
 7252SOL     OW22654   4.148   3.621   2.400
 7252SOL    HW122655   4.230   3.670   2.430
 7252SOL    HW222656   4.144   3.531   2.444
 7253SOL     OW22657   2.626   5.227   4.473
 7253SOL    HW122658   2.526   5.228   4.467
 7253SOL    HW222659   2.655   5.170   4.550
 7254SOL     OW22660   6.167   3.474   4.102
 7254SOL    HW122661   6.161   3.381   4.138
 7254SOL    HW222662   6.091   3.528   4.137
 7255SOL     OW22663   4.603   3.885   0.197
 7255SOL    HW122664   4.655   3.890   0.282
 7255SOL    HW222665   4.637   3.953   0.133
 7256SOL     OW22666   3.181   0.394   4.612
 7256SOL    HW122667   3.151   0.306   4.648
 7256SOL    HW222668   3.231   0.443   4.684
 7257SOL     OW22669   1.106   1.243   4.760
 7257SOL    HW122670   1.035   1.216   4.694
 7257SOL    HW222671   1.191   1.262   4.711
 7258SOL     OW22672   5.951   3.198   2.366
 7258SOL    HW122673   5.973   3.101   2.380
 7258SOL    HW222674   5.891   3.230   2.439
 7259SOL     OW22675   1.479   4.520   2.658
 7259SOL    HW122676   1.578   4.529   2.644
 7259SOL    HW222677   1.451   4.576   2.737
 7260SOL     OW22678   5.768   2.974   0.579
 7260SOL    HW122679   5.738   2.910   0.509
 7260SOL    HW222680   5.702   2.974   0.655
 7261SOL     OW22681   6.705   4.271   6.674
 7261SOL    HW122682   6.696   4.174   6.700
 7261SOL    HW222683   6.615   4.307   6.650
 7262SOL     OW22684   5.159   1.393   5.182
 7262SOL    HW122685   5.062   1.373   5.172
 7262SOL    HW222686   5.213   1.316   5.147
 7263SOL     OW22687   6.825   5.563   5.926
 7263SOL    HW122688   6.832   5.475   5.972
 7263SOL    HW222689   6.847   5.636   5.990
 7264SOL     OW22690   5.585   1.409   1.387
 7264SOL    HW122691   5.663   1.399   1.325
 7264SOL    HW222692   5.526   1.328   1.380
 7265SOL     OW22693   3.961   0.628   5.469
 7265SOL    HW122694   3.988   0.705   5.411
 7265SOL    HW222695   4.018   0.626   5.551
 7266SOL     OW22696   0.223   0.809   3.005
 7266SOL    HW122697   0.316   0.776   2.989
 7266SOL    HW222698   0.193   0.780   3.095
 7267SOL     OW22699   6.433   4.029   4.645
 7267SOL    HW122700   6.424   4.008   4.548
 7267SOL    HW222701   6.480   4.116   4.656
 7268SOL     OW22702   6.308   6.498   4.363
 7268SOL    HW122703   6.297   6.590   4.399
 7268SOL    HW222704   6.258   6.433   4.421
 7269SOL     OW22705   2.501   4.647   4.658
 7269SOL    HW122706   2.451   4.726   4.692
 7269SOL    HW222707   2.557   4.675   4.579
 7270SOL     OW22708   0.671   0.714   4.924
 7270SOL    HW122709   0.618   0.735   4.841
 7270SOL    HW222710   0.744   0.781   4.934
 7271SOL     OW22711   0.508   4.768   3.191
 7271SOL    HW122712   0.416   4.768   3.229
 7271SOL    HW222713   0.553   4.681   3.213
 7272SOL     OW22714   6.158   3.845   1.560
 7272SOL    HW122715   6.187   3.749   1.570
 7272SOL    HW222716   6.224   3.893   1.502
 7273SOL     OW22717   0.760   1.917   5.614
 7273SOL    HW122718   0.832   1.969   5.568
 7273SOL    HW222719   0.683   1.978   5.635
 7274SOL     OW22720   0.545   5.144   6.104
 7274SOL    HW122721   0.600   5.225   6.123
 7274SOL    HW222722   0.529   5.136   6.006
 7275SOL     OW22723   0.881   5.736   3.669
 7275SOL    HW122724   0.821   5.660   3.692
 7275SOL    HW222725   0.869   5.760   3.573
 7276SOL     OW22726   5.228   5.774   3.574
 7276SOL    HW122727   5.230   5.683   3.532
 7276SOL    HW222728   5.158   5.775   3.646
 7277SOL     OW22729   4.690   0.834   0.137
 7277SOL    HW122730   4.663   0.764   0.203
 7277SOL    HW222731   4.743   0.790   0.064
 7278SOL     OW22732   3.253   2.962   2.554
 7278SOL    HW122733   3.284   3.019   2.477
 7278SOL    HW222734   3.331   2.917   2.596
 7279SOL     OW22735   3.390   6.645   6.335
 7279SOL    HW122736   3.355   6.736   6.309
 7279SOL    HW222737   3.314   6.580   6.336
 7280SOL     OW22738   4.640   1.950   5.748
 7280SOL    HW122739   4.577   1.918   5.678
 7280SOL    HW222740   4.589   1.991   5.823
 7281SOL     OW22741   5.097   0.979   5.824
 7281SOL    HW122742   5.161   0.912   5.861
 7281SOL    HW222743   5.146   1.046   5.769
 7282SOL     OW22744   5.318   5.650   1.983
 7282SOL    HW122745   5.281   5.741   1.963
 7282SOL    HW222746   5.363   5.651   2.073
 7283SOL     OW22747   1.878   0.726   4.455
 7283SOL    HW122748   1.878   0.818   4.416
 7283SOL    HW222749   1.797   0.676   4.422
 7284SOL     OW22750   0.566   2.046   4.820
 7284SOL    HW122751   0.502   2.114   4.784
 7284SOL    HW222752   0.631   2.092   4.881
 7285SOL     OW22753   5.479   4.736   1.395
 7285SOL    HW122754   5.538   4.815   1.375
 7285SOL    HW222755   5.512   4.689   1.477
 7286SOL     OW22756   2.109   4.142   0.796
 7286SOL    HW122757   2.103   4.184   0.887
 7286SOL    HW222758   2.180   4.072   0.796
 7287SOL     OW22759   5.564   1.329   5.764
 7287SOL    HW122760   5.586   1.362   5.855
 7287SOL    HW222761   5.645   1.333   5.706
 7288SOL     OW22762   2.718   6.576   0.068
 7288SOL    HW122763   2.704   6.620   7.000
 7288SOL    HW222764   2.637   6.590   0.125
 7289SOL     OW22765   5.445   2.329   3.932
 7289SOL    HW122766   5.393   2.247   3.956
 7289SOL    HW222767   5.517   2.305   3.867
 7290SOL     OW22768   2.686   4.899   4.318
 7290SOL    HW122769   2.697   4.830   4.247
 7290SOL    HW222770   2.657   4.986   4.277
 7291SOL     OW22771   3.557   5.437   1.835
 7291SOL    HW122772   3.607   5.444   1.749
 7291SOL    HW222773   3.467   5.480   1.825
 7292SOL     OW22774   3.332   6.921   4.582
 7292SOL    HW122775   3.360   6.829   4.557
 7292SOL    HW222776   3.373   6.987   4.519
 7293SOL     OW22777   2.036   2.085   6.481
 7293SOL    HW122778   2.079   2.172   6.457
 7293SOL    HW222779   1.942   2.102   6.511
 7294SOL     OW22780   4.356   5.750   0.355
 7294SOL    HW122781   4.448   5.713   0.338
 7294SOL    HW222782   4.342   5.832   0.299
 7295SOL     OW22783   5.463   0.185   1.643
 7295SOL    HW122784   5.438   0.150   1.553
 7295SOL    HW222785   5.552   0.148   1.671
 7296SOL     OW22786   4.199   5.135   2.154
 7296SOL    HW122787   4.101   5.148   2.139
 7296SOL    HW222788   4.250   5.199   2.096
 7297SOL     OW22789   5.470   6.396   2.198
 7297SOL    HW122790   5.403   6.389   2.272
 7297SOL    HW222791   5.526   6.477   2.211
 7298SOL     OW22792   6.447   3.711   3.817
 7298SOL    HW122793   6.365   3.766   3.828
 7298SOL    HW222794   6.437   3.625   3.867
 7299SOL     OW22795   5.322   3.531   6.485
 7299SOL    HW122796   5.336   3.542   6.387
 7299SOL    HW222797   5.257   3.599   6.518
 7300SOL     OW22798   4.577   5.054   1.474
 7300SOL    HW122799   4.558   4.977   1.536
 7300SOL    HW222800   4.499   5.117   1.475
 7301SOL     OW22801   6.687   0.975   5.925
 7301SOL    HW122802   6.756   1.009   5.989
 7301SOL    HW222803   6.679   1.038   5.848
 7302SOL     OW22804   5.337   0.866   5.929
 7302SOL    HW122805   5.393   0.908   6.001
 7302SOL    HW222806   5.366   0.771   5.918
 7303SOL     OW22807   3.367   0.820   0.774
 7303SOL    HW122808   3.378   0.901   0.715
 7303SOL    HW222809   3.446   0.811   0.833
 7304SOL     OW22810   3.589   3.842   4.991
 7304SOL    HW122811   3.509   3.788   5.019
 7304SOL    HW222812   3.668   3.814   5.045
 7305SOL     OW22813   5.548   1.182   0.320
 7305SOL    HW122814   5.462   1.232   0.326
 7305SOL    HW222815   5.624   1.246   0.307
 7306SOL     OW22816   5.085   4.947   1.556
 7306SOL    HW122817   5.030   4.868   1.583
 7306SOL    HW222818   5.150   4.920   1.484
 7307SOL     OW22819   4.191   6.731   2.496
 7307SOL    HW122820   4.095   6.709   2.483
 7307SOL    HW222821   4.245   6.692   2.421
 7308SOL     OW22822   6.235   1.369   4.400
 7308SOL    HW122823   6.295   1.438   4.360
 7308SOL    HW222824   6.278   1.279   4.391
 7309SOL     OW22825   4.329   5.597   2.159
 7309SOL    HW122826   4.254   5.663   2.155
 7309SOL    HW222827   4.399   5.629   2.223
 7310SOL     OW22828   1.740   5.557   1.642
 7310SOL    HW122829   1.700   5.634   1.593
 7310SOL    HW222830   1.830   5.537   1.605
 7311SOL     OW22831   2.688   2.229   2.123
 7311SOL    HW122832   2.776   2.253   2.081
 7311SOL    HW222833   2.703   2.168   2.201
 7312SOL     OW22834   0.036   1.939   5.608
 7312SOL    HW122835   0.076   1.864   5.556
 7312SOL    HW222836   0.091   2.022   5.594
 7313SOL     OW22837   3.788   2.398   6.875
 7313SOL    HW122838   3.770   2.496   6.883
 7313SOL    HW222839   3.701   2.349   6.874
 7314SOL     OW22840   0.750   2.809   4.245
 7314SOL    HW122841   0.752   2.742   4.320
 7314SOL    HW222842   0.719   2.897   4.281
 7315SOL     OW22843   0.011   0.682   5.652
 7315SOL    HW122844   0.099   0.731   5.656
 7315SOL    HW222845   6.959   0.743   5.686
 7316SOL     OW22846   3.690   3.647   5.347
 7316SOL    HW122847   3.624   3.716   5.376
 7316SOL    HW222848   3.737   3.679   5.264
 7317SOL     OW22849   3.062   1.022   3.586
 7317SOL    HW122850   3.138   1.086   3.574
 7317SOL    HW222851   3.082   0.938   3.536
 7318SOL     OW22852   1.421   2.024   1.331
 7318SOL    HW122853   1.369   2.047   1.413
 7318SOL    HW222854   1.420   1.925   1.317
 7319SOL     OW22855   0.039   3.972   6.392
 7319SOL    HW122856   0.075   4.011   6.476
 7319SOL    HW222857   0.083   3.884   6.373
 7320SOL     OW22858   6.600   2.361   2.303
 7320SOL    HW122859   6.525   2.397   2.359
 7320SOL    HW222860   6.660   2.436   2.276
 7321SOL     OW22861   2.800   1.424   4.611
 7321SOL    HW122862   2.896   1.397   4.606
 7321SOL    HW222863   2.751   1.364   4.674
 7322SOL     OW22864   0.403   3.389   1.646
 7322SOL    HW122865   0.349   3.339   1.713
 7322SOL    HW222866   0.500   3.376   1.665
 7323SOL     OW22867   2.126   3.739   2.962
 7323SOL    HW122868   2.167   3.744   2.871
 7323SOL    HW222869   2.135   3.827   3.008
 7324SOL     OW22870   5.268   5.882   2.131
 7324SOL    HW122871   5.309   5.964   2.171
 7324SOL    HW222872   5.227   5.827   2.204
 7325SOL     OW22873   3.466   6.540   0.713
 7325SOL    HW122874   3.499   6.517   0.622
 7325SOL    HW222875   3.545   6.553   0.774
 7326SOL     OW22876   2.809   0.099   4.479
 7326SOL    HW122877   2.852   0.110   4.389
 7326SOL    HW222878   2.717   0.139   4.477
 7327SOL     OW22879   1.406   2.509   5.176
 7327SOL    HW122880   1.482   2.566   5.145
 7327SOL    HW222881   1.404   2.424   5.123
 7328SOL     OW22882   2.689   6.698   6.828
 7328SOL    HW122883   2.593   6.725   6.817
 7328SOL    HW222884   2.748   6.773   6.801
 7329SOL     OW22885   4.376   3.440   1.375
 7329SOL    HW122886   4.366   3.431   1.474
 7329SOL    HW222887   4.448   3.507   1.355
 7330SOL     OW22888   4.547   2.141   0.802
 7330SOL    HW122889   4.467   2.116   0.748
 7330SOL    HW222890   4.629   2.138   0.745
 7331SOL     OW22891   5.342   1.226   1.941
 7331SOL    HW122892   5.243   1.212   1.949
 7331SOL    HW222893   5.368   1.310   1.989
 7332SOL     OW22894   3.541   5.245   1.138
 7332SOL    HW122895   3.538   5.160   1.085
 7332SOL    HW222896   3.490   5.232   1.223
 7333SOL     OW22897   0.307   4.801   2.594
 7333SOL    HW122898   0.338   4.825   2.685
 7333SOL    HW222899   0.263   4.711   2.596
 7334SOL     OW22900   3.901   6.724   4.646
 7334SOL    HW122901   3.853   6.810   4.624
 7334SOL    HW222902   3.890   6.704   4.743
 7335SOL     OW22903   2.271   2.944   2.701
 7335SOL    HW122904   2.331   2.864   2.698
 7335SOL    HW222905   2.213   2.939   2.782
 7336SOL     OW22906   1.834   6.158   4.224
 7336SOL    HW122907   1.796   6.107   4.301
 7336SOL    HW222908   1.920   6.116   4.194
 7337SOL     OW22909   4.970   2.537   2.156
 7337SOL    HW122910   4.957   2.629   2.195
 7337SOL    HW222911   4.938   2.469   2.222
 7338SOL     OW22912   6.454   3.345   0.276
 7338SOL    HW122913   6.488   3.385   0.361
 7338SOL    HW222914   6.357   3.368   0.264
 7339SOL     OW22915   1.389   5.770   4.659
 7339SOL    HW122916   1.441   5.785   4.743
 7339SOL    HW222917   1.344   5.681   4.662
 7340SOL     OW22918   2.337   6.642   6.513
 7340SOL    HW122919   2.404   6.589   6.566
 7340SOL    HW222920   2.352   6.627   6.416
 7341SOL     OW22921   6.622   1.958   0.391
 7341SOL    HW122922   6.555   2.014   0.439
 7341SOL    HW222923   6.575   1.905   0.320
 7342SOL     OW22924   0.376   6.275   2.433
 7342SOL    HW122925   0.410   6.338   2.504
 7342SOL    HW222926   0.447   6.260   2.365
 7343SOL     OW22927   5.535   3.200   0.501
 7343SOL    HW122928   5.547   3.227   0.596
 7343SOL    HW222929   5.491   3.111   0.497
 7344SOL     OW22930   1.582   6.280   6.195
 7344SOL    HW122931   1.555   6.252   6.103
 7344SOL    HW222932   1.554   6.374   6.211
 7345SOL     OW22933   3.296   5.141   6.637
 7345SOL    HW122934   3.281   5.050   6.600
 7345SOL    HW222935   3.334   5.201   6.566
 7346SOL     OW22936   4.125   4.725   2.737
 7346SOL    HW122937   4.096   4.634   2.705
 7346SOL    HW222938   4.224   4.733   2.728
 7347SOL     OW22939   6.189   1.885   0.141
 7347SOL    HW122940   6.108   1.830   0.123
 7347SOL    HW222941   6.249   1.835   0.204
 7348SOL     OW22942   6.266   4.433   0.553
 7348SOL    HW122943   6.243   4.339   0.579
 7348SOL    HW222944   6.342   4.465   0.610
 7349SOL     OW22945   3.813   1.725   1.953
 7349SOL    HW122946   3.801   1.675   1.867
 7349SOL    HW222947   3.820   1.660   2.028
 7350SOL     OW22948   3.462   0.889   4.256
 7350SOL    HW122949   3.562   0.883   4.246
 7350SOL    HW222950   3.439   0.969   4.310
 7351SOL     OW22951   2.430   4.473   3.769
 7351SOL    HW122952   2.344   4.510   3.735
 7351SOL    HW222953   2.438   4.377   3.743
 7352SOL     OW22954   5.827   3.653   4.404
 7352SOL    HW122955   5.797   3.561   4.426
 7352SOL    HW222956   5.748   3.711   4.385
 7353SOL     OW22957   6.615   0.552   5.755
 7353SOL    HW122958   6.668   0.609   5.817
 7353SOL    HW222959   6.677   0.505   5.692
 7354SOL     OW22960   0.286   1.534   3.173
 7354SOL    HW122961   0.226   1.596   3.122
 7354SOL    HW222962   0.231   1.460   3.211
 7355SOL     OW22963   2.958   1.532   0.250
 7355SOL    HW122964   2.861   1.536   0.226
 7355SOL    HW222965   2.993   1.625   0.263
 7356SOL     OW22966   4.063   3.770   6.205
 7356SOL    HW122967   3.989   3.739   6.264
 7356SOL    HW222968   4.024   3.814   6.123
 7357SOL     OW22969   5.021   6.048   2.119
 7357SOL    HW122970   5.087   6.087   2.183
 7357SOL    HW222971   5.011   5.951   2.136
 7358SOL     OW22972   5.545   0.843   3.425
 7358SOL    HW122973   5.578   0.788   3.349
 7358SOL    HW222974   5.451   0.818   3.447
 7359SOL     OW22975   4.771   0.030   1.755
 7359SOL    HW122976   4.739   0.112   1.708
 7359SOL    HW222977   4.708   0.007   1.829
 7360SOL     OW22978   2.928   3.468   4.776
 7360SOL    HW122979   2.900   3.563   4.766
 7360SOL    HW222980   2.856   3.416   4.821
 7361SOL     OW22981   0.029   0.309   2.865
 7361SOL    HW122982   6.973   0.274   2.919
 7361SOL    HW222983   0.075   0.382   2.914
 7362SOL     OW22984   3.474   5.485   0.347
 7362SOL    HW122985   3.516   5.466   0.259
 7362SOL    HW222986   3.542   5.473   0.420
 7363SOL     OW22987   3.992   1.002   0.448
 7363SOL    HW122988   3.957   1.090   0.481
 7363SOL    HW222989   4.045   0.959   0.520
 7364SOL     OW22990   5.814   6.371   1.630
 7364SOL    HW122991   5.731   6.316   1.635
 7364SOL    HW222992   5.887   6.316   1.589
 7365SOL     OW22993   5.041   3.980   2.043
 7365SOL    HW122994   5.035   3.915   2.119
 7365SOL    HW222995   4.965   3.964   1.980
 7366SOL     OW22996   1.927   0.636   4.133
 7366SOL    HW122997   1.855   0.626   4.202
 7366SOL    HW222998   1.888   0.624   4.042
 7367SOL     OW22999   3.897   1.130   6.951
 7367SOL    HW123000   3.896   1.207   6.887
 7367SOL    HW223001   3.805   1.093   6.960
 7368SOL     OW23002   3.499   3.293   3.539
 7368SOL    HW123003   3.595   3.266   3.535
 7368SOL    HW223004   3.477   3.350   3.459
 7369SOL     OW23005   5.116   2.974   0.460
 7369SOL    HW123006   5.060   2.906   0.508
 7369SOL    HW223007   5.057   3.029   0.400
 7370SOL     OW23008   1.894   1.066   4.398
 7370SOL    HW123009   1.949   1.149   4.396
 7370SOL    HW223010   1.890   1.030   4.491
 7371SOL     OW23011   4.131   1.183   4.134
 7371SOL    HW123012   4.126   1.283   4.144
 7371SOL    HW223013   4.107   1.140   4.220
 7372SOL     OW23014   5.553   1.217   5.097
 7372SOL    HW123015   5.614   1.203   5.176
 7372SOL    HW223016   5.604   1.200   5.013
 7373SOL     OW23017   6.005   3.046   4.862
 7373SOL    HW123018   6.064   2.967   4.848
 7373SOL    HW223019   5.998   3.098   4.777
 7374SOL     OW23020   6.871   2.151   6.129
 7374SOL    HW123021   6.873   2.248   6.154
 7374SOL    HW223022   6.934   2.100   6.188
 7375SOL     OW23023   1.662   3.851   1.396
 7375SOL    HW123024   1.738   3.808   1.346
 7375SOL    HW223025   1.652   3.806   1.485
 7376SOL     OW23026   6.878   3.630   0.937
 7376SOL    HW123027   6.812   3.603   1.006
 7376SOL    HW223028   6.967   3.647   0.980
 7377SOL     OW23029   2.165   5.721   1.015
 7377SOL    HW123030   2.152   5.808   1.063
 7377SOL    HW223031   2.077   5.674   1.008
 7378SOL     OW23032   1.992   5.476   4.348
 7378SOL    HW123033   2.040   5.390   4.362
 7378SOL    HW223034   1.929   5.492   4.424
 7379SOL     OW23035   4.419   1.413   2.465
 7379SOL    HW123036   4.349   1.452   2.526
 7379SOL    HW223037   4.497   1.383   2.520
 7380SOL     OW23038   5.241   3.579   1.634
 7380SOL    HW123039   5.341   3.567   1.637
 7380SOL    HW223040   5.210   3.617   1.721
 7381SOL     OW23041   3.877   6.957   1.816
 7381SOL    HW123042   3.869   6.989   1.722
 7381SOL    HW223043   3.808   7.002   1.873
 7382SOL     OW23044   6.682   1.319   6.019
 7382SOL    HW123045   6.771   1.364   6.014
 7382SOL    HW223046   6.662   1.275   5.931
 7383SOL     OW23047   1.897   0.296   1.092
 7383SOL    HW123048   1.953   0.331   1.017
 7383SOL    HW223049   1.875   0.370   1.155
 7384SOL     OW23050   6.797   6.767   0.788
 7384SOL    HW123051   6.882   6.777   0.839
 7384SOL    HW223052   6.721   6.758   0.852
 7385SOL     OW23053   6.015   4.516   2.867
 7385SOL    HW123054   6.078   4.551   2.797
 7385SOL    HW223055   6.001   4.418   2.853
 7386SOL     OW23056   5.351   3.623   0.120
 7386SOL    HW123057   5.332   3.525   0.127
 7386SOL    HW223058   5.328   3.667   0.206
 7387SOL     OW23059   6.650   5.590   4.596
 7387SOL    HW123060   6.702   5.670   4.623
 7387SOL    HW223061   6.618   5.600   4.501
 7388SOL     OW23062   2.335   4.307   2.611
 7388SOL    HW123063   2.391   4.310   2.528
 7388SOL    HW223064   2.311   4.212   2.632
 7389SOL     OW23065   6.302   2.777   0.197
 7389SOL    HW123066   6.379   2.756   0.257
 7389SOL    HW223067   6.221   2.798   0.253
 7390SOL     OW23068   2.325   2.484   3.967
 7390SOL    HW123069   2.402   2.428   3.936
 7390SOL    HW223070   2.359   2.572   4.001
 7391SOL     OW23071   3.528   4.060   2.909
 7391SOL    HW123072   3.498   3.965   2.922
 7391SOL    HW223073   3.481   4.119   2.975
 7392SOL     OW23074   3.212   6.707   6.887
 7392SOL    HW123075   3.289   6.699   6.950
 7392SOL    HW223076   3.145   6.635   6.906
 7393SOL     OW23077   5.052   5.535   3.833
 7393SOL    HW123078   5.064   5.631   3.807
 7393SOL    HW223079   5.025   5.482   3.752
 7394SOL     OW23080   2.408   1.971   5.628
 7394SOL    HW123081   2.476   2.044   5.621
 7394SOL    HW223082   2.320   2.005   5.595
 7395SOL     OW23083   2.790   5.783   1.050
 7395SOL    HW123084   2.799   5.835   1.135
 7395SOL    HW223085   2.777   5.686   1.071
 7396SOL     OW23086   1.908   5.402   2.403
 7396SOL    HW123087   1.877   5.318   2.357
 7396SOL    HW223088   1.882   5.481   2.347
 7397SOL     OW23089   6.150   4.470   3.950
 7397SOL    HW123090   6.151   4.383   3.900
 7397SOL    HW223091   6.242   4.509   3.949
 7398SOL     OW23092   2.874   4.867   2.368
 7398SOL    HW123093   2.790   4.834   2.410
 7398SOL    HW223094   2.862   4.962   2.339
 7399SOL     OW23095   5.343   1.493   6.038
 7399SOL    HW123096   5.254   1.530   6.011
 7399SOL    HW223097   5.415   1.559   6.015
 7400SOL     OW23098   4.852   3.124   5.797
 7400SOL    HW123099   4.893   3.170   5.718
 7400SOL    HW223100   4.783   3.184   5.837
 7401SOL     OW23101   1.206   2.443   4.294
 7401SOL    HW123102   1.169   2.402   4.377
 7401SOL    HW223103   1.185   2.384   4.215
 7402SOL     OW23104   3.438   5.253   4.611
 7402SOL    HW123105   3.429   5.154   4.601
 7402SOL    HW223106   3.477   5.292   4.528
 7403SOL     OW23107   1.870   4.266   4.327
 7403SOL    HW123108   1.858   4.259   4.426
 7403SOL    HW223109   1.968   4.262   4.305
 7404SOL     OW23110   3.150   3.555   0.728
 7404SOL    HW123111   3.160   3.631   0.793
 7404SOL    HW223112   3.197   3.475   0.764
 7405SOL     OW23113   3.789   6.919   5.654
 7405SOL    HW123114   3.726   6.874   5.716
 7405SOL    HW223115   3.788   7.018   5.672
 7406SOL     OW23116   0.837   1.854   4.569
 7406SOL    HW123117   0.789   1.940   4.586
 7406SOL    HW223118   0.858   1.811   4.657
 7407SOL     OW23119   1.135   5.980   5.522
 7407SOL    HW123120   1.168   6.071   5.497
 7407SOL    HW223121   1.154   5.916   5.447
 7408SOL     OW23122   4.400   5.245   4.834
 7408SOL    HW123123   4.342   5.318   4.799
 7408SOL    HW223124   4.419   5.261   4.931
 7409SOL     OW23125   7.008   4.047   1.463
 7409SOL    HW123126   6.977   4.065   1.369
 7409SOL    HW223127   0.016   3.952   1.471
 7410SOL     OW23128   6.762   0.649   0.742
 7410SOL    HW123129   6.801   0.646   0.834
 7410SOL    HW223130   6.675   0.600   0.741
 7411SOL     OW23131   2.737   1.543   5.095
 7411SOL    HW123132   2.735   1.466   5.159
 7411SOL    HW223133   2.776   1.623   5.140
 7412SOL     OW23134   3.832   0.069   0.489
 7412SOL    HW123135   3.786   0.137   0.546
 7412SOL    HW223136   3.780   7.005   0.489
 7413SOL     OW23137   4.843   0.897   3.283
 7413SOL    HW123138   4.858   0.983   3.331
 7413SOL    HW223139   4.798   0.914   3.195
 7414SOL     OW23140   2.659   0.852   3.597
 7414SOL    HW123141   2.736   0.878   3.655
 7414SOL    HW223142   2.616   0.933   3.559
 7415SOL     OW23143   4.296   6.699   6.611
 7415SOL    HW123144   4.363   6.710   6.537
 7415SOL    HW223145   4.206   6.684   6.572
 7416SOL     OW23146   1.680   1.105   2.088
 7416SOL    HW123147   1.588   1.132   2.114
 7416SOL    HW223148   1.676   1.042   2.011
 7417SOL     OW23149   0.736   0.692   2.492
 7417SOL    HW123150   0.773   0.762   2.429
 7417SOL    HW223151   0.775   0.706   2.583
 7418SOL     OW23152   1.349   3.918   6.054
 7418SOL    HW123153   1.384   4.010   6.036
 7418SOL    HW223154   1.426   3.855   6.064
 7419SOL     OW23155   6.954   3.288   4.249
 7419SOL    HW123156   6.962   3.355   4.323
 7419SOL    HW223157   6.873   3.231   4.263
 7420SOL     OW23158   0.200   6.304   0.832
 7420SOL    HW123159   0.237   6.215   0.805
 7420SOL    HW223160   0.152   6.345   0.754
 7421SOL     OW23161   5.960   3.821   0.786
 7421SOL    HW123162   5.887   3.796   0.849
 7421SOL    HW223163   6.011   3.899   0.823
 7422SOL     OW23164   5.707   2.815   1.832
 7422SOL    HW123165   5.781   2.806   1.898
 7422SOL    HW223166   5.698   2.731   1.779
 7423SOL     OW23167   4.664   2.367   5.931
 7423SOL    HW123168   4.635   2.386   6.025
 7423SOL    HW223169   4.751   2.413   5.913
 7424SOL     OW23170   0.201   2.448   3.319
 7424SOL    HW123171   0.296   2.431   3.291
 7424SOL    HW223172   0.198   2.482   3.412
 7425SOL     OW23173   5.510   1.242   0.806
 7425SOL    HW123174   5.609   1.234   0.790
 7425SOL    HW223175   5.472   1.311   0.744
 7426SOL     OW23176   3.226   2.562   5.948
 7426SOL    HW123177   3.303   2.593   5.891
 7426SOL    HW223178   3.255   2.558   6.043
 7427SOL     OW23179   3.131   0.651   3.394
 7427SOL    HW123180   3.152   0.567   3.345
 7427SOL    HW223181   3.092   0.629   3.483
 7428SOL     OW23182   3.564   6.644   5.175
 7428SOL    HW123183   3.614   6.593   5.105
 7428SOL    HW223184   3.532   6.731   5.137
 7429SOL     OW23185   0.952   0.050   2.047
 7429SOL    HW123186   0.980   0.069   2.141
 7429SOL    HW223187   0.968   6.975   2.026
 7430SOL     OW23188   6.626   4.826   3.385
 7430SOL    HW123189   6.627   4.925   3.370
 7430SOL    HW223190   6.532   4.792   3.377
 7431SOL     OW23191   0.866   1.622   3.728
 7431SOL    HW123192   0.913   1.584   3.807
 7431SOL    HW223193   0.835   1.548   3.668
 7432SOL     OW23194   2.000   1.237   3.027
 7432SOL    HW123195   1.988   1.139   3.044
 7432SOL    HW223196   2.060   1.250   2.949
 7433SOL     OW23197   3.044   6.396   6.721
 7433SOL    HW123198   2.945   6.398   6.736
 7433SOL    HW223199   3.091   6.381   6.808
 7434SOL     OW23200   4.478   6.841   3.789
 7434SOL    HW123201   4.542   6.884   3.725
 7434SOL    HW223202   4.394   6.895   3.794
 7435SOL     OW23203   4.715   4.207   3.443
 7435SOL    HW123204   4.686   4.205   3.539
 7435SOL    HW223205   4.740   4.114   3.414
 7436SOL     OW23206   5.554   3.032   6.045
 7436SOL    HW123207   5.589   3.049   5.953
 7436SOL    HW223208   5.454   3.039   6.044
 7437SOL     OW23209   3.410   0.224   0.905
 7437SOL    HW123210   3.335   0.270   0.953
 7437SOL    HW223211   3.483   0.204   0.970
 7438SOL     OW23212   1.996   0.216   6.880
 7438SOL    HW123213   2.087   0.176   6.869
 7438SOL    HW223214   1.993   0.306   6.837
 7439SOL     OW23215   0.693   4.940   6.036
 7439SOL    HW123216   0.613   5.000   6.042
 7439SOL    HW223217   0.718   4.927   5.940
 7440SOL     OW23218   5.485   4.197   4.204
 7440SOL    HW123219   5.412   4.208   4.271
 7440SOL    HW223220   5.520   4.286   4.178
 7441SOL     OW23221   5.037   6.042   0.859
 7441SOL    HW123222   5.004   5.992   0.778
 7441SOL    HW223223   5.134   6.062   0.849
 7442SOL     OW23224   5.310   0.710   6.487
 7442SOL    HW123225   5.396   0.750   6.520
 7442SOL    HW223226   5.328   0.660   6.402
 7443SOL     OW23227   0.503   0.423   1.112
 7443SOL    HW123228   0.490   0.391   1.206
 7443SOL    HW223229   0.414   0.427   1.067
 7444SOL     OW23230   1.640   6.376   0.399
 7444SOL    HW123231   1.584   6.295   0.415
 7444SOL    HW223232   1.589   6.441   0.342
 7445SOL     OW23233   3.929   5.820   2.031
 7445SOL    HW123234   3.875   5.773   1.961
 7445SOL    HW223235   3.885   5.907   2.054
 7446SOL     OW23236   5.842   4.482   6.884
 7446SOL    HW123237   5.879   4.401   6.839
 7446SOL    HW223238   5.917   4.534   6.925
 7447SOL     OW23239   0.608   4.604   0.312
 7447SOL    HW123240   0.524   4.651   0.285
 7447SOL    HW223241   0.683   4.670   0.320
 7448SOL     OW23242   4.713   5.369   6.884
 7448SOL    HW123243   4.802   5.344   6.844
 7448SOL    HW223244   4.720   5.460   6.924
 7449SOL     OW23245   6.450   4.403   5.718
 7449SOL    HW123246   6.546   4.408   5.748
 7449SOL    HW223247   6.407   4.322   5.759
 7450SOL     OW23248   5.503   2.176   6.335
 7450SOL    HW123249   5.484   2.209   6.427
 7450SOL    HW223250   5.422   2.191   6.277
 7451SOL     OW23251   4.506   4.482   3.047
 7451SOL    HW123252   4.521   4.579   3.030
 7451SOL    HW223253   4.447   4.445   2.974
 7452SOL     OW23254   6.429   5.444   5.776
 7452SOL    HW123255   6.465   5.474   5.688
 7452SOL    HW223256   6.338   5.482   5.790
 7453SOL     OW23257   3.885   5.926   5.917
 7453SOL    HW123258   3.838   5.869   5.985
 7453SOL    HW223259   3.976   5.951   5.951
 7454SOL     OW23260   3.705   2.525   1.459
 7454SOL    HW123261   3.696   2.550   1.556
 7454SOL    HW223262   3.647   2.446   1.440
 7455SOL     OW23263   6.651   1.159   3.303
 7455SOL    HW123264   6.591   1.081   3.285
 7455SOL    HW223265   6.720   1.166   3.231
 7456SOL     OW23266   2.856   2.052   6.133
 7456SOL    HW123267   2.806   1.965   6.138
 7456SOL    HW223268   2.945   2.041   6.177
 7457SOL     OW23269   0.972   1.587   2.383
 7457SOL    HW123270   1.071   1.593   2.396
 7457SOL    HW223271   0.926   1.636   2.456
 7458SOL     OW23272   1.624   5.386   5.525
 7458SOL    HW123273   1.577   5.300   5.506
 7458SOL    HW223274   1.710   5.367   5.574
 7459SOL     OW23275   5.652   0.077   3.356
 7459SOL    HW123276   5.611   0.065   3.447
 7459SOL    HW223277   5.620   0.162   3.316
 7460SOL     OW23278   1.251   0.311   1.291
 7460SOL    HW123279   1.235   0.398   1.246
 7460SOL    HW223280   1.294   0.327   1.380
 7461SOL     OW23281   2.036   4.720   5.128
 7461SOL    HW123282   2.060   4.677   5.041
 7461SOL    HW223283   1.969   4.663   5.176
 7462SOL     OW23284   1.654   4.107   0.915
 7462SOL    HW123285   1.667   4.175   0.986
 7462SOL    HW223286   1.708   4.131   0.835
 7463SOL     OW23287   4.264   4.990   1.231
 7463SOL    HW123288   4.201   4.936   1.287
 7463SOL    HW223289   4.338   5.025   1.288
 7464SOL     OW23290   6.590   6.252   5.237
 7464SOL    HW123291   6.538   6.282   5.157
 7464SOL    HW223292   6.673   6.204   5.207
 7465SOL     OW23293   1.328   4.437   0.036
 7465SOL    HW123294   1.231   4.420   0.048
 7465SOL    HW223295   1.358   4.401   6.968
 7466SOL     OW23296   0.045   0.532   5.185
 7466SOL    HW123297   0.049   0.441   5.145
 7466SOL    HW223298   0.081   0.529   5.278
 7467SOL     OW23299   0.967   3.871   4.764
 7467SOL    HW123300   1.010   3.800   4.821
 7467SOL    HW223301   0.992   3.961   4.800
 7468SOL     OW23302   5.644   2.814   6.174
 7468SOL    HW123303   5.633   2.736   6.113
 7468SOL    HW223304   5.613   2.897   6.127
 7469SOL     OW23305   0.457   2.215   0.500
 7469SOL    HW123306   0.518   2.247   0.428
 7469SOL    HW223307   0.461   2.276   0.578
 7470SOL     OW23308   5.718   2.603   3.806
 7470SOL    HW123309   5.771   2.645   3.880
 7470SOL    HW223310   5.624   2.636   3.810
 7471SOL     OW23311   3.764   0.160   6.609
 7471SOL    HW123312   3.749   0.083   6.670
 7471SOL    HW223313   3.821   0.131   6.532
 7472SOL     OW23314   6.828   0.021   5.839
 7472SOL    HW123315   6.738   0.058   5.862
 7472SOL    HW223316   6.897   0.094   5.845
 7473SOL     OW23317   3.847   6.069   3.547
 7473SOL    HW123318   3.793   6.055   3.464
 7473SOL    HW223319   3.785   6.078   3.625
 7474SOL     OW23320   5.905   2.022   0.658
 7474SOL    HW123321   5.829   2.006   0.596
 7474SOL    HW223322   5.917   1.943   0.718
 7475SOL     OW23323   4.766   2.456   0.654
 7475SOL    HW123324   4.856   2.461   0.611
 7475SOL    HW223325   4.777   2.427   0.749
 7476SOL     OW23326   2.637   1.136   3.181
 7476SOL    HW123327   2.627   1.127   3.280
 7476SOL    HW223328   2.593   1.058   3.136
 7477SOL     OW23329   2.081   3.204   5.742
 7477SOL    HW123330   2.116   3.295   5.720
 7477SOL    HW223331   2.148   3.135   5.714
 7478SOL     OW23332   0.259   1.491   5.704
 7478SOL    HW123333   0.189   1.561   5.719
 7478SOL    HW223334   0.345   1.534   5.678
 7479SOL     OW23335   5.143   2.271   1.507
 7479SOL    HW123336   5.132   2.186   1.558
 7479SOL    HW223337   5.111   2.347   1.562
 7480SOL     OW23338   3.943   5.728   2.624
 7480SOL    HW123339   3.992   5.799   2.572
 7480SOL    HW223340   3.858   5.766   2.660
 7481SOL     OW23341   0.087   3.893   6.696
 7481SOL    HW123342   0.136   3.967   6.650
 7481SOL    HW223343   0.147   3.850   6.763
 7482SOL     OW23344   5.877   2.673   4.039
 7482SOL    HW123345   5.898   2.586   4.083
 7482SOL    HW223346   5.878   2.746   4.107
 7483SOL     OW23347   4.587   1.859   6.368
 7483SOL    HW123348   4.506   1.909   6.400
 7483SOL    HW223349   4.557   1.772   6.327
 7484SOL     OW23350   3.389   0.263   3.680
 7484SOL    HW123351   3.432   0.338   3.730
 7484SOL    HW223352   3.457   0.194   3.658
 7485SOL     OW23353   3.916   0.059   6.408
 7485SOL    HW123354   3.822   0.040   6.379
 7485SOL    HW223355   3.979   0.016   6.343
 7486SOL     OW23356   3.685   0.260   0.664
 7486SOL    HW123357   3.603   0.257   0.608
 7486SOL    HW223358   3.668   0.214   0.751
 7487SOL     OW23359   3.493   6.386   3.926
 7487SOL    HW123360   3.513   6.409   4.022
 7487SOL    HW223361   3.561   6.320   3.893
 7488SOL     OW23362   1.272   5.600   3.976
 7488SOL    HW123363   1.281   5.514   3.926
 7488SOL    HW223364   1.185   5.600   4.026
 7489SOL     OW23365   5.499   2.779   0.267
 7489SOL    HW123366   5.420   2.817   0.219
 7489SOL    HW223367   5.545   2.713   0.208
 7490SOL     OW23368   1.331   3.003   2.288
 7490SOL    HW123369   1.272   2.946   2.230
 7490SOL    HW223370   1.394   2.945   2.339
 7491SOL     OW23371   4.292   3.953   0.162
 7491SOL    HW123372   4.252   3.862   0.159
 7491SOL    HW223373   4.392   3.946   0.161
 7492SOL     OW23374   1.396   0.394   3.769
 7492SOL    HW123375   1.417   0.311   3.820
 7492SOL    HW223376   1.368   0.466   3.832
 7493SOL     OW23377   6.246   4.774   4.995
 7493SOL    HW123378   6.173   4.705   4.988
 7493SOL    HW223379   6.271   4.786   5.091
 7494SOL     OW23380   6.358   1.207   2.474
 7494SOL    HW123381   6.317   1.146   2.405
 7494SOL    HW223382   6.303   1.205   2.557
 7495SOL     OW23383   1.412   3.059   5.238
 7495SOL    HW123384   1.507   3.080   5.212
 7495SOL    HW223385   1.401   2.960   5.246
 7496SOL     OW23386   6.385   4.154   2.671
 7496SOL    HW123387   6.300   4.110   2.699
 7496SOL    HW223388   6.451   4.085   2.641
 7497SOL     OW23389   6.407   6.478   1.438
 7497SOL    HW123390   6.361   6.562   1.409
 7497SOL    HW223391   6.460   6.441   1.362
 7498SOL     OW23392   3.299   6.499   3.348
 7498SOL    HW123393   3.235   6.535   3.280
 7498SOL    HW223394   3.266   6.410   3.381
 7499SOL     OW23395   3.252   1.673   3.339
 7499SOL    HW123396   3.170   1.729   3.347
 7499SOL    HW223397   3.315   1.714   3.273
 7500SOL     OW23398   4.065   0.903   3.700
 7500SOL    HW123399   3.985   0.951   3.662
 7500SOL    HW223400   4.129   0.883   3.626
 7501SOL     OW23401   6.714   1.954   4.770
 7501SOL    HW123402   6.773   1.899   4.711
 7501SOL    HW223403   6.730   2.051   4.753
 7502SOL     OW23404   4.394   0.915   3.677
 7502SOL    HW123405   4.367   1.010   3.659
 7502SOL    HW223406   4.397   0.900   3.776
 7503SOL     OW23407   1.746   5.882   1.895
 7503SOL    HW123408   1.817   5.930   1.844
 7503SOL    HW223409   1.715   5.939   1.971
 7504SOL     OW23410   5.927   6.288   4.277
 7504SOL    HW123411   5.885   6.200   4.257
 7504SOL    HW223412   5.861   6.361   4.262
 7505SOL     OW23413   0.377   6.394   5.007
 7505SOL    HW123414   0.351   6.308   5.050
 7505SOL    HW223415   0.299   6.456   5.006
 7506SOL     OW23416   3.137   1.906   3.620
 7506SOL    HW123417   3.101   1.848   3.694
 7506SOL    HW223418   3.087   1.992   3.619
 7507SOL     OW23419   6.313   4.007   6.433
 7507SOL    HW123420   6.335   4.015   6.530
 7507SOL    HW223421   6.316   3.910   6.406
 7508SOL     OW23422   3.303   6.268   0.654
 7508SOL    HW123423   3.215   6.273   0.701
 7508SOL    HW223424   3.331   6.360   0.628
 7509SOL     OW23425   5.847   4.541   2.140
 7509SOL    HW123426   5.798   4.512   2.222
 7509SOL    HW223427   5.933   4.490   2.133
 7510SOL     OW23428   3.547   4.133   2.407
 7510SOL    HW123429   3.525   4.230   2.401
 7510SOL    HW223430   3.584   4.113   2.498
 7511SOL     OW23431   4.277   6.005   4.015
 7511SOL    HW123432   4.279   6.098   3.979
 7511SOL    HW223433   4.280   6.008   4.115
 7512SOL     OW23434   4.152   0.987   1.034
 7512SOL    HW123435   4.150   0.917   1.105
 7512SOL    HW223436   4.215   1.060   1.062
 7513SOL     OW23437   1.305   1.571   2.099
 7513SOL    HW123438   1.369   1.543   2.027
 7513SOL    HW223439   1.352   1.569   2.188
 7514SOL     OW23440   0.144   6.601   1.723
 7514SOL    HW123441   0.152   6.644   1.813
 7514SOL    HW223442   0.149   6.501   1.734
 7515SOL     OW23443   0.191   4.071   5.298
 7515SOL    HW123444   0.238   4.154   5.328
 7515SOL    HW223445   0.135   4.035   5.372
 7516SOL     OW23446   1.648   6.361   5.602
 7516SOL    HW123447   1.726   6.310   5.565
 7516SOL    HW223448   1.570   6.299   5.614
 7517SOL     OW23449   0.978   1.223   5.995
 7517SOL    HW123450   0.907   1.171   5.949
 7517SOL    HW223451   1.058   1.231   5.936
 7518SOL     OW23452   4.689   1.823   4.343
 7518SOL    HW123453   4.762   1.824   4.274
 7518SOL    HW223454   4.635   1.740   4.333
 7519SOL     OW23455   3.978   0.184   4.375
 7519SOL    HW123456   4.013   0.137   4.456
 7519SOL    HW223457   3.882   0.160   4.362
 7520SOL     OW23458   1.627   1.275   0.501
 7520SOL    HW123459   1.571   1.274   0.583
 7520SOL    HW223460   1.575   1.240   0.423
 7521SOL     OW23461   4.100   1.420   4.614
 7521SOL    HW123462   4.097   1.403   4.713
 7521SOL    HW223463   4.195   1.425   4.584
 7522SOL     OW23464   2.194   0.077   3.605
 7522SOL    HW123465   2.235   0.024   3.679
 7522SOL    HW223466   2.196   0.023   3.521
 7523SOL     OW23467   5.902   0.734   0.666
 7523SOL    HW123468   5.904   0.648   0.616
 7523SOL    HW223469   5.980   0.737   0.729
 7524SOL     OW23470   0.642   4.114   4.473
 7524SOL    HW123471   0.694   4.053   4.533
 7524SOL    HW223472   0.639   4.206   4.513
 7525SOL     OW23473   3.435   4.590   5.922
 7525SOL    HW123474   3.449   4.669   5.981
 7525SOL    HW223475   3.396   4.619   5.835
 7526SOL     OW23476   2.512   3.951   0.946
 7526SOL    HW123477   2.450   3.873   0.937
 7526SOL    HW223478   2.533   3.987   0.855
 7527SOL     OW23479   3.399   5.166   2.940
 7527SOL    HW123480   3.436   5.121   3.022
 7527SOL    HW223481   3.460   5.150   2.863
 7528SOL     OW23482   6.718   2.207   5.892
 7528SOL    HW123483   6.662   2.287   5.912
 7528SOL    HW223484   6.765   2.177   5.975
 7529SOL     OW23485   6.645   3.382   3.929
 7529SOL    HW123486   6.718   3.343   3.985
 7529SOL    HW223487   6.574   3.420   3.989
 7530SOL     OW23488   1.028   3.096   2.971
 7530SOL    HW123489   1.123   3.071   2.992
 7530SOL    HW223490   1.008   3.073   2.876
 7531SOL     OW23491   3.625   2.005   4.002
 7531SOL    HW123492   3.676   1.923   3.976
 7531SOL    HW223493   3.582   2.044   3.920
 7532SOL     OW23494   4.519   5.904   6.270
 7532SOL    HW123495   4.579   5.825   6.274
 7532SOL    HW223496   4.545   5.970   6.340
 7533SOL     OW23497   4.261   4.304   1.674
 7533SOL    HW123498   4.261   4.397   1.636
 7533SOL    HW223499   4.313   4.303   1.759
 7534SOL     OW23500   4.898   6.170   5.232
 7534SOL    HW123501   4.961   6.243   5.208
 7534SOL    HW223502   4.900   6.100   5.161
 7535SOL     OW23503   0.740   6.446   3.978
 7535SOL    HW123504   0.720   6.404   3.890
 7535SOL    HW223505   0.684   6.404   4.049
 7536SOL     OW23506   6.117   6.071   3.725
 7536SOL    HW123507   6.076   5.993   3.678
 7536SOL    HW223508   6.215   6.057   3.733
 7537SOL     OW23509   1.968   6.713   2.742
 7537SOL    HW123510   2.003   6.798   2.702
 7537SOL    HW223511   2.003   6.635   2.692
 7538SOL     OW23512   0.631   4.369   0.415
 7538SOL    HW123513   0.607   4.461   0.384
 7538SOL    HW223514   0.730   4.364   0.431
 7539SOL     OW23515   6.778   0.167   4.660
 7539SOL    HW123516   6.729   0.253   4.665
 7539SOL    HW223517   6.748   0.116   4.579
 7540SOL     OW23518   5.834   4.794   3.133
 7540SOL    HW123519   5.874   4.809   3.223
 7540SOL    HW223520   5.870   4.709   3.094
 7541SOL     OW23521   2.975   3.997   5.675
 7541SOL    HW123522   2.883   4.006   5.638
 7541SOL    HW223523   3.004   4.085   5.714
 7542SOL     OW23524   6.434   5.602   4.842
 7542SOL    HW123525   6.393   5.674   4.787
 7542SOL    HW223526   6.494   5.546   4.785
 7543SOL     OW23527   2.380   1.395   0.203
 7543SOL    HW123528   2.380   1.307   0.250
 7543SOL    HW223529   2.431   1.387   0.117
 7544SOL     OW23530   6.627   1.550   4.421
 7544SOL    HW123531   6.600   1.548   4.325
 7544SOL    HW223532   6.667   1.462   4.447
 7545SOL     OW23533   2.005   5.455   5.491
 7545SOL    HW123534   1.989   5.434   5.395
 7545SOL    HW223535   1.999   5.371   5.545
 7546SOL     OW23536   2.360   2.493   1.849
 7546SOL    HW123537   2.356   2.593   1.848
 7546SOL    HW223538   2.435   2.463   1.791
 7547SOL     OW23539   3.970   0.435   1.885
 7547SOL    HW123540   3.884   0.387   1.904
 7547SOL    HW223541   3.969   0.524   1.932
 7548SOL     OW23542   2.985   2.562   6.313
 7548SOL    HW123543   3.032   2.648   6.297
 7548SOL    HW223544   2.917   2.547   6.240
 7549SOL     OW23545   5.473   0.390   4.651
 7549SOL    HW123546   5.464   0.366   4.747
 7549SOL    HW223547   5.570   0.388   4.625
 7550SOL     OW23548   2.306   5.637   4.413
 7550SOL    HW123549   2.333   5.562   4.353
 7550SOL    HW223550   2.294   5.603   4.506
 7551SOL     OW23551   6.289   2.251   6.326
 7551SOL    HW123552   6.255   2.300   6.246
 7551SOL    HW223553   6.244   2.286   6.408
 7552SOL     OW23554   2.543   6.611   4.739
 7552SOL    HW123555   2.476   6.683   4.721
 7552SOL    HW223556   2.510   6.524   4.702
 7553SOL     OW23557   6.143   6.540   5.784
 7553SOL    HW123558   6.175   6.461   5.837
 7553SOL    HW223559   6.053   6.521   5.747
 7554SOL     OW23560   4.473   1.608   0.562
 7554SOL    HW123561   4.526   1.672   0.617
 7554SOL    HW223562   4.534   1.547   0.512
 7555SOL     OW23563   4.697   4.963   4.289
 7555SOL    HW123564   4.759   5.009   4.353
 7555SOL    HW223565   4.745   4.944   4.204
 7556SOL     OW23566   1.258   6.430   1.347
 7556SOL    HW123567   1.335   6.392   1.398
 7556SOL    HW223568   1.216   6.358   1.292
 7557SOL     OW23569   4.438   0.019   1.414
 7557SOL    HW123570   4.408   7.001   1.327
 7557SOL    HW223571   4.537   0.004   1.424
 7558SOL     OW23572   0.468   1.729   3.578
 7558SOL    HW123573   0.479   1.703   3.482
 7558SOL    HW223574   0.387   1.685   3.617
 7559SOL     OW23575   2.502   1.553   4.905
 7559SOL    HW123576   2.545   1.550   4.995
 7559SOL    HW223577   2.565   1.596   4.840
 7560SOL     OW23578   1.538   1.562   5.750
 7560SOL    HW123579   1.512   1.489   5.814
 7560SOL    HW223580   1.597   1.627   5.797
 7561SOL     OW23581   5.752   1.582   5.358
 7561SOL    HW123582   5.700   1.569   5.442
 7561SOL    HW223583   5.720   1.517   5.288
 7562SOL     OW23584   2.405   5.320   3.084
 7562SOL    HW123585   2.465   5.399   3.067
 7562SOL    HW223586   2.310   5.350   3.081
 7563SOL     OW23587   3.803   6.071   2.827
 7563SOL    HW123588   3.712   6.113   2.828
 7563SOL    HW223589   3.865   6.129   2.773
 7564SOL     OW23590   3.834   1.465   5.155
 7564SOL    HW123591   3.831   1.527   5.234
 7564SOL    HW223592   3.873   1.513   5.076
 7565SOL     OW23593   6.256   3.573   5.738
 7565SOL    HW123594   6.191   3.547   5.809
 7565SOL    HW223595   6.348   3.550   5.768
 7566SOL     OW23596   4.568   4.683   1.910
 7566SOL    HW123597   4.477   4.646   1.888
 7566SOL    HW223598   4.636   4.610   1.905
 7567SOL     OW23599   1.084   6.765   4.398
 7567SOL    HW123600   1.037   6.682   4.370
 7567SOL    HW223601   1.019   6.828   4.442
 7568SOL     OW23602   5.703   4.881   1.318
 7568SOL    HW123603   5.777   4.825   1.355
 7568SOL    HW223604   5.692   4.860   1.221
 7569SOL     OW23605   4.783   3.365   0.344
 7569SOL    HW123606   4.875   3.396   0.322
 7569SOL    HW223607   4.746   3.421   0.418
 7570SOL     OW23608   0.824   3.636   2.106
 7570SOL    HW123609   0.911   3.639   2.155
 7570SOL    HW223610   0.776   3.723   2.117
 7571SOL     OW23611   4.353   1.663   2.921
 7571SOL    HW123612   4.374   1.695   2.828
 7571SOL    HW223613   4.329   1.567   2.919
 7572SOL     OW23614   4.648   6.667   3.995
 7572SOL    HW123615   4.742   6.701   4.005
 7572SOL    HW223616   4.607   6.707   3.913
 7573SOL     OW23617   4.307   6.670   6.223
 7573SOL    HW123618   4.385   6.697   6.278
 7573SOL    HW223619   4.222   6.688   6.274
 7574SOL     OW23620   0.507   2.330   4.164
 7574SOL    HW123621   0.460   2.250   4.125
 7574SOL    HW223622   0.550   2.383   4.092
 7575SOL     OW23623   0.161   6.321   2.269
 7575SOL    HW123624   0.085   6.328   2.334
 7575SOL    HW223625   0.247   6.307   2.318
 7576SOL     OW23626   4.634   2.364   6.643
 7576SOL    HW123627   4.574   2.370   6.723
 7576SOL    HW223628   4.729   2.360   6.672
 7577SOL     OW23629   0.883   0.445   6.974
 7577SOL    HW123630   0.805   0.394   6.938
 7577SOL    HW223631   0.882   0.443   0.053
 7578SOL     OW23632   6.308   6.249   3.489
 7578SOL    HW123633   6.303   6.346   3.465
 7578SOL    HW223634   6.325   6.241   3.588
 7579SOL     OW23635   0.535   1.952   6.803
 7579SOL    HW123636   0.607   1.905   6.854
 7579SOL    HW223637   0.492   1.887   6.739
 7580SOL     OW23638   2.836   5.409   3.335
 7580SOL    HW123639   2.830   5.398   3.236
 7580SOL    HW223640   2.767   5.351   3.379
 7581SOL     OW23641   0.166   0.517   1.859
 7581SOL    HW123642   0.213   0.435   1.892
 7581SOL    HW223643   0.154   0.510   1.760
 7582SOL     OW23644   2.504   1.648   6.342
 7582SOL    HW123645   2.523   1.723   6.405
 7582SOL    HW223646   2.520   1.679   6.248
 7583SOL     OW23647   5.721   3.347   2.458
 7583SOL    HW123648   5.699   3.439   2.491
 7583SOL    HW223649   5.642   3.308   2.412
 7584SOL     OW23650   0.860   1.202   3.457
 7584SOL    HW123651   0.799   1.124   3.451
 7584SOL    HW223652   0.872   1.243   3.366
 7585SOL     OW23653   1.222   1.224   5.850
 7585SOL    HW123654   1.283   1.276   5.910
 7585SOL    HW223655   1.204   1.278   5.767
 7586SOL     OW23656   1.905   6.809   3.437
 7586SOL    HW123657   1.912   6.773   3.530
 7586SOL    HW223658   1.809   6.829   3.416
 7587SOL     OW23659   4.684   0.257   1.609
 7587SOL    HW123660   4.585   0.249   1.600
 7587SOL    HW223661   4.719   0.324   1.544
 7588SOL     OW23662   2.312   2.631   4.813
 7588SOL    HW123663   2.224   2.601   4.779
 7588SOL    HW223664   2.372   2.654   4.736
 7589SOL     OW23665   6.920   0.547   2.644
 7589SOL    HW123666   6.949   0.459   2.682
 7589SOL    HW223667   6.923   0.544   2.545
 7590SOL     OW23668   6.152   1.105   0.497
 7590SOL    HW123669   6.103   1.122   0.412
 7590SOL    HW223670   6.249   1.124   0.485
 7591SOL     OW23671   3.224   3.415   4.766
 7591SOL    HW123672   3.148   3.350   4.758
 7591SOL    HW223673   3.193   3.506   4.740
 7592SOL     OW23674   0.047   6.049   3.636
 7592SOL    HW123675   6.997   5.997   3.589
 7592SOL    HW223676   0.014   6.142   3.654
 7593SOL     OW23677   0.108   1.020   5.800
 7593SOL    HW123678   0.128   1.114   5.827
 7593SOL    HW223679   0.170   0.991   5.728
 7594SOL     OW23680   6.924   3.818   6.099
 7594SOL    HW123681   6.968   3.826   6.010
 7594SOL    HW223682   6.993   3.809   6.170
 7595SOL     OW23683   1.065   3.354   6.612
 7595SOL    HW123684   1.010   3.425   6.567
 7595SOL    HW223685   1.023   3.265   6.597
 7596SOL     OW23686   2.874   1.233   0.232
 7596SOL    HW123687   2.925   1.318   0.222
 7596SOL    HW223688   2.909   1.182   0.311
 7597SOL     OW23689   2.024   4.915   1.348
 7597SOL    HW123690   1.926   4.916   1.329
 7597SOL    HW223691   2.074   4.918   1.262
 7598SOL     OW23692   6.037   0.730   2.123
 7598SOL    HW123693   5.998   0.816   2.157
 7598SOL    HW223694   5.974   0.688   2.058
 7599SOL     OW23695   2.855   4.099   1.036
 7599SOL    HW123696   2.900   4.105   0.947
 7599SOL    HW223697   2.823   4.005   1.050
 7600SOL     OW23698   1.010   6.972   3.914
 7600SOL    HW123699   1.065   6.991   3.833
 7600SOL    HW223700   1.028   0.021   3.983
 7601SOL     OW23701   2.363   6.763   1.983
 7601SOL    HW123702   2.274   6.721   1.965
 7601SOL    HW223703   2.381   6.834   1.916
 7602SOL     OW23704   0.534   1.212   1.145
 7602SOL    HW123705   0.574   1.231   1.235
 7602SOL    HW223706   0.483   1.293   1.114
 7603SOL     OW23707   4.272   0.945   5.915
 7603SOL    HW123708   4.304   0.914   6.004
 7603SOL    HW223709   4.191   0.894   5.888
 7604SOL     OW23710   1.468   2.488   4.819
 7604SOL    HW123711   1.540   2.482   4.751
 7604SOL    HW223712   1.437   2.583   4.827
 7605SOL     OW23713   2.444   6.066   0.419
 7605SOL    HW123714   2.410   6.047   0.327
 7605SOL    HW223715   2.371   6.107   0.474
 7606SOL     OW23716   6.831   0.360   3.335
 7606SOL    HW123717   6.799   0.431   3.398
 7606SOL    HW223718   6.929   0.344   3.351
 7607SOL     OW23719   1.806   6.225   5.904
 7607SOL    HW123720   1.855   6.312   5.908
 7607SOL    HW223721   1.840   6.172   5.826
 7608SOL     OW23722   6.875   2.193   6.684
 7608SOL    HW123723   6.807   2.197   6.757
 7608SOL    HW223724   6.830   2.193   6.595
 7609SOL     OW23725   3.057   1.563   4.554
 7609SOL    HW123726   3.139   1.608   4.587
 7609SOL    HW223727   3.076   1.467   4.534
 7610SOL     OW23728   4.254   5.141   4.578
 7610SOL    HW123729   4.236   5.138   4.676
 7610SOL    HW223730   4.340   5.094   4.558
 7611SOL     OW23731   4.655   2.611   0.456
 7611SOL    HW123732   4.650   2.701   0.500
 7611SOL    HW223733   4.647   2.540   0.525
 7612SOL     OW23734   3.908   2.165   3.223
 7612SOL    HW123735   3.927   2.192   3.129
 7612SOL    HW223736   3.974   2.096   3.252
 7613SOL     OW23737   0.934   0.454   0.262
 7613SOL    HW123738   1.022   0.408   0.247
 7613SOL    HW223739   0.865   0.386   0.285
 7614SOL     OW23740   5.370   4.059   0.354
 7614SOL    HW123741   5.383   4.077   0.452
 7614SOL    HW223742   5.424   4.124   0.301
 7615SOL     OW23743   6.127   3.339   5.177
 7615SOL    HW123744   6.217   3.329   5.219
 7615SOL    HW223745   6.056   3.318   5.245
 7616SOL     OW23746   6.983   6.800   2.960
 7616SOL    HW123747   0.032   6.729   2.972
 7616SOL    HW223748   0.006   6.890   2.964
 7617SOL     OW23749   6.462   4.035   3.178
 7617SOL    HW123750   6.460   4.125   3.136
 7617SOL    HW223751   6.556   4.002   3.182
 7618SOL     OW23752   2.543   2.333   0.509
 7618SOL    HW123753   2.618   2.337   0.442
 7618SOL    HW223754   2.510   2.238   0.516
 7619SOL     OW23755   1.753   1.432   4.690
 7619SOL    HW123756   1.763   1.520   4.643
 7619SOL    HW223757   1.836   1.414   4.743
 7620SOL     OW23758   3.093   3.813   1.169
 7620SOL    HW123759   3.157   3.889   1.175
 7620SOL    HW223760   3.004   3.840   1.205
 7621SOL     OW23761   6.037   4.234   7.004
 7621SOL    HW123762   5.949   4.188   7.016
 7621SOL    HW223763   6.089   4.187   6.932
 7622SOL     OW23764   3.257   3.724   1.689
 7622SOL    HW123765   3.277   3.765   1.778
 7622SOL    HW223766   3.186   3.777   1.643
 7623SOL     OW23767   5.889   4.103   1.980
 7623SOL    HW123768   5.795   4.072   1.970
 7623SOL    HW223769   5.950   4.023   1.986
 7624SOL     OW23770   0.913   3.661   2.454
 7624SOL    HW123771   0.894   3.659   2.552
 7624SOL    HW223772   0.840   3.613   2.405
 7625SOL     OW23773   5.400   0.525   2.415
 7625SOL    HW123774   5.327   0.574   2.462
 7625SOL    HW223775   5.446   0.463   2.479
 7626SOL     OW23776   4.168   0.010   0.213
 7626SOL    HW123777   4.104   6.955   0.199
 7626SOL    HW223778   4.256   7.009   0.173
 7627SOL     OW23779   4.140   2.772   6.232
 7627SOL    HW123780   4.211   2.702   6.219
 7627SOL    HW223781   4.173   2.841   6.296
 7628SOL     OW23782   2.930   2.831   0.611
 7628SOL    HW123783   2.902   2.847   0.517
 7628SOL    HW223784   2.985   2.747   0.616
 7629SOL     OW23785   6.231   2.406   3.224
 7629SOL    HW123786   6.281   2.449   3.299
 7629SOL    HW223787   6.150   2.359   3.260
 7630SOL     OW23788   1.478   6.276   3.886
 7630SOL    HW123789   1.525   6.270   3.975
 7630SOL    HW223790   1.439   6.187   3.863
 7631SOL     OW23791   0.850   0.972   5.569
 7631SOL    HW123792   0.939   0.999   5.605
 7631SOL    HW223793   0.789   1.051   5.568
 7632SOL     OW23794   4.474   5.470   1.285
 7632SOL    HW123795   4.542   5.518   1.339
 7632SOL    HW223796   4.492   5.485   1.188
 7633SOL     OW23797   6.201   0.823   1.433
 7633SOL    HW123798   6.197   0.853   1.529
 7633SOL    HW223799   6.124   0.861   1.383
 7634SOL     OW23800   0.506   2.461   6.540
 7634SOL    HW123801   0.432   2.415   6.589
 7634SOL    HW223802   0.588   2.404   6.542
 7635SOL     OW23803   2.229   3.006   5.324
 7635SOL    HW123804   2.301   3.047   5.381
 7635SOL    HW223805   2.268   2.976   5.237
 7636SOL     OW23806   6.854   3.530   3.817
 7636SOL    HW123807   6.932   3.511   3.877
 7636SOL    HW223808   6.770   3.495   3.858
 7637SOL     OW23809   0.639   4.357   5.089
 7637SOL    HW123810   0.640   4.457   5.099
 7637SOL    HW223811   0.671   4.333   4.998
 7638SOL     OW23812   0.130   6.021   1.072
 7638SOL    HW123813   0.104   5.925   1.061
 7638SOL    HW223814   0.220   6.037   1.032
 7639SOL     OW23815   1.283   0.221   0.540
 7639SOL    HW123816   1.301   0.313   0.506
 7639SOL    HW223817   1.367   0.167   0.536
 7640SOL     OW23818   3.466   1.375   0.878
 7640SOL    HW123819   3.373   1.341   0.889
 7640SOL    HW223820   3.479   1.405   0.783
 7641SOL     OW23821   0.367   4.359   4.698
 7641SOL    HW123822   0.361   4.371   4.599
 7641SOL    HW223823   0.289   4.304   4.729
 7642SOL     OW23824   5.275   0.752   3.438
 7642SOL    HW123825   5.244   0.785   3.526
 7642SOL    HW223826   5.216   0.788   3.366
 7643SOL     OW23827   5.301   3.513   4.865
 7643SOL    HW123828   5.321   3.479   4.957
 7643SOL    HW223829   5.297   3.437   4.801
 7644SOL     OW23830   4.935   3.981   1.091
 7644SOL    HW123831   4.962   3.983   0.994
 7644SOL    HW223832   4.884   4.064   1.113
 7645SOL     OW23833   4.118   4.748   0.317
 7645SOL    HW123834   4.087   4.721   0.408
 7645SOL    HW223835   4.046   4.728   0.250
 7646SOL     OW23836   0.209   2.234   0.402
 7646SOL    HW123837   0.301   2.239   0.441
 7646SOL    HW223838   0.216   2.224   0.302
 7647SOL     OW23839   6.817   2.478   4.133
 7647SOL    HW123840   6.729   2.490   4.088
 7647SOL    HW223841   6.890   2.509   4.072
 7648SOL     OW23842   1.949   2.173   2.060
 7648SOL    HW123843   1.899   2.145   1.979
 7648SOL    HW223844   2.035   2.217   2.032
 7649SOL     OW23845   3.828   0.817   6.994
 7649SOL    HW123846   3.765   0.887   6.962
 7649SOL    HW223847   3.833   0.743   6.927
 7650SOL     OW23848   3.314   2.155   0.288
 7650SOL    HW123849   3.337   2.067   0.330
 7650SOL    HW223850   3.396   2.194   0.245
 7651SOL     OW23851   3.728   5.252   6.255
 7651SOL    HW123852   3.786   5.220   6.180
 7651SOL    HW223853   3.777   5.322   6.307
 7652SOL     OW23854   0.977   0.787   4.377
 7652SOL    HW123855   1.025   0.867   4.412
 7652SOL    HW223856   0.913   0.815   4.305
 7653SOL     OW23857   2.372   0.068   0.137
 7653SOL    HW123858   2.281   0.068   0.096
 7653SOL    HW223859   2.434   0.012   0.083
 7654SOL     OW23860   6.770   1.845   5.941
 7654SOL    HW123861   6.722   1.918   5.990
 7654SOL    HW223862   6.707   1.803   5.875
 7655SOL     OW23863   3.716   2.083   4.819
 7655SOL    HW123864   3.811   2.092   4.851
 7655SOL    HW223865   3.707   2.125   4.729
 7656SOL     OW23866   5.683   4.315   0.026
 7656SOL    HW123867   5.627   4.302   6.965
 7656SOL    HW223868   5.770   4.357   7.020
 7657SOL     OW23869   1.268   4.047   4.878
 7657SOL    HW123870   1.307   4.131   4.914
 7657SOL    HW223871   1.338   3.976   4.875
 7658SOL     OW23872   2.743   0.580   0.550
 7658SOL    HW123873   2.696   0.493   0.536
 7658SOL    HW223874   2.826   0.564   0.604
 7659SOL     OW23875   5.121   4.328   5.662
 7659SOL    HW123876   5.057   4.279   5.602
 7659SOL    HW223877   5.148   4.414   5.617
 7660SOL     OW23878   6.826   6.445   5.597
 7660SOL    HW123879   6.912   6.396   5.584
 7660SOL    HW223880   6.816   6.470   5.693
 7661SOL     OW23881   3.723   0.851   5.459
 7661SOL    HW123882   3.777   0.790   5.400
 7661SOL    HW223883   3.714   0.940   5.415
 7662SOL     OW23884   6.755   5.647   1.195
 7662SOL    HW123885   6.725   5.738   1.224
 7662SOL    HW223886   6.833   5.655   1.133
 7663SOL     OW23887   1.015   5.269   4.918
 7663SOL    HW123888   0.959   5.206   4.972
 7663SOL    HW223889   0.993   5.363   4.943
 7664SOL     OW23890   4.162   2.291   2.423
 7664SOL    HW123891   4.223   2.307   2.344
 7664SOL    HW223892   4.079   2.244   2.392
 7665SOL     OW23893   3.449   0.809   5.524
 7665SOL    HW123894   3.546   0.821   5.547
 7665SOL    HW223895   3.437   0.819   5.425
 7666SOL     OW23896   5.157   5.136   3.980
 7666SOL    HW123897   5.236   5.102   4.030
 7666SOL    HW223898   5.112   5.060   3.934
 7667SOL     OW23899   4.391   6.495   2.359
 7667SOL    HW123900   4.378   6.461   2.265
 7667SOL    HW223901   4.347   6.432   2.423
 7668SOL     OW23902   1.144   5.626   0.572
 7668SOL    HW123903   1.134   5.643   0.474
 7668SOL    HW223904   1.239   5.606   0.593
 7669SOL     OW23905   2.643   1.669   6.889
 7669SOL    HW123906   2.568   1.602   6.885
 7669SOL    HW223907   2.627   1.732   6.965
 7670SOL     OW23908   0.698   0.512   0.833
 7670SOL    HW123909   0.752   0.596   0.822
 7670SOL    HW223910   0.735   0.459   0.909
 7671SOL     OW23911   3.117   6.994   1.440
 7671SOL    HW123912   3.125   6.977   1.538
 7671SOL    HW223913   3.110   0.072   1.424
 7672SOL     OW23914   5.498   3.472   2.174
 7672SOL    HW123915   5.418   3.450   2.120
 7672SOL    HW223916   5.542   3.388   2.207
 7673SOL     OW23917   1.488   6.841   4.698
 7673SOL    HW123918   1.586   6.834   4.714
 7673SOL    HW223919   1.451   6.751   4.674
 7674SOL     OW23920   3.813   5.704   4.441
 7674SOL    HW123921   3.805   5.654   4.354
 7674SOL    HW223922   3.910   5.724   4.459
 7675SOL     OW23923   4.451   6.249   2.955
 7675SOL    HW123924   4.502   6.326   2.993
 7675SOL    HW223925   4.504   6.165   2.966
 7676SOL     OW23926   3.475   2.822   5.172
 7676SOL    HW123927   3.499   2.917   5.194
 7676SOL    HW223928   3.488   2.765   5.253
 7677SOL     OW23929   6.668   4.706   6.656
 7677SOL    HW123930   6.726   4.761   6.596
 7677SOL    HW223931   6.726   4.652   6.717
 7678SOL     OW23932   3.583   1.667   5.717
 7678SOL    HW123933   3.673   1.622   5.716
 7678SOL    HW223934   3.512   1.601   5.692
 7679SOL     OW23935   3.463   5.366   4.371
 7679SOL    HW123936   3.494   5.342   4.279
 7679SOL    HW223937   3.402   5.444   4.366
 7680SOL     OW23938   1.938   6.865   4.095
 7680SOL    HW123939   1.985   6.847   4.182
 7680SOL    HW223940   1.903   6.779   4.058
 7681SOL     OW23941   1.894   2.386   5.545
 7681SOL    HW123942   1.943   2.376   5.631
 7681SOL    HW223943   1.929   2.321   5.478
 7682SOL     OW23944   3.193   0.820   2.259
 7682SOL    HW123945   3.246   0.865   2.187
 7682SOL    HW223946   3.096   0.842   2.248
 7683SOL     OW23947   0.884   4.521   4.704
 7683SOL    HW123948   0.864   4.564   4.616
 7683SOL    HW223949   0.857   4.425   4.702
 7684SOL     OW23950   5.270   2.857   1.021
 7684SOL    HW123951   5.271   2.804   0.937
 7684SOL    HW223952   5.305   2.801   1.096
 7685SOL     OW23953   2.754   0.255   0.480
 7685SOL    HW123954   2.713   0.265   0.571
 7685SOL    HW223955   2.850   0.283   0.484
 7686SOL     OW23956   6.729   7.015   4.460
 7686SOL    HW123957   6.705   6.920   4.481
 7686SOL    HW223958   6.723   0.009   4.361
 7687SOL     OW23959   5.184   3.198   6.456
 7687SOL    HW123960   5.233   3.255   6.390
 7687SOL    HW223961   5.126   3.256   6.513
 7688SOL     OW23962   5.646   2.720   6.749
 7688SOL    HW123963   5.631   2.765   6.661
 7688SOL    HW223964   5.720   2.653   6.739
 7689SOL     OW23965   5.776   0.066   1.857
 7689SOL    HW123966   5.831   0.002   1.910
 7689SOL    HW223967   5.720   0.121   1.919
 7690SOL     OW23968   5.655   5.070   2.014
 7690SOL    HW123969   5.586   5.041   2.081
 7690SOL    HW223970   5.740   5.021   2.031
 7691SOL     OW23971   4.827   2.922   4.333
 7691SOL    HW123972   4.840   2.944   4.430
 7691SOL    HW223973   4.748   2.862   4.323
 7692SOL     OW23974   3.008   6.727   2.014
 7692SOL    HW123975   2.979   6.807   2.067
 7692SOL    HW223976   3.106   6.731   1.998
 7693SOL     OW23977   3.147   1.542   1.853
 7693SOL    HW123978   3.099   1.509   1.773
 7693SOL    HW223979   3.135   1.641   1.862
 7694SOL     OW23980   4.363   1.886   6.656
 7694SOL    HW123981   4.356   1.882   6.756
 7694SOL    HW223982   4.401   1.799   6.622
 7695SOL     OW23983   5.031   6.679   3.799
 7695SOL    HW123984   5.001   6.606   3.737
 7695SOL    HW223985   5.131   6.679   3.803
 7696SOL     OW23986   2.535   2.358   5.667
 7696SOL    HW123987   2.515   2.420   5.743
 7696SOL    HW223988   2.456   2.355   5.605
 7697SOL     OW23989   5.879   6.785   3.435
 7697SOL    HW123990   5.854   6.758   3.342
 7697SOL    HW223991   5.811   6.848   3.471
 7698SOL     OW23992   6.318   2.788   0.983
 7698SOL    HW123993   6.289   2.881   0.962
 7698SOL    HW223994   6.297   2.728   0.905
 7699SOL     OW23995   4.180   6.039   5.524
 7699SOL    HW123996   4.270   5.998   5.510
 7699SOL    HW223997   4.109   5.977   5.491
 7700SOL     OW23998   5.826   5.305   1.360
 7700SOL    HW123999   5.922   5.324   1.339
 7700SOL    HW224000   5.793   5.232   1.300
 7701SOL     OW24001   1.757   1.997   6.778
 7701SOL    HW124002   1.789   1.906   6.806
 7701SOL    HW224003   1.657   1.997   6.777
 7702SOL     OW24004   5.315   6.652   5.206
 7702SOL    HW124005   5.246   6.598   5.254
 7702SOL    HW224006   5.269   6.716   5.144
 7703SOL     OW24007   0.091   6.758   5.440
 7703SOL    HW124008   0.149   6.807   5.505
 7703SOL    HW224009   0.071   6.667   5.475
 7704SOL     OW24010   1.773   1.676   4.885
 7704SOL    HW124011   1.723   1.592   4.908
 7704SOL    HW224012   1.784   1.682   4.785
 7705SOL     OW24013   0.801   4.318   0.178
 7705SOL    HW124014   0.755   4.327   0.267
 7705SOL    HW224015   0.749   4.368   0.109
 7706SOL     OW24016   3.374   3.180   2.424
 7706SOL    HW124017   3.395   3.205   2.519
 7706SOL    HW224018   3.432   3.233   2.362
 7707SOL     OW24019   6.575   4.379   6.255
 7707SOL    HW124020   6.515   4.452   6.223
 7707SOL    HW224021   6.612   4.329   6.176
 7708SOL     OW24022   1.406   0.115   4.172
 7708SOL    HW124023   1.363   0.060   4.243
 7708SOL    HW224024   1.484   0.164   4.210
 7709SOL     OW24025   6.683   4.665   1.030
 7709SOL    HW124026   6.619   4.737   1.057
 7709SOL    HW224027   6.678   4.652   0.931
 7710SOL     OW24028   6.338   3.062   1.943
 7710SOL    HW124029   6.303   3.101   1.858
 7710SOL    HW224030   6.436   3.048   1.936
 7711SOL     OW24031   0.700   4.753   3.940
 7711SOL    HW124032   0.754   4.680   3.898
 7711SOL    HW224033   0.623   4.713   3.990
 7712SOL     OW24034   0.662   4.707   4.746
 7712SOL    HW124035   0.741   4.646   4.737
 7712SOL    HW224036   0.691   4.795   4.783
 7713SOL     OW24037   0.934   4.928   0.803
 7713SOL    HW124038   1.029   4.906   0.783
 7713SOL    HW224039   0.920   5.027   0.793
 7714SOL     OW24040   6.125   1.871   5.125
 7714SOL    HW124041   6.110   1.888   5.222
 7714SOL    HW224042   6.041   1.833   5.085
 7715SOL     OW24043   3.580   3.064   6.243
 7715SOL    HW124044   3.638   3.029   6.316
 7715SOL    HW224045   3.600   3.161   6.227
 7716SOL     OW24046   1.036   6.643   6.179
 7716SOL    HW124047   0.961   6.704   6.156
 7716SOL    HW224048   1.046   6.574   6.107
 7717SOL     OW24049   0.432   2.114   5.957
 7717SOL    HW124050   0.442   2.207   5.920
 7717SOL    HW224051   0.335   2.092   5.964
 7718SOL     OW24052   0.216   2.881   2.726
 7718SOL    HW124053   0.210   2.937   2.643
 7718SOL    HW224054   0.137   2.900   2.784
 7719SOL     OW24055   2.096   5.439   5.023
 7719SOL    HW124056   2.143   5.520   5.058
 7719SOL    HW224057   2.072   5.453   4.927
 7720SOL     OW24058   4.551   0.986   6.809
 7720SOL    HW124059   4.543   1.086   6.800
 7720SOL    HW224060   4.563   0.945   6.719
 7721SOL     OW24061   6.060   5.900   2.499
 7721SOL    HW124062   6.000   5.934   2.572
 7721SOL    HW224063   6.058   5.800   2.498
 7722SOL     OW24064   0.898   6.129   4.065
 7722SOL    HW124065   0.935   6.142   3.973
 7722SOL    HW224066   0.890   6.217   4.111
 7723SOL     OW24067   4.572   4.338   0.118
 7723SOL    HW124068   4.487   4.354   0.066
 7723SOL    HW224069   4.556   4.265   0.185
 7724SOL     OW24070   1.648   3.880   0.225
 7724SOL    HW124071   1.651   3.780   0.228
 7724SOL    HW224072   1.711   3.913   0.156
 7725SOL     OW24073   5.345   3.444   4.512
 7725SOL    HW124074   5.290   3.493   4.445
 7725SOL    HW224075   5.429   3.494   4.530
 7726SOL     OW24076   1.944   3.788   6.748
 7726SOL    HW124077   2.037   3.752   6.747
 7726SOL    HW224078   1.890   3.746   6.675
 7727SOL     OW24079   4.910   0.366   2.216
 7727SOL    HW124080   4.956   0.440   2.266
 7727SOL    HW224081   4.860   0.405   2.139
 7728SOL     OW24082   1.843   3.601   4.739
 7728SOL    HW124083   1.942   3.611   4.729
 7728SOL    HW224084   1.798   3.687   4.713
 7729SOL     OW24085   6.941   0.912   2.377
 7729SOL    HW124086   6.863   0.933   2.435
 7729SOL    HW224087   0.003   0.905   2.433
 7730SOL     OW24088   6.227   4.801   5.594
 7730SOL    HW124089   6.177   4.868   5.649
 7730SOL    HW224090   6.324   4.804   5.617
 7731SOL     OW24091   6.576   6.930   5.634
 7731SOL    HW124092   6.612   0.002   5.641
 7731SOL    HW224093   6.643   6.871   5.590
 7732SOL     OW24094   4.588   1.094   0.185
 7732SOL    HW124095   4.655   1.025   0.156
 7732SOL    HW224096   4.501   1.049   0.205
 7733SOL     OW24097   6.809   5.284   1.287
 7733SOL    HW124098   6.867   5.340   1.346
 7733SOL    HW224099   6.725   5.333   1.266
 7734SOL     OW24100   3.998   3.672   3.424
 7734SOL    HW124101   3.970   3.582   3.390
 7734SOL    HW224102   4.034   3.662   3.517
 7735SOL     OW24103   0.684   5.914   1.089
 7735SOL    HW124104   0.778   5.943   1.071
 7735SOL    HW224105   0.671   5.821   1.055
 7736SOL     OW24106   1.565   1.958   0.156
 7736SOL    HW124107   1.558   1.859   0.142
 7736SOL    HW224108   1.659   1.987   0.140
 7737SOL     OW24109   4.291   4.353   6.943
 7737SOL    HW124110   4.303   4.419   7.017
 7737SOL    HW224111   4.237   4.276   6.975
 7738SOL     OW24112   1.577   0.610   5.174
 7738SOL    HW124113   1.635   0.531   5.155
 7738SOL    HW224114   1.629   0.679   5.223
 7739SOL     OW24115   1.581   2.812   0.417
 7739SOL    HW124116   1.660   2.871   0.397
 7739SOL    HW224117   1.498   2.868   0.419
 7740SOL     OW24118   2.357   1.114   4.400
 7740SOL    HW124119   2.403   1.200   4.421
 7740SOL    HW224120   2.382   1.045   4.467
 7741SOL     OW24121   0.029   4.615   6.200
 7741SOL    HW124122   6.987   4.630   6.277
 7741SOL    HW224123   0.103   4.682   6.203
 7742SOL     OW24124   4.638   2.311   4.176
 7742SOL    HW124125   4.561   2.360   4.216
 7742SOL    HW224126   4.632   2.214   4.197
 7743SOL     OW24127   4.216   1.235   5.889
 7743SOL    HW124128   4.235   1.137   5.880
 7743SOL    HW224129   4.275   1.287   5.827
 7744SOL     OW24130   0.923   6.878   4.603
 7744SOL    HW124131   0.826   6.856   4.615
 7744SOL    HW224132   0.934   6.977   4.591
 7745SOL     OW24133   2.769   6.848   1.062
 7745SOL    HW124134   2.763   6.838   0.962
 7745SOL    HW224135   2.857   6.887   1.086
 7746SOL     OW24136   0.056   6.352   1.477
 7746SOL    HW124137   0.076   6.447   1.452
 7746SOL    HW224138   6.986   6.348   1.519
 7747SOL     OW24139   0.234   5.521   0.914
 7747SOL    HW124140   0.285   5.512   0.829
 7747SOL    HW224141   0.200   5.432   0.943
 7748SOL     OW24142   4.250   1.074   6.253
 7748SOL    HW124143   4.342   1.108   6.273
 7748SOL    HW224144   4.255   0.985   6.208
 7749SOL     OW24145   3.618   2.871   3.285
 7749SOL    HW124146   3.589   2.914   3.200
 7749SOL    HW224147   3.541   2.870   3.349
 7750SOL     OW24148   5.348   4.853   6.129
 7750SOL    HW124149   5.283   4.926   6.151
 7750SOL    HW224150   5.304   4.786   6.069
 7751SOL     OW24151   6.784   1.330   4.427
 7751SOL    HW124152   6.846   1.295   4.497
 7751SOL    HW224153   6.741   1.253   4.379
 7752SOL     OW24154   6.450   4.958   5.210
 7752SOL    HW124155   6.382   4.892   5.240
 7752SOL    HW224156   6.515   4.975   5.283
 7753SOL     OW24157   2.797   0.567   4.890
 7753SOL    HW124158   2.837   0.524   4.809
 7753SOL    HW224159   2.867   0.577   4.960
 7754SOL     OW24160   5.938   0.271   1.358
 7754SOL    HW124161   5.920   0.178   1.327
 7754SOL    HW224162   6.015   0.309   1.308
 7755SOL     OW24163   1.795   6.136   5.509
 7755SOL    HW124164   1.802   6.084   5.424
 7755SOL    HW224165   1.815   6.076   5.587
 7756SOL     OW24166   4.081   5.667   2.916
 7756SOL    HW124167   4.171   5.709   2.902
 7756SOL    HW224168   4.068   5.593   2.850
 7757SOL     OW24169   3.491   0.338   6.108
 7757SOL    HW124170   3.463   0.275   6.036
 7757SOL    HW224171   3.435   0.421   6.104
 7758SOL     OW24172   3.215   2.619   6.516
 7758SOL    HW124173   3.161   2.701   6.497
 7758SOL    HW224174   3.304   2.645   6.552
 7759SOL     OW24175   1.667   0.465   4.609
 7759SOL    HW124176   1.593   0.456   4.676
 7759SOL    HW224177   1.748   0.417   4.643
 7760SOL     OW24178   5.219   2.226   3.575
 7760SOL    HW124179   5.153   2.164   3.533
 7760SOL    HW224180   5.301   2.231   3.519
 7761SOL     OW24181   4.502   0.724   6.664
 7761SOL    HW124182   4.437   0.676   6.722
 7761SOL    HW224183   4.591   0.728   6.710
 7762SOL     OW24184   1.848   2.466   0.344
 7762SOL    HW124185   1.888   2.510   0.264
 7762SOL    HW224186   1.908   2.480   0.423
 7763SOL     OW24187   2.252   2.268   1.443
 7763SOL    HW124188   2.337   2.292   1.396
 7763SOL    HW224189   2.272   2.208   1.520
 7764SOL     OW24190   3.752   3.420   2.124
 7764SOL    HW124191   3.660   3.427   2.163
 7764SOL    HW224192   3.778   3.507   2.083
 7765SOL     OW24193   6.994   1.657   2.333
 7765SOL    HW124194   0.003   1.734   2.276
 7765SOL    HW224195   6.895   1.657   2.341
 7766SOL     OW24196   6.860   3.597   0.157
 7766SOL    HW124197   6.884   3.588   0.254
 7766SOL    HW224198   6.874   3.692   0.128
 7767SOL     OW24199   5.524   4.061   5.551
 7767SOL    HW124200   5.579   4.059   5.467
 7767SOL    HW224201   5.528   4.153   5.591
 7768SOL     OW24202   3.975   5.548   2.085
 7768SOL    HW124203   4.036   5.566   2.009
 7768SOL    HW224204   3.980   5.623   2.151
 7769SOL     OW24205   6.009   2.036   2.387
 7769SOL    HW124206   5.971   2.100   2.319
 7769SOL    HW224207   5.948   2.032   2.466
 7770SOL     OW24208   3.405   6.165   1.078
 7770SOL    HW124209   3.384   6.261   1.097
 7770SOL    HW224210   3.328   6.108   1.105
 7771SOL     OW24211   2.031   1.546   4.763
 7771SOL    HW124212   2.033   1.491   4.847
 7771SOL    HW224213   2.120   1.542   4.718
 7772SOL     OW24214   5.581   0.788   4.938
 7772SOL    HW124215   5.541   0.779   4.847
 7772SOL    HW224216   5.600   0.698   4.976
 7773SOL     OW24217   3.850   4.669   6.117
 7773SOL    HW124218   3.877   4.627   6.030
 7773SOL    HW224219   3.822   4.764   6.101
 7774SOL     OW24220   5.292   1.569   0.135
 7774SOL    HW124221   5.272   1.549   0.039
 7774SOL    HW224222   5.206   1.577   0.186
 7775SOL     OW24223   1.650   0.244   1.958
 7775SOL    HW124224   1.651   0.335   1.916
 7775SOL    HW224225   1.601   0.180   1.900
 7776SOL     OW24226   3.483   3.737   0.999
 7776SOL    HW124227   3.492   3.643   1.031
 7776SOL    HW224228   3.386   3.760   0.991
 7777SOL     OW24229   0.992   0.111   6.326
 7777SOL    HW124230   1.041   0.188   6.368
 7777SOL    HW224231   0.997   0.118   6.227
 7778SOL     OW24232   4.913   1.469   1.939
 7778SOL    HW124233   4.869   1.458   2.028
 7778SOL    HW224234   4.853   1.522   1.879
 7779SOL     OW24235   4.458   2.906   0.420
 7779SOL    HW124236   4.390   2.892   0.491
 7779SOL    HW224237   4.550   2.896   0.458
 7780SOL     OW24238   0.908   0.475   5.048
 7780SOL    HW124239   0.859   0.545   5.100
 7780SOL    HW224240   0.879   0.384   5.078
 7781SOL     OW24241   1.822   4.807   5.407
 7781SOL    HW124242   1.856   4.718   5.378
 7781SOL    HW224243   1.722   4.808   5.404
 7782SOL     OW24244   4.382   4.722   0.271
 7782SOL    HW124245   4.430   4.806   0.246
 7782SOL    HW224246   4.294   4.745   0.312
 7783SOL     OW24247   2.229   5.722   0.166
 7783SOL    HW124248   2.308   5.661   0.162
 7783SOL    HW224249   2.188   5.718   0.257
 7784SOL     OW24250   6.733   3.111   0.661
 7784SOL    HW124251   6.707   3.017   0.683
 7784SOL    HW224252   6.830   3.125   0.682
 7785SOL     OW24253   2.102   5.599   5.705
 7785SOL    HW124254   2.067   5.558   5.621
 7785SOL    HW224255   2.202   5.596   5.705
 7786SOL     OW24256   3.604   4.042   4.293
 7786SOL    HW124257   3.647   4.032   4.382
 7786SOL    HW224258   3.669   4.016   4.222
 7787SOL     OW24259   2.883   2.318   5.212
 7787SOL    HW124260   2.983   2.325   5.211
 7787SOL    HW224261   2.848   2.331   5.119
 7788SOL     OW24262   0.750   1.949   0.642
 7788SOL    HW124263   0.753   1.882   0.716
 7788SOL    HW224264   0.751   2.042   0.680
 7789SOL     OW24265   2.416   0.592   1.262
 7789SOL    HW124266   2.456   0.684   1.266
 7789SOL    HW224267   2.366   0.574   1.347
 7790SOL     OW24268   6.117   3.779   2.945
 7790SOL    HW124269   6.052   3.717   2.988
 7790SOL    HW224270   6.146   3.849   3.011
 7791SOL     OW24271   0.359   4.657   5.082
 7791SOL    HW124272   0.311   4.712   5.013
 7791SOL    HW224273   0.406   4.717   5.146
 7792SOL     OW24274   1.942   5.478   6.729
 7792SOL    HW124275   1.844   5.461   6.742
 7792SOL    HW224276   1.955   5.533   6.647
 7793SOL     OW24277   1.753   0.994   6.329
 7793SOL    HW124278   1.817   1.071   6.336
 7793SOL    HW224279   1.787   0.929   6.262
 7794SOL     OW24280   5.520   5.432   2.554
 7794SOL    HW124281   5.449   5.363   2.544
 7794SOL    HW224282   5.479   5.519   2.581
 7795SOL     OW24283   1.227   4.483   6.378
 7795SOL    HW124284   1.312   4.535   6.372
 7795SOL    HW224285   1.215   4.449   6.471
 7796SOL     OW24286   4.107   3.597   4.570
 7796SOL    HW124287   4.108   3.509   4.524
 7796SOL    HW224288   4.178   3.656   4.532
 7797SOL     OW24289   0.888   6.911   3.223
 7797SOL    HW124290   0.866   6.843   3.293
 7797SOL    HW224291   0.889   6.867   3.133
 7798SOL     OW24292   4.175   6.277   6.095
 7798SOL    HW124293   4.272   6.261   6.114
 7798SOL    HW224294   4.148   6.225   6.014
 7799SOL     OW24295   6.285   4.710   1.074
 7799SOL    HW124296   6.361   4.768   1.046
 7799SOL    HW224297   6.199   4.754   1.051
 7800SOL     OW24298   0.607   6.254   2.206
 7800SOL    HW124299   0.593   6.344   2.165
 7800SOL    HW224300   0.688   6.256   2.265
 7801SOL     OW24301   3.948   2.112   5.274
 7801SOL    HW124302   3.911   2.049   5.206
 7801SOL    HW224303   3.888   2.114   5.354
 7802SOL     OW24304   5.294   2.064   0.241
 7802SOL    HW124305   5.333   2.085   0.331
 7802SOL    HW224306   5.236   2.140   0.211
 7803SOL     OW24307   2.750   4.146   5.354
 7803SOL    HW124308   2.654   4.167   5.335
 7803SOL    HW224309   2.769   4.051   5.331
 7804SOL     OW24310   4.861   0.872   6.160
 7804SOL    HW124311   4.817   0.834   6.241
 7804SOL    HW224312   4.855   0.972   6.163
 7805SOL     OW24313   5.246   3.299   1.717
 7805SOL    HW124314   5.157   3.255   1.730
 7805SOL    HW224315   5.235   3.382   1.663
 7806SOL     OW24316   5.004   3.331   6.640
 7806SOL    HW124317   4.930   3.313   6.704
 7806SOL    HW224318   4.966   3.345   6.548
 7807SOL     OW24319   0.261   3.414   6.683
 7807SOL    HW124320   0.233   3.319   6.698
 7807SOL    HW224321   0.325   3.419   6.606
 7808SOL     OW24322   1.081   1.153   5.328
 7808SOL    HW124323   1.047   1.061   5.309
 7808SOL    HW224324   1.005   1.218   5.325
 7809SOL     OW24325   1.471   5.333   5.875
 7809SOL    HW124326   1.516   5.367   5.958
 7809SOL    HW224327   1.527   5.263   5.832
 7810SOL     OW24328   2.206   1.074   6.958
 7810SOL    HW124329   2.154   1.143   7.008
 7810SOL    HW224330   2.142   1.010   6.914
 7811SOL     OW24331   0.554   4.664   4.501
 7811SOL    HW124332   0.592   4.592   4.443
 7811SOL    HW224333   0.607   4.671   4.585
 7812SOL     OW24334   0.593   2.166   3.823
 7812SOL    HW124335   0.597   2.076   3.779
 7812SOL    HW224336   0.618   2.236   3.756
 7813SOL     OW24337   6.521   2.441   1.136
 7813SOL    HW124338   6.595   2.409   1.195
 7813SOL    HW224339   6.524   2.541   1.131
 7814SOL     OW24340   2.170   3.840   4.130
 7814SOL    HW124341   2.079   3.881   4.127
 7814SOL    HW224342   2.213   3.850   4.040
 7815SOL     OW24343   0.254   1.810   5.832
 7815SOL    HW124344   0.165   1.840   5.799
 7815SOL    HW224345   0.241   1.738   5.901
 7816SOL     OW24346   1.382   4.583   5.266
 7816SOL    HW124347   1.437   4.502   5.285
 7816SOL    HW224348   1.289   4.570   5.302
 7817SOL     OW24349   5.244   3.164   5.373
 7817SOL    HW124350   5.150   3.169   5.339
 7817SOL    HW224351   5.269   3.068   5.387
 7818SOL     OW24352   5.136   4.250   2.678
 7818SOL    HW124353   5.162   4.300   2.595
 7818SOL    HW224354   5.037   4.236   2.679
 7819SOL     OW24355   0.333   1.520   1.449
 7819SOL    HW124356   0.291   1.434   1.422
 7819SOL    HW224357   0.421   1.530   1.403
 7820SOL     OW24358   2.383   0.121   6.399
 7820SOL    HW124359   2.405   0.054   6.328
 7820SOL    HW224360   2.403   0.082   6.489
 7821SOL     OW24361   3.194   5.066   1.092
 7821SOL    HW124362   3.271   5.101   1.039
 7821SOL    HW224363   3.119   5.131   1.088
 7822SOL     OW24364   1.818   6.575   5.639
 7822SOL    HW124365   1.857   6.630   5.565
 7822SOL    HW224366   1.751   6.511   5.601
 7823SOL     OW24367   1.758   4.146   5.111
 7823SOL    HW124368   1.718   4.079   5.174
 7823SOL    HW224369   1.844   4.109   5.074
 7824SOL     OW24370   0.682   3.502   5.397
 7824SOL    HW124371   0.713   3.440   5.469
 7824SOL    HW224372   0.597   3.467   5.357
 7825SOL     OW24373   3.294   0.783   6.948
 7825SOL    HW124374   3.216   0.750   7.002
 7825SOL    HW224375   3.262   0.815   6.859
 7826SOL     OW24376   0.455   3.376   5.288
 7826SOL    HW124377   0.487   3.303   5.229
 7826SOL    HW224378   0.390   3.339   5.355
 7827SOL     OW24379   6.072   5.329   4.750
 7827SOL    HW124380   5.988   5.365   4.791
 7827SOL    HW224381   6.139   5.311   4.821
 7828SOL     OW24382   0.743   5.020   6.538
 7828SOL    HW124383   0.780   4.977   6.620
 7828SOL    HW224384   0.772   4.968   6.457
 7829SOL     OW24385   3.622   4.437   0.625
 7829SOL    HW124386   3.589   4.350   0.663
 7829SOL    HW224387   3.550   4.479   0.570
 7830SOL     OW24388   2.876   6.059   3.755
 7830SOL    HW124389   2.854   5.968   3.789
 7830SOL    HW224390   2.966   6.056   3.710
 7831SOL     OW24391   1.766   0.081   6.110
 7831SOL    HW124392   1.796   0.176   6.117
 7831SOL    HW224393   1.666   0.078   6.106
 7832SOL     OW24394   6.352   1.117   5.225
 7832SOL    HW124395   6.432   1.060   5.206
 7832SOL    HW224396   6.285   1.108   5.151
 7833SOL     OW24397   1.043   0.848   2.612
 7833SOL    HW124398   1.098   0.858   2.529
 7833SOL    HW224399   1.100   0.866   2.692
 7834SOL     OW24400   6.705   3.094   5.264
 7834SOL    HW124401   6.713   3.002   5.302
 7834SOL    HW224402   6.784   3.149   5.290
 7835SOL     OW24403   3.954   2.154   5.756
 7835SOL    HW124404   3.904   2.189   5.835
 7835SOL    HW224405   3.980   2.058   5.772
 7836SOL     OW24406   3.126   4.049   4.806
 7836SOL    HW124407   3.028   4.034   4.805
 7836SOL    HW224408   3.159   4.061   4.712
 7837SOL     OW24409   0.738   5.672   6.644
 7837SOL    HW124410   0.827   5.637   6.613
 7837SOL    HW224411   0.680   5.595   6.671
 7838SOL     OW24412   4.245   5.316   2.373
 7838SOL    HW124413   4.179   5.273   2.434
 7838SOL    HW224414   4.243   5.270   2.284
 7839SOL     OW24415   5.962   3.663   4.657
 7839SOL    HW124416   5.896   3.672   4.732
 7839SOL    HW224417   5.913   3.665   4.569
 7840SOL     OW24418   2.258   2.823   3.678
 7840SOL    HW124419   2.329   2.754   3.687
 7840SOL    HW224420   2.190   2.811   3.750
 7841SOL     OW24421   4.020   1.994   6.242
 7841SOL    HW124422   3.961   1.991   6.323
 7841SOL    HW224423   4.094   2.060   6.258
 7842SOL     OW24424   0.742   1.081   1.672
 7842SOL    HW124425   0.773   1.082   1.577
 7842SOL    HW224426   0.703   0.991   1.694
 7843SOL     OW24427   0.109   6.438   2.672
 7843SOL    HW124428   0.019   6.403   2.699
 7843SOL    HW224429   0.115   6.442   2.573
 7844SOL     OW24430   4.055   6.928   2.925
 7844SOL    HW124431   4.021   6.884   3.008
 7844SOL    HW224432   4.050   0.007   2.936
 7845SOL     OW24433   6.320   3.021   1.351
 7845SOL    HW124434   6.248   2.998   1.416
 7845SOL    HW224435   6.283   3.076   1.277
 7846SOL     OW24436   1.172   0.941   1.027
 7846SOL    HW124437   1.222   0.963   0.943
 7846SOL    HW224438   1.213   0.859   1.069
 7847SOL     OW24439   5.356   4.413   6.068
 7847SOL    HW124440   5.435   4.422   6.006
 7847SOL    HW224441   5.362   4.325   6.116
 7848SOL     OW24442   3.857   4.376   0.347
 7848SOL    HW124443   3.838   4.345   0.254
 7848SOL    HW224444   3.845   4.301   0.412
 7849SOL     OW24445   4.097   5.140   6.996
 7849SOL    HW124446   4.021   5.076   6.988
 7849SOL    HW224447   4.072   5.227   6.953
 7850SOL     OW24448   6.992   0.394   3.812
 7850SOL    HW124449   6.956   0.323   3.872
 7850SOL    HW224450   0.070   0.382   3.801
 7851SOL     OW24451   7.014   4.993   0.603
 7851SOL    HW124452   0.052   5.022   0.680
 7851SOL    HW224453   6.919   4.987   0.634
 7852SOL     OW24454   1.074   2.751   5.950
 7852SOL    HW124455   1.140   2.763   5.875
 7852SOL    HW224456   1.019   2.670   5.933
 7853SOL     OW24457   4.173   3.070   1.769
 7853SOL    HW124458   4.096   3.129   1.743
 7853SOL    HW224459   4.145   3.010   1.844
 7854SOL     OW24460   4.661   1.200   0.796
 7854SOL    HW124461   4.759   1.180   0.798
 7854SOL    HW224462   4.615   1.138   0.732
 7855SOL     OW24463   5.586   6.402   3.822
 7855SOL    HW124464   5.488   6.403   3.800
 7855SOL    HW224465   5.600   6.446   3.910
 7856SOL     OW24466   2.220   6.599   5.702
 7856SOL    HW124467   2.145   6.646   5.656
 7856SOL    HW224468   2.307   6.627   5.660
 7857SOL     OW24469   6.392   4.505   0.936
 7857SOL    HW124470   6.362   4.593   0.971
 7857SOL    HW224471   6.436   4.517   0.847
 7858SOL     OW24472   0.140   3.729   6.275
 7858SOL    HW124473   0.114   3.662   6.206
 7858SOL    HW224474   0.233   3.711   6.306
 7859SOL     OW24475   4.960   2.014   1.025
 7859SOL    HW124476   4.983   2.086   1.090
 7859SOL    HW224477   4.881   1.963   1.059
 7860SOL     OW24478   2.720   1.248   4.281
 7860SOL    HW124479   2.731   1.345   4.299
 7860SOL    HW224480   2.623   1.228   4.263
 7861SOL     OW24481   1.928   6.091   1.042
 7861SOL    HW124482   1.958   6.178   1.081
 7861SOL    HW224483   1.955   6.016   1.102
 7862SOL     OW24484   1.397   6.613   0.049
 7862SOL    HW124485   1.468   6.543   0.053
 7862SOL    HW224486   1.364   6.623   6.976
 7863SOL     OW24487   1.108   4.604   4.043
 7863SOL    HW124488   1.108   4.662   4.125
 7863SOL    HW224489   1.039   4.638   3.979
 7864SOL     OW24490   2.679   6.001   4.831
 7864SOL    HW124491   2.732   5.920   4.857
 7864SOL    HW224492   2.697   6.075   4.894
 7865SOL     OW24493   5.750   4.321   3.713
 7865SOL    HW124494   5.756   4.302   3.615
 7865SOL    HW224495   5.655   4.344   3.736
 7866SOL     OW24496   0.951   0.709   5.762
 7866SOL    HW124497   0.940   0.685   5.859
 7866SOL    HW224498   0.922   0.803   5.747
 7867SOL     OW24499   4.323   4.983   4.016
 7867SOL    HW124500   4.304   5.037   4.098
 7867SOL    HW224501   4.274   4.896   4.022
 7868SOL     OW24502   3.226   6.368   1.482
 7868SOL    HW124503   3.292   6.294   1.464
 7868SOL    HW224504   3.134   6.333   1.470
 7869SOL     OW24505   6.331   5.026   0.062
 7869SOL    HW124506   6.308   4.932   0.086
 7869SOL    HW224507   6.419   5.027   0.014
 7870SOL     OW24508   6.010   6.556   3.499
 7870SOL    HW124509   6.110   6.557   3.506
 7870SOL    HW224510   5.977   6.650   3.485
 7871SOL     OW24511   4.271   1.164   0.533
 7871SOL    HW124512   4.337   1.228   0.493
 7871SOL    HW224513   4.178   1.199   0.520
 7872SOL     OW24514   0.282   5.527   3.035
 7872SOL    HW124515   0.309   5.433   3.013
 7872SOL    HW224516   0.352   5.590   3.002
 7873SOL     OW24517   4.840   2.074   0.047
 7873SOL    HW124518   4.763   2.010   0.047
 7873SOL    HW224519   4.807   2.166   0.066
 7874SOL     OW24520   5.759   2.408   0.310
 7874SOL    HW124521   5.685   2.471   0.289
 7874SOL    HW224522   5.729   2.344   0.381
 7875SOL     OW24523   6.431   4.775   6.448
 7875SOL    HW124524   6.459   4.763   6.544
 7875SOL    HW224525   6.390   4.691   6.414
 7876SOL     OW24526   1.467   6.574   3.275
 7876SOL    HW124527   1.538   6.588   3.206
 7876SOL    HW224528   1.498   6.614   3.362
 7877SOL     OW24529   6.911   2.957   2.344
 7877SOL    HW124530   6.883   3.053   2.345
 7877SOL    HW224531   6.977   2.943   2.271
 7878SOL     OW24532   3.922   6.649   2.489
 7878SOL    HW124533   3.825   6.670   2.502
 7878SOL    HW224534   3.932   6.559   2.446
 7879SOL     OW24535   3.290   6.205   2.987
 7879SOL    HW124536   3.209   6.163   3.029
 7879SOL    HW224537   3.338   6.260   3.055
 7880SOL     OW24538   1.101   4.580   2.364
 7880SOL    HW124539   1.164   4.559   2.439
 7880SOL    HW224540   1.013   4.535   2.381
 7881SOL     OW24541   4.828   3.959   3.450
 7881SOL    HW124542   4.859   3.885   3.391
 7881SOL    HW224543   4.773   3.922   3.524
 7882SOL     OW24544   0.257   3.126   6.862
 7882SOL    HW124545   0.174   3.174   6.890
 7882SOL    HW224546   0.234   3.030   6.842
 7883SOL     OW24547   0.840   0.242   5.131
 7883SOL    HW124548   0.776   0.275   5.200
 7883SOL    HW224549   0.864   0.147   5.150
 7884SOL     OW24550   1.136   3.084   4.169
 7884SOL    HW124551   1.133   3.167   4.225
 7884SOL    HW224552   1.202   3.096   4.095
 7885SOL     OW24553   0.404   5.906   6.914
 7885SOL    HW124554   0.414   5.815   6.872
 7885SOL    HW224555   0.435   5.976   6.849
 7886SOL     OW24556   5.200   3.946   1.186
 7886SOL    HW124557   5.222   3.964   1.281
 7886SOL    HW224558   5.101   3.959   1.172
 7887SOL     OW24559   4.716   3.125   6.228
 7887SOL    HW124560   4.638   3.188   6.219
 7887SOL    HW224561   4.801   3.177   6.233
 7888SOL     OW24562   4.574   6.021   4.908
 7888SOL    HW124563   4.552   6.003   4.812
 7888SOL    HW224564   4.531   5.952   4.966
 7889SOL     OW24565   6.562   5.243   3.279
 7889SOL    HW124566   6.604   5.314   3.223
 7889SOL    HW224567   6.463   5.250   3.273
 7890SOL     OW24568   1.877   3.303   2.249
 7890SOL    HW124569   1.866   3.256   2.337
 7890SOL    HW224570   1.798   3.362   2.233
 7891SOL     OW24571   0.930   4.974   2.995
 7891SOL    HW124572   0.961   4.954   2.902
 7891SOL    HW224573   0.959   5.067   3.020
 7892SOL     OW24574   2.176   2.241   4.872
 7892SOL    HW124575   2.109   2.312   4.894
 7892SOL    HW224576   2.238   2.227   4.950
 7893SOL     OW24577   5.930   6.771   1.486
 7893SOL    HW124578   5.912   6.780   1.584
 7893SOL    HW224579   5.960   6.859   1.450
 7894SOL     OW24580   3.036   0.763   1.823
 7894SOL    HW124581   2.994   0.672   1.815
 7894SOL    HW224582   3.129   0.753   1.860
 7895SOL     OW24583   0.329   1.403   3.583
 7895SOL    HW124584   0.261   1.383   3.512
 7895SOL    HW224585   0.305   1.489   3.629
 7896SOL     OW24586   3.832   1.656   6.465
 7896SOL    HW124587   3.752   1.681   6.411
 7896SOL    HW224588   3.831   1.558   6.483
 7897SOL     OW24589   3.065   2.871   6.560
 7897SOL    HW124590   2.996   2.854   6.630
 7897SOL    HW224591   3.054   2.964   6.525
 7898SOL     OW24592   4.962   1.225   4.215
 7898SOL    HW124593   4.984   1.303   4.274
 7898SOL    HW224594   4.865   1.203   4.223
 7899SOL     OW24595   4.181   1.161   2.044
 7899SOL    HW124596   4.139   1.073   2.067
 7899SOL    HW224597   4.218   1.203   2.127
 7900SOL     OW24598   1.212   5.789   1.236
 7900SOL    HW124599   1.307   5.816   1.256
 7900SOL    HW224600   1.211   5.695   1.203
 7901SOL     OW24601   6.096   5.359   0.776
 7901SOL    HW124602   6.067   5.311   0.859
 7901SOL    HW224603   6.032   5.338   0.702
 7902SOL     OW24604   4.923   4.701   5.667
 7902SOL    HW124605   4.860   4.655   5.605
 7902SOL    HW224606   4.871   4.756   5.733
 7903SOL     OW24607   7.013   2.796   0.795
 7903SOL    HW124608   0.043   2.710   0.789
 7903SOL    HW224609   6.980   2.822   0.704
 7904SOL     OW24610   6.021   2.249   2.640
 7904SOL    HW124611   6.035   2.269   2.543
 7904SOL    HW224612   5.924   2.230   2.656
 7905SOL     OW24613   1.806   2.100   1.818
 7905SOL    HW124614   1.798   2.190   1.776
 7905SOL    HW224615   1.894   2.059   1.792
 7906SOL     OW24616   0.196   4.357   6.867
 7906SOL    HW124617   0.287   4.366   6.908
 7906SOL    HW224618   0.149   4.280   6.909
 7907SOL     OW24619   6.685   2.639   2.253
 7907SOL    HW124620   6.755   2.640   2.325
 7907SOL    HW224621   6.632   2.724   2.258
 7908SOL     OW24622   6.771   1.223   2.847
 7908SOL    HW124623   6.685   1.261   2.811
 7908SOL    HW224624   6.815   1.167   2.777
 7909SOL     OW24625   4.143   6.552   4.944
 7909SOL    HW124626   4.201   6.472   4.933
 7909SOL    HW224627   4.147   6.583   5.039
 7910SOL     OW24628   6.394   2.817   6.027
 7910SOL    HW124629   6.469   2.776   6.079
 7910SOL    HW224630   6.408   2.797   5.930
 7911SOL     OW24631   6.908   5.672   6.732
 7911SOL    HW124632   6.856   5.715   6.658
 7911SOL    HW224633   6.975   5.737   6.768
 7912SOL     OW24634   0.220   4.962   5.366
 7912SOL    HW124635   0.299   4.902   5.372
 7912SOL    HW224636   0.165   4.937   5.286
 7913SOL     OW24637   1.240   6.213   6.527
 7913SOL    HW124638   1.242   6.126   6.476
 7913SOL    HW224639   1.226   6.194   6.624
 7914SOL     OW24640   6.358   4.093   1.133
 7914SOL    HW124641   6.307   4.163   1.083
 7914SOL    HW224642   6.392   4.025   1.069
 7915SOL     OW24643   3.297   1.201   2.674
 7915SOL    HW124644   3.391   1.184   2.703
 7915SOL    HW224645   3.235   1.177   2.748
 7916SOL     OW24646   4.344   3.937   5.748
 7916SOL    HW124647   4.365   3.898   5.838
 7916SOL    HW224648   4.257   3.902   5.716
 7917SOL     OW24649   3.809   3.480   3.812
 7917SOL    HW124650   3.851   3.474   3.722
 7917SOL    HW224651   3.828   3.570   3.852
 7918SOL     OW24652   6.146   2.216   2.886
 7918SOL    HW124653   6.107   2.236   2.797
 7918SOL    HW224654   6.165   2.301   2.934
 7919SOL     OW24655   5.674   4.127   1.679
 7919SOL    HW124656   5.731   4.113   1.760
 7919SOL    HW224657   5.725   4.100   1.597
 7920SOL     OW24658   6.873   6.996   1.848
 7920SOL    HW124659   6.904   6.910   1.808
 7920SOL    HW224660   6.935   0.002   1.922
 7921SOL     OW24661   2.162   6.116   1.809
 7921SOL    HW124662   2.193   6.114   1.904
 7921SOL    HW224663   2.146   6.211   1.782
 7922SOL     OW24664   0.750   4.969   5.770
 7922SOL    HW124665   0.751   5.067   5.791
 7922SOL    HW224666   0.833   4.945   5.720
 7923SOL     OW24667   0.443   1.884   3.139
 7923SOL    HW124668   0.434   1.846   3.047
 7923SOL    HW224669   0.454   1.983   3.134
 7924SOL     OW24670   1.889   1.197   3.360
 7924SOL    HW124671   1.893   1.188   3.459
 7924SOL    HW224672   1.871   1.293   3.335
 7925SOL     OW24673   0.269   1.397   6.783
 7925SOL    HW124674   0.206   1.452   6.728
 7925SOL    HW224675   0.267   1.428   6.878
 7926SOL     OW24676   3.058   0.194   1.827
 7926SOL    HW124677   3.004   0.110   1.820
 7926SOL    HW224678   3.079   0.213   1.923
 7927SOL     OW24679   4.531   4.430   4.516
 7927SOL    HW124680   4.509   4.482   4.433
 7927SOL    HW224681   4.577   4.489   4.582
 7928SOL     OW24682   0.596   4.422   6.848
 7928SOL    HW124683   0.589   4.399   6.751
 7928SOL    HW224684   0.692   4.418   6.877
 7929SOL     OW24685   3.915   3.806   4.578
 7929SOL    HW124686   3.872   3.783   4.491
 7929SOL    HW224687   3.958   3.725   4.617
 7930SOL     OW24688   5.041   6.366   3.006
 7930SOL    HW124689   4.988   6.342   2.925
 7930SOL    HW224690   5.056   6.465   3.009
 7931SOL     OW24691   3.033   3.646   6.306
 7931SOL    HW124692   3.056   3.626   6.211
 7931SOL    HW224693   3.091   3.720   6.340
 7932SOL     OW24694   3.006   0.344   0.508
 7932SOL    HW124695   3.004   0.411   0.583
 7932SOL    HW224696   3.099   0.341   0.470
 7933SOL     OW24697   1.595   0.734   6.107
 7933SOL    HW124698   1.534   0.689   6.043
 7933SOL    HW224699   1.568   0.711   6.201
 7934SOL     OW24700   4.220   2.678   5.787
 7934SOL    HW124701   4.252   2.764   5.749
 7934SOL    HW224702   4.122   2.668   5.768
 7935SOL     OW24703   4.369   5.353   2.069
 7935SOL    HW124704   4.347   5.429   2.131
 7935SOL    HW224705   4.341   5.376   1.976
 7936SOL     OW24706   4.526   6.146   2.290
 7936SOL    HW124707   4.568   6.121   2.377
 7936SOL    HW224708   4.426   6.149   2.300
 7937SOL     OW24709   6.115   0.919   5.730
 7937SOL    HW124710   6.161   0.836   5.761
 7937SOL    HW224711   6.055   0.896   5.652
 7938SOL     OW24712   6.249   4.575   4.230
 7938SOL    HW124713   6.284   4.521   4.306
 7938SOL    HW224714   6.302   4.555   4.147
 7939SOL     OW24715   0.309   6.699   4.195
 7939SOL    HW124716   0.249   6.762   4.244
 7939SOL    HW224717   0.381   6.668   4.257
 7940SOL     OW24718   1.400   5.542   0.760
 7940SOL    HW124719   1.375   5.545   0.856
 7940SOL    HW224720   1.445   5.627   0.734
 7941SOL     OW24721   0.483   0.707   0.773
 7941SOL    HW124722   0.520   0.761   0.697
 7941SOL    HW224723   0.539   0.626   0.786
 7942SOL     OW24724   1.358   1.225   1.465
 7942SOL    HW124725   1.437   1.186   1.511
 7942SOL    HW224726   1.371   1.218   1.366
 7943SOL     OW24727   6.442   2.410   0.171
 7943SOL    HW124728   6.463   2.321   0.212
 7943SOL    HW224729   6.354   2.443   0.206
 7944SOL     OW24730   0.175   3.759   2.017
 7944SOL    HW124731   0.173   3.668   1.975
 7944SOL    HW224732   0.182   3.750   2.116
 7945SOL     OW24733   5.072   0.174   0.666
 7945SOL    HW124734   4.994   0.214   0.618
 7945SOL    HW224735   5.148   0.239   0.668
 7946SOL     OW24736   1.737   1.246   6.045
 7946SOL    HW124737   1.812   1.234   6.110
 7946SOL    HW224738   1.650   1.223   6.090
 7947SOL     OW24739   4.520   5.548   6.252
 7947SOL    HW124740   4.542   5.581   6.161
 7947SOL    HW224741   4.603   5.547   6.308
 7948SOL     OW24742   0.904   5.132   6.161
 7948SOL    HW124743   0.805   5.124   6.147
 7948SOL    HW224744   0.925   5.123   6.258
 7949SOL     OW24745   6.864   3.948   3.485
 7949SOL    HW124746   6.849   4.043   3.512
 7949SOL    HW224747   6.857   3.889   3.565
 7950SOL     OW24748   3.597   4.854   3.799
 7950SOL    HW124749   3.690   4.833   3.771
 7950SOL    HW224750   3.576   4.950   3.776
 7951SOL     OW24751   2.672   3.438   0.512
 7951SOL    HW124752   2.651   3.368   0.580
 7951SOL    HW224753   2.759   3.482   0.534
 7952SOL     OW24754   5.378   4.699   0.665
 7952SOL    HW124755   5.388   4.798   0.674
 7952SOL    HW224756   5.378   4.657   0.756
 7953SOL     OW24757   1.924   3.653   2.795
 7953SOL    HW124758   1.994   3.673   2.863
 7953SOL    HW224759   1.964   3.658   2.704
 7954SOL     OW24760   5.178   5.462   4.486
 7954SOL    HW124761   5.243   5.465   4.410
 7954SOL    HW224762   5.185   5.373   4.531
 7955SOL     OW24763   2.140   5.995   6.126
 7955SOL    HW124764   2.175   6.012   6.034
 7955SOL    HW224765   2.041   6.000   6.125
 7956SOL     OW24766   6.504   6.582   3.029
 7956SOL    HW124767   6.472   6.638   2.952
 7956SOL    HW224768   6.604   6.579   3.030
 7957SOL     OW24769   1.049   1.961   0.900
 7957SOL    HW124770   0.979   1.998   0.960
 7957SOL    HW224771   1.041   1.862   0.897
 7958SOL     OW24772   2.804   6.139   3.468
 7958SOL    HW124773   2.804   6.135   3.568
 7958SOL    HW224774   2.819   6.233   3.439
 7959SOL     OW24775   4.986   5.366   1.427
 7959SOL    HW124776   5.078   5.384   1.393
 7959SOL    HW224777   4.957   5.275   1.397
 7960SOL     OW24778   2.025   2.218   1.253
 7960SOL    HW124779   1.966   2.140   1.278
 7960SOL    HW224780   2.112   2.210   1.301
 7961SOL     OW24781   1.121   5.748   0.132
 7961SOL    HW124782   1.200   5.810   0.132
 7961SOL    HW224783   1.081   5.746   0.040
 7962SOL     OW24784   1.561   6.597   2.271
 7962SOL    HW124785   1.576   6.551   2.358
 7962SOL    HW224786   1.618   6.679   2.266
 7963SOL     OW24787   0.850   6.429   4.649
 7963SOL    HW124788   0.872   6.516   4.692
 7963SOL    HW224789   0.788   6.444   4.571
 7964SOL     OW24790   6.231   5.231   3.843
 7964SOL    HW124791   6.231   5.248   3.942
 7964SOL    HW224792   6.181   5.304   3.797
 7965SOL     OW24793   5.143   1.846   0.873
 7965SOL    HW124794   5.118   1.781   0.801
 7965SOL    HW224795   5.063   1.899   0.899
 7966SOL     OW24796   0.046   0.262   3.393
 7966SOL    HW124797   0.053   0.164   3.413
 7966SOL    HW224798   0.122   0.290   3.335
 7967SOL     OW24799   3.310   0.279   3.357
 7967SOL    HW124800   3.272   0.245   3.443
 7967SOL    HW224801   3.394   0.330   3.375
 7968SOL     OW24802   2.608   0.735   1.612
 7968SOL    HW124803   2.589   0.641   1.584
 7968SOL    HW224804   2.653   0.783   1.538
 7969SOL     OW24805   3.489   1.712   3.097
 7969SOL    HW124806   3.551   1.746   3.168
 7969SOL    HW224807   3.410   1.774   3.091
 7970SOL     OW24808   0.064   5.035   3.800
 7970SOL    HW124809   0.015   4.948   3.790
 7970SOL    HW224810   0.054   5.068   3.893
 7971SOL     OW24811   3.269   1.552   2.301
 7971SOL    HW124812   3.269   1.527   2.398
 7971SOL    HW224813   3.353   1.517   2.259
 7972SOL     OW24814   6.289   5.178   1.680
 7972SOL    HW124815   6.335   5.147   1.597
 7972SOL    HW224816   6.237   5.261   1.660
 7973SOL     OW24817   4.780   2.005   3.148
 7973SOL    HW124818   4.688   2.043   3.158
 7973SOL    HW224819   4.843   2.078   3.121
 7974SOL     OW24820   5.774   6.233   3.739
 7974SOL    HW124821   5.703   6.295   3.773
 7974SOL    HW224822   5.863   6.266   3.770
 7975SOL     OW24823   1.503   1.515   2.667
 7975SOL    HW124824   1.601   1.508   2.646
 7975SOL    HW224825   1.488   1.591   2.731
 7976SOL     OW24826   1.149   6.610   5.912
 7976SOL    HW124827   1.197   6.559   5.984
 7976SOL    HW224828   1.180   6.705   5.913
 7977SOL     OW24829   4.891   6.667   1.267
 7977SOL    HW124830   4.796   6.679   1.235
 7977SOL    HW224831   4.896   6.685   1.365
 7978SOL     OW24832   3.734   2.093   5.501
 7978SOL    HW124833   3.704   2.186   5.479
 7978SOL    HW224834   3.682   2.058   5.578
 7979SOL     OW24835   5.195   6.377   4.006
 7979SOL    HW124836   5.269   6.409   3.947
 7979SOL    HW224837   5.226   6.298   4.059
 7980SOL     OW24838   2.926   0.634   2.860
 7980SOL    HW124839   2.877   0.568   2.917
 7980SOL    HW224840   3.015   0.596   2.834
 7981SOL     OW24841   0.682   6.174   2.550
 7981SOL    HW124842   0.624   6.093   2.552
 7981SOL    HW224843   0.735   6.179   2.635
 7982SOL     OW24844   6.855   2.617   0.418
 7982SOL    HW124845   6.758   2.606   0.393
 7982SOL    HW224846   6.909   2.546   0.374
 7983SOL     OW24847   4.859   2.822   1.896
 7983SOL    HW124848   4.899   2.863   1.814
 7983SOL    HW224849   4.788   2.884   1.932
 7984SOL     OW24850   6.849   0.481   0.302
 7984SOL    HW124851   6.893   0.413   0.361
 7984SOL    HW224852   6.913   0.557   0.285
 7985SOL     OW24853   0.753   1.121   0.987
 7985SOL    HW124854   0.807   1.193   0.943
 7985SOL    HW224855   0.685   1.162   1.047
 7986SOL     OW24856   4.874   3.255   0.100
 7986SOL    HW124857   4.914   3.172   0.138
 7986SOL    HW224858   4.779   3.264   0.130
 7987SOL     OW24859   1.134   2.827   5.004
 7987SOL    HW124860   1.078   2.883   5.064
 7987SOL    HW224861   1.077   2.790   4.930
 7988SOL     OW24862   2.906   1.333   5.560
 7988SOL    HW124863   2.813   1.347   5.595
 7988SOL    HW224864   2.909   1.359   5.463
 7989SOL     OW24865   3.648   3.325   6.203
 7989SOL    HW124866   3.642   3.365   6.112
 7989SOL    HW224867   3.731   3.358   6.248
 7990SOL     OW24868   2.259   2.936   4.793
 7990SOL    HW124869   2.306   2.985   4.867
 7990SOL    HW224870   2.275   2.838   4.803
 7991SOL     OW24871   1.668   2.915   5.892
 7991SOL    HW124872   1.648   2.854   5.969
 7991SOL    HW224873   1.758   2.958   5.906
 7992SOL     OW24874   2.820   1.441   0.921
 7992SOL    HW124875   2.777   1.497   0.991
 7992SOL    HW224876   2.920   1.450   0.927
 7993SOL     OW24877   2.485   6.264   6.445
 7993SOL    HW124878   2.556   6.208   6.403
 7993SOL    HW224879   2.456   6.221   6.531
 7994SOL     OW24880   5.648   1.086   4.252
 7994SOL    HW124881   5.693   1.054   4.168
 7994SOL    HW224882   5.575   1.023   4.277
 7995SOL     OW24883   4.280   5.460   3.072
 7995SOL    HW124884   4.229   5.460   3.158
 7995SOL    HW224885   4.364   5.408   3.082
 7996SOL     OW24886   4.337   1.265   5.144
 7996SOL    HW124887   4.374   1.339   5.088
 7996SOL    HW224888   4.413   1.207   5.177
 7997SOL     OW24889   5.215   2.706   2.044
 7997SOL    HW124890   5.134   2.760   2.067
 7997SOL    HW224891   5.278   2.706   2.122
 7998SOL     OW24892   6.135   4.803   6.414
 7998SOL    HW124893   6.175   4.786   6.503
 7998SOL    HW224894   6.202   4.852   6.356
 7999SOL     OW24895   1.960   1.224   5.762
 7999SOL    HW124896   1.920   1.311   5.790
 7999SOL    HW224897   1.893   1.173   5.707
 8000SOL     OW24898   5.176   0.433   5.470
 8000SOL    HW124899   5.233   0.514   5.456
 8000SOL    HW224900   5.098   0.457   5.527
 8001SOL     OW24901   2.448   5.358   0.940
 8001SOL    HW124902   2.515   5.352   0.866
 8001SOL    HW224903   2.402   5.446   0.936
 8002SOL     OW24904   5.271   2.227   5.628
 8002SOL    HW124905   5.340   2.260   5.563
 8002SOL    HW224906   5.188   2.201   5.579
 8003SOL     OW24907   4.210   5.900   3.354
 8003SOL    HW124908   4.142   5.865   3.290
 8003SOL    HW224909   4.259   5.824   3.396
 8004SOL     OW24910   1.113   4.490   3.172
 8004SOL    HW124911   1.146   4.551   3.244
 8004SOL    HW224912   1.190   4.461   3.114
 8005SOL     OW24913   1.978   0.783   2.413
 8005SOL    HW124914   1.911   0.841   2.367
 8005SOL    HW224915   2.034   0.839   2.474
 8006SOL     OW24916   3.480   6.370   2.007
 8006SOL    HW124917   3.487   6.271   2.010
 8006SOL    HW224918   3.470   6.400   1.912
 8007SOL     OW24919   0.559   0.995   3.672
 8007SOL    HW124920   0.610   0.916   3.704
 8007SOL    HW224921   0.556   1.064   3.744
 8008SOL     OW24922   5.783   5.382   0.957
 8008SOL    HW124923   5.723   5.402   1.034
 8008SOL    HW224924   5.767   5.287   0.927
 8009SOL     OW24925   6.908   0.025   3.942
 8009SOL    HW124926   6.897   6.975   4.012
 8009SOL    HW224927   6.861   0.108   3.971
 8010SOL     OW24928   1.769   2.854   6.822
 8010SOL    HW124929   1.793   2.815   6.910
 8010SOL    HW224930   1.670   2.854   6.811
 8011SOL     OW24931   2.143   2.786   0.408
 8011SOL    HW124932   2.239   2.813   0.418
 8011SOL    HW224933   2.138   2.692   0.376
 8012SOL     OW24934   3.048   0.246   3.158
 8012SOL    HW124935   3.101   0.232   3.242
 8012SOL    HW224936   3.057   0.342   3.129
 8013SOL     OW24937   5.820   5.705   4.606
 8013SOL    HW124938   5.876   5.774   4.650
 8013SOL    HW224939   5.755   5.667   4.673
 8014SOL     OW24940   2.103   6.726   6.876
 8014SOL    HW124941   2.102   6.627   6.865
 8014SOL    HW224942   2.008   6.760   6.878
 8015SOL     OW24943   1.527   2.057   6.068
 8015SOL    HW124944   1.495   2.151   6.059
 8015SOL    HW224945   1.605   2.053   6.129
 8016SOL     OW24946   4.382   5.952   1.920
 8016SOL    HW124947   4.407   6.035   1.970
 8016SOL    HW224948   4.458   5.926   1.861
 8017SOL     OW24949   6.466   3.180   5.618
 8017SOL    HW124950   6.408   3.197   5.538
 8017SOL    HW224951   6.428   3.103   5.670
 8018SOL     OW24952   5.816   2.861   4.909
 8018SOL    HW124953   5.877   2.939   4.924
 8018SOL    HW224954   5.787   2.824   4.997
 8019SOL     OW24955   2.566   5.005   1.288
 8019SOL    HW124956   2.501   4.931   1.306
 8019SOL    HW224957   2.521   5.076   1.234
 8020SOL     OW24958   5.791   6.317   6.677
 8020SOL    HW124959   5.807   6.321   6.578
 8020SOL    HW224960   5.696   6.288   6.694
 8021SOL     OW24961   6.964   1.029   0.695
 8021SOL    HW124962   6.905   0.961   0.651
 8021SOL    HW224963   0.021   1.049   0.634
 8022SOL     OW24964   4.240   5.015   3.466
 8022SOL    HW124965   4.222   4.943   3.533
 8022SOL    HW224966   4.167   5.084   3.471
 8023SOL     OW24967   6.804   6.217   3.406
 8023SOL    HW124968   6.708   6.201   3.428
 8023SOL    HW224969   6.842   6.136   3.362
 8024SOL     OW24970   4.566   5.871   5.151
 8024SOL    HW124971   4.660   5.838   5.153
 8024SOL    HW224972   4.562   5.964   5.188
 8025SOL     OW24973   3.145   5.743   0.534
 8025SOL    HW124974   3.103   5.707   0.452
 8025SOL    HW224975   3.080   5.739   0.610
 8026SOL     OW24976   2.492   3.383   6.994
 8026SOL    HW124977   2.535   3.369   0.062
 8026SOL    HW224978   2.540   3.328   6.925
 8027SOL     OW24979   4.573   3.681   5.691
 8027SOL    HW124980   4.591   3.592   5.650
 8027SOL    HW224981   4.609   3.753   5.632
 8028SOL     OW24982   5.120   5.532   0.779
 8028SOL    HW124983   5.212   5.555   0.811
 8028SOL    HW224984   5.108   5.433   0.784
 8029SOL     OW24985   2.862   4.458   0.041
 8029SOL    HW124986   2.876   4.503   0.129
 8029SOL    HW224987   2.946   4.465   7.007
 8030SOL     OW24988   6.235   3.048   0.906
 8030SOL    HW124989   6.318   3.034   0.853
 8030SOL    HW224990   6.156   3.048   0.844
 8031SOL     OW24991   3.534   6.508   1.249
 8031SOL    HW124992   3.470   6.491   1.323
 8031SOL    HW224993   3.622   6.464   1.269
 8032SOL     OW24994   4.815   4.867   5.874
 8032SOL    HW124995   4.771   4.899   5.958
 8032SOL    HW224996   4.858   4.944   5.827
 8033SOL     OW24997   6.148   1.940   0.944
 8033SOL    HW124998   6.221   1.896   0.997
 8033SOL    HW224999   6.185   1.974   0.858
 8034SOL     OW25000   6.441   1.434   5.216
 8034SOL    HW125001   6.378   1.387   5.278
 8034SOL    HW225002   6.530   1.389   5.220
 8035SOL     OW25003   5.530   5.540   6.575
 8035SOL    HW125004   5.624   5.508   6.592
 8035SOL    HW225005   5.493   5.581   6.658
 8036SOL     OW25006   1.316   4.389   1.432
 8036SOL    HW125007   1.305   4.353   1.339
 8036SOL    HW225008   1.350   4.315   1.492
 8037SOL     OW25009   2.126   3.072   1.684
 8037SOL    HW125010   2.216   3.114   1.691
 8037SOL    HW225011   2.136   2.980   1.646
 8038SOL     OW25012   5.689   1.366   4.049
 8038SOL    HW125013   5.728   1.274   4.051
 8038SOL    HW225014   5.724   1.415   3.969
 8039SOL     OW25015   2.858   6.085   4.430
 8039SOL    HW125016   2.944   6.059   4.388
 8039SOL    HW225017   2.831   6.176   4.398
 8040SOL     OW25018   5.744   5.736   0.341
 8040SOL    HW125019   5.768   5.657   0.284
 8040SOL    HW225020   5.801   5.737   0.423
 8041SOL     OW25021   4.053   1.980   1.143
 8041SOL    HW125022   3.995   1.992   1.063
 8041SOL    HW225023   4.045   2.060   1.203
 8042SOL     OW25024   2.443   4.466   0.408
 8042SOL    HW125025   2.508   4.442   0.335
 8042SOL    HW225026   2.378   4.534   0.373
 8043SOL     OW25027   2.772   0.725   1.047
 8043SOL    HW125028   2.710   0.799   1.020
 8043SOL    HW225029   2.724   0.638   1.042
 8044SOL     OW25030   3.358   3.456   1.776
 8044SOL    HW125031   3.275   3.400   1.775
 8044SOL    HW225032   3.338   3.547   1.740
 8045SOL     OW25033   6.121   3.076   3.788
 8045SOL    HW125034   6.118   3.026   3.702
 8045SOL    HW225035   6.058   3.034   3.853
 8046SOL     OW25036   0.350   5.347   5.156
 8046SOL    HW125037   0.392   5.259   5.139
 8046SOL    HW225038   0.419   5.419   5.149
 8047SOL     OW25039   2.816   0.162   4.186
 8047SOL    HW125040   2.818   0.261   4.204
 8047SOL    HW225041   2.862   0.143   4.100
 8048SOL     OW25042   6.319   0.919   5.505
 8048SOL    HW125043   6.292   0.987   5.437
 8048SOL    HW225044   6.256   0.923   5.583
 8049SOL     OW25045   1.252   7.004   0.297
 8049SOL    HW125046   1.294   0.021   0.380
 8049SOL    HW225047   1.324   6.968   0.237
 8050SOL     OW25048   0.358   2.986   1.386
 8050SOL    HW125049   0.322   2.987   1.479
 8050SOL    HW225050   0.345   2.895   1.346
 8051SOL     OW25051   3.388   1.920   3.458
 8051SOL    HW125052   3.300   1.942   3.499
 8051SOL    HW225053   3.414   1.826   3.482
 8052SOL     OW25054   3.641   2.091   3.193
 8052SOL    HW125055   3.604   2.121   3.105
 8052SOL    HW225056   3.737   2.117   3.199
 8053SOL     OW25057   4.387   3.411   1.666
 8053SOL    HW125058   4.315   3.405   1.735
 8053SOL    HW225059   4.432   3.321   1.657
 8054SOL     OW25060   4.563   6.126   4.243
 8054SOL    HW125061   4.539   6.037   4.206
 8054SOL    HW225062   4.571   6.193   4.169
 8055SOL     OW25063   0.497   6.911   5.540
 8055SOL    HW125064   0.594   6.905   5.563
 8055SOL    HW225065   0.477   6.852   5.462
 8056SOL     OW25066   4.340   1.292   2.220
 8056SOL    HW125067   4.393   1.300   2.136
 8056SOL    HW225068   4.371   1.360   2.286
 8057SOL     OW25069   2.916   0.075   3.654
 8057SOL    HW125070   2.873   0.163   3.634
 8057SOL    HW225071   3.005   0.070   3.608
 8058SOL     OW25072   2.332   0.270   2.856
 8058SOL    HW125073   2.306   0.336   2.926
 8058SOL    HW225074   2.409   0.215   2.889
 8059SOL     OW25075   2.579   1.116   3.491
 8059SOL    HW125076   2.525   1.095   3.572
 8059SOL    HW225077   2.667   1.155   3.519
 8060SOL     OW25078   0.914   2.907   5.182
 8060SOL    HW125079   0.890   3.004   5.181
 8060SOL    HW225080   0.846   2.857   5.236
 8061SOL     OW25081   6.609   5.886   2.332
 8061SOL    HW125082   6.571   5.918   2.246
 8061SOL    HW225083   6.559   5.928   2.408
 8062SOL     OW25084   1.658   3.453   2.129
 8062SOL    HW125085   1.597   3.387   2.175
 8062SOL    HW225086   1.656   3.436   2.031
 8063SOL     OW25087   2.556   2.988   6.473
 8063SOL    HW125088   2.567   2.907   6.415
 8063SOL    HW225089   2.645   3.011   6.514
 8064SOL     OW25090   6.640   2.464   6.674
 8064SOL    HW125091   6.653   2.563   6.678
 8064SOL    HW225092   6.727   2.419   6.653
 8065SOL     OW25093   4.575   0.111   6.642
 8065SOL    HW125094   4.535   0.090   6.553
 8065SOL    HW225095   4.585   0.026   6.695
 8066SOL     OW25096   2.143   6.973   1.785
 8066SOL    HW125097   2.062   6.980   1.727
 8066SOL    HW225098   2.183   0.043   1.797
 8067SOL     OW25099   4.799   2.317   2.286
 8067SOL    HW125100   4.793   2.254   2.209
 8067SOL    HW225101   4.719   2.378   2.285
 8068SOL     OW25102   6.410   4.450   4.405
 8068SOL    HW125103   6.438   4.378   4.341
 8068SOL    HW225104   6.490   4.487   4.452
 8069SOL     OW25105   1.584   6.477   2.523
 8069SOL    HW125106   1.667   6.422   2.508
 8069SOL    HW225107   1.592   6.524   2.611
 8070SOL     OW25108   3.953   0.300   2.622
 8070SOL    HW125109   3.944   0.392   2.583
 8070SOL    HW225110   3.879   0.242   2.587
 8071SOL     OW25111   4.395   6.094   0.052
 8071SOL    HW125112   4.411   6.193   0.056
 8071SOL    HW225113   4.361   6.062   0.141
 8072SOL     OW25114   4.689   0.304   2.495
 8072SOL    HW125115   4.701   0.258   2.406
 8072SOL    HW225116   4.758   0.271   2.559
 8073SOL     OW25117   5.106   7.018   5.620
 8073SOL    HW125118   5.137   6.981   5.708
 8073SOL    HW225119   5.087   6.943   5.557
 8074SOL     OW25120   3.386   4.193   6.857
 8074SOL    HW125121   3.313   4.231   6.800
 8074SOL    HW225122   3.427   4.115   6.810
 8075SOL     OW25123   5.967   2.309   3.246
 8075SOL    HW125124   5.937   2.218   3.219
 8075SOL    HW225125   5.961   2.370   3.167
 8076SOL     OW25126   4.517   2.555   6.484
 8076SOL    HW125127   4.554   2.482   6.541
 8076SOL    HW225128   4.592   2.599   6.434
 8077SOL     OW25129   1.310   0.155   6.997
 8077SOL    HW125130   1.363   0.125   0.056
 8077SOL    HW225131   1.286   0.252   7.008
 8078SOL     OW25132   6.010   2.715   0.848
 8078SOL    HW125133   5.928   2.699   0.793
 8078SOL    HW225134   6.089   2.673   0.804
 8079SOL     OW25135   1.176   2.372   1.563
 8079SOL    HW125136   1.230   2.287   1.568
 8079SOL    HW225137   1.117   2.369   1.482
 8080SOL     OW25138   4.091   5.008   0.606
 8080SOL    HW125139   4.082   5.050   0.516
 8080SOL    HW225140   4.058   4.913   0.602
 8081SOL     OW25141   5.967   1.945   4.772
 8081SOL    HW125142   6.062   1.973   4.759
 8081SOL    HW225143   5.945   1.870   4.710
 8082SOL     OW25144   6.356   3.394   4.418
 8082SOL    HW125145   6.326   3.441   4.502
 8082SOL    HW225146   6.323   3.444   4.338
 8083SOL     OW25147   6.217   2.263   4.747
 8083SOL    HW125148   6.198   2.278   4.844
 8083SOL    HW225149   6.313   2.237   4.736
 8084SOL     OW25150   6.753   0.339   0.607
 8084SOL    HW125151   6.715   0.341   0.514
 8084SOL    HW225152   6.681   0.358   0.673
 8085SOL     OW25153   5.623   2.257   0.839
 8085SOL    HW125154   5.641   2.344   0.884
 8085SOL    HW225155   5.710   2.214   0.813
 8086SOL     OW25156   2.451   5.833   6.100
 8086SOL    HW125157   2.365   5.785   6.119
 8086SOL    HW225158   2.437   5.931   6.112
 8087SOL     OW25159   2.922   3.776   0.581
 8087SOL    HW125160   3.001   3.748   0.526
 8087SOL    HW225161   2.917   3.719   0.663
 8088SOL     OW25162   4.389   0.718   2.812
 8088SOL    HW125163   4.430   0.737   2.902
 8088SOL    HW225164   4.304   0.668   2.825
 8089SOL     OW25165   6.055   2.585   0.506
 8089SOL    HW125166   6.002   2.503   0.482
 8089SOL    HW225167   6.062   2.645   0.426
 8090SOL     OW25168   4.317   1.810   5.153
 8090SOL    HW125169   4.267   1.867   5.088
 8090SOL    HW225170   4.370   1.868   5.215
 8091SOL     OW25171   2.270   4.788   5.285
 8091SOL    HW125172   2.182   4.774   5.241
 8091SOL    HW225173   2.340   4.733   5.239
 8092SOL     OW25174   6.447   2.299   4.279
 8092SOL    HW125175   6.363   2.256   4.246
 8092SOL    HW225176   6.512   2.310   4.204
 8093SOL     OW25177   5.816   5.533   0.721
 8093SOL    HW125178   5.790   5.502   0.812
 8093SOL    HW225179   5.840   5.454   0.664
 8094SOL     OW25180   0.699   3.751   4.272
 8094SOL    HW125181   0.744   3.662   4.281
 8094SOL    HW225182   0.639   3.766   4.351
 8095SOL     OW25183   6.442   3.337   5.265
 8095SOL    HW125184   6.459   3.436   5.264
 8095SOL    HW225185   6.488   3.297   5.345
 8096SOL     OW25186   4.112   0.484   0.547
 8096SOL    HW125187   4.197   0.457   0.592
 8096SOL    HW225188   4.109   0.444   0.455
 8097SOL     OW25189   4.750   1.454   4.462
 8097SOL    HW125190   4.664   1.477   4.508
 8097SOL    HW225191   4.793   1.378   4.510
 8098SOL     OW25192   2.099   1.248   4.320
 8098SOL    HW125193   2.152   1.333   4.328
 8098SOL    HW225194   2.155   1.171   4.353
 8099SOL     OW25195   3.675   6.017   5.183
 8099SOL    HW125196   3.637   5.950   5.247
 8099SOL    HW225197   3.732   6.082   5.233
 8100SOL     OW25198   6.817   6.298   0.700
 8100SOL    HW125199   6.856   6.252   0.780
 8100SOL    HW225200   6.737   6.247   0.669
 8101SOL     OW25201   0.410   4.773   2.332
 8101SOL    HW125202   0.363   4.794   2.418
 8101SOL    HW225203   0.495   4.724   2.352
 8102SOL     OW25204   6.385   0.446   5.797
 8102SOL    HW125205   6.468   0.501   5.791
 8102SOL    HW225206   6.408   0.353   5.826
 8103SOL     OW25207   1.802   2.299   2.243
 8103SOL    HW125208   1.808   2.398   2.229
 8103SOL    HW225209   1.855   2.252   2.173
 8104SOL     OW25210   3.036   6.992   6.214
 8104SOL    HW125211   2.938   6.974   6.207
 8104SOL    HW225212   3.058   0.056   6.166
 8105SOL     OW25213   2.220   2.948   3.142
 8105SOL    HW125214   2.190   2.961   3.048
 8105SOL    HW225215   2.146   2.906   3.195
 8106SOL     OW25216   0.073   3.769   5.336
 8106SOL    HW125217   0.087   3.836   5.409
 8106SOL    HW225218   6.997   3.767   5.310
 8107SOL     OW25219   0.971   5.550   6.614
 8107SOL    HW125220   1.064   5.585   6.613
 8107SOL    HW225221   0.967   5.465   6.666
 8108SOL     OW25222   2.303   3.546   5.294
 8108SOL    HW125223   2.320   3.448   5.310
 8108SOL    HW225224   2.213   3.570   5.330
 8109SOL     OW25225   1.343   5.406   5.220
 8109SOL    HW125226   1.384   5.334   5.275
 8109SOL    HW225227   1.322   5.370   5.129
 8110SOL     OW25228   1.724   4.651   0.935
 8110SOL    HW125229   1.783   4.660   1.016
 8110SOL    HW225230   1.731   4.734   0.880
 8111SOL     OW25231   3.299   5.566   4.270
 8111SOL    HW125232   3.314   5.633   4.198
 8111SOL    HW225233   3.241   5.492   4.236
 8112SOL     OW25234   4.325   1.105   4.402
 8112SOL    HW125235   4.395   1.126   4.471
 8112SOL    HW225236   4.238   1.088   4.447
 8113SOL     OW25237   3.204   3.016   5.760
 8113SOL    HW125238   3.141   2.947   5.796
 8113SOL    HW225239   3.174   3.107   5.790
 8114SOL     OW25240   3.111   3.343   1.800
 8114SOL    HW125241   3.074   3.435   1.784
 8114SOL    HW225242   3.067   3.303   1.880
 8115SOL     OW25243   3.536   2.698   1.235
 8115SOL    HW125244   3.525   2.650   1.322
 8115SOL    HW225245   3.530   2.633   1.160
 8116SOL     OW25246   4.868   1.404   5.244
 8116SOL    HW125247   4.879   1.455   5.329
 8116SOL    HW225248   4.819   1.318   5.263
 8117SOL     OW25249   2.622   1.586   5.811
 8117SOL    HW125250   2.677   1.633   5.741
 8117SOL    HW225251   2.637   1.487   5.804
 8118SOL     OW25252   1.718   2.450   4.194
 8118SOL    HW125253   1.632   2.496   4.217
 8118SOL    HW225254   1.792   2.517   4.191
 8119SOL     OW25255   0.988   6.472   1.922
 8119SOL    HW125256   1.046   6.513   1.851
 8119SOL    HW225257   1.000   6.373   1.922
 8120SOL     OW25258   4.735   4.228   2.240
 8120SOL    HW125259   4.733   4.298   2.311
 8120SOL    HW225260   4.655   4.238   2.180
 8121SOL     OW25261   6.595   6.145   3.061
 8121SOL    HW125262   6.530   6.221   3.066
 8121SOL    HW225263   6.626   6.134   2.966
 8122SOL     OW25264   6.970   5.430   1.483
 8122SOL    HW125265   6.948   5.406   1.578
 8122SOL    HW225266   6.987   5.528   1.476
 8123SOL     OW25267   1.158   5.009   0.304
 8123SOL    HW125268   1.251   5.008   0.341
 8123SOL    HW225269   1.102   4.944   0.355
 8124SOL     OW25270   1.228   6.503   3.580
 8124SOL    HW125271   1.236   6.406   3.601
 8124SOL    HW225272   1.217   6.555   3.665
 8125SOL     OW25273   5.644   4.964   3.029
 8125SOL    HW125274   5.579   5.003   3.094
 8125SOL    HW225275   5.697   4.892   3.074
 8126SOL     OW25276   6.830   4.451   2.656
 8126SOL    HW125277   6.760   4.385   2.628
 8126SOL    HW225278   6.919   4.421   2.622
 8127SOL     OW25279   4.066   5.613   1.537
 8127SOL    HW125280   4.166   5.616   1.543
 8127SOL    HW225281   4.032   5.535   1.590
 8128SOL     OW25282   3.572   1.940   5.662
 8128SOL    HW125283   3.473   1.949   5.666
 8128SOL    HW225284   3.596   1.846   5.637
 8129SOL     OW25285   4.880   6.027   6.234
 8129SOL    HW125286   4.863   6.017   6.332
 8129SOL    HW225287   4.868   5.939   6.189
 8130SOL     OW25288   0.478   0.014   6.794
 8130SOL    HW125289   0.556   0.038   6.737
 8130SOL    HW225290   0.451   6.940   6.776
 8131SOL     OW25291   2.389   1.245   0.601
 8131SOL    HW125292   2.424   1.315   0.663
 8131SOL    HW225293   2.465   1.192   0.565
 8132SOL     OW25294   5.754   4.591   2.864
 8132SOL    HW125295   5.850   4.561   2.857
 8132SOL    HW225296   5.695   4.523   2.821
 8133SOL     OW25297   0.423   5.968   1.892
 8133SOL    HW125298   0.430   6.068   1.902
 8133SOL    HW225299   0.512   5.927   1.912
 8134SOL     OW25300   1.853   2.615   2.284
 8134SOL    HW125301   1.774   2.637   2.226
 8134SOL    HW225302   1.933   2.664   2.250
 8135SOL     OW25303   3.967   6.358   2.495
 8135SOL    HW125304   4.051   6.340   2.444
 8135SOL    HW225305   3.888   6.321   2.446
 8136SOL     OW25306   2.118   6.108   1.462
 8136SOL    HW125307   2.207   6.075   1.493
 8136SOL    HW225308   2.052   6.033   1.462
 8137SOL     OW25309   2.890   3.685   5.040
 8137SOL    HW125310   2.876   3.716   4.946
 8137SOL    HW225311   2.932   3.759   5.093
 8138SOL     OW25312   4.623   1.392   3.401
 8138SOL    HW125313   4.537   1.421   3.359
 8138SOL    HW225314   4.697   1.402   3.335
 8139SOL     OW25315   1.399   3.231   5.442
 8139SOL    HW125316   1.401   3.210   5.344
 8139SOL    HW225317   1.414   3.146   5.494
 8140SOL     OW25318   4.341   0.528   0.699
 8140SOL    HW125319   4.260   0.541   0.757
 8140SOL    HW225320   4.421   0.511   0.757
 8141SOL     OW25321   5.904   0.899   5.551
 8141SOL    HW125322   5.850   0.845   5.615
 8141SOL    HW225323   5.851   0.913   5.467
 8142SOL     OW25324   2.506   5.795   0.761
 8142SOL    HW125325   2.475   5.793   0.665
 8142SOL    HW225326   2.604   5.816   0.764
 8143SOL     OW25327   6.274   4.606   0.337
 8143SOL    HW125328   6.236   4.546   0.266
 8143SOL    HW225329   6.294   4.552   0.419
 8144SOL     OW25330   1.216   5.444   0.041
 8144SOL    HW125331   1.155   5.400   6.996
 8144SOL    HW225332   1.178   5.435   0.133
 8145SOL     OW25333   5.288   5.426   6.477
 8145SOL    HW125334   5.383   5.420   6.508
 8145SOL    HW225335   5.263   5.341   6.430
 8146SOL     OW25336   6.842   6.142   4.843
 8146SOL    HW125337   6.805   6.223   4.797
 8146SOL    HW225338   6.941   6.139   4.830
 8147SOL     OW25339   2.631   0.551   5.224
 8147SOL    HW125340   2.656   0.498   5.305
 8147SOL    HW225341   2.626   0.648   5.247
 8148SOL     OW25342   5.015   4.706   0.680
 8148SOL    HW125343   5.027   4.607   0.675
 8148SOL    HW225344   4.990   4.741   0.590
 8149SOL     OW25345   1.508   6.894   5.274
 8149SOL    HW125346   1.469   6.985   5.261
 8149SOL    HW225347   1.551   6.864   5.188
 8150SOL     OW25348   0.409   3.783   0.438
 8150SOL    HW125349   0.313   3.793   0.414
 8150SOL    HW225350   0.434   3.852   0.506
 8151SOL     OW25351   6.452   4.963   3.084
 8151SOL    HW125352   6.440   5.043   3.143
 8151SOL    HW225353   6.497   4.991   2.999
 8152SOL     OW25354   5.340   1.510   3.339
 8152SOL    HW125355   5.342   1.602   3.379
 8152SOL    HW225356   5.398   1.508   3.258
 8153SOL     OW25357   0.056   1.675   1.638
 8153SOL    HW125358   0.125   1.612   1.601
 8153SOL    HW225359   7.014   1.702   1.565
 8154SOL     OW25360   1.226   0.803   3.016
 8154SOL    HW125361   1.260   0.891   2.985
 8154SOL    HW225362   1.126   0.804   3.016
 8155SOL     OW25363   1.841   5.132   4.013
 8155SOL    HW125364   1.865   5.225   4.040
 8155SOL    HW225365   1.833   5.074   4.095
 8156SOL     OW25366   1.302   3.811   0.747
 8156SOL    HW125367   1.232   3.816   0.676
 8156SOL    HW225368   1.267   3.759   0.825
 8157SOL     OW25369   6.252   4.966   4.782
 8157SOL    HW125370   6.334   5.024   4.785
 8157SOL    HW225371   6.252   4.904   4.861
 8158SOL     OW25372   5.979   4.901   6.175
 8158SOL    HW125373   5.967   4.989   6.129
 8158SOL    HW225374   5.990   4.917   6.273
 8159SOL     OW25375   2.794   0.063   4.865
 8159SOL    HW125376   2.803   0.099   4.958
 8159SOL    HW225377   2.871   0.097   4.810
 8160SOL     OW25378   5.632   2.132   2.825
 8160SOL    HW125379   5.676   2.043   2.818
 8160SOL    HW225380   5.696   2.198   2.865
 8161SOL     OW25381   6.587   2.931   1.802
 8161SOL    HW125382   6.584   2.845   1.852
 8161SOL    HW225383   6.630   2.916   1.713
 8162SOL     OW25384   1.233   5.821   5.286
 8162SOL    HW125385   1.291   5.901   5.271
 8162SOL    HW225386   1.231   5.765   5.204
 8163SOL     OW25387   3.809   4.920   5.300
 8163SOL    HW125388   3.710   4.923   5.288
 8163SOL    HW225389   3.854   4.919   5.211
 8164SOL     OW25390   5.392   2.161   0.752
 8164SOL    HW125391   5.320   2.192   0.814
 8164SOL    HW225392   5.479   2.203   0.779
 8165SOL     OW25393   0.623   1.638   5.965
 8165SOL    HW125394   0.560   1.681   5.901
 8165SOL    HW225395   0.693   1.704   5.993
 8166SOL     OW25396   2.659   1.666   4.703
 8166SOL    HW125397   2.728   1.594   4.692
 8166SOL    HW225398   2.688   1.748   4.654
 8167SOL     OW25399   2.021   2.832   3.317
 8167SOL    HW125400   2.035   2.744   3.362
 8167SOL    HW225401   2.071   2.903   3.367
 8168SOL     OW25402   1.555   6.528   2.888
 8168SOL    HW125403   1.578   6.465   2.814
 8168SOL    HW225404   1.613   6.609   2.883
 8169SOL     OW25405   4.859   3.953   0.743
 8169SOL    HW125406   4.879   3.856   0.731
 8169SOL    HW225407   4.922   4.008   0.687
 8170SOL     OW25408   0.305   4.213   2.692
 8170SOL    HW125409   0.369   4.178   2.623
 8170SOL    HW225410   0.332   4.180   2.783
 8171SOL     OW25411   2.597   1.836   1.323
 8171SOL    HW125412   2.646   1.838   1.410
 8171SOL    HW225413   2.499   1.844   1.340
 8172SOL     OW25414   1.406   4.019   1.053
 8172SOL    HW125415   1.377   3.925   1.072
 8172SOL    HW225416   1.486   4.018   0.994
 8173SOL     OW25417   6.079   0.315   1.718
 8173SOL    HW125418   6.013   0.365   1.663
 8173SOL    HW225419   6.043   0.304   1.811
 8174SOL     OW25420   2.013   6.711   3.712
 8174SOL    HW125421   2.014   6.614   3.689
 8174SOL    HW225422   2.101   6.752   3.689
 8175SOL     OW25423   0.456   2.205   5.495
 8175SOL    HW125424   0.480   2.156   5.579
 8175SOL    HW225425   0.374   2.163   5.455
 8176SOL     OW25426   2.685   4.790   0.224
 8176SOL    HW125427   2.616   4.728   0.187
 8176SOL    HW225428   2.690   4.779   0.323
 8177SOL     OW25429   2.861   1.110   2.995
 8177SOL    HW125430   2.842   1.097   2.898
 8177SOL    HW225431   2.790   1.168   3.035
 8178SOL     OW25432   2.044   6.604   0.842
 8178SOL    HW125433   1.954   6.571   0.871
 8178SOL    HW225434   2.041   6.630   0.746
 8179SOL     OW25435   5.620   0.338   3.671
 8179SOL    HW125436   5.713   0.373   3.661
 8179SOL    HW225437   5.622   0.257   3.730
 8180SOL     OW25438   4.604   5.695   0.608
 8180SOL    HW125439   4.603   5.794   0.591
 8180SOL    HW225440   4.624   5.647   0.522
 8181SOL     OW25441   6.394   0.727   6.354
 8181SOL    HW125442   6.305   0.684   6.369
 8181SOL    HW225443   6.400   0.759   6.260
 8182SOL     OW25444   3.625   3.791   3.292
 8182SOL    HW125445   3.540   3.840   3.313
 8182SOL    HW225446   3.633   3.780   3.193
 8183SOL     OW25447   6.703   0.343   5.580
 8183SOL    HW125448   6.618   0.326   5.630
 8183SOL    HW225449   6.697   0.301   5.489
 8184SOL     OW25450   0.444   6.014   5.566
 8184SOL    HW125451   0.421   5.988   5.473
 8184SOL    HW225452   0.531   5.972   5.592
 8185SOL     OW25453   0.558   5.991   5.237
 8185SOL    HW125454   0.617   5.957   5.164
 8185SOL    HW225455   0.598   6.074   5.275
 8186SOL     OW25456   1.491   5.195   0.688
 8186SOL    HW125457   1.401   5.185   0.646
 8186SOL    HW225458   1.488   5.163   0.782
 8187SOL     OW25459   1.759   6.751   4.777
 8187SOL    HW125460   1.810   6.665   4.786
 8187SOL    HW225461   1.820   6.822   4.741
 8188SOL     OW25462   1.872   3.243   2.539
 8188SOL    HW125463   1.932   3.168   2.564
 8188SOL    HW225464   1.804   3.257   2.611
 8189SOL     OW25465   5.830   4.807   4.100
 8189SOL    HW125466   5.760   4.808   4.029
 8189SOL    HW225467   5.796   4.856   4.181
 8190SOL     OW25468   6.495   3.709   2.854
 8190SOL    HW125469   6.422   3.648   2.824
 8190SOL    HW225470   6.483   3.799   2.812
 8191SOL     OW25471   4.143   4.730   0.896
 8191SOL    HW125472   4.217   4.792   0.921
 8191SOL    HW225473   4.132   4.661   0.968
 8192SOL     OW25474   0.923   6.200   3.775
 8192SOL    HW125475   0.991   6.250   3.722
 8192SOL    HW225476   0.845   6.260   3.794
 8193SOL     OW25477   0.462   5.174   3.842
 8193SOL    HW125478   0.557   5.141   3.848
 8193SOL    HW225479   0.407   5.107   3.792
 8194SOL     OW25480   5.177   0.478   1.567
 8194SOL    HW125481   5.120   0.400   1.595
 8194SOL    HW225482   5.229   0.453   1.485
 8195SOL     OW25483   6.161   6.769   3.634
 8195SOL    HW125484   6.186   6.863   3.609
 8195SOL    HW225485   6.240   6.709   3.622
 8196SOL     OW25486   5.249   0.921   2.058
 8196SOL    HW125487   5.216   1.015   2.068
 8196SOL    HW225488   5.334   0.910   2.110
 8197SOL     OW25489   4.399   1.900   3.268
 8197SOL    HW125490   4.299   1.894   3.264
 8197SOL    HW225491   4.427   1.917   3.363
 8198SOL     OW25492   1.332   6.070   1.370
 8198SOL    HW125493   1.383   5.990   1.400
 8198SOL    HW225494   1.234   6.051   1.373
 8199SOL     OW25495   5.625   2.266   0.509
 8199SOL    HW125496   5.685   2.186   0.508
 8199SOL    HW225497   5.539   2.243   0.554
 8200SOL     OW25498   5.054   4.175   0.772
 8200SOL    HW125499   5.013   4.239   0.837
 8200SOL    HW225500   5.106   4.105   0.821
 8201SOL     OW25501   5.769   0.086   5.288
 8201SOL    HW125502   5.811   0.176   5.283
 8201SOL    HW225503   5.674   0.092   5.258
 8202SOL     OW25504   1.326   6.346   1.733
 8202SOL    HW125505   1.306   6.254   1.768
 8202SOL    HW225506   1.372   6.338   1.645
 8203SOL     OW25507   1.887   3.347   0.982
 8203SOL    HW125508   1.904   3.284   1.057
 8203SOL    HW225509   1.789   3.368   0.977
 8204SOL     OW25510   2.033   3.465   0.801
 8204SOL    HW125511   2.132   3.447   0.800
 8204SOL    HW225512   1.990   3.409   0.871
 8205SOL     OW25513   0.365   4.098   6.816
 8205SOL    HW125514   0.299   4.069   6.885
 8205SOL    HW225515   0.451   4.121   6.861
 8206SOL     OW25516   3.139   1.303   1.267
 8206SOL    HW125517   3.198   1.251   1.329
 8206SOL    HW225518   3.044   1.295   1.297
 8207SOL     OW25519   3.928   3.648   4.030
 8207SOL    HW125520   3.871   3.568   4.048
 8207SOL    HW225521   3.870   3.727   4.010
 8208SOL     OW25522   1.956   0.688   7.004
 8208SOL    HW125523   1.883   0.743   0.023
 8208SOL    HW225524   1.983   0.616   0.047
 8209SOL     OW25525   5.940   2.193   4.412
 8209SOL    HW125526   5.884   2.192   4.495
 8209SOL    HW225527   6.030   2.231   4.432
 8210SOL     OW25528   2.132   2.488   6.194
 8210SOL    HW125529   2.200   2.455   6.128
 8210SOL    HW225530   2.154   2.582   6.220
 8211SOL     OW25531   4.618   4.421   1.425
 8211SOL    HW125532   4.623   4.325   1.400
 8211SOL    HW225533   4.626   4.430   1.525
 8212SOL     OW25534   2.340   2.622   2.796
 8212SOL    HW125535   2.374   2.530   2.778
 8212SOL    HW225536   2.336   2.636   2.895
 8213SOL     OW25537   5.987   4.431   0.959
 8213SOL    HW125538   6.024   4.505   0.904
 8213SOL    HW225539   5.988   4.457   1.056
 8214SOL     OW25540   5.445   3.608   2.919
 8214SOL    HW125541   5.408   3.537   2.859
 8214SOL    HW225542   5.536   3.581   2.950
 8215SOL     OW25543   3.235   5.329   2.518
 8215SOL    HW125544   3.266   5.236   2.538
 8215SOL    HW225545   3.278   5.361   2.433
 8216SOL     OW25546   5.369   3.272   3.356
 8216SOL    HW125547   5.388   3.309   3.447
 8216SOL    HW225548   5.282   3.309   3.322
 8217SOL     OW25549   1.709   6.146   0.909
 8217SOL    HW125550   1.658   6.219   0.954
 8217SOL    HW225551   1.801   6.139   0.947
 8218SOL     OW25552   5.779   2.107   0.228
 8218SOL    HW125553   5.728   2.193   0.217
 8218SOL    HW225554   5.853   2.103   0.160
 8219SOL     OW25555   5.704   1.407   0.020
 8219SOL    HW125556   5.738   1.476   6.976
 8219SOL    HW225557   5.654   1.337   6.991
 8220SOL     OW25558   4.160   3.721   1.423
 8220SOL    HW125559   4.252   3.681   1.422
 8220SOL    HW225560   4.149   3.779   1.503
 8221SOL     OW25561   5.196   4.224   2.959
 8221SOL    HW125562   5.106   4.248   2.997
 8221SOL    HW225563   5.193   4.235   2.860
 8222SOL     OW25564   6.286   1.246   2.755
 8222SOL    HW125565   6.277   1.155   2.795
 8222SOL    HW225566   6.205   1.300   2.778
 8223SOL     OW25567   0.082   5.536   6.383
 8223SOL    HW125568   0.153   5.499   6.322
 8223SOL    HW225569   0.090   5.635   6.386
 8224SOL     OW25570   1.041   3.555   2.875
 8224SOL    HW125571   0.961   3.586   2.824
 8224SOL    HW225572   1.068   3.625   2.941
 8225SOL     OW25573   4.279   0.779   0.515
 8225SOL    HW125574   4.204   0.728   0.558
 8225SOL    HW225575   4.366   0.742   0.546
 8226SOL     OW25576   4.089   0.380   0.290
 8226SOL    HW125577   4.100   0.287   0.323
 8226SOL    HW225578   4.039   0.379   0.204
 8227SOL     OW25579   5.803   3.885   3.033
 8227SOL    HW125580   5.703   3.877   3.043
 8227SOL    HW225581   5.846   3.798   3.060
 8228SOL     OW25582   6.871   1.883   4.232
 8228SOL    HW125583   6.926   1.865   4.314
 8228SOL    HW225584   6.796   1.945   4.255
 8229SOL     OW25585   4.152   5.615   1.004
 8229SOL    HW125586   4.189   5.548   1.069
 8229SOL    HW225587   4.171   5.708   1.037
 8230SOL     OW25588   4.857   6.847   3.893
 8230SOL    HW125589   4.830   6.922   3.833
 8230SOL    HW225590   4.928   6.792   3.848
 8231SOL     OW25591   3.915   6.144   1.623
 8231SOL    HW125592   3.924   6.047   1.602
 8231SOL    HW225593   4.001   6.191   1.604
 8232SOL     OW25594   2.345   1.805   6.799
 8232SOL    HW125595   2.359   1.837   6.893
 8232SOL    HW225596   2.362   1.707   6.795
 8233SOL     OW25597   0.235   5.161   5.983
 8233SOL    HW125598   0.291   5.138   5.902
 8233SOL    HW225599   0.295   5.186   6.059
 8234SOL     OW25600   3.065   3.256   0.161
 8234SOL    HW125601   3.016   3.249   0.248
 8234SOL    HW225602   3.163   3.264   0.179
 8235SOL     OW25603   4.359   2.413   0.087
 8235SOL    HW125604   4.445   2.378   0.124
 8235SOL    HW225605   4.321   2.482   0.149
 8236SOL     OW25606   5.687   2.451   0.997
 8236SOL    HW125607   5.774   2.465   1.044
 8236SOL    HW225608   5.619   2.417   1.062
 8237SOL     OW25609   3.965   6.533   5.378
 8237SOL    HW125610   3.933   6.450   5.424
 8237SOL    HW225611   3.972   6.607   5.445
 8238SOL     OW25612   1.877   1.066   0.199
 8238SOL    HW125613   1.959   1.122   0.189
 8238SOL    HW225614   1.842   1.074   0.293
 8239SOL     OW25615   6.404   0.917   0.142
 8239SOL    HW125616   6.383   0.821   0.126
 8239SOL    HW225617   6.461   0.952   0.068
 8240SOL     OW25618   4.042   3.352   3.658
 8240SOL    HW125619   4.026   3.257   3.684
 8240SOL    HW225620   4.081   3.402   3.735
 8241SOL     OW25621   4.318   6.645   1.761
 8241SOL    HW125622   4.363   6.622   1.847
 8241SOL    HW225623   4.270   6.732   1.770
 8242SOL     OW25624   1.046   3.461   5.463
 8242SOL    HW125625   0.947   3.462   5.476
 8242SOL    HW225626   1.068   3.419   5.375
 8243SOL     OW25627   0.887   3.480   5.073
 8243SOL    HW125628   0.929   3.452   5.159
 8243SOL    HW225629   0.853   3.400   5.024
 8244SOL     OW25630   1.789   5.595   4.513
 8244SOL    HW125631   1.725   5.627   4.444
 8244SOL    HW225632   1.797   5.664   4.586
 8245SOL     OW25633   3.769   3.326   0.678
 8245SOL    HW125634   3.699   3.255   0.690
 8245SOL    HW225635   3.836   3.295   0.610
 8246SOL     OW25636   4.644   3.832   5.292
 8246SOL    HW125637   4.566   3.872   5.340
 8246SOL    HW225638   4.624   3.737   5.269
 8247SOL     OW25639   0.987   6.614   0.857
 8247SOL    HW125640   0.964   6.709   0.836
 8247SOL    HW225641   0.916   6.554   0.821
 8248SOL     OW25642   0.218   4.532   3.829
 8248SOL    HW125643   0.237   4.438   3.799
 8248SOL    HW225644   0.149   4.531   3.901
 8249SOL     OW25645   1.550   5.353   3.021
 8249SOL    HW125646   1.632   5.399   3.055
 8249SOL    HW225647   1.475   5.418   3.014
 8250SOL     OW25648   3.608   3.775   1.990
 8250SOL    HW125649   3.629   3.685   1.951
 8250SOL    HW225650   3.512   3.779   2.016
 8251SOL     OW25651   5.854   1.410   4.783
 8251SOL    HW125652   5.889   1.433   4.874
 8251SOL    HW225653   5.924   1.429   4.714
 8252SOL     OW25654   1.231   3.685   4.101
 8252SOL    HW125655   1.208   3.723   4.190
 8252SOL    HW225656   1.157   3.702   4.036
 8253SOL     OW25657   2.480   2.771   5.262
 8253SOL    HW125658   2.549   2.759   5.334
 8253SOL    HW225659   2.482   2.865   5.230
 8254SOL     OW25660   4.322   5.583   3.525
 8254SOL    HW125661   4.259   5.574   3.448
 8254SOL    HW225662   4.344   5.493   3.562
 8255SOL     OW25663   3.847   4.861   3.637
 8255SOL    HW125664   3.774   4.846   3.570
 8255SOL    HW225665   3.842   4.955   3.670
 8256SOL     OW25666   5.818   3.000   4.222
 8256SOL    HW125667   5.858   3.085   4.258
 8256SOL    HW225668   5.872   2.922   4.253
 8257SOL     OW25669   6.009   4.820   4.731
 8257SOL    HW125670   5.966   4.822   4.640
 8257SOL    HW225671   6.092   4.875   4.729
 8258SOL     OW25672   5.077   1.578   0.361
 8258SOL    HW125673   5.037   1.670   0.364
 8258SOL    HW225674   5.104   1.551   0.453
 8259SOL     OW25675   4.196   1.146   1.419
 8259SOL    HW125676   4.236   1.055   1.426
 8259SOL    HW225677   4.268   1.215   1.421
 8260SOL     OW25678   2.717   5.691   0.096
 8260SOL    HW125679   2.700   5.748   0.176
 8260SOL    HW225680   2.766   5.744   0.027
 8261SOL     OW25681   5.265   0.816   1.417
 8261SOL    HW125682   5.188   0.840   1.476
 8261SOL    HW225683   5.337   0.774   1.473
 8262SOL     OW25684   0.991   2.364   0.551
 8262SOL    HW125685   0.918   2.406   0.497
 8262SOL    HW225686   1.036   2.293   0.496
 8263SOL     OW25687   5.919   1.395   0.883
 8263SOL    HW125688   5.876   1.361   0.799
 8263SOL    HW225689   5.972   1.477   0.864
 8264SOL     OW25690   1.710   4.576   2.472
 8264SOL    HW125691   1.783   4.507   2.482
 8264SOL    HW225692   1.676   4.576   2.379
 8265SOL     OW25693   1.803   0.999   2.330
 8265SOL    HW125694   1.787   1.037   2.239
 8265SOL    HW225695   1.887   1.036   2.368
 8266SOL     OW25696   2.995   0.754   3.136
 8266SOL    HW125697   2.969   0.788   3.045
 8266SOL    HW225698   3.062   0.816   3.176
 8267SOL     OW25699   0.497   3.540   0.595
 8267SOL    HW125700   0.452   3.610   0.540
 8267SOL    HW225701   0.479   3.450   0.555
 8268SOL     OW25702   3.549   5.962   6.391
 8268SOL    HW125703   3.475   5.944   6.456
 8268SOL    HW225704   3.552   6.060   6.371
 8269SOL     OW25705   6.457   1.917   1.022
 8269SOL    HW125706   6.528   1.950   0.960
 8269SOL    HW225707   6.455   1.974   1.104
 8270SOL     OW25708   3.185   6.419   4.134
 8270SOL    HW125709   3.273   6.391   4.172
 8270SOL    HW225710   3.176   6.382   4.042
 8271SOL     OW25711   6.400   2.437   2.474
 8271SOL    HW125712   6.446   2.436   2.563
 8271SOL    HW225713   6.329   2.366   2.473
 8272SOL     OW25714   3.899   1.278   4.492
 8272SOL    HW125715   3.978   1.316   4.540
 8272SOL    HW225716   3.827   1.348   4.487
 8273SOL     OW25717   2.110   6.828   1.437
 8273SOL    HW125718   2.158   6.915   1.420
 8273SOL    HW225719   2.023   6.846   1.483
 8274SOL     OW25720   5.264   4.329   3.582
 8274SOL    HW125721   5.178   4.363   3.621
 8274SOL    HW225722   5.246   4.244   3.532
 8275SOL     OW25723   4.853   2.123   6.466
 8275SOL    HW125724   4.774   2.152   6.412
 8275SOL    HW225725   4.835   2.032   6.504
 8276SOL     OW25726   0.185   1.830   2.911
 8276SOL    HW125727   0.160   1.747   2.862
 8276SOL    HW225728   0.152   1.824   3.005
 8277SOL     OW25729   6.416   0.786   6.910
 8277SOL    HW125730   6.321   0.755   6.921
 8277SOL    HW225731   6.477   0.707   6.920
 8278SOL     OW25732   1.816   2.603   6.626
 8278SOL    HW125733   1.757   2.639   6.698
 8278SOL    HW225734   1.766   2.601   6.539
 8279SOL     OW25735   0.142   5.869   3.875
 8279SOL    HW125736   0.082   5.886   3.797
 8279SOL    HW225737   0.169   5.957   3.915
 8280SOL     OW25738   3.186   1.849   6.042
 8280SOL    HW125739   3.208   1.896   6.127
 8280SOL    HW225740   3.271   1.816   6.000
 8281SOL     OW25741   5.440   5.675   2.635
 8281SOL    HW125742   5.449   5.693   2.733
 8281SOL    HW225743   5.501   5.735   2.584
 8282SOL     OW25744   5.404   2.645   6.356
 8282SOL    HW125745   5.486   2.703   6.353
 8282SOL    HW225746   5.368   2.643   6.449
 8283SOL     OW25747   2.141   2.376   5.691
 8283SOL    HW125748   2.177   2.469   5.684
 8283SOL    HW225749   2.198   2.314   5.637
 8284SOL     OW25750   6.508   4.080   1.763
 8284SOL    HW125751   6.413   4.051   1.756
 8284SOL    HW225752   6.512   4.174   1.798
 8285SOL     OW25753   4.106   3.249   4.045
 8285SOL    HW125754   4.141   3.315   4.112
 8285SOL    HW225755   4.097   3.159   4.089
 8286SOL     OW25756   6.895   1.746   6.291
 8286SOL    HW125757   6.874   1.803   6.370
 8286SOL    HW225758   6.949   1.798   6.225
 8287SOL     OW25759   1.439   6.006   4.290
 8287SOL    HW125760   1.388   5.955   4.221
 8287SOL    HW225761   1.483   6.085   4.247
 8288SOL     OW25762   2.931   2.081   3.222
 8288SOL    HW125763   2.852   2.099   3.164
 8288SOL    HW225764   3.015   2.095   3.170
 8289SOL     OW25765   0.107   5.968   6.603
 8289SOL    HW125766   0.169   5.893   6.583
 8289SOL    HW225767   0.013   5.936   6.598
 8290SOL     OW25768   6.650   2.384   0.544
 8290SOL    HW125769   6.669   2.378   0.446
 8290SOL    HW225770   6.725   2.344   0.596
 8291SOL     OW25771   3.991   6.975   1.298
 8291SOL    HW125772   4.063   6.948   1.234
 8291SOL    HW225773   3.991   0.054   1.308
 8292SOL     OW25774   2.777   6.915   6.225
 8292SOL    HW125775   2.756   6.937   6.320
 8292SOL    HW225776   2.748   6.990   6.166
 8293SOL     OW25777   5.558   5.490   4.967
 8293SOL    HW125778   5.514   5.487   5.057
 8293SOL    HW225779   5.488   5.484   4.896
 8294SOL     OW25780   5.284   2.817   0.101
 8294SOL    HW125781   5.376   2.810   0.062
 8294SOL    HW225782   5.222   2.757   0.051
 8295SOL     OW25783   4.727   3.585   6.842
 8295SOL    HW125784   4.682   3.620   6.924
 8295SOL    HW225785   4.714   3.649   6.766
 8296SOL     OW25786   1.328   4.875   6.490
 8296SOL    HW125787   1.370   4.948   6.544
 8296SOL    HW225788   1.282   4.916   6.411
 8297SOL     OW25789   0.828   2.668   3.964
 8297SOL    HW125790   0.795   2.701   3.875
 8297SOL    HW225791   0.867   2.745   4.015
 8298SOL     OW25792   5.158   1.432   2.171
 8298SOL    HW125793   5.245   1.442   2.123
 8298SOL    HW225794   5.109   1.520   2.169
 8299SOL     OW25795   6.754   2.316   1.275
 8299SOL    HW125796   6.756   2.333   1.373
 8299SOL    HW225797   6.764   2.218   1.258
 8300SOL     OW25798   0.570   5.180   3.432
 8300SOL    HW125799   0.659   5.211   3.464
 8300SOL    HW225800   0.499   5.217   3.492
 8301SOL     OW25801   3.455   2.724   6.588
 8301SOL    HW125802   3.538   2.774   6.611
 8301SOL    HW225803   3.468   2.627   6.608
 8302SOL     OW25804   5.892   5.733   5.965
 8302SOL    HW125805   5.832   5.734   5.886
 8302SOL    HW225806   5.987   5.743   5.935
 8303SOL     OW25807   6.954   0.310   6.352
 8303SOL    HW125808   6.945   0.256   6.269
 8303SOL    HW225809   0.004   0.380   6.339
 8304SOL     OW25810   6.824   3.027   0.375
 8304SOL    HW125811   6.765   3.054   0.450
 8304SOL    HW225812   6.769   3.013   0.292
 8305SOL     OW25813   3.235   5.784   3.433
 8305SOL    HW125814   3.197   5.729   3.359
 8305SOL    HW225815   3.166   5.796   3.504
 8306SOL     OW25816   0.819   3.284   4.188
 8306SOL    HW125817   0.817   3.271   4.089
 8306SOL    HW225818   0.902   3.335   4.212
 8307SOL     OW25819   3.066   5.416   0.795
 8307SOL    HW125820   3.002   5.358   0.744
 8307SOL    HW225821   3.036   5.511   0.790
 8308SOL     OW25822   3.566   0.518   3.173
 8308SOL    HW125823   3.555   0.493   3.269
 8308SOL    HW225824   3.533   0.612   3.159
 8309SOL     OW25825   5.588   6.088   1.862
 8309SOL    HW125826   5.648   6.105   1.941
 8309SOL    HW225827   5.617   6.145   1.785
 8310SOL     OW25828   6.607   4.489   6.994
 8310SOL    HW125829   6.551   4.416   6.953
 8310SOL    HW225830   6.684   4.510   6.933
 8311SOL     OW25831   6.594   0.772   6.530
 8311SOL    HW125832   6.666   0.830   6.493
 8311SOL    HW225833   6.528   0.750   6.458
 8312SOL     OW25834   5.592   6.681   1.307
 8312SOL    HW125835   5.669   6.653   1.250
 8312SOL    HW225836   5.622   6.748   1.374
 8313SOL     OW25837   3.318   1.499   2.585
 8313SOL    HW125838   3.321   1.555   2.668
 8313SOL    HW225839   3.312   1.402   2.610
 8314SOL     OW25840   6.958   6.331   3.608
 8314SOL    HW125841   6.886   6.289   3.552
 8314SOL    HW225842   6.928   6.421   3.639
 8315SOL     OW25843   5.022   4.814   6.516
 8315SOL    HW125844   5.122   4.812   6.513
 8315SOL    HW225845   4.991   4.891   6.573
 8316SOL     OW25846   2.537   5.637   6.853
 8316SOL    HW125847   2.575   5.668   6.940
 8316SOL    HW225848   2.555   5.539   6.842
 8317SOL     OW25849   2.125   4.460   2.346
 8317SOL    HW125850   2.029   4.435   2.356
 8317SOL    HW225851   2.182   4.383   2.373
 8318SOL     OW25852   3.499   1.086   5.857
 8318SOL    HW125853   3.450   1.105   5.772
 8318SOL    HW225854   3.598   1.089   5.840
 8319SOL     OW25855   3.481   0.755   4.948
 8319SOL    HW125856   3.516   0.758   4.855
 8319SOL    HW225857   3.531   0.686   5.000
 8320SOL     OW25858   4.065   4.773   1.631
 8320SOL    HW125859   3.972   4.761   1.665
 8320SOL    HW225860   4.061   4.804   1.536
 8321SOL     OW25861   0.340   0.855   1.605
 8321SOL    HW125862   0.293   0.935   1.567
 8321SOL    HW225863   0.297   0.771   1.570
 8322SOL     OW25864   5.815   6.644   0.143
 8322SOL    HW125865   5.846   6.586   0.067
 8322SOL    HW225866   5.816   6.740   0.115
 8323SOL     OW25867   1.493   2.034   1.726
 8323SOL    HW125868   1.456   1.972   1.795
 8323SOL    HW225869   1.578   1.996   1.689
 8324SOL     OW25870   6.701   1.241   1.971
 8324SOL    HW125871   6.647   1.324   1.985
 8324SOL    HW225872   6.707   1.191   2.058
 8325SOL     OW25873   3.143   4.066   3.755
 8325SOL    HW125874   3.176   4.015   3.835
 8325SOL    HW225875   3.097   4.002   3.692
 8326SOL     OW25876   3.314   3.434   5.989
 8326SOL    HW125877   3.374   3.358   5.967
 8326SOL    HW225878   3.366   3.507   6.033
 8327SOL     OW25879   4.903   2.078   5.905
 8327SOL    HW125880   4.907   2.131   5.990
 8327SOL    HW225881   4.842   2.000   5.918
 8328SOL     OW25882   2.442   2.093   4.552
 8328SOL    HW125883   2.413   2.154   4.478
 8328SOL    HW225884   2.368   2.084   4.619
 8329SOL     OW25885   7.007   2.526   5.005
 8329SOL    HW125886   0.066   2.466   4.993
 8329SOL    HW225887   6.986   2.533   5.103
 8330SOL     OW25888   2.717   6.820   0.769
 8330SOL    HW125889   2.675   6.893   0.714
 8330SOL    HW225890   2.766   6.757   0.709
 8331SOL     OW25891   2.573   7.012   0.591
 8331SOL    HW125892   2.564   6.993   0.493
 8331SOL    HW225893   2.610   0.084   0.604
 8332SOL     OW25894   4.941   5.602   3.101
 8332SOL    HW125895   4.972   5.649   3.184
 8332SOL    HW225896   4.914   5.509   3.124
 8333SOL     OW25897   1.312   5.627   6.126
 8333SOL    HW125898   1.272   5.536   6.118
 8333SOL    HW225899   1.270   5.675   6.203
 8334SOL     OW25900   5.603   0.532   4.043
 8334SOL    HW125901   5.592   0.632   4.040
 8334SOL    HW225902   5.697   0.509   4.016
 8335SOL     OW25903   5.804   6.833   5.340
 8335SOL    HW125904   5.903   6.835   5.356
 8335SOL    HW225905   5.776   6.921   5.301
 8336SOL     OW25906   0.895   2.205   2.291
 8336SOL    HW125907   0.949   2.225   2.372
 8336SOL    HW225908   0.949   2.148   2.228
 8337SOL     OW25909   0.498   6.225   1.901
 8337SOL    HW125910   0.559   6.204   1.977
 8337SOL    HW225911   0.548   6.214   1.815
 8338SOL     OW25912   1.898   5.061   0.824
 8338SOL    HW125913   1.971   4.993   0.826
 8338SOL    HW225914   1.937   5.151   0.803
 8339SOL     OW25915   5.637   0.683   3.248
 8339SOL    HW125916   5.637   0.640   3.158
 8339SOL    HW225917   5.708   0.642   3.305
 8340SOL     OW25918   4.904   3.492   0.970
 8340SOL    HW125919   4.880   3.405   0.925
 8340SOL    HW225920   4.830   3.558   0.957
 8341SOL     OW25921   1.976   0.048   1.208
 8341SOL    HW125922   2.076   0.051   1.205
 8341SOL    HW225923   1.938   0.129   1.163
 8342SOL     OW25924   4.471   0.557   1.085
 8342SOL    HW125925   4.428   0.640   1.121
 8342SOL    HW225926   4.452   0.480   1.146
 8343SOL     OW25927   1.563   4.855   5.892
 8343SOL    HW125928   1.650   4.890   5.926
 8343SOL    HW225929   1.503   4.835   5.969
 8344SOL     OW25930   3.712   0.323   5.200
 8344SOL    HW125931   3.716   0.225   5.182
 8344SOL    HW225932   3.788   0.349   5.259
 8345SOL     OW25933   6.442   1.574   2.422
 8345SOL    HW125934   6.434   1.474   2.425
 8345SOL    HW225935   6.355   1.616   2.445
 8346SOL     OW25936   3.168   5.503   1.723
 8346SOL    HW125937   3.200   5.408   1.725
 8346SOL    HW225938   3.069   5.505   1.716
 8347SOL     OW25939   3.511   5.387   3.628
 8347SOL    HW125940   3.490   5.445   3.549
 8347SOL    HW225941   3.488   5.437   3.712
 8348SOL     OW25942   1.313   0.453   0.374
 8348SOL    HW125943   1.341   0.539   0.332
 8348SOL    HW225944   1.270   0.395   0.306
 8349SOL     OW25945   5.927   5.492   1.599
 8349SOL    HW125946   5.909   5.579   1.554
 8349SOL    HW225947   5.896   5.417   1.541
 8350SOL     OW25948   6.540   0.485   4.731
 8350SOL    HW125949   6.470   0.414   4.725
 8350SOL    HW225950   6.512   0.554   4.797
 8351SOL     OW25951   2.839   6.597   2.206
 8351SOL    HW125952   2.901   6.640   2.140
 8351SOL    HW225953   2.802   6.667   2.268
 8352SOL     OW25954   6.646   6.240   1.432
 8352SOL    HW125955   6.720   6.242   1.500
 8352SOL    HW225956   6.662   6.313   1.365
 8353SOL     OW25957   0.431   3.986   2.140
 8353SOL    HW125958   0.343   3.996   2.184
 8353SOL    HW225959   0.434   4.044   2.058
 8354SOL     OW25960   2.270   0.483   0.359
 8354SOL    HW125961   2.282   0.404   0.420
 8354SOL    HW225962   2.360   0.514   0.328
 8355SOL     OW25963   3.088   1.451   0.477
 8355SOL    HW125964   3.051   1.489   0.393
 8355SOL    HW225965   3.018   1.399   0.525
 8356SOL     OW25966   2.378   5.459   0.649
 8356SOL    HW125967   2.472   5.488   0.630
 8356SOL    HW225968   2.323   5.538   0.675
 8357SOL     OW25969   5.148   5.982   3.996
 8357SOL    HW125970   5.203   5.899   4.008
 8357SOL    HW225971   5.204   6.053   3.954
 8358SOL     OW25972   2.579   2.083   4.984
 8358SOL    HW125973   2.618   2.168   5.020
 8358SOL    HW225974   2.481   2.080   5.004
 8359SOL     OW25975   4.835   4.913   4.066
 8359SOL    HW125976   4.894   4.986   4.032
 8359SOL    HW225977   4.745   4.919   4.022
 8360SOL     OW25978   4.488   0.795   3.051
 8360SOL    HW125979   4.483   0.746   3.138
 8360SOL    HW225980   4.550   0.874   3.060
 8361SOL     OW25981   1.784   0.903   2.809
 8361SOL    HW125982   1.845   0.982   2.818
 8361SOL    HW225983   1.837   0.823   2.781
 8362SOL     OW25984   2.476   3.125   0.342
 8362SOL    HW125985   2.416   3.136   0.262
 8362SOL    HW225986   2.456   3.197   0.408
 8363SOL     OW25987   0.128   3.688   1.038
 8363SOL    HW125988   0.113   3.603   1.088
 8363SOL    HW225989   0.211   3.680   0.983
 8364SOL     OW25990   6.521   4.880   4.465
 8364SOL    HW125991   6.432   4.861   4.423
 8364SOL    HW225992   6.565   4.794   4.490
 8365SOL     OW25993   1.145   3.776   5.885
 8365SOL    HW125994   1.176   3.829   5.963
 8365SOL    HW225995   1.129   3.681   5.913
 8366SOL     OW25996   2.839   6.955   3.452
 8366SOL    HW125997   2.914   6.931   3.390
 8366SOL    HW225998   2.876   6.999   3.534
 8367SOL     OW25999   5.359   5.813   3.982
 8367SOL    HW126000   5.371   5.742   3.913
 8367SOL    HW226001   5.435   5.878   3.978
 8368SOL     OW26002   3.179   5.648   6.359
 8368SOL    HW126003   3.177   5.609   6.267
 8368SOL    HW226004   3.086   5.674   6.386
 8369SOL     OW26005   2.712   1.474   1.399
 8369SOL    HW126006   2.727   1.522   1.312
 8369SOL    HW226007   2.616   1.485   1.427
 8370SOL     OW26008   1.579   1.484   0.140
 8370SOL    HW126009   1.491   1.452   0.104
 8370SOL    HW226010   1.571   1.502   0.238
 8371SOL     OW26011   2.209   2.504   0.071
 8371SOL    HW126012   2.277   2.487   0.143
 8371SOL    HW226013   2.127   2.544   0.113
 8372SOL     OW26014   0.016   0.800   1.275
 8372SOL    HW126015   0.065   0.716   1.296
 8372SOL    HW226016   6.942   0.778   1.250
 8373SOL     OW26017   1.656   6.788   5.047
 8373SOL    HW126018   1.706   6.787   4.961
 8373SOL    HW226019   1.657   6.696   5.087
 8374SOL     OW26020   6.541   0.360   6.165
 8374SOL    HW126021   6.461   0.390   6.113
 8374SOL    HW226022   6.527   0.382   6.262
 8375SOL     OW26023   4.004   0.767   6.405
 8375SOL    HW126024   4.089   0.719   6.384
 8375SOL    HW226025   4.024   0.864   6.418
 8376SOL     OW26026   4.441   0.436   4.217
 8376SOL    HW126027   4.363   0.375   4.229
 8376SOL    HW226028   4.443   0.470   4.123
 8377SOL     OW26029   5.846   4.854   0.749
 8377SOL    HW126030   5.776   4.824   0.683
 8377SOL    HW226031   5.910   4.779   0.766
 8378SOL     OW26032   5.012   2.999   3.930
 8378SOL    HW126033   5.074   2.983   4.008
 8378SOL    HW226034   5.038   2.939   3.854
 8379SOL     OW26035   5.135   2.435   2.477
 8379SOL    HW126036   5.054   2.382   2.501
 8379SOL    HW226037   5.113   2.533   2.482
 8380SOL     OW26038   5.550   1.762   3.785
 8380SOL    HW126039   5.528   1.857   3.803
 8380SOL    HW226040   5.553   1.746   3.686
 8381SOL     OW26041   2.318   5.415   4.243
 8381SOL    HW126042   2.350   5.373   4.157
 8381SOL    HW226043   2.303   5.344   4.311
 8382SOL     OW26044   0.607   4.314   2.563
 8382SOL    HW126045   0.620   4.273   2.473
 8382SOL    HW226046   0.618   4.413   2.557
 8383SOL     OW26047   3.439   1.392   6.393
 8383SOL    HW126048   3.395   1.481   6.406
 8383SOL    HW226049   3.537   1.401   6.410
 8384SOL     OW26050   0.708   6.746   1.852
 8384SOL    HW126051   0.756   6.792   1.777
 8384SOL    HW226052   0.637   6.687   1.813
 8385SOL     OW26053   4.766   2.493   0.982
 8385SOL    HW126054   4.707   2.456   1.054
 8385SOL    HW226055   4.858   2.509   1.018
 8386SOL     OW26056   0.822   4.285   2.915
 8386SOL    HW126057   0.878   4.342   2.855
 8386SOL    HW226058   0.823   4.191   2.881
 8387SOL     OW26059   1.027   1.640   0.873
 8387SOL    HW126060   0.992   1.594   0.791
 8387SOL    HW226061   0.972   1.613   0.952
 8388SOL     OW26062   0.619   6.657   3.153
 8388SOL    HW126063   0.657   6.566   3.162
 8388SOL    HW226064   0.627   6.687   3.057
 8389SOL     OW26065   5.737   2.317   3.002
 8389SOL    HW126066   5.767   2.390   2.942
 8389SOL    HW226067   5.667   2.352   3.065
 8390SOL     OW26068   5.677   1.397   6.018
 8390SOL    HW126069   5.643   1.491   6.027
 8390SOL    HW226070   5.774   1.394   6.043
 8391SOL     OW26071   6.611   6.530   1.579
 8391SOL    HW126072   6.647   6.459   1.639
 8391SOL    HW226073   6.537   6.492   1.523
 8392SOL     OW26074   4.321   2.934   5.766
 8392SOL    HW126075   4.236   2.987   5.765
 8392SOL    HW226076   4.345   2.909   5.672
 8393SOL     OW26077   5.365   0.034   1.425
 8393SOL    HW126078   5.429   6.993   1.379
 8393SOL    HW226079   5.322   0.094   1.357
 8394SOL     OW26080   5.629   2.806   2.294
 8394SOL    HW126081   5.654   2.831   2.388
 8394SOL    HW226082   5.694   2.847   2.231
 8395SOL     OW26083   2.324   1.049   5.139
 8395SOL    HW126084   2.266   1.094   5.071
 8395SOL    HW226085   2.343   1.114   5.213
 8396SOL     OW26086   4.591   5.525   4.869
 8396SOL    HW126087   4.507   5.572   4.895
 8396SOL    HW226088   4.595   5.516   4.769
 8397SOL     OW26089   6.176   0.182   3.267
 8397SOL    HW126090   6.260   0.138   3.300
 8397SOL    HW226091   6.180   0.191   3.167
 8398SOL     OW26092   5.250   2.267   6.090
 8398SOL    HW126093   5.274   2.364   6.094
 8398SOL    HW226094   5.315   2.219   6.031
 8399SOL     OW26095   0.416   4.303   1.170
 8399SOL    HW126096   0.456   4.262   1.088
 8399SOL    HW226097   0.401   4.232   1.239
 8400SOL     OW26098   1.473   1.530   4.666
 8400SOL    HW126099   1.563   1.509   4.703
 8400SOL    HW226100   1.448   1.624   4.690
 8401SOL     OW26101   2.111   0.236   5.580
 8401SOL    HW126102   2.088   0.326   5.617
 8401SOL    HW226103   2.119   0.170   5.655
 8402SOL     OW26104   3.249   0.684   6.542
 8402SOL    HW126105   3.334   0.640   6.516
 8402SOL    HW226106   3.229   0.665   6.638
 8403SOL     OW26107   6.013   4.811   5.229
 8403SOL    HW126108   5.940   4.764   5.276
 8403SOL    HW226109   6.098   4.758   5.236
 8404SOL     OW26110   0.712   1.556   6.553
 8404SOL    HW126111   0.738   1.626   6.487
 8404SOL    HW226112   0.758   1.470   6.530
 8405SOL     OW26113   4.276   0.408   5.488
 8405SOL    HW126114   4.272   0.368   5.396
 8405SOL    HW226115   4.315   0.500   5.483
 8406SOL     OW26116   5.633   0.149   6.370
 8406SOL    HW126117   5.625   0.075   6.436
 8406SOL    HW226118   5.543   0.185   6.349
 8407SOL     OW26119   3.790   6.748   4.301
 8407SOL    HW126120   3.878   6.723   4.340
 8407SOL    HW226121   3.757   6.833   4.342
 8408SOL     OW26122   3.946   1.083   1.341
 8408SOL    HW126123   3.883   1.068   1.417
 8408SOL    HW226124   4.036   1.106   1.376
 8409SOL     OW26125   4.469   2.055   2.168
 8409SOL    HW126126   4.505   1.962   2.166
 8409SOL    HW226127   4.370   2.053   2.158
 8410SOL     OW26128   6.893   1.619   1.996
 8410SOL    HW126129   6.946   1.571   2.066
 8410SOL    HW226130   6.901   1.570   1.909
 8411SOL     OW26131   1.156   6.472   1.037
 8411SOL    HW126132   1.102   6.417   1.100
 8411SOL    HW226133   1.098   6.503   0.962
 8412SOL     OW26134   2.315   2.223   0.067
 8412SOL    HW126135   2.323   2.283   0.147
 8412SOL    HW226136   2.219   2.207   0.047
 8413SOL     OW26137   3.775   5.302   4.367
 8413SOL    HW126138   3.830   5.220   4.377
 8413SOL    HW226139   3.774   5.353   4.453
 8414SOL     OW26140   1.127   0.484   1.111
 8414SOL    HW126141   1.133   0.424   1.032
 8414SOL    HW226142   1.039   0.470   1.157
 8415SOL     OW26143   2.762   1.432   6.102
 8415SOL    HW126144   2.836   1.477   6.151
 8415SOL    HW226145   2.800   1.369   6.034
 8416SOL     OW26146   6.866   2.333   5.534
 8416SOL    HW126147   6.848   2.254   5.475
 8416SOL    HW226148   6.963   2.355   5.531
 8417SOL     OW26149   2.256   3.105   5.939
 8417SOL    HW126150   2.173   3.147   5.901
 8417SOL    HW226151   2.314   3.177   5.978
 8418SOL     OW26152   0.427   6.042   2.240
 8418SOL    HW126153   0.491   5.972   2.207
 8418SOL    HW226154   0.457   6.131   2.207
 8419SOL     OW26155   4.254   1.737   4.121
 8419SOL    HW126156   4.344   1.778   4.103
 8419SOL    HW226157   4.194   1.806   4.160
 8420SOL     OW26158   3.457   0.915   1.821
 8420SOL    HW126159   3.457   0.825   1.776
 8420SOL    HW226160   3.539   0.924   1.877
 8421SOL     OW26161   4.490   6.765   6.389
 8421SOL    HW126162   4.500   6.864   6.391
 8421SOL    HW226163   4.579   6.722   6.375
 8422SOL     OW26164   5.415   2.697   3.809
 8422SOL    HW126165   5.404   2.622   3.744
 8422SOL    HW226166   5.327   2.715   3.853
 8423SOL     OW26167   6.820   5.382   0.111
 8423SOL    HW126168   6.861   5.412   0.025
 8423SOL    HW226169   6.782   5.460   0.160
 8424SOL     OW26170   3.338   0.233   4.900
 8424SOL    HW126171   3.397   0.305   4.862
 8424SOL    HW226172   3.297   0.266   4.986
 8425SOL     OW26173   3.729   4.067   2.190
 8425SOL    HW126174   3.668   4.107   2.122
 8425SOL    HW226175   3.700   4.096   2.281
 8426SOL     OW26176   3.887   3.049   1.923
 8426SOL    HW126177   3.912   3.121   1.988
 8426SOL    HW226178   3.820   3.083   1.858
 8427SOL     OW26179   3.746   3.252   3.513
 8427SOL    HW126180   3.832   3.297   3.539
 8427SOL    HW226181   3.767   3.162   3.474
 8428SOL     OW26182   6.151   6.879   2.289
 8428SOL    HW126183   6.245   6.867   2.319
 8428SOL    HW226184   6.150   6.915   2.196
 8429SOL     OW26185   2.851   5.997   5.046
 8429SOL    HW126186   2.878   5.952   5.131
 8429SOL    HW226187   2.855   6.096   5.058
 8430SOL     OW26188   4.668   0.018   4.890
 8430SOL    HW126189   4.688   0.066   4.804
 8430SOL    HW226190   4.595   0.065   4.938
 8431SOL     OW26191   1.889   4.077   5.690
 8431SOL    HW126192   1.877   4.105   5.595
 8431SOL    HW226193   1.927   4.153   5.743
 8432SOL     OW26194   6.448   5.282   6.058
 8432SOL    HW126195   6.450   5.301   5.959
 8432SOL    HW226196   6.498   5.197   6.076
 8433SOL     OW26197   5.678   2.091   1.167
 8433SOL    HW126198   5.770   2.098   1.128
 8433SOL    HW226199   5.682   2.038   1.252
 8434SOL     OW26200   2.662   5.881   4.400
 8434SOL    HW126201   2.746   5.935   4.394
 8434SOL    HW226202   2.656   5.837   4.490
 8435SOL     OW26203   5.585   1.728   3.506
 8435SOL    HW126204   5.604   1.637   3.470
 8435SOL    HW226205   5.645   1.795   3.461
 8436SOL     OW26206   2.175   5.890   2.011
 8436SOL    HW126207   2.149   5.884   1.914
 8436SOL    HW226208   2.214   5.802   2.040
 8437SOL     OW26209   0.746   5.328   1.462
 8437SOL    HW126210   0.793   5.240   1.476
 8437SOL    HW226211   0.647   5.314   1.466
 8438SOL     OW26212   0.434   3.767   2.369
 8438SOL    HW126213   0.517   3.730   2.328
 8438SOL    HW226214   0.417   3.723   2.457
 8439SOL     OW26215   6.386   4.361   2.852
 8439SOL    HW126216   6.383   4.278   2.796
 8439SOL    HW226217   6.339   4.436   2.804
 8440SOL     OW26218   1.695   2.240   2.672
 8440SOL    HW126219   1.704   2.203   2.580
 8440SOL    HW226220   1.773   2.300   2.692
 8441SOL     OW26221   0.005   1.780   6.008
 8441SOL    HW126222   6.940   1.815   5.972
 8441SOL    HW226223   0.030   1.696   5.960
 8442SOL     OW26224   4.190   2.207   0.005
 8442SOL    HW126225   4.138   2.270   6.968
 8442SOL    HW226226   4.249   2.259   0.067
 8443SOL     OW26227   1.900   4.369   2.472
 8443SOL    HW126228   1.829   4.309   2.435
 8443SOL    HW226229   1.918   4.345   2.567
 8444SOL     OW26230   5.481   5.464   5.213
 8444SOL    HW126231   5.522   5.523   5.283
 8444SOL    HW226232   5.507   5.369   5.231
 8445SOL     OW26233   4.557   6.876   6.771
 8445SOL    HW126234   4.546   6.779   6.750
 8445SOL    HW226235   4.641   6.889   6.824
 8446SOL     OW26236   6.479   5.202   5.042
 8446SOL    HW126237   6.545   5.264   5.084
 8446SOL    HW226238   6.459   5.127   5.105
 8447SOL     OW26239   4.027   0.991   3.963
 8447SOL    HW126240   4.075   1.058   4.020
 8447SOL    HW226241   4.056   1.002   3.868
 8448SOL     OW26242   3.462   6.340   3.151
 8448SOL    HW126243   3.450   6.367   3.246
 8448SOL    HW226244   3.480   6.421   3.095
 8449SOL     OW26245   1.909   2.117   3.553
 8449SOL    HW126246   1.858   2.192   3.595
 8449SOL    HW226247   1.955   2.063   3.624
 8450SOL     OW26248   6.853   0.902   6.961
 8450SOL    HW126249   6.892   0.946   6.880
 8450SOL    HW226250   6.914   0.829   6.991
 8451SOL     OW26251   3.854   2.618   1.254
 8451SOL    HW126252   3.792   2.681   1.207
 8451SOL    HW226253   3.814   2.591   1.342
 8452SOL     OW26254   5.078   1.188   6.059
 8452SOL    HW126255   5.116   1.101   6.028
 8452SOL    HW226256   4.984   1.174   6.091
 8453SOL     OW26257   0.171   6.473   0.225
 8453SOL    HW126258   0.201   6.393   0.276
 8453SOL    HW226259   0.096   6.448   0.164
 8454SOL     OW26260   5.896   4.235   6.659
 8454SOL    HW126261   5.800   4.211   6.668
 8454SOL    HW226262   5.905   4.321   6.609
 8455SOL     OW26263   6.562   1.005   2.551
 8455SOL    HW126264   6.492   1.071   2.521
 8455SOL    HW226265   6.570   0.932   2.483
 8456SOL     OW26266   6.901   0.289   2.532
 8456SOL    HW126267   7.001   0.281   2.535
 8456SOL    HW226268   6.874   0.339   2.450
 8457SOL     OW26269   6.693   6.843   4.964
 8457SOL    HW126270   6.693   6.794   4.876
 8457SOL    HW226271   6.714   6.779   5.038
 8458SOL     OW26272   0.533   6.810   6.648
 8458SOL    HW126273   0.570   6.719   6.630
 8458SOL    HW226274   0.602   6.879   6.627
 8459SOL     OW26275   1.450   6.091   3.469
 8459SOL    HW126276   1.523   6.062   3.407
 8459SOL    HW226277   1.476   6.070   3.563
 8460SOL     OW26278   3.936   3.444   3.284
 8460SOL    HW126279   3.842   3.454   3.252
 8460SOL    HW226280   3.949   3.352   3.322
 8461SOL     OW26281   6.324   3.264   3.749
 8461SOL    HW126282   6.362   3.231   3.664
 8461SOL    HW226283   6.266   3.194   3.790
 8462SOL     OW26284   2.566   2.684   1.704
 8462SOL    HW126285   2.661   2.661   1.725
 8462SOL    HW226286   2.555   2.693   1.605
 8463SOL     OW26287   5.690   0.502   1.859
 8463SOL    HW126288   5.668   0.478   1.765
 8463SOL    HW226289   5.608   0.535   1.906
 8464SOL     OW26290   0.138   1.759   4.802
 8464SOL    HW126291   0.157   1.849   4.763
 8464SOL    HW226292   0.132   1.767   4.902
 8465SOL     OW26293   1.274   1.718   7.012
 8465SOL    HW126294   1.273   1.650   6.939
 8465SOL    HW226295   1.295   1.808   6.974
 8466SOL     OW26296   0.350   0.127   4.002
 8466SOL    HW126297   0.410   0.206   4.008
 8466SOL    HW226298   0.367   0.066   4.080
 8467SOL     OW26299   3.839   5.062   1.158
 8467SOL    HW126300   3.864   5.149   1.201
 8467SOL    HW226301   3.823   5.076   1.060
 8468SOL     OW26302   4.343   2.423   0.415
 8468SOL    HW126303   4.396   2.478   0.350
 8468SOL    HW226304   4.394   2.414   0.501
 8469SOL     OW26305   4.090   2.454   6.499
 8469SOL    HW126306   4.128   2.374   6.545
 8469SOL    HW226307   3.998   2.473   6.534
 8470SOL     OW26308   1.789   3.110   6.748
 8470SOL    HW126309   1.798   3.010   6.745
 8470SOL    HW226310   1.693   3.134   6.764
 8471SOL     OW26311   4.820   1.550   4.009
 8471SOL    HW126312   4.915   1.580   4.005
 8471SOL    HW226313   4.764   1.604   3.946
 8472SOL     OW26314   1.300   6.652   2.899
 8472SOL    HW126315   1.381   6.600   2.872
 8472SOL    HW226316   1.326   6.745   2.923
 8473SOL     OW26317   6.728   5.821   6.235
 8473SOL    HW126318   6.679   5.735   6.221
 8473SOL    HW226319   6.680   5.895   6.188
 8474SOL     OW26320   3.706   5.358   0.436
 8474SOL    HW126321   3.768   5.305   0.379
 8474SOL    HW226322   3.640   5.295   0.479
 8475SOL     OW26323   4.686   1.346   2.898
 8475SOL    HW126324   4.672   1.295   2.813
 8475SOL    HW226325   4.757   1.301   2.952
 8476SOL     OW26326   4.258   0.629   2.507
 8476SOL    HW126327   4.271   0.680   2.422
 8476SOL    HW226328   4.304   0.540   2.501
 8477SOL     OW26329   2.549   0.648   2.291
 8477SOL    HW126330   2.463   0.691   2.263
 8477SOL    HW226331   2.553   0.641   2.391
 8478SOL     OW26332   1.754   0.368   5.802
 8478SOL    HW126333   1.767   0.406   5.894
 8478SOL    HW226334   1.791   0.431   5.734
 8479SOL     OW26335   5.375   1.153   2.573
 8479SOL    HW126336   5.314   1.088   2.528
 8479SOL    HW226337   5.451   1.175   2.511
 8480SOL     OW26338   1.805   1.379   1.470
 8480SOL    HW126339   1.904   1.363   1.467
 8480SOL    HW226340   1.770   1.385   1.376
 8481SOL     OW26341   4.471   6.998   5.286
 8481SOL    HW126342   4.522   7.011   5.371
 8481SOL    HW226343   4.462   6.900   5.267
 8482SOL     OW26344   0.626   0.340   2.258
 8482SOL    HW126345   0.700   0.325   2.324
 8482SOL    HW226346   0.606   0.437   2.252
 8483SOL     OW26347   5.595   6.199   1.587
 8483SOL    HW126348   5.504   6.225   1.620
 8483SOL    HW226349   5.590   6.110   1.542
 8484SOL     OW26350   0.324   4.569   4.371
 8484SOL    HW126351   0.295   4.628   4.296
 8484SOL    HW226352   0.391   4.618   4.427
 8485SOL     OW26353   2.484   3.369   5.634
 8485SOL    HW126354   2.537   3.374   5.550
 8485SOL    HW226355   2.539   3.402   5.711
 8486SOL     OW26356   4.144   0.511   2.717
 8486SOL    HW126357   4.164   0.563   2.634
 8486SOL    HW226358   4.070   0.446   2.698
 8487SOL     OW26359   4.523   0.878   0.803
 8487SOL    HW126360   4.610   0.830   0.792
 8487SOL    HW226361   4.507   0.939   0.726
 8488SOL     OW26362   5.275   3.247   4.728
 8488SOL    HW126363   5.297   3.289   4.641
 8488SOL    HW226364   5.181   3.270   4.753
 8489SOL     OW26365   3.702   5.827   2.726
 8489SOL    HW126366   3.759   5.899   2.767
 8489SOL    HW226367   3.610   5.862   2.712
 8490SOL     OW26368   4.115   5.494   2.670
 8490SOL    HW126369   4.041   5.544   2.626
 8490SOL    HW226370   4.197   5.498   2.613
 8491SOL     OW26371   0.889   1.275   2.035
 8491SOL    HW126372   0.872   1.319   1.947
 8491SOL    HW226373   0.984   1.293   2.063
 8492SOL     OW26374   5.625   4.189   4.827
 8492SOL    HW126375   5.660   4.262   4.887
 8492SOL    HW226376   5.664   4.199   4.736
 8493SOL     OW26377   4.029   2.317   0.887
 8493SOL    HW126378   3.939   2.343   0.923
 8493SOL    HW226379   4.092   2.302   0.963
 8494SOL     OW26380   3.887   6.228   6.638
 8494SOL    HW126381   3.905   6.150   6.698
 8494SOL    HW226382   3.828   6.293   6.686
 8495SOL     OW26383   0.684   2.587   0.018
 8495SOL    HW126384   0.611   2.612   0.082
 8495SOL    HW226385   0.742   2.666   0.001
 8496SOL     OW26386   6.945   1.972   3.143
 8496SOL    HW126387   6.950   1.996   3.046
 8496SOL    HW226388   6.851   1.986   3.176
 8497SOL     OW26389   6.175   4.731   3.035
 8497SOL    HW126390   6.104   4.688   2.980
 8497SOL    HW226391   6.230   4.661   3.081
 8498SOL     OW26392   6.434   1.036   1.144
 8498SOL    HW126393   6.416   1.014   1.240
 8498SOL    HW226394   6.468   1.130   1.137
 8499SOL     OW26395   1.580   4.083   6.537
 8499SOL    HW126396   1.630   4.078   6.450
 8499SOL    HW226397   1.487   4.050   6.524
 8500SOL     OW26398   3.248   0.659   6.117
 8500SOL    HW126399   3.266   0.691   6.024
 8500SOL    HW226400   3.331   0.668   6.173
 8501SOL     OW26401   3.215   4.346   6.318
 8501SOL    HW126402   3.188   4.410   6.246
 8501SOL    HW226403   3.255   4.397   6.395
 8502SOL     OW26404   0.967   6.810   1.973
 8502SOL    HW126405   0.875   6.778   1.947
 8502SOL    HW226406   1.011   6.741   2.029
 8503SOL     OW26407   3.212   6.235   3.399
 8503SOL    HW126408   3.139   6.241   3.331
 8503SOL    HW226409   3.274   6.160   3.375
 8504SOL     OW26410   1.625   5.394   3.361
 8504SOL    HW126411   1.618   5.442   3.448
 8504SOL    HW226412   1.538   5.401   3.312
 8505SOL     OW26413   4.681   2.659   4.124
 8505SOL    HW126414   4.648   2.639   4.032
 8505SOL    HW226415   4.778   2.683   4.121
 8506SOL     OW26416   0.871   6.626   0.536
 8506SOL    HW126417   0.836   6.567   0.609
 8506SOL    HW226418   0.844   6.721   0.554
 8507SOL     OW26419   1.642   0.215   5.068
 8507SOL    HW126420   1.599   0.186   5.153
 8507SOL    HW226421   1.741   0.216   5.080
 8508SOL     OW26422   0.634   2.998   5.743
 8508SOL    HW126423   0.676   2.907   5.747
 8508SOL    HW226424   0.595   3.013   5.653
 8509SOL     OW26425   5.914   2.104   4.968
 8509SOL    HW126426   5.941   2.036   4.899
 8509SOL    HW226427   5.904   2.193   4.924
 8510SOL     OW26428   5.181   6.886   2.083
 8510SOL    HW126429   5.110   6.943   2.122
 8510SOL    HW226430   5.160   6.790   2.098
 8511SOL     OW26431   6.458   5.164   1.450
 8511SOL    HW126432   6.512   5.248   1.443
 8511SOL    HW226433   6.517   5.085   1.430
 8512SOL     OW26434   3.533   2.950   0.891
 8512SOL    HW126435   3.508   3.024   0.953
 8512SOL    HW226436   3.624   2.916   0.914
 8513SOL     OW26437   1.098   3.885   1.273
 8513SOL    HW126438   1.004   3.863   1.248
 8513SOL    HW226439   1.126   3.970   1.228
 8514SOL     OW26440   2.715   2.136   5.345
 8514SOL    HW126441   2.749   2.123   5.438
 8514SOL    HW226442   2.785   2.182   5.290
 8515SOL     OW26443   2.111   0.144   0.590
 8515SOL    HW126444   2.174   0.167   0.516
 8515SOL    HW226445   2.144   0.063   0.639
 8516SOL     OW26446   5.197   3.216   4.317
 8516SOL    HW126447   5.181   3.248   4.224
 8516SOL    HW226448   5.293   3.232   4.342
 8517SOL     OW26449   1.956   1.826   6.378
 8517SOL    HW126450   2.003   1.872   6.454
 8517SOL    HW226451   1.997   1.856   6.292
 8518SOL     OW26452   5.149   4.802   6.914
 8518SOL    HW126453   5.197   4.803   7.002
 8518SOL    HW226454   5.177   4.881   6.860
 8519SOL     OW26455   0.634   3.236   0.451
 8519SOL    HW126456   0.658   3.324   0.411
 8519SOL    HW226457   0.542   3.241   0.492
 8520SOL     OW26458   3.534   4.119   5.523
 8520SOL    HW126459   3.539   4.212   5.486
 8520SOL    HW226460   3.526   4.123   5.622
 8521SOL     OW26461   2.005   6.587   5.244
 8521SOL    HW126462   2.033   6.511   5.302
 8521SOL    HW226463   2.086   6.632   5.206
 8522SOL     OW26464   0.621   6.830   0.082
 8522SOL    HW126465   0.529   6.845   0.121
 8522SOL    HW226466   0.666   6.918   0.070
 8523SOL     OW26467   3.799   2.057   0.432
 8523SOL    HW126468   3.840   2.144   0.459
 8523SOL    HW226469   3.779   2.058   0.334
 8524SOL     OW26470   2.310   5.293   5.026
 8524SOL    HW126471   2.230   5.353   5.024
 8524SOL    HW226472   2.354   5.292   4.936
 8525SOL     OW26473   6.289   3.668   2.031
 8525SOL    HW126474   6.223   3.734   1.995
 8525SOL    HW226475   6.243   3.604   2.093
 8526SOL     OW26476   0.463   4.375   0.124
 8526SOL    HW126477   0.468   4.289   0.073
 8526SOL    HW226478   0.528   4.373   0.200
 8527SOL     OW26479   2.780   0.993   5.794
 8527SOL    HW126480   2.815   1.081   5.827
 8527SOL    HW226481   2.747   0.939   5.872
 8528SOL     OW26482   5.578   0.900   0.918
 8528SOL    HW126483   5.595   0.998   0.905
 8528SOL    HW226484   5.566   0.881   1.016
 8529SOL     OW26485   1.012   6.277   0.017
 8529SOL    HW126486   0.914   6.291   0.029
 8529SOL    HW226487   1.057   6.366   0.005
 8530SOL     OW26488   4.059   3.779   3.175
 8530SOL    HW126489   4.096   3.717   3.106
 8530SOL    HW226490   4.066   3.738   3.266
 8531SOL     OW26491   6.395   5.154   4.316
 8531SOL    HW126492   6.309   5.143   4.267
 8531SOL    HW226493   6.377   5.158   4.414
 8532SOL     OW26494   3.245   5.460   6.773
 8532SOL    HW126495   3.165   5.520   6.775
 8532SOL    HW226496   3.217   5.368   6.800
 8533SOL     OW26497   2.701   6.778   5.241
 8533SOL    HW126498   2.632   6.750   5.173
 8533SOL    HW226499   2.774   6.710   5.244
 8534SOL     OW26500   2.222   2.420   3.035
 8534SOL    HW126501   2.270   2.362   3.100
 8534SOL    HW226502   2.262   2.511   3.035
 8535SOL     OW26503   6.198   0.493   2.049
 8535SOL    HW126504   6.120   0.430   2.044
 8535SOL    HW226505   6.165   0.586   2.058
 8536SOL     OW26506   0.815   1.086   4.306
 8536SOL    HW126507   0.791   1.072   4.210
 8536SOL    HW226508   0.734   1.113   4.357
 8537SOL     OW26509   5.979   1.247   3.074
 8537SOL    HW126510   6.020   1.337   3.091
 8537SOL    HW226511   6.050   1.177   3.080
 8538SOL     OW26512   1.017   2.679   0.156
 8538SOL    HW126513   1.100   2.671   0.211
 8538SOL    HW226514   1.030   2.632   0.069
 8539SOL     OW26515   5.243   2.845   2.512
 8539SOL    HW126516   5.150   2.840   2.549
 8539SOL    HW226517   5.292   2.919   2.558
 8540SOL     OW26518   3.558   0.845   1.377
 8540SOL    HW126519   3.515   0.755   1.374
 8540SOL    HW226520   3.500   0.912   1.329
 8541SOL     OW26521   1.938   2.640   4.255
 8541SOL    HW126522   2.013   2.576   4.235
 8541SOL    HW226523   1.974   2.733   4.256
 8542SOL     OW26524   3.358   4.461   0.528
 8542SOL    HW126525   3.376   4.483   0.432
 8542SOL    HW226526   3.304   4.378   0.533
 8543SOL     OW26527   2.913   2.089   6.468
 8543SOL    HW126528   2.969   2.154   6.417
 8543SOL    HW226529   2.966   2.053   6.545
 8544SOL     OW26530   6.094   2.494   4.336
 8544SOL    HW126531   6.144   2.407   4.339
 8544SOL    HW226532   6.007   2.481   4.288
 8545SOL     OW26533   4.539   6.474   5.279
 8545SOL    HW126534   4.627   6.496   5.320
 8545SOL    HW226535   4.549   6.399   5.214
 8546SOL     OW26536   4.669   2.302   0.106
 8546SOL    HW126537   4.585   2.262   0.070
 8546SOL    HW226538   4.719   2.346   0.032
 8547SOL     OW26539   1.233   4.658   2.135
 8547SOL    HW126540   1.188   4.630   2.220
 8547SOL    HW226541   1.328   4.680   2.154
 8548SOL     OW26542   6.419   1.685   5.619
 8548SOL    HW126543   6.466   1.715   5.536
 8548SOL    HW226544   6.337   1.635   5.595
 8549SOL     OW26545   5.397   3.244   5.562
 8549SOL    HW126546   5.425   3.339   5.572
 8549SOL    HW226547   5.342   3.234   5.479
 8550SOL     OW26548   0.942   4.372   6.245
 8550SOL    HW126549   1.024   4.400   6.195
 8550SOL    HW226550   0.909   4.285   6.209
 8551SOL     OW26551   2.395   4.392   0.859
 8551SOL    HW126552   2.494   4.393   0.843
 8551SOL    HW226553   2.371   4.313   0.914
 8552SOL     OW26554   2.959   6.596   4.551
 8552SOL    HW126555   2.939   6.536   4.474
 8552SOL    HW226556   3.057   6.592   4.572
 8553SOL     OW26557   6.120   5.105   6.914
 8553SOL    HW126558   6.061   5.028   6.891
 8553SOL    HW226559   6.199   5.072   6.966
 8554SOL     OW26560   5.579   3.853   6.932
 8554SOL    HW126561   5.484   3.865   6.959
 8554SOL    HW226562   5.610   3.762   6.959
 8555SOL     OW26563   2.092   6.859   4.356
 8555SOL    HW126564   2.105   6.760   4.350
 8555SOL    HW226565   2.180   6.902   4.378
 8556SOL     OW26566   6.001   6.814   4.203
 8556SOL    HW126567   5.947   6.853   4.129
 8556SOL    HW226568   6.024   6.719   4.182
 8557SOL     OW26569   6.793   1.064   0.316
 8557SOL    HW126570   6.777   1.128   0.391
 8557SOL    HW226571   6.778   0.970   0.347
 8558SOL     OW26572   0.529   5.090   2.242
 8558SOL    HW126573   0.454   5.114   2.303
 8558SOL    HW226574   0.578   5.010   2.277
 8559SOL     OW26575   0.514   1.516   5.575
 8559SOL    HW126576   0.482   1.443   5.515
 8559SOL    HW226577   0.612   1.531   5.560
 8560SOL     OW26578   6.475   2.033   6.657
 8560SOL    HW126579   6.555   1.976   6.676
 8560SOL    HW226580   6.474   2.058   6.560
 8561SOL     OW26581   4.856   5.705   5.502
 8561SOL    HW126582   4.880   5.690   5.406
 8561SOL    HW226583   4.869   5.620   5.553
 8562SOL     OW26584   3.656   6.968   4.429
 8562SOL    HW126585   3.578   0.008   4.410
 8562SOL    HW226586   3.691   6.987   4.521
 8563SOL     OW26587   2.897   3.179   6.841
 8563SOL    HW126588   2.916   3.248   6.911
 8563SOL    HW226589   2.982   3.158   6.793
 8564SOL     OW26590   0.234   6.213   3.216
 8564SOL    HW126591   0.326   6.175   3.225
 8564SOL    HW226592   0.198   6.236   3.306
 8565SOL     OW26593   3.447   0.649   1.711
 8565SOL    HW126594   3.457   0.580   1.783
 8565SOL    HW226595   3.393   0.611   1.636
 8566SOL     OW26596   1.457   3.898   3.484
 8566SOL    HW126597   1.502   3.902   3.573
 8566SOL    HW226598   1.486   3.815   3.436
 8567SOL     OW26599   5.060   5.826   0.146
 8567SOL    HW126600   5.160   5.819   0.148
 8567SOL    HW226601   5.034   5.918   0.119
 8568SOL     OW26602   5.605   0.748   0.123
 8568SOL    HW126603   5.678   0.679   0.128
 8568SOL    HW226604   5.622   0.819   0.191
 8569SOL     OW26605   4.013   0.978   5.515
 8569SOL    HW126606   3.951   0.968   5.594
 8569SOL    HW226607   4.035   1.075   5.504
 8570SOL     OW26608   0.318   3.368   6.179
 8570SOL    HW126609   0.229   3.394   6.143
 8570SOL    HW226610   0.389   3.396   6.114
 8571SOL     OW26611   0.169   4.220   4.807
 8571SOL    HW126612   0.105   4.150   4.776
 8571SOL    HW226613   0.147   4.247   4.901
 8572SOL     OW26614   2.901   4.869   5.402
 8572SOL    HW126615   2.930   4.920   5.483
 8572SOL    HW226616   2.852   4.931   5.340
 8573SOL     OW26617   3.852   6.356   4.262
 8573SOL    HW126618   3.859   6.388   4.356
 8573SOL    HW226619   3.930   6.389   4.209
 8574SOL     OW26620   0.255   3.809   4.257
 8574SOL    HW126621   0.332   3.866   4.228
 8574SOL    HW226622   0.289   3.718   4.284
 8575SOL     OW26623   3.034   3.419   6.487
 8575SOL    HW126624   3.052   3.490   6.418
 8575SOL    HW226625   2.954   3.446   6.541
 8576SOL     OW26626   1.868   0.424   0.833
 8576SOL    HW126627   1.938   0.394   0.768
 8576SOL    HW226628   1.778   0.417   0.791
 8577SOL     OW26629   6.654   5.681   4.314
 8577SOL    HW126630   6.582   5.713   4.252
 8577SOL    HW226631   6.743   5.693   4.271
 8578SOL     OW26632   5.120   0.459   2.831
 8578SOL    HW126633   5.044   0.512   2.794
 8578SOL    HW226634   5.128   0.373   2.781
 8579SOL     OW26635   0.362   4.907   2.853
 8579SOL    HW126636   0.322   4.897   2.944
 8579SOL    HW226637   0.461   4.891   2.858
 8580SOL     OW26638   2.770   5.019   5.937
 8580SOL    HW126639   2.809   4.980   5.853
 8580SOL    HW226640   2.731   4.946   5.993
 8581SOL     OW26641   3.484   2.994   6.898
 8581SOL    HW126642   3.505   2.898   6.919
 8581SOL    HW226643   3.528   3.020   6.812
 8582SOL     OW26644   4.320   4.522   0.758
 8582SOL    HW126645   4.322   4.423   0.747
 8582SOL    HW226646   4.339   4.546   0.853
 8583SOL     OW26647   5.527   6.638   5.367
 8583SOL    HW126648   5.620   6.666   5.341
 8583SOL    HW226649   5.465   6.654   5.291
 8584SOL     OW26650   0.545   5.481   6.643
 8584SOL    HW126651   0.508   5.552   6.704
 8584SOL    HW226652   0.471   5.421   6.613
 8585SOL     OW26653   0.827   1.606   1.026
 8585SOL    HW126654   0.771   1.609   1.108
 8585SOL    HW226655   0.816   1.516   0.982
 8586SOL     OW26656   3.955   5.131   4.462
 8586SOL    HW126657   3.984   5.101   4.553
 8586SOL    HW226658   4.022   5.101   4.394
 8587SOL     OW26659   6.641   1.621   2.146
 8587SOL    HW126660   6.727   1.609   2.096
 8587SOL    HW226661   6.661   1.638   2.242
 8588SOL     OW26662   3.391   1.964   0.052
 8588SOL    HW126663   3.327   1.890   0.033
 8588SOL    HW226664   3.461   1.934   0.116
 8589SOL     OW26665   3.082   1.345   5.305
 8589SOL    HW126666   3.117   1.426   5.352
 8589SOL    HW226667   3.154   1.275   5.302
 8590SOL     OW26668   6.291   5.830   5.062
 8590SOL    HW126669   6.279   5.737   5.095
 8590SOL    HW226670   6.214   5.856   5.005
 8591SOL     OW26671   1.127   2.693   0.660
 8591SOL    HW126672   1.156   2.599   0.646
 8591SOL    HW226673   1.082   2.702   0.749
 8592SOL     OW26674   6.638   6.072   6.123
 8592SOL    HW126675   6.623   6.149   6.185
 8592SOL    HW226676   6.673   6.106   6.036
 8593SOL     OW26677   0.238   5.920   3.196
 8593SOL    HW126678   0.196   6.010   3.203
 8593SOL    HW226679   0.312   5.912   3.263
 8594SOL     OW26680   3.671   4.091   3.398
 8594SOL    HW126681   3.608   4.115   3.324
 8594SOL    HW226682   3.752   4.048   3.359
 8595SOL     OW26683   1.510   3.038   1.703
 8595SOL    HW126684   1.457   3.113   1.742
 8595SOL    HW226685   1.600   3.073   1.674
 8596SOL     OW26686   6.685   4.232   2.555
 8596SOL    HW126687   6.637   4.167   2.613
 8596SOL    HW226688   6.732   4.182   2.482
 8597SOL     OW26689   2.678   1.899   0.349
 8597SOL    HW126690   2.690   1.995   0.326
 8597SOL    HW226691   2.610   1.890   0.421
 8598SOL     OW26692   5.510   3.520   1.652
 8598SOL    HW126693   5.582   3.504   1.585
 8598SOL    HW226694   5.550   3.528   1.744
 8599SOL     OW26695   0.641   3.354   0.952
 8599SOL    HW126696   0.550   3.322   0.925
 8599SOL    HW226697   0.636   3.397   1.042
 8600SOL     OW26698   6.266   3.003   6.299
 8600SOL    HW126699   6.262   2.910   6.265
 8600SOL    HW226700   6.302   3.003   6.393
 8601SOL     OW26701   0.167   0.562   5.432
 8601SOL    HW126702   0.246   0.574   5.492
 8601SOL    HW226703   0.083   0.566   5.487
 8602SOL     OW26704   1.804   6.576   1.686
 8602SOL    HW126705   1.745   6.518   1.742
 8602SOL    HW226706   1.779   6.672   1.700
 8603SOL     OW26707   4.883   3.446   1.635
 8603SOL    HW126708   4.823   3.369   1.613
 8603SOL    HW226709   4.843   3.500   1.709
 8604SOL     OW26710   5.783   2.530   2.842
 8604SOL    HW126711   5.829   2.548   2.755
 8604SOL    HW226712   5.781   2.613   2.897
 8605SOL     OW26713   2.769   5.595   1.668
 8605SOL    HW126714   2.809   5.665   1.726
 8605SOL    HW226715   2.797   5.505   1.700
 8606SOL     OW26716   3.871   5.590   5.311
 8606SOL    HW126717   3.911   5.500   5.291
 8606SOL    HW226718   3.852   5.637   5.225
 8607SOL     OW26719   3.092   5.787   1.039
 8607SOL    HW126720   3.113   5.698   1.079
 8607SOL    HW226721   2.993   5.803   1.044
 8608SOL     OW26722   6.132   6.485   2.182
 8608SOL    HW126723   6.172   6.402   2.145
 8608SOL    HW226724   6.183   6.564   2.147
 8609SOL     OW26725   4.493   0.785   6.396
 8609SOL    HW126726   4.589   0.785   6.366
 8609SOL    HW226727   4.486   0.747   6.488
 8610SOL     OW26728   0.165   6.409   5.296
 8610SOL    HW126729   0.194   6.493   5.251
 8610SOL    HW226730   0.235   6.339   5.284
 8611SOL     OW26731   1.246   2.047   3.524
 8611SOL    HW126732   1.193   1.963   3.534
 8611SOL    HW226733   1.196   2.123   3.564
 8612SOL     OW26734   4.884   2.842   4.951
 8612SOL    HW126735   4.935   2.809   4.871
 8612SOL    HW226736   4.832   2.767   4.990
 8613SOL     OW26737   1.257   1.059   0.078
 8613SOL    HW126738   1.167   1.059   0.122
 8613SOL    HW226739   1.261   1.134   0.011
 8614SOL     OW26740   1.432   1.633   3.802
 8614SOL    HW126741   1.463   1.541   3.825
 8614SOL    HW226742   1.442   1.693   3.882
 8615SOL     OW26743   4.390   2.325   5.289
 8615SOL    HW126744   4.474   2.332   5.342
 8615SOL    HW226745   4.376   2.410   5.238
 8616SOL     OW26746   1.312   3.349   0.177
 8616SOL    HW126747   1.314   3.447   0.157
 8616SOL    HW226748   1.360   3.331   0.263
 8617SOL     OW26749   5.773   2.695   0.712
 8617SOL    HW126750   5.761   2.711   0.614
 8617SOL    HW226751   5.684   2.673   0.753
 8618SOL     OW26752   4.099   0.843   3.030
 8618SOL    HW126753   4.141   0.756   3.058
 8618SOL    HW226754   4.013   0.856   3.080
 8619SOL     OW26755   4.343   6.001   0.847
 8619SOL    HW126756   4.385   5.937   0.783
 8619SOL    HW226757   4.244   5.999   0.837
 8620SOL     OW26758   6.531   5.862   3.398
 8620SOL    HW126759   6.550   5.945   3.452
 8620SOL    HW226760   6.456   5.811   3.441
 8621SOL     OW26761   5.150   0.526   3.550
 8621SOL    HW126762   5.240   0.502   3.586
 8621SOL    HW226763   5.159   0.602   3.486
 8622SOL     OW26764   4.967   5.199   7.006
 8622SOL    HW126765   4.999   5.268   6.942
 8622SOL    HW226766   4.921   5.125   6.956
 8623SOL     OW26767   6.163   2.508   3.731
 8623SOL    HW126768   6.198   2.423   3.769
 8623SOL    HW226769   6.222   2.538   3.656
 8624SOL     OW26770   6.857   3.776   3.717
 8624SOL    HW126771   6.790   3.806   3.785
 8624SOL    HW226772   6.880   3.680   3.733
 8625SOL     OW26773   3.550   0.973   6.646
 8625SOL    HW126774   3.508   1.057   6.610
 8625SOL    HW226775   3.571   0.911   6.570
 8626SOL     OW26776   3.037   3.132   2.640
 8626SOL    HW126777   3.090   3.063   2.590
 8626SOL    HW226778   3.086   3.156   2.724
 8627SOL     OW26779   2.453   0.278   6.786
 8627SOL    HW126780   2.509   0.266   6.704
 8627SOL    HW226781   2.511   0.285   6.866
 8628SOL     OW26782   6.150   1.379   0.574
 8628SOL    HW126783   6.051   1.375   0.588
 8628SOL    HW226784   6.179   1.299   0.520
 8629SOL     OW26785   1.503   5.063   3.573
 8629SOL    HW126786   1.551   5.060   3.660
 8629SOL    HW226787   1.552   5.123   3.510
 8630SOL     OW26788   5.470   4.701   4.122
 8630SOL    HW126789   5.383   4.709   4.074
 8630SOL    HW226790   5.475   4.771   4.194
 8631SOL     OW26791   4.501   5.992   3.849
 8631SOL    HW126792   4.436   5.947   3.788
 8631SOL    HW226793   4.461   6.002   3.940
 8632SOL     OW26794   3.848   0.338   3.592
 8632SOL    HW126795   3.881   0.371   3.680
 8632SOL    HW226796   3.894   0.387   3.518
 8633SOL     OW26797   6.628   6.817   3.410
 8633SOL    HW126798   6.639   6.789   3.505
 8633SOL    HW226799   6.566   6.753   3.364
 8634SOL     OW26800   6.426   6.013   1.812
 8634SOL    HW126801   6.451   5.930   1.761
 8634SOL    HW226802   6.433   6.092   1.752
 8635SOL     OW26803   6.508   3.359   5.820
 8635SOL    HW126804   6.571   3.434   5.802
 8635SOL    HW226805   6.493   3.307   5.737
 8636SOL     OW26806   5.533   5.536   0.630
 8636SOL    HW126807   5.628   5.524   0.658
 8636SOL    HW226808   5.526   5.526   0.531
 8637SOL     OW26809   1.746   0.752   1.223
 8637SOL    HW126810   1.834   0.717   1.254
 8637SOL    HW226811   1.710   0.692   1.151
 8638SOL     OW26812   4.706   5.264   0.940
 8638SOL    HW126813   4.743   5.272   0.847
 8638SOL    HW226814   4.626   5.323   0.949
 8639SOL     OW26815   6.308   2.866   1.705
 8639SOL    HW126816   6.355   2.782   1.677
 8639SOL    HW226817   6.334   2.889   1.799
 8640SOL     OW26818   4.687   6.459   1.439
 8640SOL    HW126819   4.749   6.439   1.363
 8640SOL    HW226820   4.700   6.392   1.511
 8641SOL     OW26821   5.309   4.749   3.330
 8641SOL    HW126822   5.322   4.845   3.305
 8641SOL    HW226823   5.398   4.708   3.350
 8642SOL     OW26824   4.242   1.719   1.819
 8642SOL    HW126825   4.169   1.749   1.758
 8642SOL    HW226826   4.230   1.760   1.909
 8643SOL     OW26827   4.549   0.410   0.039
 8643SOL    HW126828   4.522   0.379   6.969
 8643SOL    HW226829   4.468   0.416   0.098
 8644SOL     OW26830   6.627   3.636   5.727
 8644SOL    HW126831   6.595   3.676   5.641
 8644SOL    HW226832   6.726   3.650   5.736
 8645SOL     OW26833   6.222   4.306   1.904
 8645SOL    HW126834   6.313   4.322   1.940
 8645SOL    HW226835   6.210   4.209   1.882
 8646SOL     OW26836   5.538   6.641   0.995
 8646SOL    HW126837   5.454   6.647   0.943
 8646SOL    HW226838   5.525   6.581   1.074
 8647SOL     OW26839   4.361   4.891   2.069
 8647SOL    HW126840   4.418   4.818   2.108
 8647SOL    HW226841   4.323   4.860   1.982
 8648SOL     OW26842   5.975   1.726   4.584
 8648SOL    HW126843   6.005   1.631   4.589
 8648SOL    HW226844   6.028   1.773   4.512
 8649SOL     OW26845   6.826   4.877   5.837
 8649SOL    HW126846   6.879   4.874   5.752
 8649SOL    HW226847   6.789   4.786   5.856
 8650SOL     OW26848   0.044   4.785   1.929
 8650SOL    HW126849   0.137   4.821   1.941
 8650SOL    HW226850   0.006   4.820   1.843
 8651SOL     OW26851   3.833   2.882   1.143
 8651SOL    HW126852   3.815   2.886   1.045
 8651SOL    HW226853   3.760   2.929   1.193
 8652SOL     OW26854   1.137   3.171   3.605
 8652SOL    HW126855   1.125   3.221   3.519
 8652SOL    HW226856   1.106   3.077   3.594
 8653SOL     OW26857   5.169   2.947   6.729
 8653SOL    HW126858   5.257   2.899   6.730
 8653SOL    HW226859   5.179   3.036   6.772
 8654SOL     OW26860   0.553   5.473   1.814
 8654SOL    HW126861   0.475   5.481   1.876
 8654SOL    HW226862   0.543   5.392   1.757
 8655SOL     OW26863   6.390   6.314   3.072
 8655SOL    HW126864   6.436   6.401   3.085
 8655SOL    HW226865   6.333   6.318   2.990
 8656SOL     OW26866   6.851   2.053   1.182
 8656SOL    HW126867   6.931   1.994   1.192
 8656SOL    HW226868   6.771   1.996   1.161
 8657SOL     OW26869   2.528   4.105   0.300
 8657SOL    HW126870   2.622   4.080   0.323
 8657SOL    HW226871   2.529   4.185   0.240
 8658SOL     OW26872   0.580   5.609   6.268
 8658SOL    HW126873   0.566   5.672   6.344
 8658SOL    HW226874   0.492   5.577   6.234
 8659SOL     OW26875   4.251   0.012   3.751
 8659SOL    HW126876   4.241   0.111   3.741
 8659SOL    HW226877   4.200   6.987   3.679
 8660SOL     OW26878   5.564   4.539   0.372
 8660SOL    HW126879   5.632   4.599   0.332
 8660SOL    HW226880   5.580   4.532   0.471
 8661SOL     OW26881   6.495   3.445   1.445
 8661SOL    HW126882   6.429   3.454   1.371
 8661SOL    HW226883   6.534   3.353   1.444
 8662SOL     OW26884   0.569   0.405   0.638
 8662SOL    HW126885   0.603   0.313   0.618
 8662SOL    HW226886   0.628   0.448   0.707
 8663SOL     OW26887   1.523   5.675   1.068
 8663SOL    HW126888   1.593   5.672   0.996
 8663SOL    HW226889   1.469   5.591   1.065
 8664SOL     OW26890   4.491   5.128   1.804
 8664SOL    HW126891   4.396   5.159   1.803
 8664SOL    HW226892   4.506   5.063   1.729
 8665SOL     OW26893   5.097   5.698   4.626
 8665SOL    HW126894   5.160   5.771   4.603
 8665SOL    HW226895   5.135   5.610   4.596
 8666SOL     OW26896   6.128   4.105   4.309
 8666SOL    HW126897   6.060   4.175   4.286
 8666SOL    HW226898   6.111   4.072   4.402
 8667SOL     OW26899   5.519   2.905   3.252
 8667SOL    HW126900   5.455   2.833   3.281
 8667SOL    HW226901   5.550   2.956   3.333
 8668SOL     OW26902   3.427   1.139   4.390
 8668SOL    HW126903   3.378   1.168   4.472
 8668SOL    HW226904   3.387   1.184   4.310
 8669SOL     OW26905   4.276   6.734   5.772
 8669SOL    HW126906   4.319   6.806   5.717
 8669SOL    HW226907   4.181   6.722   5.742
 8670SOL     OW26908   3.996   4.909   2.846
 8670SOL    HW126909   4.044   4.837   2.796
 8670SOL    HW226910   4.044   4.926   2.932
 8671SOL     OW26911   6.220   6.258   2.852
 8671SOL    HW126912   6.138   6.201   2.851
 8671SOL    HW226913   6.225   6.310   2.766
 8672SOL     OW26914   3.676   5.046   5.542
 8672SOL    HW126915   3.630   4.977   5.598
 8672SOL    HW226916   3.737   5.001   5.476
 8673SOL     OW26917   5.013   2.068   0.421
 8673SOL    HW126918   4.938   2.081   0.486
 8673SOL    HW226919   5.096   2.042   0.472
 8674SOL     OW26920   0.668   0.157   2.607
 8674SOL    HW126921   0.600   0.221   2.642
 8674SOL    HW226922   0.724   0.203   2.538
 8675SOL     OW26923   2.306   2.786   2.371
 8675SOL    HW126924   2.318   2.724   2.293
 8675SOL    HW226925   2.320   2.880   2.341
 8676SOL     OW26926   4.138   0.524   4.022
 8676SOL    HW126927   4.151   0.604   3.963
 8676SOL    HW226928   4.125   0.554   4.117
 8677SOL     OW26929   2.220   4.429   5.419
 8677SOL    HW126930   2.269   4.433   5.332
 8677SOL    HW226931   2.259   4.497   5.482
 8678SOL     OW26932   1.441   0.900   6.311
 8678SOL    HW126933   1.388   0.952   6.243
 8678SOL    HW226934   1.538   0.920   6.300
 8679SOL     OW26935   6.567   1.977   4.507
 8679SOL    HW126936   6.498   1.960   4.437
 8679SOL    HW226937   6.612   1.891   4.531
 8680SOL     OW26938   0.708   4.018   0.687
 8680SOL    HW126939   0.754   3.981   0.768
 8680SOL    HW226940   0.740   3.969   0.606
 8681SOL     OW26941   4.169   3.542   1.203
 8681SOL    HW126942   4.123   3.612   1.258
 8681SOL    HW226943   4.241   3.499   1.258
 8682SOL     OW26944   2.008   5.632   2.615
 8682SOL    HW126945   2.060   5.549   2.634
 8682SOL    HW226946   1.910   5.610   2.615
 8683SOL     OW26947   5.434   2.921   6.654
 8683SOL    HW126948   5.524   2.961   6.666
 8683SOL    HW226949   5.409   2.924   6.557
 8684SOL     OW26950   6.733   2.846   4.251
 8684SOL    HW126951   6.799   2.801   4.193
 8684SOL    HW226952   6.769   2.852   4.345
 8685SOL     OW26953   0.557   1.547   5.232
 8685SOL    HW126954   0.571   1.629   5.286
 8685SOL    HW226955   0.634   1.533   5.170
 8686SOL     OW26956   6.698   1.967   3.563
 8686SOL    HW126957   6.680   1.881   3.612
 8686SOL    HW226958   6.777   1.955   3.503
 8687SOL     OW26959   3.633   0.862   2.883
 8687SOL    HW126960   3.608   0.915   2.964
 8687SOL    HW226961   3.557   0.801   2.859
 8688SOL     OW26962   1.319   0.371   2.224
 8688SOL    HW126963   1.267   0.435   2.167
 8688SOL    HW226964   1.282   0.279   2.212
 8689SOL     OW26965   4.484   5.507   0.724
 8689SOL    HW126966   4.533   5.580   0.676
 8689SOL    HW226967   4.502   5.419   0.680
 8690SOL     OW26968   1.359   0.607   2.632
 8690SOL    HW126969   1.350   0.701   2.663
 8690SOL    HW226970   1.317   0.545   2.698
 8691SOL     OW26971   5.698   1.675   0.675
 8691SOL    HW126972   5.727   1.704   0.584
 8691SOL    HW226973   5.750   1.724   0.745
 8692SOL     OW26974   1.709   1.550   3.948
 8692SOL    HW126975   1.747   1.581   3.861
 8692SOL    HW226976   1.741   1.609   4.022
 8693SOL     OW26977   5.213   2.022   6.816
 8693SOL    HW126978   5.268   2.006   6.898
 8693SOL    HW226979   5.258   1.981   6.737
 8694SOL     OW26980   3.882   6.534   0.069
 8694SOL    HW126981   3.795   6.571   0.102
 8694SOL    HW226982   3.943   6.519   0.147
 8695SOL     OW26983   4.449   4.334   5.277
 8695SOL    HW126984   4.487   4.259   5.223
 8695SOL    HW226985   4.381   4.383   5.222
 8696SOL     OW26986   1.753   4.964   1.030
 8696SOL    HW126987   1.812   4.990   0.954
 8696SOL    HW226988   1.701   5.043   1.061
 8697SOL     OW26989   5.000   5.027   6.677
 8697SOL    HW126990   5.087   5.051   6.721
 8697SOL    HW226991   4.946   4.971   6.740
 8698SOL     OW26992   6.240   6.132   4.361
 8698SOL    HW126993   6.200   6.041   4.368
 8698SOL    HW226994   6.177   6.199   4.401
 8699SOL     OW26995   1.438   1.334   5.522
 8699SOL    HW126996   1.430   1.381   5.434
 8699SOL    HW226997   1.351   1.339   5.570
 8700SOL     OW26998   2.740   2.142   5.617
 8700SOL    HW126999   2.677   2.221   5.618
 8700SOL    HW227000   2.819   2.162   5.675
 8701SOL     OW27001   1.192   2.261   3.955
 8701SOL    HW127002   1.289   2.260   3.978
 8701SOL    HW227003   1.142   2.311   4.025
 8702SOL     OW27004   5.137   5.524   0.252
 8702SOL    HW127005   5.155   5.610   0.299
 8702SOL    HW227006   5.168   5.530   0.158
 8703SOL     OW27007   0.951   5.180   1.277
 8703SOL    HW127008   0.876   5.201   1.215
 8703SOL    HW227009   1.017   5.121   1.230
 8704SOL     OW27010   0.340   4.100   1.835
 8704SOL    HW127011   0.264   4.157   1.864
 8704SOL    HW227012   0.315   4.049   1.753
 8705SOL     OW27013   5.012   6.455   4.578
 8705SOL    HW127014   4.975   6.472   4.487
 8705SOL    HW227015   4.948   6.489   4.647
 8706SOL     OW27016   4.936   1.775   5.984
 8706SOL    HW127017   5.019   1.827   5.963
 8706SOL    HW227018   4.893   1.746   5.899
 8707SOL     OW27019   4.954   2.181   5.664
 8707SOL    HW127020   4.861   2.210   5.638
 8707SOL    HW227021   4.950   2.125   5.746
 8708SOL     OW27022   3.932   1.775   0.774
 8708SOL    HW127023   3.914   1.688   0.822
 8708SOL    HW227024   4.030   1.795   0.777
 8709SOL     OW27025   6.267   3.497   0.864
 8709SOL    HW127026   6.323   3.415   0.879
 8709SOL    HW227027   6.298   3.570   0.926
 8710SOL     OW27028   6.638   3.317   3.669
 8710SOL    HW127029   6.565   3.251   3.654
 8710SOL    HW227030   6.644   3.339   3.767
 8711SOL     OW27031   0.934   1.891   3.857
 8711SOL    HW127032   0.972   1.799   3.859
 8711SOL    HW227033   0.911   1.916   3.763
 8712SOL     OW27034   3.761   0.811   6.266
 8712SOL    HW127035   3.739   0.902   6.231
 8712SOL    HW227036   3.848   0.814   6.315
 8713SOL     OW27037   5.580   4.745   2.712
 8713SOL    HW127038   5.495   4.765   2.761
 8713SOL    HW227039   5.643   4.698   2.774
 8714SOL     OW27040   2.271   1.459   4.359
 8714SOL    HW127041   2.228   1.538   4.402
 8714SOL    HW227042   2.328   1.411   4.426
 8715SOL     OW27043   5.972   1.091   2.059
 8715SOL    HW127044   6.068   1.109   2.034
 8715SOL    HW227045   5.914   1.161   2.017
 8716SOL     OW27046   0.914   1.748   1.919
 8716SOL    HW127047   0.860   1.692   1.982
 8716SOL    HW227048   0.876   1.841   1.915
 8717SOL     OW27049   4.500   3.257   0.401
 8717SOL    HW127050   4.486   3.277   0.304
 8717SOL    HW227051   4.568   3.321   0.439
 8718SOL     OW27052   0.185   2.929   5.757
 8718SOL    HW127053   0.125   2.909   5.835
 8718SOL    HW227054   0.154   3.013   5.713
 8719SOL     OW27055   6.637   0.939   5.466
 8719SOL    HW127056   6.673   0.982   5.383
 8719SOL    HW227057   6.537   0.951   5.470
 8720SOL     OW27058   4.675   3.854   5.881
 8720SOL    HW127059   4.628   3.816   5.801
 8720SOL    HW227060   4.701   3.780   5.943
 8721SOL     OW27061   6.939   1.149   4.650
 8721SOL    HW127062   6.862   1.122   4.708
 8721SOL    HW227063   7.012   1.080   4.658
 8722SOL     OW27064   2.968   2.989   0.824
 8722SOL    HW127065   2.951   2.926   0.748
 8722SOL    HW227066   3.006   2.939   0.902
 8723SOL     OW27067   0.254   5.175   0.154
 8723SOL    HW127068   0.180   5.158   0.089
 8723SOL    HW227069   0.295   5.088   0.182
 8724SOL     OW27070   5.655   6.014   6.636
 8724SOL    HW127071   5.623   6.096   6.684
 8724SOL    HW227072   5.753   6.023   6.617
 8725SOL     OW27073   2.053   6.317   1.148
 8725SOL    HW127074   2.066   6.322   1.247
 8725SOL    HW227075   2.140   6.296   1.104
 8726SOL     OW27076   6.061   7.009   1.453
 8726SOL    HW127077   6.139   0.039   1.417
 8726SOL    HW227078   6.079   6.983   1.548
 8727SOL     OW27079   6.227   6.252   1.486
 8727SOL    HW127080   6.145   6.211   1.446
 8727SOL    HW227081   6.220   6.352   1.484
 8728SOL     OW27082   2.336   6.651   5.420
 8728SOL    HW127083   2.402   6.674   5.491
 8728SOL    HW227084   2.274   6.729   5.406
 8729SOL     OW27085   5.600   6.447   4.521
 8729SOL    HW127086   5.623   6.516   4.589
 8729SOL    HW227087   5.503   6.424   4.528
 8730SOL     OW27088   6.717   6.479   0.925
 8730SOL    HW127089   6.687   6.544   0.994
 8730SOL    HW227090   6.808   6.444   0.948
 8731SOL     OW27091   0.750   1.967   2.377
 8731SOL    HW127092   0.800   2.021   2.309
 8731SOL    HW227093   0.654   1.959   2.348
 8732SOL     OW27094   6.249   5.582   1.847
 8732SOL    HW127095   6.241   5.682   1.853
 8732SOL    HW227096   6.160   5.541   1.866
 8733SOL     OW27097   6.963   6.780   1.723
 8733SOL    HW127098   7.006   6.692   1.747
 8733SOL    HW227099   6.977   6.798   1.626
 8734SOL     OW27100   6.950   5.673   0.314
 8734SOL    HW127101   0.000   5.743   0.319
 8734SOL    HW227102   6.993   5.583   0.305
 8735SOL     OW27103   6.958   2.600   6.794
 8735SOL    HW127104   7.003   2.511   6.798
 8735SOL    HW227105   6.996   2.660   6.865
 8736SOL     OW27106   0.338   4.817   6.175
 8736SOL    HW127107   0.418   4.869   6.205
 8736SOL    HW227108   0.333   4.818   6.075
 8737SOL     OW27109   3.725   6.381   6.816
 8737SOL    HW127110   3.704   6.360   6.911
 8737SOL    HW227111   3.740   6.479   6.806
 8738SOL     OW27112   1.029   3.695   4.995
 8738SOL    HW127113   1.000   3.604   5.022
 8738SOL    HW227114   1.125   3.694   4.970
 8739SOL     OW27115   1.205   3.325   5.643
 8739SOL    HW127116   1.260   3.260   5.591
 8739SOL    HW227117   1.142   3.372   5.582
 8740SOL     OW27118   1.355   6.705   1.324
 8740SOL    HW127119   1.296   6.785   1.326
 8740SOL    HW227120   1.302   6.623   1.346
 8741SOL     OW27121   1.744   3.233   1.931
 8741SOL    HW127122   1.828   3.274   1.966
 8741SOL    HW227123   1.762   3.193   1.841
 8742SOL     OW27124   4.905   6.280   2.343
 8742SOL    HW127125   4.887   6.369   2.384
 8742SOL    HW227126   4.818   6.236   2.319
 8743SOL     OW27127   2.458   4.799   3.143
 8743SOL    HW127128   2.367   4.761   3.129
 8743SOL    HW227129   2.524   4.752   3.083
 8744SOL     OW27130   3.259   3.396   5.517
 8744SOL    HW127131   3.315   3.418   5.437
 8744SOL    HW227132   3.168   3.369   5.488
 8745SOL     OW27133   6.371   1.728   6.946
 8745SOL    HW127134   6.323   1.652   6.903
 8745SOL    HW227135   6.314   1.767   7.018
 8746SOL     OW27136   5.076   4.208   5.189
 8746SOL    HW127137   4.976   4.202   5.182
 8746SOL    HW227138   5.117   4.127   5.146
 8747SOL     OW27139   0.988   2.361   4.129
 8747SOL    HW127140   0.926   2.327   4.058
 8747SOL    HW227141   0.941   2.360   4.218
 8748SOL     OW27142   2.986   6.755   0.189
 8748SOL    HW127143   3.058   6.820   0.166
 8748SOL    HW227144   3.015   6.663   0.161
 8749SOL     OW27145   4.192   1.478   4.116
 8749SOL    HW127146   4.273   1.436   4.158
 8749SOL    HW227147   4.191   1.576   4.136
 8750SOL     OW27148   1.971   0.595   5.192
 8750SOL    HW127149   1.941   0.516   5.246
 8750SOL    HW227150   2.068   0.610   5.206
 8751SOL     OW27151   2.409   0.451   3.098
 8751SOL    HW127152   2.456   0.487   3.178
 8751SOL    HW227153   2.312   0.478   3.102
 8752SOL     OW27154   2.154   1.988   6.236
 8752SOL    HW127155   2.084   1.982   6.164
 8752SOL    HW227156   2.114   2.033   6.316
 8753SOL     OW27157   6.200   1.217   4.770
 8753SOL    HW127158   6.125   1.182   4.714
 8753SOL    HW227159   6.183   1.194   4.866
 8754SOL     OW27160   2.136   1.167   4.949
 8754SOL    HW127161   2.077   1.088   4.964
 8754SOL    HW227162   2.171   1.165   4.856
 8755SOL     OW27163   2.389   1.739   1.124
 8755SOL    HW127164   2.432   1.825   1.097
 8755SOL    HW227165   2.300   1.758   1.167
 8756SOL     OW27166   1.939   3.946   4.040
 8756SOL    HW127167   1.871   3.982   4.105
 8756SOL    HW227168   1.928   3.992   3.952
 8757SOL     OW27169   4.284   5.991   4.289
 8757SOL    HW127170   4.247   6.034   4.371
 8757SOL    HW227171   4.251   5.897   4.283
 8758SOL     OW27172   5.445   6.387   1.925
 8758SOL    HW127173   5.460   6.481   1.893
 8758SOL    HW227174   5.443   6.386   2.025
 8759SOL     OW27175   5.586   1.635   5.584
 8759SOL    HW127176   5.602   1.702   5.657
 8759SOL    HW227177   5.487   1.620   5.575
 8760SOL     OW27178   1.376   3.208   3.692
 8760SOL    HW127179   1.429   3.235   3.612
 8760SOL    HW227180   1.281   3.188   3.665
 8761SOL     OW27181   5.306   6.147   1.210
 8761SOL    HW127182   5.329   6.114   1.302
 8761SOL    HW227183   5.337   6.080   1.142
 8762SOL     OW27184   0.759   3.798   0.079
 8762SOL    HW127185   0.664   3.826   0.062
 8762SOL    HW227186   0.821   3.868   0.044
 8763SOL     OW27187   0.082   6.040   6.346
 8763SOL    HW127188   0.002   6.099   6.355
 8763SOL    HW227189   0.106   6.003   6.436
 8764SOL     OW27190   3.735   1.841   5.337
 8764SOL    HW127191   3.738   1.920   5.398
 8764SOL    HW227192   3.754   1.757   5.389
 8765SOL     OW27193   6.752   0.388   4.979
 8765SOL    HW127194   6.671   0.332   4.965
 8765SOL    HW227195   6.743   0.439   5.064
 8766SOL     OW27196   2.436   4.381   2.360
 8766SOL    HW127197   2.481   4.456   2.312
 8766SOL    HW227198   2.382   4.327   2.295
 8767SOL     OW27199   4.472   1.587   5.089
 8767SOL    HW127200   4.435   1.545   5.006
 8767SOL    HW227201   4.496   1.682   5.069
 8768SOL     OW27202   1.087   3.971   0.121
 8768SOL    HW127203   1.085   3.972   0.021
 8768SOL    HW227204   1.182   3.967   0.153
 8769SOL     OW27205   1.794   0.790   5.298
 8769SOL    HW127206   1.854   0.724   5.253
 8769SOL    HW227207   1.810   0.881   5.261
 8770SOL     OW27208   5.471   1.813   2.988
 8770SOL    HW127209   5.539   1.791   2.918
 8770SOL    HW227210   5.446   1.910   2.981
 8771SOL     OW27211   2.315   2.364   5.463
 8771SOL    HW127212   2.227   2.403   5.437
 8771SOL    HW227213   2.385   2.436   5.462
 8772SOL     OW27214   5.947   5.947   6.368
 8772SOL    HW127215   6.044   5.933   6.349
 8772SOL    HW227216   5.913   5.870   6.423
 8773SOL     OW27217   3.030   1.922   2.821
 8773SOL    HW127218   3.001   1.866   2.898
 8773SOL    HW227219   3.102   1.875   2.771
 8774SOL     OW27220   1.149   0.836   0.285
 8774SOL    HW127221   1.138   0.935   0.283
 8774SOL    HW227222   1.059   0.792   0.284
 8775SOL     OW27223   6.856   6.495   3.908
 8775SOL    HW127224   6.766   6.511   3.949
 8775SOL    HW227225   6.904   6.423   3.959
 8776SOL     OW27226   3.423   3.940   4.507
 8776SOL    HW127227   3.392   3.858   4.556
 8776SOL    HW227228   3.513   3.967   4.540
 8777SOL     OW27229   6.508   5.590   2.370
 8777SOL    HW127230   6.576   5.522   2.341
 8777SOL    HW227231   6.536   5.680   2.337
 8778SOL     OW27232   0.789   2.188   3.083
 8778SOL    HW127233   0.830   2.259   3.141
 8778SOL    HW227234   0.856   2.115   3.068
 8779SOL     OW27235   1.420   4.782   1.298
 8779SOL    HW127236   1.411   4.736   1.386
 8779SOL    HW227237   1.458   4.718   1.231
 8780SOL     OW27238   2.126   6.417   4.670
 8780SOL    HW127239   2.164   6.417   4.577
 8780SOL    HW227240   2.139   6.327   4.711
 8781SOL     OW27241   0.481   2.471   3.265
 8781SOL    HW127242   0.511   2.542   3.328
 8781SOL    HW227243   0.538   2.473   3.182
 8782SOL     OW27244   4.964   1.552   3.023
 8782SOL    HW127245   4.908   1.635   3.024
 8782SOL    HW227246   5.060   1.577   3.039
 8783SOL     OW27247   6.052   2.521   6.307
 8783SOL    HW127248   6.006   2.607   6.285
 8783SOL    HW227249   5.985   2.448   6.314
 8784SOL     OW27250   5.116   4.089   6.067
 8784SOL    HW127251   5.019   4.112   6.074
 8784SOL    HW227252   5.171   4.159   6.112
 8785SOL     OW27253   5.131   4.350   6.318
 8785SOL    HW127254   5.149   4.448   6.316
 8785SOL    HW227255   5.215   4.301   6.344
 8786SOL     OW27256   1.011   6.193   0.693
 8786SOL    HW127257   0.951   6.248   0.753
 8786SOL    HW227258   0.973   6.101   0.685
 8787SOL     OW27259   1.399   3.140   0.027
 8787SOL    HW127260   1.377   3.055   0.076
 8787SOL    HW227261   1.356   3.217   0.074
 8788SOL     OW27262   1.486   1.726   5.158
 8788SOL    HW127263   1.527   1.640   5.186
 8788SOL    HW227264   1.409   1.708   5.097
 8789SOL     OW27265   0.513   0.801   0.092
 8789SOL    HW127266   0.484   0.860   0.167
 8789SOL    HW227267   0.595   0.839   0.050
 8790SOL     OW27268   4.544   1.554   0.118
 8790SOL    HW127269   4.504   1.556   0.026
 8790SOL    HW227270   4.588   1.466   0.133
 8791SOL     OW27271   5.067   6.013   5.400
 8791SOL    HW127272   5.066   5.932   5.342
 8791SOL    HW227273   5.018   6.088   5.354
 8792SOL     OW27274   5.400   6.779   2.794
 8792SOL    HW127275   5.459   6.710   2.835
 8792SOL    HW227276   5.372   6.749   2.703
 8793SOL     OW27277   1.216   4.679   3.317
 8793SOL    HW127278   1.308   4.684   3.278
 8793SOL    HW227279   1.158   4.749   3.274
 8794SOL     OW27280   2.683   5.714   2.791
 8794SOL    HW127281   2.762   5.663   2.827
 8794SOL    HW227282   2.657   5.678   2.702
 8795SOL     OW27283   2.272   5.630   5.050
 8795SOL    HW127284   2.348   5.633   4.985
 8795SOL    HW227285   2.250   5.723   5.080
 8796SOL     OW27286   6.092   2.843   5.776
 8796SOL    HW127287   6.106   2.766   5.838
 8796SOL    HW227288   6.005   2.888   5.796
 8797SOL     OW27289   1.082   5.963   6.688
 8797SOL    HW127290   1.164   5.949   6.633
 8797SOL    HW227291   1.080   6.057   6.722
 8798SOL     OW27292   3.466   3.246   5.917
 8798SOL    HW127293   3.481   3.147   5.925
 8798SOL    HW227294   3.511   3.280   5.835
 8799SOL     OW27295   3.927   0.246   3.060
 8799SOL    HW127296   3.897   0.340   3.072
 8799SOL    HW227297   3.853   0.193   3.018
 8800SOL     OW27298   4.514   5.274   0.584
 8800SOL    HW127299   4.611   5.270   0.608
 8800SOL    HW227300   4.472   5.184   0.599
 8801SOL     OW27301   3.100   6.658   5.536
 8801SOL    HW127302   3.042   6.576   5.530
 8801SOL    HW227303   3.121   6.690   5.444
 8802SOL     OW27304   1.844   6.676   1.998
 8802SOL    HW127305   1.784   6.710   1.926
 8802SOL    HW227306   1.890   6.752   2.043
 8803SOL     OW27307   4.124   6.151   1.066
 8803SOL    HW127308   4.108   6.052   1.058
 8803SOL    HW227309   4.087   6.184   1.152
 8804SOL     OW27310   3.172   0.934   0.981
 8804SOL    HW127311   3.211   1.026   0.993
 8804SOL    HW227312   3.207   0.894   0.896
 8805SOL     OW27313   0.260   0.393   3.270
 8805SOL    HW127314   0.242   0.413   3.174
 8805SOL    HW227315   0.353   0.357   3.280
 8806SOL     OW27316   1.797   4.843   0.426
 8806SOL    HW127317   1.845   4.769   0.474
 8806SOL    HW227318   1.746   4.898   0.492
 8807SOL     OW27319   1.862   6.094   6.570
 8807SOL    HW127320   1.830   6.093   6.665
 8807SOL    HW227321   1.808   6.159   6.518
 8808SOL     OW27322   5.968   2.086   1.156
 8808SOL    HW127323   5.976   2.030   1.239
 8808SOL    HW227324   6.037   2.057   1.090
 8809SOL     OW27325   6.251   4.262   0.922
 8809SOL    HW127326   6.163   4.305   0.904
 8809SOL    HW227327   6.325   4.323   0.892
 8810SOL     OW27328   5.085   1.483   3.957
 8810SOL    HW127329   5.148   1.541   3.905
 8810SOL    HW227330   5.088   1.508   4.054
 8811SOL     OW27331   1.378   1.810   4.028
 8811SOL    HW127332   1.320   1.883   3.993
 8811SOL    HW227333   1.458   1.849   4.074
 8812SOL     OW27334   2.115   1.196   0.168
 8812SOL    HW127335   2.159   1.115   0.206
 8812SOL    HW227336   2.112   1.269   0.237
 8813SOL     OW27337   1.161   5.759   0.829
 8813SOL    HW127338   1.152   5.746   0.730
 8813SOL    HW227339   1.170   5.856   0.849
 8814SOL     OW27340   5.185   6.296   6.676
 8814SOL    HW127341   5.184   6.377   6.618
 8814SOL    HW227342   5.249   6.229   6.638
 8815SOL     OW27343   6.159   5.667   3.343
 8815SOL    HW127344   6.148   5.766   3.341
 8815SOL    HW227345   6.254   5.644   3.361
 8816SOL     OW27346   0.831   5.467   1.824
 8816SOL    HW127347   0.893   5.476   1.902
 8816SOL    HW227348   0.737   5.454   1.857
 8817SOL     OW27349   2.322   4.707   5.535
 8817SOL    HW127350   2.298   4.745   5.445
 8817SOL    HW227351   2.261   4.745   5.604
 8818SOL     OW27352   0.102   4.559   4.750
 8818SOL    HW127353   0.200   4.537   4.742
 8818SOL    HW227354   0.056   4.486   4.801
 8819SOL     OW27355   6.009   0.232   4.195
 8819SOL    HW127356   5.910   0.222   4.203
 8819SOL    HW227357   6.046   0.269   4.281
 8820SOL     OW27358   1.022   3.235   3.854
 8820SOL    HW127359   1.071   3.219   3.768
 8820SOL    HW227360   1.059   3.175   3.925
 8821SOL     OW27361   1.492   6.771   6.190
 8821SOL    HW127362   1.432   6.694   6.214
 8821SOL    HW227363   1.547   6.796   6.270
 8822SOL     OW27364   0.567   1.979   3.630
 8822SOL    HW127365   0.536   1.889   3.600
 8822SOL    HW227366   0.606   2.029   3.553
 8823SOL     OW27367   2.577   4.786   1.535
 8823SOL    HW127368   2.552   4.826   1.623
 8823SOL    HW227369   2.499   4.735   1.498
 8824SOL     OW27370   4.568   3.868   1.162
 8824SOL    HW127371   4.612   3.899   1.246
 8824SOL    HW227372   4.486   3.815   1.185
 8825SOL     OW27373   1.848   2.610   1.034
 8825SOL    HW127374   1.906   2.654   1.103
 8825SOL    HW227375   1.887   2.521   1.009
 8826SOL     OW27376   5.402   0.677   0.309
 8826SOL    HW127377   5.391   0.726   0.395
 8826SOL    HW227378   5.486   0.707   0.264
 8827SOL     OW27379   6.820   1.435   3.247
 8827SOL    HW127380   6.811   1.519   3.193
 8827SOL    HW227381   6.822   1.356   3.187
 8828SOL     OW27382   1.438   6.219   3.020
 8828SOL    HW127383   1.465   6.286   2.951
 8828SOL    HW227384   1.366   6.258   3.078
 8829SOL     OW27385   1.401   1.415   0.646
 8829SOL    HW127386   1.322   1.386   0.700
 8829SOL    HW227387   1.478   1.435   0.707
 8830SOL     OW27388   1.286   1.436   0.115
 8830SOL    HW127389   1.259   1.393   0.202
 8830SOL    HW227390   1.214   1.497   0.085
 8831SOL     OW27391   6.953   1.135   1.875
 8831SOL    HW127392   7.019   1.209   1.860
 8831SOL    HW227393   6.865   1.174   1.900
 8832SOL     OW27394   6.900   0.579   1.885
 8832SOL    HW127395   6.995   0.550   1.873
 8832SOL    HW227396   6.895   0.650   1.955
 8833SOL     OW27397   1.306   5.103   2.701
 8833SOL    HW127398   1.283   5.136   2.792
 8833SOL    HW227399   1.338   5.180   2.645
 8834SOL     OW27400   5.933   4.011   3.943
 8834SOL    HW127401   5.855   4.031   4.003
 8834SOL    HW227402   5.967   4.095   3.903
 8835SOL     OW27403   0.524   0.749   6.738
 8835SOL    HW127404   0.483   0.839   6.751
 8835SOL    HW227405   0.620   0.760   6.713
 8836SOL     OW27406   5.089   1.977   1.698
 8836SOL    HW127407   5.024   1.930   1.638
 8836SOL    HW227408   5.172   1.922   1.707
 8837SOL     OW27409   0.772   2.644   2.157
 8837SOL    HW127410   0.831   2.725   2.162
 8837SOL    HW227411   0.678   2.670   2.175
 8838SOL     OW27412   2.305   6.008   3.266
 8838SOL    HW127413   2.402   6.031   3.257
 8838SOL    HW227414   2.283   5.994   3.362
 8839SOL     OW27415   5.801   6.049   4.265
 8839SOL    HW127416   5.749   6.089   4.340
 8839SOL    HW227417   5.829   5.956   4.289
 8840SOL     OW27418   4.927   0.780   2.249
 8840SOL    HW127419   4.976   0.702   2.209
 8840SOL    HW227420   4.989   0.858   2.256
 8841SOL     OW27421   2.932   0.080   3.946
 8841SOL    HW127422   2.898   0.112   3.858
 8841SOL    HW227423   2.961   7.005   3.938
 8842SOL     OW27424   1.399   2.723   1.791
 8842SOL    HW127425   1.425   2.803   1.844
 8842SOL    HW227426   1.336   2.750   1.718
 8843SOL     OW27427   0.217   2.990   4.565
 8843SOL    HW127428   0.253   3.082   4.577
 8843SOL    HW227429   0.260   2.948   4.485
 8844SOL     OW27430   5.905   1.483   6.152
 8844SOL    HW127431   5.988   1.432   6.131
 8844SOL    HW227432   5.914   1.577   6.119
 8845SOL     OW27433   5.524   3.376   6.820
 8845SOL    HW127434   5.472   3.342   6.742
 8845SOL    HW227435   5.597   3.311   6.842
 8846SOL     OW27436   3.022   4.791   3.372
 8846SOL    HW127437   2.930   4.754   3.358
 8846SOL    HW227438   3.031   4.821   3.467
 8847SOL     OW27439   1.318   0.862   2.731
 8847SOL    HW127440   1.287   0.930   2.664
 8847SOL    HW227441   1.375   0.907   2.800
 8848SOL     OW27442   1.080   0.940   3.523
 8848SOL    HW127443   1.012   1.011   3.544
 8848SOL    HW227444   1.033   0.853   3.508
 8849SOL     OW27445   2.557   6.886   1.458
 8849SOL    HW127446   2.585   6.955   1.390
 8849SOL    HW227447   2.639   6.841   1.495
 8850SOL     OW27448   2.654   2.622   0.106
 8850SOL    HW127449   2.579   2.651   0.046
 8850SOL    HW227450   2.663   2.523   0.102
 8851SOL     OW27451   1.831   3.635   2.265
 8851SOL    HW127452   1.770   3.604   2.192
 8851SOL    HW227453   1.925   3.609   2.242
 8852SOL     OW27454   0.721   2.192   5.028
 8852SOL    HW127455   0.793   2.222   4.965
 8852SOL    HW227456   0.659   2.268   5.046
 8853SOL     OW27457   4.990   0.681   1.502
 8853SOL    HW127458   4.952   0.730   1.581
 8853SOL    HW227459   5.072   0.631   1.530
 8854SOL     OW27460   0.857   2.593   4.683
 8854SOL    HW127461   0.809   2.576   4.597
 8854SOL    HW227462   0.899   2.684   4.680
 8855SOL     OW27463   5.218   4.912   1.341
 8855SOL    HW127464   5.138   4.868   1.301
 8855SOL    HW227465   5.297   4.851   1.334
 8856SOL     OW27466   6.219   0.645   5.749
 8856SOL    HW127467   6.128   0.618   5.717
 8856SOL    HW227468   6.268   0.564   5.780
 8857SOL     OW27469   0.246   2.060   6.523
 8857SOL    HW127470   0.216   2.155   6.525
 8857SOL    HW227471   0.334   2.053   6.476
 8858SOL     OW27472   6.782   5.739   4.983
 8858SOL    HW127473   6.808   5.676   4.910
 8858SOL    HW227474   6.726   5.813   4.947
 8859SOL     OW27475   0.883   5.815   2.952
 8859SOL    HW127476   0.900   5.886   2.883
 8859SOL    HW227477   0.794   5.773   2.935
 8860SOL     OW27478   0.247   3.459   2.377
 8860SOL    HW127479   0.325   3.521   2.383
 8860SOL    HW227480   0.266   3.376   2.430
 8861SOL     OW27481   3.853   2.797   1.822
 8861SOL    HW127482   3.845   2.832   1.729
 8861SOL    HW227483   3.865   2.873   1.886
 8862SOL     OW27484   4.312   4.790   4.988
 8862SOL    HW127485   4.342   4.696   5.006
 8862SOL    HW227486   4.239   4.814   5.052
 8863SOL     OW27487   1.257   4.199   2.439
 8863SOL    HW127488   1.308   4.142   2.503
 8863SOL    HW227489   1.303   4.199   2.350
 8864SOL     OW27490   6.354   2.137   5.137
 8864SOL    HW127491   6.351   2.038   5.152
 8864SOL    HW227492   6.433   2.176   5.185
 8865SOL     OW27493   2.593   2.406   0.758
 8865SOL    HW127494   2.652   2.487   0.760
 8865SOL    HW227495   2.555   2.394   0.666
 8866SOL     OW27496   5.859   6.357   2.145
 8866SOL    HW127497   5.956   6.375   2.126
 8866SOL    HW227498   5.802   6.418   2.089
 8867SOL     OW27499   6.458   3.310   2.780
 8867SOL    HW127500   6.415   3.223   2.804
 8867SOL    HW227501   6.460   3.321   2.681
 8868SOL     OW27502   0.076   3.343   3.740
 8868SOL    HW127503   0.127   3.312   3.659
 8868SOL    HW227504   7.009   3.295   3.745
 8869SOL     OW27505   4.799   0.409   3.655
 8869SOL    HW127506   4.742   0.490   3.646
 8869SOL    HW227507   4.895   0.436   3.657
 8870SOL     OW27508   1.226   1.295   1.776
 8870SOL    HW127509   1.219   1.328   1.681
 8870SOL    HW227510   1.246   1.197   1.776
 8871SOL     OW27511   0.276   0.166   1.490
 8871SOL    HW127512   0.186   0.205   1.470
 8871SOL    HW227513   0.307   0.112   1.412
 8872SOL     OW27514   0.098   4.210   3.456
 8872SOL    HW127515   0.153   4.227   3.537
 8872SOL    HW227516   0.006   4.246   3.469
 8873SOL     OW27517   2.430   1.967   2.924
 8873SOL    HW127518   2.480   1.932   2.845
 8873SOL    HW227519   2.353   2.024   2.892
 8874SOL     OW27520   3.068   6.296   0.802
 8874SOL    HW127521   3.073   6.392   0.829
 8874SOL    HW227522   2.972   6.267   0.797
 8875SOL     OW27523   6.004   3.369   5.434
 8875SOL    HW127524   6.025   3.442   5.498
 8875SOL    HW227525   6.033   3.281   5.473
 8876SOL     OW27526   3.583   0.755   0.584
 8876SOL    HW127527   3.640   0.836   0.566
 8876SOL    HW227528   3.530   0.769   0.667
 8877SOL     OW27529   0.781   5.186   1.084
 8877SOL    HW127530   0.693   5.224   1.058
 8877SOL    HW227531   0.783   5.088   1.063
 8878SOL     OW27532   5.193   3.635   1.890
 8878SOL    HW127533   5.100   3.651   1.923
 8878SOL    HW227534   5.239   3.568   1.949
 8879SOL     OW27535   0.121   4.486   3.535
 8879SOL    HW127536   0.198   4.505   3.475
 8879SOL    HW227537   0.153   4.475   3.629
 8880SOL     OW27538   4.235   2.155   3.039
 8880SOL    HW127539   4.154   2.179   2.985
 8880SOL    HW227540   4.307   2.123   2.977
 8881SOL     OW27541   3.275   5.059   2.640
 8881SOL    HW127542   3.207   5.041   2.711
 8881SOL    HW227543   3.279   4.982   2.577
 8882SOL     OW27544   3.916   0.698   0.638
 8882SOL    HW127545   3.984   0.628   0.657
 8882SOL    HW227546   3.832   0.677   0.688
 8883SOL     OW27547   7.007   6.432   3.031
 8883SOL    HW127548   0.046   6.510   3.016
 8883SOL    HW227549   0.026   6.351   2.987
 8884SOL     OW27550   4.337   2.837   5.511
 8884SOL    HW127551   4.248   2.825   5.467
 8884SOL    HW227552   4.409   2.832   5.442
 8885SOL     OW27553   5.595   6.094   0.502
 8885SOL    HW127554   5.533   6.030   0.548
 8885SOL    HW227555   5.595   6.075   0.404
 8886SOL     OW27556   4.728   6.770   7.010
 8886SOL    HW127557   4.826   6.750   0.000
 8886SOL    HW227558   4.675   6.687   0.007
 8887SOL     OW27559   3.668   0.412   1.593
 8887SOL    HW127560   3.673   0.498   1.543
 8887SOL    HW227561   3.658   0.430   1.691
 8888SOL     OW27562   3.131   2.005   2.432
 8888SOL    HW127563   3.055   1.939   2.433
 8888SOL    HW227564   3.139   2.045   2.340
 8889SOL     OW27565   1.287   4.770   0.911
 8889SOL    HW127566   1.271   4.681   0.868
 8889SOL    HW227567   1.212   4.791   0.974
 8890SOL     OW27568   1.281   5.633   6.893
 8890SOL    HW127569   1.267   5.551   6.949
 8890SOL    HW227570   1.195   5.684   6.888
 8891SOL     OW27571   6.479   3.777   5.525
 8891SOL    HW127572   6.517   3.846   5.463
 8891SOL    HW227573   6.406   3.818   5.580
 8892SOL     OW27574   2.955   5.157   5.021
 8892SOL    HW127575   3.015   5.151   4.941
 8892SOL    HW227576   2.930   5.065   5.052
 8893SOL     OW27577   0.852   4.318   5.696
 8893SOL    HW127578   0.793   4.241   5.674
 8893SOL    HW227579   0.916   4.334   5.620
 8894SOL     OW27580   5.148   1.658   1.886
 8894SOL    HW127581   5.090   1.580   1.863
 8894SOL    HW227582   5.156   1.666   1.985
 8895SOL     OW27583   6.837   3.228   1.006
 8895SOL    HW127584   6.830   3.214   1.105
 8895SOL    HW227585   6.770   3.297   0.978
 8896SOL     OW27586   1.164   1.710   3.488
 8896SOL    HW127587   1.215   1.625   3.475
 8896SOL    HW227588   1.138   1.720   3.584
 8897SOL     OW27589   1.761   5.639   3.946
 8897SOL    HW127590   1.800   5.639   3.853
 8897SOL    HW227591   1.794   5.559   3.995
 8898SOL     OW27592   4.809   3.866   2.667
 8898SOL    HW127593   4.786   3.920   2.586
 8898SOL    HW227594   4.833   3.928   2.742
 8899SOL     OW27595   2.045   3.648   2.531
 8899SOL    HW127596   2.096   3.569   2.497
 8899SOL    HW227597   1.985   3.683   2.459
 8900SOL     OW27598   4.092   1.660   4.435
 8900SOL    HW127599   4.082   1.729   4.507
 8900SOL    HW227600   4.061   1.572   4.469
 8901SOL     OW27601   1.739   5.914   5.042
 8901SOL    HW127602   1.736   5.871   5.132
 8901SOL    HW227603   1.828   5.898   5.001
 8902SOL     OW27604   0.444   5.072   6.884
 8902SOL    HW127605   0.488   5.099   6.970
 8902SOL    HW227606   0.427   4.973   6.886
 8903SOL     OW27607   1.318   0.568   5.146
 8903SOL    HW127608   1.414   0.594   5.131
 8903SOL    HW227609   1.278   0.537   5.059
 8904SOL     OW27610   0.693   0.982   3.430
 8904SOL    HW127611   0.718   0.887   3.413
 8904SOL    HW227612   0.620   0.985   3.498
 8905SOL     OW27613   1.918   4.462   1.843
 8905SOL    HW127614   1.968   4.377   1.829
 8905SOL    HW227615   1.975   4.526   1.894
 8906SOL     OW27616   6.046   0.301   6.284
 8906SOL    HW127617   6.070   0.212   6.245
 8906SOL    HW227618   6.093   0.313   6.372
 8907SOL     OW27619   3.037   3.282   5.099
 8907SOL    HW127620   2.991   3.349   5.041
 8907SOL    HW227621   3.025   3.190   5.059
 8908SOL     OW27622   1.743   4.686   6.351
 8908SOL    HW127623   1.667   4.629   6.383
 8908SOL    HW227624   1.820   4.677   6.415
 8909SOL     OW27625   2.007   5.491   1.587
 8909SOL    HW127626   2.008   5.396   1.554
 8909SOL    HW227627   2.100   5.527   1.586
 8910SOL     OW27628   1.083   1.284   3.283
 8910SOL    HW127629   1.120   1.193   3.302
 8910SOL    HW227630   1.146   1.353   3.318
 8911SOL     OW27631   5.470   2.773   4.848
 8911SOL    HW127632   5.465   2.675   4.830
 8911SOL    HW227633   5.564   2.798   4.874
 8912SOL     OW27634   3.372   3.126   3.746
 8912SOL    HW127635   3.324   3.176   3.818
 8912SOL    HW227636   3.435   3.188   3.699
 8913SOL     OW27637   5.054   5.867   1.292
 8913SOL    HW127638   5.138   5.843   1.244
 8913SOL    HW227639   4.999   5.927   1.234
 8914SOL     OW27640   4.802   5.761   5.194
 8914SOL    HW127641   4.882   5.805   5.236
 8914SOL    HW227642   4.833   5.687   5.134
 8915SOL     OW27643   1.488   1.110   3.749
 8915SOL    HW127644   1.566   1.077   3.696
 8915SOL    HW227645   1.518   1.187   3.806
 8916SOL     OW27646   5.477   0.994   1.802
 8916SOL    HW127647   5.436   1.069   1.854
 8916SOL    HW227648   5.435   0.990   1.711
 8917SOL     OW27649   5.997   1.712   0.095
 8917SOL    HW127650   5.911   1.696   0.144
 8917SOL    HW227651   5.977   1.747   0.004
 8918SOL     OW27652   1.008   3.837   2.227
 8918SOL    HW127653   0.998   3.935   2.246
 8918SOL    HW227654   0.998   3.785   2.312
 8919SOL     OW27655   5.980   2.926   2.385
 8919SOL    HW127656   6.066   2.892   2.347
 8919SOL    HW227657   5.944   2.858   2.449
 8920SOL     OW27658   0.933   1.485   0.018
 8920SOL    HW127659   0.910   1.538   6.957
 8920SOL    HW227660   0.936   1.545   0.097
 8921SOL     OW27661   0.820   3.241   1.987
 8921SOL    HW127662   0.737   3.294   2.006
 8921SOL    HW227663   0.805   3.145   2.009
 8922SOL     OW27664   3.597   4.929   3.476
 8922SOL    HW127665   3.521   4.889   3.526
 8922SOL    HW227666   3.589   5.029   3.477
 8923SOL     OW27667   2.369   1.041   4.155
 8923SOL    HW127668   2.295   0.983   4.120
 8923SOL    HW227669   2.362   1.048   4.254
 8924SOL     OW27670   6.217   5.260   4.976
 8924SOL    HW127671   6.304   5.238   5.020
 8924SOL    HW227672   6.142   5.219   5.029
 8925SOL     OW27673   0.636   0.044   3.605
 8925SOL    HW127674   0.580   0.114   3.649
 8925SOL    HW227675   0.681   0.082   3.525
 8926SOL     OW27676   6.000   1.197   6.989
 8926SOL    HW127677   5.937   1.121   6.999
 8926SOL    HW227678   6.050   1.210   0.055
 8927SOL     OW27679   1.684   0.849   6.553
 8927SOL    HW127680   1.717   0.884   6.465
 8927SOL    HW227681   1.741   0.772   6.581
 8928SOL     OW27682   1.534   6.990   5.832
 8928SOL    HW127683   1.582   6.903   5.846
 8928SOL    HW227684   1.460   6.998   5.899
 8929SOL     OW27685   0.271   1.972   3.751
 8929SOL    HW127686   0.348   1.914   3.725
 8929SOL    HW227687   0.306   2.053   3.799
 8930SOL     OW27688   2.110   5.155   3.994
 8930SOL    HW127689   2.070   5.077   3.946
 8930SOL    HW227690   2.097   5.238   3.939
 8931SOL     OW27691   4.222   3.437   0.337
 8931SOL    HW127692   4.278   3.462   0.416
 8931SOL    HW227693   4.280   3.432   0.255
 8932SOL     OW27694   0.791   3.606   3.464
 8932SOL    HW127695   0.699   3.613   3.503
 8932SOL    HW227696   0.816   3.691   3.419
 8933SOL     OW27697   4.643   1.694   6.047
 8933SOL    HW127698   4.599   1.675   6.135
 8933SOL    HW227699   4.675   1.789   6.046
 8934SOL     OW27700   2.412   5.965   2.898
 8934SOL    HW127701   2.382   5.871   2.879
 8934SOL    HW227702   2.337   6.015   2.942
 8935SOL     OW27703   6.654   5.175   6.885
 8935SOL    HW127704   6.572   5.219   6.848
 8935SOL    HW227705   6.647   5.170   6.985
 8936SOL     OW27706   3.873   2.599   0.721
 8936SOL    HW127707   3.907   2.651   0.643
 8936SOL    HW227708   3.945   2.540   0.757
 8937SOL     OW27709   0.594   0.534   5.777
 8937SOL    HW127710   0.596   0.633   5.762
 8937SOL    HW227711   0.499   0.502   5.773
 8938SOL     OW27712   4.845   6.000   1.690
 8938SOL    HW127713   4.824   6.033   1.598
 8938SOL    HW227714   4.944   6.001   1.705
 8939SOL     OW27715   5.384   2.157   5.146
 8939SOL    HW127716   5.484   2.152   5.136
 8939SOL    HW227717   5.346   2.065   5.146
 8940SOL     OW27718   5.996   6.898   2.522
 8940SOL    HW127719   5.901   6.887   2.493
 8940SOL    HW227720   6.058   6.870   2.448
 8941SOL     OW27721   4.017   1.259   6.630
 8941SOL    HW127722   4.026   1.317   6.711
 8941SOL    HW227723   3.920   1.240   6.614
 8942SOL     OW27724   1.098   2.160   5.362
 8942SOL    HW127725   1.126   2.237   5.305
 8942SOL    HW227726   0.998   2.155   5.364
 8943SOL     OW27727   5.042   3.568   1.207
 8943SOL    HW127728   4.974   3.534   1.142
 8943SOL    HW227729   5.049   3.505   1.284
 8944SOL     OW27730   3.960   5.891   1.515
 8944SOL    HW127731   3.971   5.794   1.536
 8944SOL    HW227732   4.025   5.917   1.443
 8945SOL     OW27733   2.519   1.237   4.019
 8945SOL    HW127734   2.525   1.202   3.925
 8945SOL    HW227735   2.455   1.180   4.071
 8946SOL     OW27736   4.014   0.880   4.916
 8946SOL    HW127737   4.065   0.931   4.986
 8946SOL    HW227738   3.916   0.884   4.937
 8947SOL     OW27739   3.837   3.767   5.157
 8947SOL    HW127740   3.882   3.705   5.094
 8947SOL    HW227741   3.904   3.809   5.218
 8948SOL     OW27742   6.197   4.944   3.225
 8948SOL    HW127743   6.223   4.919   3.319
 8948SOL    HW227744   6.212   4.866   3.165
 8949SOL     OW27745   1.782   5.563   5.856
 8949SOL    HW127746   1.860   5.528   5.908
 8949SOL    HW227747   1.766   5.505   5.776
 8950SOL     OW27748   4.577   2.271   5.023
 8950SOL    HW127749   4.566   2.354   4.968
 8950SOL    HW227750   4.495   2.256   5.078
 8951SOL     OW27751   2.436   1.789   5.858
 8951SOL    HW127752   2.503   1.720   5.831
 8951SOL    HW227753   2.417   1.849   5.780
 8952SOL     OW27754   6.623   6.730   3.706
 8952SOL    HW127755   6.713   6.695   3.733
 8952SOL    HW227756   6.564   6.737   3.787
 8953SOL     OW27757   1.662   4.958   6.351
 8953SOL    HW127758   1.712   4.878   6.317
 8953SOL    HW227759   1.650   4.950   6.450
 8954SOL     OW27760   2.495   6.662   5.636
 8954SOL    HW127761   2.541   6.612   5.709
 8954SOL    HW227762   2.559   6.727   5.594
 8955SOL     OW27763   6.408   3.637   4.224
 8955SOL    HW127764   6.349   3.587   4.161
 8955SOL    HW227765   6.375   3.731   4.235
 8956SOL     OW27766   1.082   0.424   4.678
 8956SOL    HW127767   1.031   0.509   4.668
 8956SOL    HW227768   1.018   0.348   4.693
 8957SOL     OW27769   2.570   5.906   1.860
 8957SOL    HW127770   2.622   5.964   1.798
 8957SOL    HW227771   2.516   5.964   1.922
 8958SOL     OW27772   2.505   0.095   4.136
 8958SOL    HW127773   2.421   0.137   4.170
 8958SOL    HW227774   2.584   0.140   4.177
 8959SOL     OW27775   3.251   5.352   0.426
 8959SOL    HW127776   3.233   5.412   0.503
 8959SOL    HW227777   3.335   5.380   0.380
 8960SOL     OW27778   3.776   5.823   0.880
 8960SOL    HW127779   3.696   5.873   0.914
 8960SOL    HW227780   3.790   5.742   0.937
 8961SOL     OW27781   1.221   2.586   3.913
 8961SOL    HW127782   1.181   2.659   3.969
 8961SOL    HW227783   1.169   2.501   3.926
 8962SOL     OW27784   4.981   0.429   3.332
 8962SOL    HW127785   5.035   0.438   3.415
 8962SOL    HW227786   5.042   0.423   3.253
 8963SOL     OW27787   0.147   1.159   3.670
 8963SOL    HW127788   0.215   1.227   3.645
 8963SOL    HW227789   0.183   1.068   3.651
 8964SOL     OW27790   0.086   3.587   3.188
 8964SOL    HW127791   0.027   3.635   3.253
 8964SOL    HW227792   0.036   3.508   3.151
 8965SOL     OW27793   1.513   5.034   1.669
 8965SOL    HW127794   1.457   5.099   1.720
 8965SOL    HW227795   1.454   4.980   1.608
 8966SOL     OW27796   3.619   2.348   5.463
 8966SOL    HW127797   3.522   2.363   5.450
 8966SOL    HW227798   3.669   2.432   5.446
 8967SOL     OW27799   4.992   0.006   0.857
 8967SOL    HW127800   5.068   6.963   0.869
 8967SOL    HW227801   5.022   0.084   0.803
 8968SOL     OW27802   4.879   4.491   3.097
 8968SOL    HW127803   4.821   4.430   3.152
 8968SOL    HW227804   4.904   4.444   3.013
 8969SOL     OW27805   6.509   0.592   4.325
 8969SOL    HW127806   6.559   0.522   4.376
 8969SOL    HW227807   6.515   0.572   4.227
 8970SOL     OW27808   3.753   2.011   1.307
 8970SOL    HW127809   3.667   2.006   1.256
 8970SOL    HW227810   3.793   1.920   1.314
 8971SOL     OW27811   4.603   6.199   2.561
 8971SOL    HW127812   4.539   6.241   2.626
 8971SOL    HW227813   4.696   6.211   2.593
 8972SOL     OW27814   5.355   6.967   4.697
 8972SOL    HW127815   5.392   6.874   4.699
 8972SOL    HW227816   5.396   7.018   4.622
 8973SOL     OW27817   2.281   5.248   0.036
 8973SOL    HW127818   2.220   5.296   6.993
 8973SOL    HW227819   2.305   5.159   7.018
 8974SOL     OW27820   0.698   2.999   3.914
 8974SOL    HW127821   0.774   2.984   3.977
 8974SOL    HW227822   0.731   3.048   3.833
 8975SOL     OW27823   3.919   0.616   6.789
 8975SOL    HW127824   3.984   0.691   6.776
 8975SOL    HW227825   3.961   0.530   6.761
 8976SOL     OW27826   1.030   5.410   4.077
 8976SOL    HW127827   1.046   5.377   4.170
 8976SOL    HW227828   1.091   5.361   4.014
 8977SOL     OW27829   5.666   1.162   6.533
 8977SOL    HW127830   5.620   1.107   6.603
 8977SOL    HW227831   5.761   1.176   6.558
 8978SOL     OW27832   4.879   4.905   0.986
 8978SOL    HW127833   4.843   4.961   1.061
 8978SOL    HW227834   4.826   4.922   0.903
 8979SOL     OW27835   1.524   4.665   4.786
 8979SOL    HW127836   1.613   4.679   4.831
 8979SOL    HW227837   1.466   4.609   4.845
 8980SOL     OW27838   3.795   2.958   4.948
 8980SOL    HW127839   3.811   2.906   4.865
 8980SOL    HW227840   3.731   3.033   4.929
 8981SOL     OW27841   2.670   1.351   5.666
 8981SOL    HW127842   2.631   1.321   5.578
 8981SOL    HW227843   2.615   1.314   5.741
 8982SOL     OW27844   3.967   4.396   1.017
 8982SOL    HW127845   3.868   4.400   1.034
 8982SOL    HW227846   3.984   4.351   0.930
 8983SOL     OW27847   4.607   5.018   0.846
 8983SOL    HW127848   4.628   4.998   0.750
 8983SOL    HW227849   4.641   5.109   0.869
 8984SOL     OW27850   1.442   6.583   3.957
 8984SOL    HW127851   1.509   6.618   4.023
 8984SOL    HW227852   1.481   6.505   3.908
 8985SOL     OW27853   3.001   3.049   6.181
 8985SOL    HW127854   3.032   3.141   6.155
 8985SOL    HW227855   2.951   3.008   6.106
 8986SOL     OW27856   3.559   6.468   2.689
 8986SOL    HW127857   3.471   6.426   2.665
 8986SOL    HW227858   3.602   6.506   2.608
 8987SOL     OW27859   5.087   6.020   1.852
 8987SOL    HW127860   5.164   5.959   1.836
 8987SOL    HW227861   5.081   6.042   1.949
 8988SOL     OW27862   0.716   4.639   5.080
 8988SOL    HW127863   0.659   4.721   5.070
 8988SOL    HW227864   0.807   4.656   5.044
 8989SOL     OW27865   2.661   2.811   6.866
 8989SOL    HW127866   2.614   2.899   6.874
 8989SOL    HW227867   2.599   2.738   6.892
 8990SOL     OW27868   0.088   5.713   3.127
 8990SOL    HW127869   0.140   5.796   3.148
 8990SOL    HW227870   0.144   5.651   3.073
 8991SOL     OW27871   1.276   2.317   4.891
 8991SOL    HW127872   1.214   2.307   4.813
 8991SOL    HW227873   1.355   2.372   4.863
 8992SOL     OW27874   0.010   2.300   1.325
 8992SOL    HW127875   6.936   2.279   1.298
 8992SOL    HW227876   0.060   2.215   1.340
 8993SOL     OW27877   4.447   2.377   1.019
 8993SOL    HW127878   4.500   2.432   1.083
 8993SOL    HW227879   4.506   2.307   0.979
 8994SOL     OW27880   1.934   5.816   2.787
 8994SOL    HW127881   1.982   5.752   2.727
 8994SOL    HW227882   1.996   5.891   2.812
 8995SOL     OW27883   0.500   0.313   1.364
 8995SOL    HW127884   0.412   0.291   1.405
 8995SOL    HW227885   0.535   0.398   1.402
 8996SOL     OW27886   3.861   6.756   5.992
 8996SOL    HW127887   3.894   6.850   6.003
 8996SOL    HW227888   3.785   6.740   6.055
 8997SOL     OW27889   6.211   0.535   4.638
 8997SOL    HW127890   6.223   0.529   4.538
 8997SOL    HW227891   6.281   0.595   4.676
 8998SOL     OW27892   6.732   3.508   4.708
 8998SOL    HW127893   6.671   3.470   4.777
 8998SOL    HW227894   6.809   3.446   4.694
 8999SOL     OW27895   4.004   6.783   6.273
 8999SOL    HW127896   3.993   6.854   6.204
 8999SOL    HW227897   3.987   6.693   6.233
 9000SOL     OW27898   1.961   4.056   1.111
 9000SOL    HW127899   1.894   4.102   1.168
 9000SOL    HW227900   2.023   4.123   1.071
 9001SOL     OW27901   0.896   5.516   1.571
 9001SOL    HW127902   0.869   5.504   1.667
 9001SOL    HW227903   0.852   5.446   1.515
 9002SOL     OW27904   0.633   4.645   6.008
 9002SOL    HW127905   0.666   4.613   5.919
 9002SOL    HW227906   0.573   4.724   5.995
 9003SOL     OW27907   5.595   0.103   0.865
 9003SOL    HW127908   5.550   0.125   0.779
 9003SOL    HW227909   5.552   0.021   0.905
 9004SOL     OW27910   5.163   4.963   1.001
 9004SOL    HW127911   5.071   4.990   1.028
 9004SOL    HW227912   5.163   4.936   0.905
 9005SOL     OW27913   5.422   0.590   5.569
 9005SOL    HW127914   5.359   0.644   5.625
 9005SOL    HW227915   5.464   0.519   5.624
 9006SOL     OW27916   3.884   5.728   0.571
 9006SOL    HW127917   3.862   5.632   0.590
 9006SOL    HW227918   3.801   5.783   0.583
 9007SOL     OW27919   1.624   1.097   2.766
 9007SOL    HW127920   1.686   1.018   2.773
 9007SOL    HW227921   1.623   1.130   2.672
 9008SOL     OW27922   0.683   5.962   2.025
 9008SOL    HW127923   0.639   5.897   2.087
 9008SOL    HW227924   0.725   5.913   1.948
 9009SOL     OW27925   3.388   6.443   1.729
 9009SOL    HW127926   3.380   6.382   1.651
 9009SOL    HW227927   3.299   6.480   1.753
 9010SOL     OW27928   1.621   6.209   4.632
 9010SOL    HW127929   1.637   6.184   4.728
 9010SOL    HW227930   1.605   6.307   4.626
 9011SOL     OW27931   2.207   2.293   1.940
 9011SOL    HW127932   2.257   2.367   1.897
 9011SOL    HW227933   2.233   2.286   2.036
 9012SOL     OW27934   1.794   6.230   6.952
 9012SOL    HW127935   1.788   6.272   6.862
 9012SOL    HW227936   1.826   6.135   6.942
 9013SOL     OW27937   2.160   0.183   4.468
 9013SOL    HW127938   2.169   0.103   4.527
 9013SOL    HW227939   2.070   0.225   4.481
 9014SOL     OW27940   5.405   2.992   4.161
 9014SOL    HW127941   5.323   2.941   4.185
 9014SOL    HW227942   5.445   3.032   4.244
 9015SOL     OW27943   4.287   0.810   6.154
 9015SOL    HW127944   4.358   0.773   6.213
 9015SOL    HW227945   4.253   0.738   6.093
 9016SOL     OW27946   5.172   5.552   5.793
 9016SOL    HW127947   5.251   5.515   5.841
 9016SOL    HW227948   5.116   5.606   5.856
 9017SOL     OW27949   3.476   6.929   5.118
 9017SOL    HW127950   3.548   6.972   5.172
 9017SOL    HW227951   3.510   6.910   5.026
 9018SOL     OW27952   3.617   4.288   6.951
 9018SOL    HW127953   3.616   4.387   6.939
 9018SOL    HW227954   3.530   4.249   6.918
 9019SOL     OW27955   0.392   2.994   3.907
 9019SOL    HW127956   0.364   3.066   3.970
 9019SOL    HW227957   0.489   2.974   3.920
 9020SOL     OW27958   5.105   4.657   2.785
 9020SOL    HW127959   5.095   4.625   2.879
 9020SOL    HW227960   5.034   4.723   2.764
 9021SOL     OW27961   0.390   1.012   4.260
 9021SOL    HW127962   0.485   1.035   4.281
 9021SOL    HW227963   0.330   1.058   4.325
 9022SOL     OW27964   4.099   3.968   6.402
 9022SOL    HW127965   4.028   4.032   6.370
 9022SOL    HW227966   4.120   3.904   6.329
 9023SOL     OW27967   6.722   4.499   0.472
 9023SOL    HW127968   6.800   4.562   0.466
 9023SOL    HW227969   6.685   4.482   0.381
 9024SOL     OW27970   2.212   5.703   6.388
 9024SOL    HW127971   2.199   5.700   6.288
 9024SOL    HW227972   2.210   5.798   6.419
 9025SOL     OW27973   0.806   5.564   1.134
 9025SOL    HW127974   0.823   5.606   1.045
 9025SOL    HW227975   0.878   5.591   1.198
 9026SOL     OW27976   5.188   1.297   0.780
 9026SOL    HW127977   5.258   1.364   0.801
 9026SOL    HW227978   5.185   1.282   0.681
 9027SOL     OW27979   0.805   4.364   3.461
 9027SOL    HW127980   0.804   4.399   3.367
 9027SOL    HW227981   0.852   4.430   3.519
 9028SOL     OW27982   3.638   4.789   6.462
 9028SOL    HW127983   3.615   4.873   6.413
 9028SOL    HW227984   3.658   4.717   6.395
 9029SOL     OW27985   4.518   0.177   4.078
 9029SOL    HW127986   4.538   0.220   3.990
 9029SOL    HW227987   4.603   0.154   4.125
 9030SOL     OW27988   3.410   1.502   1.921
 9030SOL    HW127989   3.350   1.422   1.917
 9030SOL    HW227990   3.357   1.584   1.898
 9031SOL     OW27991   4.484   6.710   4.962
 9031SOL    HW127992   4.469   6.620   4.921
 9031SOL    HW227993   4.460   6.781   4.896
 9032SOL     OW27994   5.299   2.675   1.800
 9032SOL    HW127995   5.285   2.658   1.897
 9032SOL    HW227996   5.298   2.774   1.783
 9033SOL     OW27997   0.448   6.824   2.781
 9033SOL    HW127998   0.373   6.761   2.762
 9033SOL    HW227999   0.435   6.866   2.871
 9034SOL     OW28000   4.563   6.662   4.467
 9034SOL    HW128001   4.626   6.728   4.427
 9034SOL    HW228002   4.580   6.656   4.565
 9035SOL     OW28003   2.967   5.564   6.812
 9035SOL    HW128004   2.951   5.530   6.905
 9035SOL    HW228005   2.886   5.613   6.780
 9036SOL     OW28006   1.356   4.566   4.985
 9036SOL    HW128007   1.355   4.602   5.078
 9036SOL    HW228008   1.267   4.582   4.943
 9037SOL     OW28009   6.913   0.779   2.126
 9037SOL    HW128010   6.993   0.725   2.102
 9037SOL    HW228011   6.914   0.800   2.224
 9038SOL     OW28012   4.450   3.358   5.443
 9038SOL    HW128013   4.522   3.290   5.430
 9038SOL    HW228014   4.407   3.344   5.532
 9039SOL     OW28015   4.630   6.322   6.286
 9039SOL    HW128016   4.662   6.394   6.348
 9039SOL    HW228017   4.677   6.332   6.198
 9040SOL     OW28018   2.138   1.884   1.533
 9040SOL    HW128019   2.136   1.922   1.625
 9040SOL    HW228020   2.202   1.936   1.476
 9041SOL     OW28021   6.368   2.120   2.689
 9041SOL    HW128022   6.284   2.132   2.740
 9041SOL    HW228023   6.445   2.157   2.741
 9042SOL     OW28024   3.685   5.904   0.632
 9042SOL    HW128025   3.716   5.876   0.723
 9042SOL    HW228026   3.597   5.862   0.612
 9043SOL     OW28027   3.087   2.815   0.981
 9043SOL    HW128028   3.057   2.843   1.073
 9043SOL    HW228029   3.182   2.785   0.985
 9044SOL     OW28030   0.905   0.740   0.629
 9044SOL    HW128031   0.958   0.676   0.685
 9044SOL    HW228032   0.903   0.830   0.674
 9045SOL     OW28033   4.533   1.221   3.586
 9045SOL    HW128034   4.589   1.139   3.578
 9045SOL    HW228035   4.571   1.293   3.529
 9046SOL     OW28036   3.289   2.913   2.228
 9046SOL    HW128037   3.371   2.879   2.272
 9046SOL    HW228038   3.211   2.855   2.251
 9047SOL     OW28039   1.572   4.475   6.402
 9047SOL    HW128040   1.512   4.431   6.469
 9047SOL    HW228041   1.527   4.478   6.313
 9048SOL     OW28042   0.009   1.602   5.696
 9048SOL    HW128043   6.969   1.668   5.651
 9048SOL    HW228044   0.004   1.514   5.649
 9049SOL     OW28045   2.644   0.079   5.529
 9049SOL    HW128046   2.717   0.112   5.470
 9049SOL    HW228047   2.558   0.078   5.478
 9050SOL     OW28048   1.038   4.358   0.874
 9050SOL    HW128049   1.097   4.278   0.887
 9050SOL    HW228050   0.963   4.334   0.812
 9051SOL     OW28051   2.853   1.272   1.886
 9051SOL    HW128052   2.798   1.204   1.934
 9051SOL    HW228053   2.804   1.360   1.886
 9052SOL     OW28054   1.953   2.734   5.612
 9052SOL    HW128055   1.957   2.807   5.544
 9052SOL    HW228056   2.028   2.745   5.678
 9053SOL     OW28057   0.956   0.606   6.759
 9053SOL    HW128058   0.941   0.527   6.819
 9053SOL    HW228059   0.984   0.684   6.815
 9054SOL     OW28060   1.735   6.001   2.506
 9054SOL    HW128061   1.833   5.988   2.491
 9054SOL    HW228062   1.708   5.961   2.594
 9055SOL     OW28063   0.275   2.886   5.269
 9055SOL    HW128064   0.188   2.913   5.228
 9055SOL    HW228065   0.260   2.809   5.331
 9056SOL     OW28066   6.075   2.879   3.587
 9056SOL    HW128067   6.073   2.782   3.563
 9056SOL    HW228068   5.982   2.909   3.609
 9057SOL     OW28069   4.126   2.076   3.895
 9057SOL    HW128070   4.221   2.091   3.921
 9057SOL    HW228071   4.066   2.110   3.966
 9058SOL     OW28072   2.731   0.603   5.737
 9058SOL    HW128073   2.756   0.574   5.829
 9058SOL    HW228074   2.632   0.602   5.727
 9059SOL     OW28075   1.014   2.661   3.109
 9059SOL    HW128076   1.008   2.742   3.168
 9059SOL    HW228077   1.072   2.682   3.031
 9060SOL     OW28078   4.964   3.264   5.591
 9060SOL    HW128079   5.013   3.327   5.650
 9060SOL    HW228080   4.963   3.300   5.497
 9061SOL     OW28081   2.315   5.350   2.585
 9061SOL    HW128082   2.345   5.386   2.674
 9061SOL    HW228083   2.216   5.346   2.583
 9062SOL     OW28084   1.791   6.219   1.498
 9062SOL    HW128085   1.744   6.197   1.583
 9062SOL    HW228086   1.886   6.245   1.518
 9063SOL     OW28087   2.536   2.163   1.817
 9063SOL    HW128088   2.541   2.231   1.890
 9063SOL    HW228089   2.608   2.182   1.749
 9064SOL     OW28090   5.319   3.796   0.341
 9064SOL    HW128091   5.309   3.896   0.344
 9064SOL    HW228092   5.279   3.757   0.424
 9065SOL     OW28093   2.977   1.057   0.454
 9065SOL    HW128094   3.031   1.009   0.384
 9065SOL    HW228095   2.896   1.003   0.476
 9066SOL     OW28096   5.454   6.855   0.139
 9066SOL    HW128097   5.483   6.951   0.141
 9066SOL    HW228098   5.355   6.851   0.154
 9067SOL     OW28099   1.173   0.856   1.851
 9067SOL    HW128100   1.088   0.806   1.865
 9067SOL    HW228101   1.154   0.941   1.802
 9068SOL     OW28102   1.270   5.939   6.432
 9068SOL    HW128103   1.260   5.843   6.406
 9068SOL    HW228104   1.354   5.976   6.393
 9069SOL     OW28105   1.483   1.849   6.296
 9069SOL    HW128106   1.429   1.847   6.212
 9069SOL    HW228107   1.554   1.919   6.288
 9070SOL     OW28108   1.793   4.762   3.491
 9070SOL    HW128109   1.754   4.692   3.431
 9070SOL    HW228110   1.764   4.745   3.585
 9071SOL     OW28111   4.667   6.353   0.235
 9071SOL    HW128112   4.766   6.358   0.222
 9071SOL    HW228113   4.648   6.326   0.330
 9072SOL     OW28114   5.112   4.597   0.266
 9072SOL    HW128115   5.188   4.615   0.328
 9072SOL    HW228116   5.147   4.584   0.173
 9073SOL     OW28117   2.243   0.790   0.791
 9073SOL    HW128118   2.214   0.785   0.696
 9073SOL    HW228119   2.187   0.728   0.846
 9074SOL     OW28120   0.378   0.634   2.813
 9074SOL    HW128121   0.351   0.626   2.717
 9074SOL    HW228122   0.455   0.697   2.821
 9075SOL     OW28123   0.614   0.575   1.875
 9075SOL    HW128124   0.571   0.488   1.851
 9075SOL    HW228125   0.697   0.587   1.819
 9076SOL     OW28126   0.949   1.770   4.811
 9076SOL    HW128127   1.038   1.812   4.828
 9076SOL    HW228128   0.960   1.671   4.799
 9077SOL     OW28129   6.020   5.983   1.641
 9077SOL    HW128130   5.949   5.976   1.571
 9077SOL    HW228131   5.979   5.971   1.732
 9078SOL     OW28132   4.462   2.927   5.254
 9078SOL    HW128133   4.546   2.906   5.305
 9078SOL    HW228134   4.452   2.863   5.178
 9079SOL     OW28135   3.798   0.730   5.123
 9079SOL    HW128136   3.851   0.680   5.055
 9079SOL    HW228137   3.853   0.804   5.161
 9080SOL     OW28138   4.974   1.250   6.634
 9080SOL    HW128139   5.025   1.191   6.572
 9080SOL    HW228140   5.019   1.339   6.640
 9081SOL     OW28141   5.077   6.986   3.639
 9081SOL    HW128142   5.066   0.061   3.614
 9081SOL    HW228143   5.153   6.946   3.586
 9082SOL     OW28144   2.823   0.663   2.320
 9082SOL    HW128145   2.845   0.656   2.418
 9082SOL    HW228146   2.725   0.654   2.307
 9083SOL     OW28147   4.743   4.247   4.266
 9083SOL    HW128148   4.828   4.213   4.227
 9083SOL    HW228149   4.757   4.339   4.303
 9084SOL     OW28150   4.038   3.605   2.753
 9084SOL    HW128151   3.956   3.548   2.744
 9084SOL    HW228152   4.119   3.548   2.741
 9085SOL     OW28153   1.010   2.847   0.467
 9085SOL    HW128154   1.040   2.841   0.372
 9085SOL    HW228155   1.074   2.799   0.526
 9086SOL     OW28156   6.924   3.853   0.101
 9086SOL    HW128157   6.930   3.914   0.180
 9086SOL    HW228158   6.940   3.905   0.017
 9087SOL     OW28159   5.204   3.315   2.270
 9087SOL    HW128160   5.204   3.220   2.240
 9087SOL    HW228161   5.113   3.339   2.305
 9088SOL     OW28162   5.469   5.881   1.193
 9088SOL    HW128163   5.495   5.787   1.212
 9088SOL    HW228164   5.511   5.911   1.107
 9089SOL     OW28165   4.244   0.826   5.501
 9089SOL    HW128166   4.279   0.819   5.595
 9089SOL    HW228167   4.159   0.878   5.500
 9090SOL     OW28168   5.899   1.790   3.321
 9090SOL    HW128169   5.988   1.817   3.358
 9090SOL    HW228170   5.826   1.829   3.377
 9091SOL     OW28171   3.875   2.809   5.864
 9091SOL    HW128172   3.864   2.899   5.906
 9091SOL    HW228173   3.874   2.817   5.765
 9092SOL     OW28174   6.983   3.469   6.396
 9092SOL    HW128175   6.964   3.382   6.350
 9092SOL    HW228176   6.998   3.540   6.327
 9093SOL     OW28177   2.281   6.675   5.011
 9093SOL    HW128178   2.263   6.761   5.057
 9093SOL    HW228179   2.379   6.668   4.990
 9094SOL     OW28180   1.898   3.812   0.935
 9094SOL    HW128181   1.924   3.888   0.994
 9094SOL    HW228182   1.962   3.804   0.859
 9095SOL     OW28183   6.601   6.840   6.501
 9095SOL    HW128184   6.628   6.932   6.474
 9095SOL    HW228185   6.648   6.773   6.445
 9096SOL     OW28186   5.603   5.237   4.673
 9096SOL    HW128187   5.674   5.222   4.741
 9096SOL    HW228188   5.627   5.315   4.616
 9097SOL     OW28189   1.293   1.960   5.940
 9097SOL    HW128190   1.377   1.991   5.984
 9097SOL    HW228191   1.313   1.884   5.878
 9098SOL     OW28192   2.437   4.738   3.981
 9098SOL    HW128193   2.398   4.764   4.069
 9098SOL    HW228194   2.469   4.643   3.985
 9099SOL     OW28195   2.270   1.357   6.894
 9099SOL    HW128196   2.256   1.259   6.906
 9099SOL    HW228197   2.183   1.401   6.872
 9100SOL     OW28198   1.821   4.872   3.896
 9100SOL    HW128199   1.821   4.962   3.938
 9100SOL    HW228200   1.913   4.847   3.868
 9101SOL     OW28201   0.452   2.599   0.171
 9101SOL    HW128202   0.365   2.551   0.162
 9101SOL    HW228203   0.435   2.691   0.205
 9102SOL     OW28204   3.857   0.501   3.141
 9102SOL    HW128205   3.757   0.512   3.142
 9102SOL    HW228206   3.895   0.553   3.064
 9103SOL     OW28207   6.471   0.534   1.079
 9103SOL    HW128208   6.405   0.560   1.150
 9103SOL    HW228209   6.562   0.527   1.120
 9104SOL     OW28210   6.245   1.835   5.904
 9104SOL    HW128211   6.335   1.851   5.862
 9104SOL    HW228212   6.224   1.737   5.900
 9105SOL     OW28213   3.060   0.838   6.776
 9105SOL    HW128214   3.021   0.901   6.708
 9105SOL    HW228215   2.989   0.776   6.809
 9106SOL     OW28216   2.288   3.055   6.758
 9106SOL    HW128217   2.219   3.121   6.730
 9106SOL    HW228218   2.315   2.999   6.680
 9107SOL     OW28219   3.557   1.409   0.584
 9107SOL    HW128220   3.508   1.409   0.497
 9107SOL    HW228221   3.635   1.472   0.577
 9108SOL     OW28222   0.369   6.115   5.801
 9108SOL    HW128223   0.392   6.080   5.710
 9108SOL    HW228224   0.437   6.082   5.867
 9109SOL     OW28225   5.969   4.421   2.518
 9109SOL    HW128226   6.017   4.508   2.533
 9109SOL    HW228227   5.880   4.438   2.476
 9110SOL     OW28228   1.066   6.483   3.348
 9110SOL    HW128229   1.118   6.482   3.262
 9110SOL    HW228230   1.128   6.493   3.425
 9111SOL     OW28231   3.974   2.415   5.664
 9111SOL    HW128232   3.924   2.331   5.680
 9111SOL    HW228233   3.990   2.427   5.566
 9112SOL     OW28234   0.450   5.394   2.188
 9112SOL    HW128235   0.450   5.297   2.216
 9112SOL    HW228236   0.400   5.403   2.102
 9113SOL     OW28237   6.245   0.522   4.357
 9113SOL    HW128238   6.175   0.537   4.287
 9113SOL    HW228239   6.335   0.539   4.318
 9114SOL     OW28240   1.144   0.304   6.049
 9114SOL    HW128241   1.232   0.323   6.093
 9114SOL    HW228242   1.158   0.294   5.950
 9115SOL     OW28243   4.630   4.120   5.281
 9115SOL    HW128244   4.632   4.020   5.278
 9115SOL    HW228245   4.719   4.156   5.252
 9116SOL     OW28246   1.615   6.862   3.442
 9116SOL    HW128247   1.554   6.939   3.425
 9116SOL    HW228248   1.567   6.793   3.496
 9117SOL     OW28249   1.617   6.431   0.064
 9117SOL    HW128250   1.669   6.359   0.019
 9117SOL    HW228251   1.677   6.509   0.083
 9118SOL     OW28252   6.686   4.021   1.555
 9118SOL    HW128253   6.695   3.922   1.557
 9118SOL    HW228254   6.644   4.053   1.640
 9119SOL     OW28255   3.301   1.172   1.061
 9119SOL    HW128256   3.271   1.211   1.148
 9119SOL    HW228257   3.390   1.128   1.073
 9120SOL     OW28258   6.251   3.577   4.631
 9120SOL    HW128259   6.154   3.598   4.646
 9120SOL    HW228260   6.307   3.647   4.674
 9121SOL     OW28261   4.025   1.072   4.349
 9121SOL    HW128262   3.987   1.133   4.418
 9121SOL    HW228263   3.956   1.005   4.321
 9122SOL     OW28264   0.237   2.353   1.855
 9122SOL    HW128265   0.291   2.378   1.775
 9122SOL    HW228266   0.168   2.423   1.872
 9123SOL     OW28267   0.913   6.341   4.249
 9123SOL    HW128268   0.875   6.434   4.249
 9123SOL    HW228269   1.013   6.346   4.243
 9124SOL     OW28270   4.081   6.205   0.796
 9124SOL    HW128271   4.107   6.205   0.893
 9124SOL    HW228272   4.073   6.111   0.764
 9125SOL     OW28273   5.281   6.344   1.459
 9125SOL    HW128274   5.303   6.275   1.528
 9125SOL    HW228275   5.193   6.321   1.416
 9126SOL     OW28276   4.420   4.572   1.030
 9126SOL    HW128277   4.405   4.671   1.036
 9126SOL    HW228278   4.517   4.554   1.009
 9127SOL     OW28279   6.249   4.469   5.367
 9127SOL    HW128280   6.304   4.392   5.336
 9127SOL    HW228281   6.242   4.468   5.466
 9128SOL     OW28282   5.826   3.578   6.003
 9128SOL    HW128283   5.811   3.634   6.084
 9128SOL    HW228284   5.746   3.520   5.987
 9129SOL     OW28285   0.541   2.971   0.453
 9129SOL    HW128286   0.569   3.067   0.454
 9129SOL    HW228287   0.482   2.953   0.532
 9130SOL     OW28288   3.205   3.469   5.227
 9130SOL    HW128289   3.154   3.389   5.194
 9130SOL    HW228290   3.142   3.535   5.266
 9131SOL     OW28291   5.703   2.708   0.448
 9131SOL    HW128292   5.753   2.629   0.410
 9131SOL    HW228293   5.645   2.748   0.378
 9132SOL     OW28294   1.250   4.315   3.727
 9132SOL    HW128295   1.285   4.396   3.680
 9132SOL    HW228296   1.191   4.264   3.665
 9133SOL     OW28297   5.273   0.239   1.224
 9133SOL    HW128298   5.233   0.152   1.194
 9133SOL    HW228299   5.233   0.314   1.171
 9134SOL     OW28300   4.839   4.921   6.868
 9134SOL    HW128301   4.840   4.837   6.921
 9134SOL    HW228302   4.746   4.938   6.834
 9135SOL     OW28303   6.665   5.443   2.208
 9135SOL    HW128304   6.682   5.514   2.139
 9135SOL    HW228305   6.657   5.355   2.162
 9136SOL     OW28306   1.065   5.152   0.049
 9136SOL    HW128307   1.108   5.077   7.018
 9136SOL    HW228308   1.037   5.119   0.139
 9137SOL     OW28309   5.547   5.656   5.656
 9137SOL    HW128310   5.514   5.647   5.750
 9137SOL    HW228311   5.481   5.711   5.604
 9138SOL     OW28312   1.842   4.281   6.090
 9138SOL    HW128313   1.809   4.202   6.037
 9138SOL    HW228314   1.833   4.364   6.035
 9139SOL     OW28315   0.493   0.101   1.660
 9139SOL    HW128316   0.449   0.116   1.571
 9139SOL    HW228317   0.423   0.099   1.731
 9140SOL     OW28318   1.968   3.858   2.300
 9140SOL    HW128319   1.907   3.788   2.263
 9140SOL    HW228320   2.060   3.820   2.311
 9141SOL     OW28321   0.519   5.578   4.687
 9141SOL    HW128322   0.616   5.578   4.665
 9141SOL    HW228323   0.465   5.582   4.602
 9142SOL     OW28324   1.719   4.536   3.301
 9142SOL    HW128325   1.643   4.587   3.261
 9142SOL    HW228326   1.759   4.475   3.232
 9143SOL     OW28327   6.201   3.319   2.607
 9143SOL    HW128328   6.221   3.343   2.512
 9143SOL    HW228329   6.214   3.399   2.665
 9144SOL     OW28330   3.211   4.188   5.449
 9144SOL    HW128331   3.187   4.239   5.532
 9144SOL    HW228332   3.305   4.155   5.457
 9145SOL     OW28333   2.126   6.387   5.874
 9145SOL    HW128334   2.046   6.441   5.898
 9145SOL    HW228335   2.183   6.439   5.810
 9146SOL     OW28336   6.311   2.419   3.969
 9146SOL    HW128337   6.283   2.360   4.044
 9146SOL    HW228338   6.251   2.499   3.964
 9147SOL     OW28339   4.418   0.618   5.756
 9147SOL    HW128340   4.446   0.714   5.755
 9147SOL    HW228341   4.444   0.577   5.843
 9148SOL     OW28342   4.191   5.841   2.114
 9148SOL    HW128343   4.101   5.827   2.072
 9148SOL    HW228344   4.254   5.875   2.045
 9149SOL     OW28345   0.652   4.217   1.525
 9149SOL    HW128346   0.587   4.293   1.513
 9149SOL    HW228347   0.625   4.141   1.467
 9150SOL     OW28348   3.101   4.004   0.306
 9150SOL    HW128349   3.121   4.026   0.210
 9150SOL    HW228350   3.166   3.936   0.339
 9151SOL     OW28351   2.158   3.007   3.487
 9151SOL    HW128352   2.100   3.081   3.521
 9151SOL    HW228353   2.191   2.952   3.564
 9152SOL     OW28354   1.910   4.896   2.493
 9152SOL    HW128355   1.998   4.942   2.480
 9152SOL    HW228356   1.914   4.804   2.453
 9153SOL     OW28357   0.154   3.399   0.473
 9153SOL    HW128358   0.130   3.474   0.413
 9153SOL    HW228359   0.096   3.402   0.555
 9154SOL     OW28360   4.484   5.109   3.353
 9154SOL    HW128361   4.391   5.080   3.373
 9154SOL    HW228362   4.523   5.152   3.435
 9155SOL     OW28363   1.078   6.203   2.658
 9155SOL    HW128364   1.082   6.125   2.595
 9155SOL    HW228365   1.167   6.249   2.661
 9156SOL     OW28366   0.481   4.070   5.484
 9156SOL    HW128367   0.454   4.157   5.443
 9156SOL    HW228368   0.521   4.011   5.414
 9157SOL     OW28369   1.957   4.985   5.125
 9157SOL    HW128370   1.987   5.046   5.197
 9157SOL    HW228371   1.991   4.893   5.142
 9158SOL     OW28372   0.019   3.232   4.924
 9158SOL    HW128373   0.053   3.323   4.948
 9158SOL    HW228374   0.096   3.172   4.902
 9159SOL     OW28375   2.046   1.429   3.923
 9159SOL    HW128376   2.080   1.489   3.995
 9159SOL    HW228377   1.974   1.370   3.959
 9160SOL     OW28378   0.783   3.185   6.586
 9160SOL    HW128379   0.695   3.144   6.562
 9160SOL    HW228380   0.852   3.159   6.518
 9161SOL     OW28381   5.556   2.822   2.975
 9161SOL    HW128382   5.546   2.881   2.895
 9161SOL    HW228383   5.530   2.872   3.057
 9162SOL     OW28384   4.047   2.136   1.982
 9162SOL    HW128385   4.005   2.202   1.920
 9162SOL    HW228386   4.000   2.048   1.973
 9163SOL     OW28387   1.804   2.798   3.848
 9163SOL    HW128388   1.744   2.799   3.768
 9163SOL    HW228389   1.750   2.782   3.930
 9164SOL     OW28390   3.258   6.571   0.284
 9164SOL    HW128391   3.218   6.481   0.266
 9164SOL    HW228392   3.346   6.561   0.329
 9165SOL     OW28393   5.904   1.088   6.279
 9165SOL    HW128394   5.897   1.187   6.268
 9165SOL    HW228395   5.814   1.052   6.305
 9166SOL     OW28396   4.022   6.655   1.726
 9166SOL    HW128397   4.021   6.598   1.643
 9166SOL    HW228398   3.932   6.652   1.769
 9167SOL     OW28399   1.240   1.921   4.309
 9167SOL    HW128400   1.149   1.889   4.285
 9167SOL    HW228401   1.260   1.897   4.404
 9168SOL     OW28402   6.534   5.965   4.913
 9168SOL    HW128403   6.466   5.914   4.966
 9168SOL    HW228404   6.590   6.020   4.974
 9169SOL     OW28405   6.310   6.166   6.896
 9169SOL    HW128406   6.293   6.116   6.811
 9169SOL    HW228407   6.368   6.111   6.956
 9170SOL     OW28408   1.972   0.972   5.999
 9170SOL    HW128409   2.040   0.911   5.960
 9170SOL    HW228410   2.009   1.065   6.003
 9171SOL     OW28411   4.382   5.426   0.406
 9171SOL    HW128412   4.439   5.399   0.483
 9171SOL    HW228413   4.286   5.433   0.436
 9172SOL     OW28414   4.669   1.756   5.386
 9172SOL    HW128415   4.768   1.750   5.381
 9172SOL    HW228416   4.630   1.664   5.377
 9173SOL     OW28417   6.167   4.066   5.329
 9173SOL    HW128418   6.114   3.997   5.378
 9173SOL    HW228419   6.246   4.093   5.383
 9174SOL     OW28420   6.029   5.025   0.646
 9174SOL    HW128421   5.969   4.987   0.717
 9174SOL    HW228422   5.988   5.007   0.556
 9175SOL     OW28423   2.525   1.176   1.399
 9175SOL    HW128424   2.618   1.157   1.366
 9175SOL    HW228425   2.505   1.273   1.389
 9176SOL     OW28426   1.710   1.244   2.526
 9176SOL    HW128427   1.633   1.252   2.463
 9176SOL    HW228428   1.726   1.331   2.571
 9177SOL     OW28429   0.915   5.830   3.405
 9177SOL    HW128430   0.928   5.871   3.315
 9177SOL    HW228431   1.004   5.803   3.442
 9178SOL     OW28432   1.378   3.682   1.386
 9178SOL    HW128433   1.394   3.705   1.290
 9178SOL    HW228434   1.379   3.765   1.441
 9179SOL     OW28435   3.996   4.936   3.134
 9179SOL    HW128436   3.933   4.942   3.211
 9179SOL    HW228437   4.061   4.861   3.149
 9180SOL     OW28438   0.532   0.717   5.247
 9180SOL    HW128439   0.556   0.725   5.150
 9180SOL    HW228440   0.485   0.800   5.276
 9181SOL     OW28441   2.517   2.000   3.608
 9181SOL    HW128442   2.603   2.003   3.659
 9181SOL    HW228443   2.464   2.082   3.627
 9182SOL     OW28444   6.573   1.622   2.705
 9182SOL    HW128445   6.643   1.682   2.745
 9182SOL    HW228446   6.568   1.638   2.607
 9183SOL     OW28447   2.204   1.348   5.785
 9183SOL    HW128448   2.107   1.337   5.807
 9183SOL    HW228449   2.235   1.437   5.819
 9184SOL     OW28450   2.789   4.721   1.362
 9184SOL    HW128451   2.723   4.707   1.435
 9184SOL    HW228452   2.762   4.800   1.306
 9185SOL     OW28453   1.317   1.058   5.503
 9185SOL    HW128454   1.247   1.093   5.440
 9185SOL    HW228455   1.357   1.134   5.553
 9186SOL     OW28456   5.791   6.315   6.409
 9186SOL    HW128457   5.858   6.318   6.335
 9186SOL    HW228458   5.704   6.281   6.373
 9187SOL     OW28459   5.030   2.672   1.299
 9187SOL    HW128460   5.028   2.681   1.398
 9187SOL    HW228461   4.946   2.712   1.260
 9188SOL     OW28462   1.383   0.924   2.011
 9188SOL    HW128463   1.398   0.838   2.060
 9188SOL    HW228464   1.342   0.905   1.922
 9189SOL     OW28465   2.840   0.406   6.269
 9189SOL    HW128466   2.939   0.392   6.281
 9189SOL    HW228467   2.803   0.451   6.351
 9190SOL     OW28468   3.724   0.958   5.702
 9190SOL    HW128469   3.708   0.908   5.616
 9190SOL    HW228470   3.688   0.905   5.778
 9191SOL     OW28471   5.285   6.646   1.569
 9191SOL    HW128472   5.274   6.737   1.609
 9191SOL    HW228473   5.204   6.591   1.589
 9192SOL     OW28474   5.035   4.097   4.826
 9192SOL    HW128475   4.956   4.036   4.818
 9192SOL    HW228476   5.090   4.071   4.905
 9193SOL     OW28477   4.137   3.544   3.104
 9193SOL    HW128478   4.056   3.503   3.145
 9193SOL    HW228479   4.219   3.510   3.150
 9194SOL     OW28480   3.555   5.095   2.721
 9194SOL    HW128481   3.621   5.026   2.692
 9194SOL    HW228482   3.465   5.075   2.681
 9195SOL     OW28483   0.728   3.151   3.694
 9195SOL    HW128484   0.742   3.149   3.595
 9195SOL    HW228485   0.798   3.208   3.736
 9196SOL     OW28486   5.251   5.521   3.483
 9196SOL    HW128487   5.195   5.460   3.538
 9196SOL    HW228488   5.329   5.470   3.447
 9197SOL     OW28489   4.794   1.642   0.270
 9197SOL    HW128490   4.837   1.728   0.242
 9197SOL    HW228491   4.718   1.621   0.209
 9198SOL     OW28492   6.074   2.752   5.512
 9198SOL    HW128493   6.076   2.784   5.607
 9198SOL    HW228494   5.981   2.723   5.488
 9199SOL     OW28495   0.892   3.799   6.643
 9199SOL    HW128496   0.827   3.874   6.654
 9199SOL    HW228497   0.875   3.730   6.712
 9200SOL     OW28498   5.075   6.217   1.697
 9200SOL    HW128499   5.083   6.134   1.752
 9200SOL    HW228500   5.050   6.192   1.603
 9201SOL     OW28501   0.131   2.982   1.907
 9201SOL    HW128502   0.212   3.010   1.855
 9201SOL    HW228503   0.051   2.983   1.847
 9202SOL     OW28504   2.278   6.141   4.361
 9202SOL    HW128505   2.245   6.046   4.366
 9202SOL    HW228506   2.372   6.141   4.327
 9203SOL     OW28507   5.413   1.922   0.900
 9203SOL    HW128508   5.424   2.007   0.849
 9203SOL    HW228509   5.333   1.873   0.868
 9204SOL     OW28510   5.213   4.657   2.531
 9204SOL    HW128511   5.195   4.635   2.627
 9204SOL    HW228512   5.298   4.614   2.503
 9205SOL     OW28513   4.014   2.446   1.572
 9205SOL    HW128514   4.090   2.452   1.507
 9205SOL    HW228515   3.930   2.475   1.527
 9206SOL     OW28516   6.732   6.068   5.068
 9206SOL    HW128517   6.776   6.089   4.981
 9206SOL    HW228518   6.783   5.996   5.115
 9207SOL     OW28519   4.942   6.386   0.214
 9207SOL    HW128520   4.982   6.442   0.141
 9207SOL    HW228521   5.004   6.387   0.293
 9208SOL     OW28522   4.918   4.785   1.679
 9208SOL    HW128523   4.866   4.842   1.743
 9208SOL    HW228524   4.973   4.720   1.731
 9209SOL     OW28525   4.579   0.560   3.613
 9209SOL    HW128526   4.591   0.653   3.577
 9209SOL    HW228527   4.482   0.541   3.624
 9210SOL     OW28528   0.982   0.026   6.844
 9210SOL    HW128529   1.063   7.011   6.890
 9210SOL    HW228530   0.959   6.988   6.767
 9211SOL     OW28531   4.764   1.403   6.834
 9211SOL    HW128532   4.724   1.489   6.800
 9211SOL    HW228533   4.833   1.370   6.770
 9212SOL     OW28534   6.070   3.476   5.966
 9212SOL    HW128535   6.117   3.497   6.051
 9212SOL    HW228536   5.978   3.516   5.967
 9213SOL     OW28537   6.581   5.743   2.010
 9213SOL    HW128538   6.578   5.838   2.041
 9213SOL    HW228539   6.508   5.691   2.055
 9214SOL     OW28540   2.005   1.659   6.633
 9214SOL    HW128541   2.076   1.725   6.610
 9214SOL    HW228542   1.925   1.707   6.668
 9215SOL     OW28543   7.011   4.016   3.742
 9215SOL    HW128544   0.056   3.996   3.670
 9215SOL    HW228545   6.952   3.936   3.757
 9216SOL     OW28546   2.350   6.910   3.720
 9216SOL    HW128547   2.439   6.926   3.762
 9216SOL    HW228548   2.360   6.849   3.641
 9217SOL     OW28549   3.497   2.366   6.882
 9217SOL    HW128550   3.408   2.409   6.900
 9217SOL    HW228551   3.499   2.275   6.924
 9218SOL     OW28552   4.599   5.704   5.596
 9218SOL    HW128553   4.578   5.611   5.628
 9218SOL    HW228554   4.688   5.703   5.549
 9219SOL     OW28555   3.195   2.277   5.685
 9219SOL    HW128556   3.155   2.285   5.594
 9219SOL    HW228557   3.282   2.228   5.680
 9220SOL     OW28558   0.653   6.592   3.586
 9220SOL    HW128559   0.737   6.614   3.634
 9220SOL    HW228560   0.614   6.676   3.547
 9221SOL     OW28561   2.922   1.514   1.658
 9221SOL    HW128562   2.905   1.609   1.682
 9221SOL    HW228563   2.837   1.461   1.666
 9222SOL     OW28564   2.202   5.688   3.351
 9222SOL    HW128565   2.213   5.724   3.258
 9222SOL    HW228566   2.277   5.625   3.372
 9223SOL     OW28567   6.418   2.523   4.728
 9223SOL    HW128568   6.345   2.464   4.763
 9223SOL    HW228569   6.421   2.517   4.628
 9224SOL     OW28570   1.741   5.146   2.391
 9224SOL    HW128571   1.668   5.149   2.459
 9224SOL    HW228572   1.800   5.067   2.409
 9225SOL     OW28573   0.630   5.404   6.014
 9225SOL    HW128574   0.678   5.354   5.942
 9225SOL    HW228575   0.696   5.451   6.072
 9226SOL     OW28576   0.598   0.467   4.835
 9226SOL    HW128577   0.633   0.547   4.886
 9226SOL    HW228578   0.664   0.393   4.840
 9227SOL     OW28579   3.903   3.490   7.005
 9227SOL    HW128580   3.817   3.535   0.008
 9227SOL    HW228581   3.947   3.539   6.930
 9228SOL     OW28582   3.510   3.465   5.241
 9228SOL    HW128583   3.457   3.512   5.171
 9228SOL    HW228584   3.559   3.532   5.297
 9229SOL     OW28585   0.313   4.910   0.497
 9229SOL    HW128586   0.306   4.928   0.399
 9229SOL    HW228587   0.222   4.915   0.538
 9230SOL     OW28588   3.966   7.011   6.124
 9230SOL    HW128589   4.037   0.000   6.055
 9230SOL    HW228590   3.915   0.076   6.132
 9231SOL     OW28591   6.155   6.459   1.758
 9231SOL    HW128592   6.183   6.376   1.805
 9231SOL    HW228593   6.233   6.520   1.749
 9232SOL     OW28594   0.994   5.496   2.033
 9232SOL    HW128595   1.046   5.580   2.046
 9232SOL    HW228596   1.016   5.431   2.105
 9233SOL     OW28597   1.204   6.913   5.499
 9233SOL    HW128598   1.261   6.831   5.513
 9233SOL    HW228599   1.262   6.991   5.477
 9234SOL     OW28600   3.701   4.554   6.321
 9234SOL    HW128601   3.633   4.489   6.287
 9234SOL    HW228602   3.729   4.615   6.247
 9235SOL     OW28603   2.296   2.672   3.067
 9235SOL    HW128604   2.337   2.642   3.153
 9235SOL    HW228605   2.274   2.769   3.072
 9236SOL     OW28606   1.711   3.510   6.100
 9236SOL    HW128607   1.759   3.530   6.015
 9236SOL    HW228608   1.613   3.513   6.085
 9237SOL     OW28609   6.614   5.272   3.929
 9237SOL    HW128610   6.561   5.293   3.847
 9237SOL    HW228611   6.699   5.324   3.927
 9238SOL     OW28612   1.177   2.635   5.194
 9238SOL    HW128613   1.175   2.712   5.129
 9238SOL    HW228614   1.261   2.583   5.181
 9239SOL     OW28615   1.743   5.831   5.872
 9239SOL    HW128616   1.741   5.732   5.858
 9239SOL    HW228617   1.654   5.861   5.906
 9240SOL     OW28618   3.472   1.335   4.628
 9240SOL    HW128619   3.421   1.392   4.692
 9240SOL    HW228620   3.458   1.369   4.535
 9241SOL     OW28621   5.305   6.500   0.009
 9241SOL    HW128622   5.359   6.499   0.094
 9241SOL    HW228623   5.214   6.537   0.027
 9242SOL     OW28624   2.601   2.624   0.375
 9242SOL    HW128625   2.653   2.543   0.402
 9242SOL    HW228626   2.616   2.641   0.277
 9243SOL     OW28627   2.087   0.422   0.168
 9243SOL    HW128628   2.126   0.445   0.257
 9243SOL    HW228629   2.072   0.323   0.162
 9244SOL     OW28630   2.748   6.317   0.008
 9244SOL    HW128631   2.751   6.403   0.060
 9244SOL    HW228632   2.839   6.276   0.008
 9245SOL     OW28633   0.636   4.910   2.805
 9245SOL    HW128634   0.700   4.849   2.759
 9245SOL    HW228635   0.635   4.999   2.759
 9246SOL     OW28636   5.111   6.831   7.011
 9246SOL    HW128637   5.146   6.835   0.084
 9246SOL    HW228638   5.104   6.924   6.974
 9247SOL     OW28639   3.472   6.776   2.666
 9247SOL    HW128640   3.548   6.721   2.700
 9247SOL    HW228641   3.386   6.729   2.687
 9248SOL     OW28642   2.818   0.174   0.224
 9248SOL    HW128643   2.822   0.078   0.197
 9248SOL    HW228644   2.776   0.182   0.314
 9249SOL     OW28645   3.582   0.537   0.450
 9249SOL    HW128646   3.599   0.617   0.509
 9249SOL    HW228647   3.663   0.519   0.394
 9250SOL     OW28648   0.501   3.687   3.089
 9250SOL    HW128649   0.590   3.648   3.062
 9250SOL    HW228650   0.428   3.623   3.066
 9251SOL     OW28651   4.007   1.697   1.398
 9251SOL    HW128652   3.976   1.689   1.303
 9251SOL    HW228653   4.099   1.736   1.399
 9252SOL     OW28654   5.606   1.560   4.707
 9252SOL    HW128655   5.590   1.495   4.633
 9252SOL    HW228656   5.686   1.532   4.759
 9253SOL     OW28657   2.399   5.024   3.922
 9253SOL    HW128658   2.453   4.944   3.951
 9253SOL    HW228659   2.307   4.995   3.898
 9254SOL     OW28660   0.105   5.811   2.475
 9254SOL    HW128661   0.036   5.828   2.404
 9254SOL    HW228662   0.169   5.888   2.479
 9255SOL     OW28663   6.406   3.266   0.896
 9255SOL    HW128664   6.475   3.255   0.825
 9255SOL    HW228665   6.335   3.197   0.886
 9256SOL     OW28666   2.246   6.420   0.814
 9256SOL    HW128667   2.325   6.481   0.810
 9256SOL    HW228668   2.163   6.474   0.830
 9257SOL     OW28669   6.728   5.834   4.715
 9257SOL    HW128670   6.800   5.897   4.688
 9257SOL    HW228671   6.646   5.885   4.742
 9258SOL     OW28672   5.286   4.777   2.307
 9258SOL    HW128673   5.287   4.874   2.332
 9258SOL    HW228674   5.245   4.724   2.380
 9259SOL     OW28675   0.958   2.623   6.907
 9259SOL    HW128676   0.886   2.556   6.890
 9259SOL    HW228677   0.943   2.703   6.849
 9260SOL     OW28678   5.281   4.325   4.815
 9260SOL    HW128679   5.278   4.231   4.781
 9260SOL    HW228680   5.188   4.361   4.822
 9261SOL     OW28681   1.410   3.414   1.722
 9261SOL    HW128682   1.324   3.463   1.733
 9261SOL    HW228683   1.486   3.473   1.750
 9262SOL     OW28684   0.389   6.855   6.173
 9262SOL    HW128685   0.380   6.861   6.273
 9262SOL    HW228686   0.329   6.784   6.138
 9263SOL     OW28687   2.476   4.487   2.763
 9263SOL    HW128688   2.448   4.410   2.706
 9263SOL    HW228689   2.570   4.513   2.740
 9264SOL     OW28690   5.101   3.376   5.831
 9264SOL    HW128691   5.149   3.460   5.857
 9264SOL    HW228692   5.124   3.304   5.896
 9265SOL     OW28693   5.198   0.283   2.111
 9265SOL    HW128694   5.111   0.331   2.102
 9265SOL    HW228695   5.224   0.246   2.022
 9266SOL     OW28696   0.736   4.928   0.984
 9266SOL    HW128697   0.674   4.965   0.915
 9266SOL    HW228698   0.818   4.892   0.939
 9267SOL     OW28699   6.882   1.584   3.728
 9267SOL    HW128700   6.917   1.529   3.804
 9267SOL    HW228701   6.917   1.547   3.642
 9268SOL     OW28702   0.438   1.209   1.552
 9268SOL    HW128703   0.349   1.212   1.507
 9268SOL    HW228704   0.433   1.252   1.642
 9269SOL     OW28705   3.783   0.308   1.124
 9269SOL    HW128706   3.803   0.397   1.165
 9269SOL    HW228707   3.834   0.299   1.038
 9270SOL     OW28708   2.319   0.824   5.280
 9270SOL    HW128709   2.336   0.912   5.235
 9270SOL    HW228710   2.299   0.755   5.211
 9271SOL     OW28711   1.749   4.413   5.821
 9271SOL    HW128712   1.840   4.373   5.832
 9271SOL    HW228713   1.749   4.506   5.858
 9272SOL     OW28714   0.014   6.815   5.182
 9272SOL    HW128715   6.939   6.787   5.186
 9272SOL    HW228716   0.058   6.794   5.270
 9273SOL     OW28717   6.038   3.686   4.223
 9273SOL    HW128718   6.104   3.756   4.250
 9273SOL    HW228719   5.972   3.672   4.298
 9274SOL     OW28720   6.836   3.297   0.177
 9274SOL    HW128721   6.851   3.388   0.140
 9274SOL    HW228722   6.747   3.263   0.146
 9275SOL     OW28723   5.355   1.773   0.304
 9275SOL    HW128724   5.346   1.737   0.211
 9275SOL    HW228725   5.306   1.860   0.311
 9276SOL     OW28726   1.870   3.655   6.999
 9276SOL    HW128727   1.932   3.729   6.972
 9276SOL    HW228728   1.785   3.662   6.947
 9277SOL     OW28729   3.974   5.786   2.334
 9277SOL    HW128730   4.051   5.811   2.275
 9277SOL    HW228731   3.935   5.868   2.375
 9278SOL     OW28732   0.802   0.420   5.637
 9278SOL    HW128733   0.875   0.488   5.640
 9278SOL    HW228734   0.731   0.444   5.703
 9279SOL     OW28735   3.008   6.070   1.909
 9279SOL    HW128736   3.091   6.049   1.856
 9279SOL    HW228737   2.981   6.165   1.891
 9280SOL     OW28738   0.979   4.950   1.830
 9280SOL    HW128739   1.068   4.972   1.869
 9280SOL    HW228740   0.929   4.889   1.891
 9281SOL     OW28741   1.095   5.593   1.041
 9281SOL    HW128742   1.103   5.668   0.975
 9281SOL    HW228743   1.067   5.509   0.993
 9282SOL     OW28744   2.067   0.375   4.679
 9282SOL    HW128745   2.156   0.354   4.720
 9282SOL    HW228746   2.078   0.395   4.582
 9283SOL     OW28747   4.716   5.636   6.993
 9283SOL    HW128748   4.769   5.632   0.057
 9283SOL    HW228749   4.629   5.683   7.011
 9284SOL     OW28750   4.370   6.263   1.134
 9284SOL    HW128751   4.301   6.191   1.132
 9284SOL    HW228752   4.325   6.351   1.148
 9285SOL     OW28753   6.870   5.945   3.494
 9285SOL    HW128754   6.865   5.953   3.394
 9285SOL    HW228755   6.858   5.849   3.519
 9286SOL     OW28756   4.944   6.744   1.527
 9286SOL    HW128757   4.895   6.718   1.610
 9286SOL    HW228758   5.038   6.769   1.549
 9287SOL     OW28759   4.411   4.347   0.492
 9287SOL    HW128760   4.386   4.322   0.586
 9287SOL    HW228761   4.329   4.370   0.440
 9288SOL     OW28762   4.115   1.744   2.529
 9288SOL    HW128763   4.064   1.775   2.449
 9288SOL    HW228764   4.115   1.644   2.533
 9289SOL     OW28765   4.575   5.648   2.283
 9289SOL    HW128766   4.649   5.584   2.266
 9289SOL    HW228767   4.610   5.741   2.284
 9290SOL     OW28768   5.297   1.129   3.668
 9290SOL    HW128769   5.363   1.126   3.743
 9290SOL    HW228770   5.345   1.139   3.581
 9291SOL     OW28771   0.741   4.092   5.612
 9291SOL    HW128772   0.783   4.018   5.560
 9291SOL    HW228773   0.671   4.136   5.556
 9292SOL     OW28774   0.895   1.630   6.794
 9292SOL    HW128775   0.975   1.668   6.747
 9292SOL    HW228776   0.834   1.588   6.727
 9293SOL     OW28777   4.905   1.099   5.586
 9293SOL    HW128778   4.914   1.163   5.662
 9293SOL    HW228779   4.868   1.012   5.620
 9294SOL     OW28780   5.204   6.142   5.950
 9294SOL    HW128781   5.128   6.140   5.886
 9294SOL    HW228782   5.265   6.064   5.933
 9295SOL     OW28783   6.304   0.511   3.142
 9295SOL    HW128784   6.329   0.484   3.235
 9295SOL    HW228785   6.367   0.469   3.077
 9296SOL     OW28786   1.478   4.202   5.448
 9296SOL    HW128787   1.391   4.234   5.487
 9296SOL    HW228788   1.486   4.103   5.460
 9297SOL     OW28789   6.635   5.192   2.072
 9297SOL    HW128790   6.667   5.104   2.106
 9297SOL    HW228791   6.539   5.185   2.046
 9298SOL     OW28792   0.380   4.581   6.305
 9298SOL    HW128793   0.402   4.521   6.227
 9298SOL    HW228794   0.346   4.668   6.271
 9299SOL     OW28795   3.097   1.705   3.824
 9299SOL    HW128796   3.087   1.610   3.850
 9299SOL    HW228797   3.189   1.737   3.849
 9300SOL     OW28798   2.369   5.580   5.686
 9300SOL    HW128799   2.350   5.482   5.693
 9300SOL    HW228800   2.448   5.595   5.626
 9301SOL     OW28801   0.940   4.010   4.266
 9301SOL    HW128802   0.840   4.007   4.260
 9301SOL    HW228803   0.978   4.021   4.174
 9302SOL     OW28804   3.086   5.393   3.853
 9302SOL    HW128805   3.163   5.347   3.898
 9302SOL    HW228806   3.121   5.469   3.797
 9303SOL     OW28807   2.354   4.547   6.830
 9303SOL    HW128808   2.292   4.517   6.758
 9303SOL    HW228809   2.379   4.468   6.887
 9304SOL     OW28810   5.647   5.719   6.405
 9304SOL    HW128811   5.733   5.731   6.454
 9304SOL    HW228812   5.583   5.668   6.462
 9305SOL     OW28813   1.787   1.671   1.073
 9305SOL    HW128814   1.732   1.754   1.069
 9305SOL    HW228815   1.809   1.640   0.980
 9306SOL     OW28816   7.003   6.390   4.475
 9306SOL    HW128817   0.017   6.321   4.540
 9306SOL    HW228818   6.911   6.363   4.445
 9307SOL     OW28819   2.193   3.948   1.340
 9307SOL    HW128820   2.209   3.880   1.269
 9307SOL    HW228821   2.231   4.036   1.311
 9308SOL     OW28822   2.454   3.608   1.177
 9308SOL    HW128823   2.379   3.673   1.165
 9308SOL    HW228824   2.477   3.603   1.275
 9309SOL     OW28825   4.662   5.154   5.776
 9309SOL    HW128826   4.652   5.136   5.874
 9309SOL    HW228827   4.758   5.141   5.750
 9310SOL     OW28828   6.624   6.061   5.699
 9310SOL    HW128829   6.677   6.126   5.753
 9310SOL    HW228830   6.546   6.108   5.657
 9311SOL     OW28831   5.839   4.332   0.576
 9311SOL    HW128832   5.843   4.232   0.571
 9311SOL    HW228833   5.744   4.361   0.583
 9312SOL     OW28834   5.649   3.499   4.543
 9312SOL    HW128835   5.633   3.401   4.556
 9312SOL    HW228836   5.669   3.541   4.631
 9313SOL     OW28837   0.598   0.615   2.235
 9313SOL    HW128838   0.645   0.650   2.316
 9313SOL    HW228839   0.578   0.691   2.173
 9314SOL     OW28840   4.757   5.060   1.157
 9314SOL    HW128841   4.819   5.117   1.211
 9314SOL    HW228842   4.721   5.114   1.080
 9315SOL     OW28843   6.188   5.240   5.884
 9315SOL    HW128844   6.103   5.226   5.933
 9315SOL    HW228845   6.204   5.338   5.870
 9316SOL     OW28846   5.780   6.886   0.792
 9316SOL    HW128847   5.724   6.811   0.757
 9316SOL    HW228848   5.745   6.973   0.755
 9317SOL     OW28849   2.600   6.254   3.119
 9317SOL    HW128850   2.654   6.216   3.044
 9317SOL    HW228851   2.517   6.296   3.082
 9318SOL     OW28852   3.303   6.936   3.379
 9318SOL    HW128853   3.337   6.855   3.428
 9318SOL    HW228854   3.379   6.996   3.356
 9319SOL     OW28855   3.648   2.018   0.158
 9319SOL    HW128856   3.744   2.037   0.138
 9319SOL    HW228857   3.594   2.102   0.147
 9320SOL     OW28858   6.881   6.524   6.911
 9320SOL    HW128859   6.872   6.620   6.939
 9320SOL    HW228860   6.864   6.464   6.989
 9321SOL     OW28861   0.538   2.724   3.982
 9321SOL    HW128862   0.585   2.643   4.016
 9321SOL    HW228863   0.593   2.805   4.001
 9322SOL     OW28864   4.940   2.791   0.109
 9322SOL    HW128865   4.992   2.787   0.024
 9322SOL    HW228866   4.842   2.793   0.089
 9323SOL     OW28867   0.580   2.088   5.267
 9323SOL    HW128868   0.580   2.100   5.168
 9323SOL    HW228869   0.497   2.130   5.306
 9324SOL     OW28870   0.594   4.742   1.128
 9324SOL    HW128871   0.653   4.822   1.119
 9324SOL    HW228872   0.543   4.729   1.043
 9325SOL     OW28873   1.066   4.830   3.168
 9325SOL    HW128874   1.004   4.843   3.090
 9325SOL    HW228875   1.119   4.913   3.183
 9326SOL     OW28876   5.057   4.317   1.228
 9326SOL    HW128877   4.976   4.372   1.250
 9326SOL    HW228878   5.030   4.222   1.216
 9327SOL     OW28879   2.482   1.659   3.137
 9327SOL    HW128880   2.387   1.690   3.130
 9327SOL    HW228881   2.484   1.559   3.144
 9328SOL     OW28882   1.147   7.003   3.289
 9328SOL    HW128883   1.053   6.998   3.257
 9328SOL    HW228884   1.208   0.002   3.212
 9329SOL     OW28885   1.793   5.197   6.341
 9329SOL    HW128886   1.727   5.122   6.341
 9329SOL    HW228887   1.744   5.283   6.327
 9330SOL     OW28888   0.416   6.428   0.916
 9330SOL    HW128889   0.328   6.390   0.886
 9330SOL    HW228890   0.483   6.419   0.842
 9331SOL     OW28891   2.123   4.732   4.484
 9331SOL    HW128892   2.200   4.732   4.547
 9331SOL    HW228893   2.044   4.775   4.527
 9332SOL     OW28894   6.537   5.240   0.455
 9332SOL    HW128895   6.485   5.313   0.499
 9332SOL    HW228896   6.629   5.236   0.495
 9333SOL     OW28897   2.169   4.670   1.190
 9333SOL    HW128898   2.235   4.650   1.117
 9333SOL    HW228899   2.211   4.652   1.279
 9334SOL     OW28900   6.965   5.446   6.912
 9334SOL    HW128901   6.974   5.372   6.846
 9334SOL    HW228902   6.934   5.529   6.865
 9335SOL     OW28903   0.088   3.500   1.227
 9335SOL    HW128904   0.139   3.465   1.305
 9335SOL    HW228905   0.015   3.435   1.202
 9336SOL     OW28906   4.302   5.711   5.462
 9336SOL    HW128907   4.351   5.795   5.487
 9336SOL    HW228908   4.205   5.733   5.447
 9337SOL     OW28909   2.860   1.714   5.277
 9337SOL    HW128910   2.769   1.706   5.319
 9337SOL    HW228911   2.927   1.736   5.347
 9338SOL     OW28912   4.875   6.330   0.879
 9338SOL    HW128913   4.857   6.232   0.887
 9338SOL    HW228914   4.793   6.382   0.902
 9339SOL     OW28915   6.756   3.562   5.105
 9339SOL    HW128916   6.757   3.655   5.069
 9339SOL    HW228917   6.664   3.539   5.135
 9340SOL     OW28918   2.621   5.065   2.310
 9340SOL    HW128919   2.624   4.997   2.384
 9340SOL    HW228920   2.712   5.103   2.295
 9341SOL     OW28921   5.699   5.403   0.184
 9341SOL    HW128922   5.779   5.445   0.227
 9341SOL    HW228923   5.728   5.320   0.135
 9342SOL     OW28924   3.221   0.314   5.131
 9342SOL    HW128925   3.272   0.397   5.157
 9342SOL    HW228926   3.137   0.309   5.184
 9343SOL     OW28927   5.144   3.418   1.452
 9343SOL    HW128928   5.203   3.497   1.467
 9343SOL    HW228929   5.079   3.410   1.527
 9344SOL     OW28930   5.733   7.001   4.854
 9344SOL    HW128931   5.691   6.911   4.866
 9344SOL    HW228932   5.663   0.046   4.826
 9345SOL     OW28933   6.879   4.767   6.501
 9345SOL    HW128934   6.978   4.784   6.505
 9345SOL    HW228935   6.861   4.686   6.446
 9346SOL     OW28936   5.423   0.129   2.159
 9346SOL    HW128937   5.502   0.187   2.180
 9346SOL    HW228938   5.342   0.185   2.145
 9347SOL     OW28939   4.846   6.495   1.850
 9347SOL    HW128940   4.795   6.450   1.777
 9347SOL    HW228941   4.835   6.594   1.842
 9348SOL     OW28942   2.540   4.999   2.029
 9348SOL    HW128943   2.589   4.938   2.091
 9348SOL    HW228944   2.516   5.083   2.078
 9349SOL     OW28945   6.216   5.808   0.793
 9349SOL    HW128946   6.202   5.835   0.697
 9349SOL    HW228947   6.311   5.827   0.819
 9350SOL     OW28948   6.249   0.352   0.349
 9350SOL    HW128949   6.228   0.314   0.439
 9350SOL    HW228950   6.230   0.450   0.349
 9351SOL     OW28951   4.742   3.751   6.422
 9351SOL    HW128952   4.669   3.683   6.428
 9351SOL    HW228953   4.780   3.752   6.329
 9352SOL     OW28954   2.061   1.922   6.985
 9352SOL    HW128955   1.984   1.972   0.004
 9352SOL    HW228956   2.088   1.965   6.899
 9353SOL     OW28957   1.038   3.306   1.825
 9353SOL    HW128958   1.066   3.247   1.749
 9353SOL    HW228959   0.949   3.277   1.859
 9354SOL     OW28960   5.450   2.108   2.605
 9354SOL    HW128961   5.507   2.061   2.538
 9354SOL    HW228962   5.506   2.129   2.686
 9355SOL     OW28963   0.342   1.743   2.321
 9355SOL    HW128964   0.289   1.770   2.240
 9355SOL    HW228965   0.313   1.653   2.351
 9356SOL     OW28966   5.054   2.807   2.695
 9356SOL    HW128967   5.112   2.803   2.776
 9356SOL    HW228968   4.970   2.856   2.716
 9357SOL     OW28969   2.391   4.743   0.125
 9357SOL    HW128970   2.447   4.700   0.054
 9357SOL    HW228971   2.354   4.673   0.186
 9358SOL     OW28972   5.216   3.565   2.551
 9358SOL    HW128973   5.119   3.575   2.572
 9358SOL    HW228974   5.231   3.584   2.453
 9359SOL     OW28975   4.908   5.772   6.127
 9359SOL    HW128976   4.952   5.722   6.201
 9359SOL    HW228977   4.974   5.790   6.055
 9360SOL     OW28978   1.473   0.848   5.031
 9360SOL    HW128979   1.466   0.840   4.932
 9360SOL    HW228980   1.524   0.771   5.068
 9361SOL     OW28981   2.184   1.357   2.702
 9361SOL    HW128982   2.087   1.373   2.724
 9361SOL    HW228983   2.196   1.355   2.603
 9362SOL     OW28984   2.125   1.551   3.198
 9362SOL    HW128985   2.173   1.638   3.186
 9362SOL    HW228986   2.045   1.548   3.137
 9363SOL     OW28987   1.353   6.367   2.432
 9363SOL    HW128988   1.417   6.442   2.451
 9363SOL    HW228989   1.362   6.298   2.504
 9364SOL     OW28990   5.420   4.213   0.872
 9364SOL    HW128991   5.462   4.134   0.918
 9364SOL    HW228992   5.337   4.240   0.920
 9365SOL     OW28993   1.885   1.352   4.159
 9365SOL    HW128994   1.898   1.442   4.200
 9365SOL    HW228995   1.943   1.285   4.206
 9366SOL     OW28996   3.137   1.757   2.186
 9366SOL    HW128997   3.211   1.691   2.201
 9366SOL    HW228998   3.141   1.789   2.091
 9367SOL     OW28999   6.319   6.512   3.969
 9367SOL    HW129000   6.289   6.445   4.038
 9367SOL    HW229001   6.280   6.601   3.991
 9368SOL     OW29002   4.874   3.241   0.859
 9368SOL    HW129003   4.893   3.246   0.761
 9368SOL    HW229004   4.941   3.181   0.903
 9369SOL     OW29005   0.367   1.898   4.900
 9369SOL    HW129006   0.294   1.967   4.899
 9369SOL    HW229007   0.441   1.927   4.839
 9370SOL     OW29008   5.620   5.367   3.122
 9370SOL    HW129009   5.674   5.344   3.203
 9370SOL    HW229010   5.643   5.305   3.047
 9371SOL     OW29011   0.990   0.014   0.391
 9371SOL    HW129012   1.084   0.005   0.359
 9371SOL    HW229013   0.948   0.096   0.352
 9372SOL     OW29014   5.813   6.050   0.126
 9372SOL    HW129015   5.774   6.112   0.057
 9372SOL    HW229016   5.746   5.979   0.148
 9373SOL     OW29017   5.516   2.307   4.355
 9373SOL    HW129018   5.522   2.387   4.296
 9373SOL    HW229019   5.594   2.306   4.417
 9374SOL     OW29020   4.879   4.057   0.363
 9374SOL    HW129021   4.821   4.137   0.372
 9374SOL    HW229022   4.915   4.052   0.269
 9375SOL     OW29023   6.676   0.884   4.463
 9375SOL    HW129024   6.597   0.825   4.445
 9375SOL    HW229025   6.753   0.828   4.492
 9376SOL     OW29026   2.181   2.819   1.556
 9376SOL    HW129027   2.109   2.752   1.573
 9376SOL    HW229028   2.209   2.816   1.460
 9377SOL     OW29029   5.878   5.004   2.817
 9377SOL    HW129030   5.934   5.003   2.900
 9377SOL    HW229031   5.786   4.973   2.839
 9378SOL     OW29032   3.283   6.445   1.113
 9378SOL    HW129033   3.352   6.506   1.151
 9378SOL    HW229034   3.194   6.491   1.110
 9379SOL     OW29035   5.328   5.048   5.483
 9379SOL    HW129036   5.252   4.995   5.447
 9379SOL    HW229037   5.337   5.032   5.581
 9380SOL     OW29038   6.377   5.938   6.102
 9380SOL    HW129039   6.463   5.986   6.088
 9380SOL    HW229040   6.328   5.929   6.015
 9381SOL     OW29041   1.237   0.657   7.004
 9381SOL    HW129042   1.331   0.689   6.988
 9381SOL    HW229043   1.182   0.734   0.017
 9382SOL     OW29044   5.413   2.102   2.964
 9382SOL    HW129045   5.329   2.132   2.917
 9382SOL    HW229046   5.492   2.141   2.918
 9383SOL     OW29047   6.406   5.641   5.970
 9383SOL    HW129048   6.416   5.551   5.927
 9383SOL    HW229049   6.469   5.706   5.927
 9384SOL     OW29050   3.910   6.604   3.012
 9384SOL    HW129051   3.837   6.568   3.070
 9384SOL    HW229052   3.962   6.673   3.063
 9385SOL     OW29053   3.790   0.908   4.273
 9385SOL    HW129054   3.802   0.845   4.349
 9385SOL    HW229055   3.724   0.979   4.299
 9386SOL     OW29056   4.026   0.239   5.711
 9386SOL    HW129057   4.051   0.323   5.664
 9386SOL    HW229058   3.928   0.221   5.699
 9387SOL     OW29059   4.308   5.806   0.637
 9387SOL    HW129060   4.331   5.810   0.540
 9387SOL    HW229061   4.279   5.713   0.661
 9388SOL     OW29062   6.405   6.807   2.358
 9388SOL    HW129063   6.418   6.746   2.281
 9388SOL    HW229064   6.483   6.799   2.421
 9389SOL     OW29065   3.301   1.845   6.771
 9389SOL    HW129066   3.300   1.930   6.717
 9389SOL    HW229067   3.341   1.772   6.716
 9390SOL     OW29068   3.090   5.530   1.114
 9390SOL    HW129069   3.042   5.517   1.201
 9390SOL    HW229070   3.081   5.447   1.058
 9391SOL     OW29071   6.710   1.412   5.227
 9391SOL    HW129072   6.709   1.447   5.321
 9391SOL    HW229073   6.703   1.488   5.163
 9392SOL     OW29074   0.968   6.638   4.752
 9392SOL    HW129075   0.987   6.664   4.846
 9392SOL    HW229076   0.968   6.720   4.694
 9393SOL     OW29077   3.966   1.635   4.929
 9393SOL    HW129078   3.898   1.605   4.863
 9393SOL    HW229079   4.006   1.722   4.900
 9394SOL     OW29080   6.426   2.434   1.829
 9394SOL    HW129081   6.337   2.390   1.842
 9394SOL    HW229082   6.415   2.514   1.769
 9395SOL     OW29083   2.113   2.834   5.861
 9395SOL    HW129084   2.105   2.871   5.953
 9395SOL    HW229085   2.166   2.897   5.804
 9396SOL     OW29086   6.852   1.103   6.098
 9396SOL    HW129087   6.793   1.182   6.082
 9396SOL    HW229088   6.944   1.134   6.125
 9397SOL     OW29089   2.422   2.366   0.967
 9397SOL    HW129090   2.486   2.371   0.890
 9397SOL    HW229091   2.379   2.455   0.981
 9398SOL     OW29092   2.474   1.687   0.833
 9398SOL    HW129093   2.455   1.673   0.930
 9398SOL    HW229094   2.555   1.745   0.823
 9399SOL     OW29095   7.004   0.474   5.878
 9399SOL    HW129096   7.019   0.526   5.794
 9399SOL    HW229097   0.071   0.456   5.922
 9400SOL     OW29098   4.146   1.635   3.577
 9400SOL    HW129099   4.217   1.592   3.632
 9400SOL    HW229100   4.162   1.615   3.481
 9401SOL     OW29101   4.636   6.371   4.060
 9401SOL    HW129102   4.726   6.381   4.102
 9401SOL    HW229103   4.596   6.461   4.045
 9402SOL     OW29104   2.493   5.304   0.194
 9402SOL    HW129105   2.563   5.289   0.125
 9402SOL    HW229106   2.402   5.296   0.153
 9403SOL     OW29107   5.525   0.076   4.533
 9403SOL    HW129108   5.492   0.108   4.444
 9403SOL    HW229109   5.604   0.017   4.520
 9404SOL     OW29110   1.021   3.983   5.722
 9404SOL    HW129111   1.051   3.907   5.781
 9404SOL    HW229112   0.991   3.946   5.634
 9405SOL     OW29113   0.421   0.267   0.821
 9405SOL    HW129114   0.490   0.203   0.855
 9405SOL    HW229115   0.467   0.346   0.779
 9406SOL     OW29116   6.792   1.232   5.008
 9406SOL    HW129117   6.775   1.309   5.069
 9406SOL    HW229118   6.725   1.232   4.934
 9407SOL     OW29119   4.127   5.546   3.311
 9407SOL    HW129120   4.049   5.489   3.337
 9407SOL    HW229121   4.102   5.602   3.232
 9408SOL     OW29122   4.217   1.840   0.125
 9408SOL    HW129123   4.119   1.832   0.145
 9408SOL    HW229124   4.269   1.803   0.202
 9409SOL     OW29125   6.097   3.658   3.675
 9409SOL    HW129126   6.027   3.715   3.718
 9409SOL    HW229127   6.116   3.579   3.733
 9410SOL     OW29128   4.101   6.907   1.542
 9410SOL    HW129129   4.035   6.875   1.610
 9410SOL    HW229130   4.052   6.940   1.462
 9411SOL     OW29131   4.536   5.461   1.662
 9411SOL    HW129132   4.625   5.437   1.622
 9411SOL    HW229133   4.551   5.503   1.752
 9412SOL     OW29134   6.003   3.032   3.216
 9412SOL    HW129135   5.988   2.936   3.239
 9412SOL    HW229136   5.947   3.089   3.277
 9413SOL     OW29137   3.492   5.097   3.736
 9413SOL    HW129138   3.443   5.180   3.710
 9413SOL    HW229139   3.436   5.017   3.716
 9414SOL     OW29140   2.496   0.977   2.319
 9414SOL    HW129141   2.413   0.922   2.307
 9414SOL    HW229142   2.550   0.976   2.235
 9415SOL     OW29143   2.184   1.425   2.418
 9415SOL    HW129144   2.282   1.409   2.427
 9415SOL    HW229145   2.155   1.406   2.324
 9416SOL     OW29146   1.636   2.388   1.328
 9416SOL    HW129147   1.545   2.428   1.342
 9416SOL    HW229148   1.668   2.348   1.414
 9417SOL     OW29149   1.927   0.148   5.110
 9417SOL    HW129150   1.913   0.049   5.110
 9417SOL    HW229151   1.927   0.182   5.016
 9418SOL     OW29152   4.505   4.053   1.596
 9418SOL    HW129153   4.588   4.030   1.545
 9418SOL    HW229154   4.453   4.123   1.547
 9419SOL     OW29155   3.203   5.134   4.233
 9419SOL    HW129156   3.147   5.216   4.238
 9419SOL    HW229157   3.170   5.066   4.298
 9420SOL     OW29158   1.593   1.575   4.419
 9420SOL    HW129159   1.538   1.536   4.492
 9420SOL    HW229160   1.616   1.503   4.353
 9421SOL     OW29161   1.911   5.416   4.066
 9421SOL    HW129162   1.975   5.402   3.990
 9421SOL    HW229163   1.962   5.424   4.151
 9422SOL     OW29164   4.259   1.517   2.636
 9422SOL    HW129165   4.265   1.451   2.711
 9422SOL    HW229166   4.306   1.601   2.661
 9423SOL     OW29167   4.751   6.851   4.368
 9423SOL    HW129168   4.803   6.856   4.282
 9423SOL    HW229169   4.715   6.942   4.391
 9424SOL     OW29170   3.224   6.095   4.098
 9424SOL    HW129171   3.314   6.086   4.140
 9424SOL    HW229172   3.224   6.173   4.035
 9425SOL     OW29173   1.138   5.277   3.300
 9425SOL    HW129174   1.072   5.285   3.225
 9425SOL    HW229175   1.171   5.183   3.304
 9426SOL     OW29176   3.475   5.603   0.872
 9426SOL    HW129177   3.426   5.689   0.887
 9426SOL    HW229178   3.410   5.527   0.870
 9427SOL     OW29179   2.591   5.147   4.196
 9427SOL    HW129180   2.616   5.208   4.271
 9427SOL    HW229181   2.511   5.183   4.148
 9428SOL     OW29182   5.170   6.211   2.344
 9428SOL    HW129183   5.243   6.269   2.379
 9428SOL    HW229184   5.081   6.253   2.364
 9429SOL     OW29185   0.255   3.165   2.901
 9429SOL    HW129186   0.331   3.171   2.836
 9429SOL    HW229187   0.275   3.220   2.982
 9430SOL     OW29188   5.572   6.929   2.165
 9430SOL    HW129189   5.506   7.003   2.150
 9430SOL    HW229190   5.654   6.946   2.112
 9431SOL     OW29191   6.662   4.386   0.214
 9431SOL    HW129192   6.635   4.425   0.126
 9431SOL    HW229193   6.742   4.327   0.201
 9432SOL     OW29194   6.747   6.698   4.264
 9432SOL    HW129195   6.714   6.615   4.219
 9432SOL    HW229196   6.803   6.673   4.343
 9433SOL     OW29197   2.801   4.782   4.531
 9433SOL    HW129198   2.860   4.826   4.599
 9433SOL    HW229199   2.782   4.846   4.457
 9434SOL     OW29200   5.589   4.262   2.984
 9434SOL    HW129201   5.664   4.237   3.044
 9434SOL    HW229202   5.539   4.339   3.024
 9435SOL     OW29203   1.795   2.406   5.165
 9435SOL    HW129204   1.716   2.373   5.113
 9435SOL    HW229205   1.764   2.462   5.242
 9436SOL     OW29206   2.964   1.935   5.727
 9436SOL    HW129207   2.871   1.909   5.702
 9436SOL    HW229208   2.961   2.008   5.796
 9437SOL     OW29209   0.610   5.385   4.206
 9437SOL    HW129210   0.600   5.473   4.253
 9437SOL    HW229211   0.520   5.349   4.183
 9438SOL     OW29212   0.644   6.549   2.339
 9438SOL    HW129213   0.679   6.552   2.245
 9438SOL    HW229214   0.718   6.570   2.403
 9439SOL     OW29215   1.110   3.509   1.364
 9439SOL    HW129216   1.111   3.411   1.345
 9439SOL    HW229217   1.200   3.547   1.346
 9440SOL     OW29218   3.767   5.498   4.627
 9440SOL    HW129219   3.678   5.480   4.668
 9440SOL    HW229220   3.761   5.579   4.568
 9441SOL     OW29221   1.751   5.802   5.312
 9441SOL    HW129222   1.833   5.783   5.366
 9441SOL    HW229223   1.682   5.732   5.330
 9442SOL     OW29224   0.625   3.466   1.224
 9442SOL    HW129225   0.637   3.550   1.276
 9442SOL    HW229226   0.609   3.390   1.286
 9443SOL     OW29227   1.475   3.342   1.152
 9443SOL    HW129228   1.551   3.276   1.152
 9443SOL    HW229229   1.496   3.417   1.215
 9444SOL     OW29230   1.238   4.276   6.025
 9444SOL    HW129231   1.265   4.372   6.036
 9444SOL    HW229232   1.149   4.272   5.979
 9445SOL     OW29233   6.281   3.284   1.776
 9445SOL    HW129234   6.218   3.300   1.700
 9445SOL    HW229235   6.369   3.327   1.756
 9446SOL     OW29236   5.997   4.552   0.555
 9446SOL    HW129237   6.079   4.506   0.520
 9446SOL    HW229238   5.925   4.484   0.570
 9447SOL     OW29239   6.075   1.885   1.647
 9447SOL    HW129240   6.127   1.941   1.712
 9447SOL    HW229241   6.028   1.811   1.696
 9448SOL     OW29242   6.035   5.940   0.545
 9448SOL    HW129243   5.951   5.992   0.558
 9448SOL    HW229244   6.012   5.843   0.537
 9449SOL     OW29245   6.627   4.901   5.476
 9449SOL    HW129246   6.583   4.826   5.526
 9449SOL    HW229247   6.666   4.966   5.542
 9450SOL     OW29248   2.734   6.372   4.260
 9450SOL    HW129249   2.753   6.287   4.210
 9450SOL    HW229250   2.792   6.445   4.225
 9451SOL     OW29251   4.063   3.930   5.664
 9451SOL    HW129252   4.028   3.920   5.571
 9451SOL    HW229253   3.990   3.914   5.729
 9452SOL     OW29254   3.290   4.010   1.133
 9452SOL    HW129255   3.372   4.068   1.132
 9452SOL    HW229256   3.208   4.068   1.136
 9453SOL     OW29257   2.946   5.394   1.323
 9453SOL    HW129258   2.930   5.346   1.237
 9453SOL    HW229259   2.952   5.328   1.398
 9454SOL     OW29260   2.197   2.109   5.489
 9454SOL    HW129261   2.236   2.198   5.464
 9454SOL    HW229262   2.177   2.056   5.407
 9455SOL     OW29263   1.995   1.986   2.518
 9455SOL    HW129264   2.067   1.995   2.448
 9455SOL    HW229265   1.946   2.073   2.526
 9456SOL     OW29266   1.036   3.549   0.687
 9456SOL    HW129267   0.947   3.557   0.641
 9456SOL    HW229268   1.109   3.570   0.622
 9457SOL     OW29269   6.647   3.687   7.019
 9457SOL    HW129270   6.693   3.629   0.065
 9457SOL    HW229271   6.608   3.767   0.044
 9458SOL     OW29272   0.994   5.723   4.525
 9458SOL    HW129273   1.080   5.772   4.542
 9458SOL    HW229274   0.993   5.689   4.431
 9459SOL     OW29275   4.176   6.203   1.869
 9459SOL    HW129276   4.169   6.130   1.937
 9459SOL    HW229277   4.130   6.285   1.904
 9460SOL     OW29278   0.990   2.464   5.646
 9460SOL    HW129279   1.083   2.475   5.612
 9460SOL    HW229280   0.986   2.489   5.742
 9461SOL     OW29281   1.849   0.668   2.682
 9461SOL    HW129282   1.909   0.597   2.717
 9461SOL    HW229283   1.885   0.703   2.595
 9462SOL     OW29284   0.357   2.847   2.989
 9462SOL    HW129285   0.313   2.869   2.903
 9462SOL    HW229286   0.439   2.905   3.001
 9463SOL     OW29287   5.628   1.804   6.472
 9463SOL    HW129288   5.711   1.854   6.446
 9463SOL    HW229289   5.617   1.725   6.412
 9464SOL     OW29290   4.402   6.847   5.982
 9464SOL    HW129291   4.369   6.802   6.065
 9464SOL    HW229292   4.354   6.810   5.902
 9465SOL     OW29293   5.401   6.712   4.435
 9465SOL    HW129294   5.374   6.616   4.445
 9465SOL    HW229295   5.320   6.771   4.440
 9466SOL     OW29296   2.690   1.542   0.159
 9466SOL    HW129297   2.668   1.638   0.143
 9466SOL    HW229298   2.638   1.485   0.095
 9467SOL     OW29299   2.113   3.219   2.122
 9467SOL    HW129300   2.171   3.295   2.093
 9467SOL    HW229301   2.026   3.255   2.157
 9468SOL     OW29302   0.439   2.636   6.319
 9468SOL    HW129303   0.493   2.578   6.380
 9468SOL    HW229304   0.362   2.674   6.370
 9469SOL     OW29305   6.993   4.139   2.807
 9469SOL    HW129306   0.041   4.140   2.880
 9469SOL    HW229307   0.011   4.183   2.726
 9470SOL     OW29308   6.162   3.293   1.496
 9470SOL    HW129309   6.152   3.200   1.530
 9470SOL    HW229310   6.209   3.292   1.408
 9471SOL     OW29311   0.209   2.782   6.406
 9471SOL    HW129312   0.203   2.825   6.316
 9471SOL    HW229313   0.148   2.703   6.410
 9472SOL     OW29314   6.680   2.473   4.593
 9472SOL    HW129315   6.719   2.545   4.649
 9472SOL    HW229316   6.598   2.506   4.546
 9473SOL     OW29317   3.401   5.712   5.193
 9473SOL    HW129318   3.388   5.616   5.168
 9473SOL    HW229319   3.336   5.768   5.142
 9474SOL     OW29320   3.477   5.545   3.385
 9474SOL    HW129321   3.438   5.633   3.412
 9474SOL    HW229322   3.403   5.482   3.360
 9475SOL     OW29323   1.907   3.374   1.509
 9475SOL    HW129324   1.859   3.444   1.455
 9475SOL    HW229325   1.909   3.402   1.605
 9476SOL     OW29326   2.901   3.491   5.641
 9476SOL    HW129327   2.925   3.414   5.581
 9476SOL    HW229328   2.865   3.566   5.586
 9477SOL     OW29329   0.584   2.143   0.909
 9477SOL    HW129330   0.648   2.169   0.837
 9477SOL    HW229331   0.496   2.189   0.893
 9478SOL     OW29332   5.167   3.929   5.488
 9478SOL    HW129333   5.210   4.007   5.442
 9478SOL    HW229334   5.137   3.957   5.579
 9479SOL     OW29335   6.270   5.554   5.063
 9479SOL    HW129336   6.184   5.578   5.019
 9479SOL    HW229337   6.342   5.545   4.994
 9480SOL     OW29338   5.745   3.711   6.270
 9480SOL    HW129339   5.746   3.681   6.365
 9480SOL    HW229340   5.650   3.718   6.238
 9481SOL     OW29341   6.963   3.428   2.414
 9481SOL    HW129342   0.037   3.459   2.418
 9481SOL    HW229343   6.922   3.433   2.505
 9482SOL     OW29344   4.335   0.208   2.673
 9482SOL    HW129345   4.291   0.254   2.750
 9482SOL    HW229346   4.328   0.109   2.684
 9483SOL     OW29347   1.789   1.869   0.694
 9483SOL    HW129348   1.833   1.912   0.615
 9483SOL    HW229349   1.738   1.937   0.746
 9484SOL     OW29350   5.950   0.914   2.824
 9484SOL    HW129351   5.931   0.874   2.914
 9484SOL    HW229352   5.903   0.860   2.754
 9485SOL     OW29353   1.042   6.894   2.728
 9485SOL    HW129354   1.139   6.909   2.709
 9485SOL    HW229355   0.995   6.982   2.734
 9486SOL     OW29356   2.671   6.313   2.615
 9486SOL    HW129357   2.756   6.278   2.574
 9486SOL    HW229358   2.602   6.241   2.614
 9487SOL     OW29359   2.972   3.517   3.297
 9487SOL    HW129360   2.980   3.603   3.347
 9487SOL    HW229361   2.972   3.535   3.199
 9488SOL     OW29362   1.042   1.462   1.492
 9488SOL    HW129363   1.082   1.523   1.425
 9488SOL    HW229364   1.039   1.507   1.581
 9489SOL     OW29365   3.008   4.044   0.749
 9489SOL    HW129366   2.961   4.118   0.701
 9489SOL    HW229367   2.974   3.956   0.716
 9490SOL     OW29368   5.409   1.691   6.883
 9490SOL    HW129369   5.383   1.766   6.943
 9490SOL    HW229370   5.508   1.677   6.887
 9491SOL     OW29371   6.813   5.172   5.379
 9491SOL    HW129372   6.835   5.143   5.472
 9491SOL    HW229373   6.714   5.183   5.369
 9492SOL     OW29374   2.777   4.376   1.397
 9492SOL    HW129375   2.873   4.397   1.382
 9492SOL    HW229376   2.722   4.420   1.326
 9493SOL     OW29377   5.689   6.347   2.389
 9493SOL    HW129378   5.600   6.373   2.352
 9493SOL    HW229379   5.747   6.312   2.316
 9494SOL     OW29380   3.365   2.857   6.169
 9494SOL    HW129381   3.419   2.877   6.087
 9494SOL    HW229382   3.390   2.921   6.242
 9495SOL     OW29383   5.781   2.124   4.662
 9495SOL    HW129384   5.835   2.045   4.692
 9495SOL    HW229385   5.684   2.103   4.672
 9496SOL     OW29386   6.079   3.913   0.243
 9496SOL    HW129387   5.982   3.890   0.235
 9496SOL    HW229388   6.125   3.893   0.157
 9497SOL     OW29389   0.937   6.193   6.100
 9497SOL    HW129390   1.028   6.175   6.061
 9497SOL    HW229391   0.870   6.131   6.060
 9498SOL     OW29392   3.657   0.559   6.783
 9498SOL    HW129393   3.756   0.563   6.791
 9498SOL    HW229394   3.615   0.610   6.858
 9499SOL     OW29395   4.296   4.569   6.193
 9499SOL    HW129396   4.372   4.536   6.249
 9499SOL    HW229397   4.291   4.515   6.109
 9500SOL     OW29398   5.220   5.647   1.727
 9500SOL    HW129399   5.263   5.591   1.657
 9500SOL    HW229400   5.271   5.637   1.813
 9501SOL     OW29401   3.170   1.769   4.916
 9501SOL    HW129402   3.097   1.706   4.944
 9501SOL    HW229403   3.142   1.863   4.938
 9502SOL     OW29404   4.119   3.109   5.726
 9502SOL    HW129405   4.114   3.105   5.626
 9502SOL    HW229406   4.031   3.081   5.765
 9503SOL     OW29407   1.516   0.075   1.313
 9503SOL    HW129408   1.556   0.167   1.312
 9503SOL    HW229409   1.572   0.013   1.258
 9504SOL     OW29410   0.749   3.269   6.858
 9504SOL    HW129411   0.747   3.227   6.767
 9504SOL    HW229412   0.657   3.270   6.896
 9505SOL     OW29413   4.813   2.819   3.495
 9505SOL    HW129414   4.735   2.759   3.480
 9505SOL    HW229415   4.811   2.853   3.589
 9506SOL     OW29416   0.298   2.153   0.876
 9506SOL    HW129417   0.261   2.229   0.822
 9506SOL    HW229418   0.227   2.084   0.891
 9507SOL     OW29419   1.466   2.030   4.742
 9507SOL    HW129420   1.407   2.073   4.674
 9507SOL    HW229421   1.556   2.075   4.741
 9508SOL     OW29422   4.875   1.387   6.331
 9508SOL    HW129423   4.850   1.435   6.248
 9508SOL    HW229424   4.959   1.426   6.368
 9509SOL     OW29425   3.179   6.499   6.122
 9509SOL    HW129426   3.107   6.547   6.171
 9509SOL    HW229427   3.149   6.481   6.028
 9510SOL     OW29428   6.782   4.225   2.980
 9510SOL    HW129429   6.815   4.228   2.886
 9510SOL    HW229430   6.830   4.153   3.030
 9511SOL     OW29431   2.135   1.313   1.371
 9511SOL    HW129432   2.122   1.401   1.324
 9511SOL    HW229433   2.099   1.240   1.314
 9512SOL     OW29434   1.652   3.091   5.133
 9512SOL    HW129435   1.701   3.176   5.112
 9512SOL    HW229436   1.697   3.015   5.086
 9513SOL     OW29437   2.141   4.462   4.080
 9513SOL    HW129438   2.207   4.410   4.027
 9513SOL    HW229439   2.126   4.416   4.168
 9514SOL     OW29440   2.767   2.551   6.110
 9514SOL    HW129441   2.718   2.630   6.072
 9514SOL    HW229442   2.704   2.497   6.167
 9515SOL     OW29443   2.271   5.308   5.558
 9515SOL    HW129444   2.287   5.322   5.460
 9515SOL    HW229445   2.341   5.246   5.594
 9516SOL     OW29446   5.588   4.241   5.755
 9516SOL    HW129447   5.629   4.153   5.779
 9516SOL    HW229448   5.488   4.233   5.760
 9517SOL     OW29449   0.755   5.742   1.868
 9517SOL    HW129450   0.731   5.657   1.821
 9517SOL    HW229451   0.847   5.734   1.907
 9518SOL     OW29452   0.817   3.149   5.215
 9518SOL    HW129453   0.746   3.211   5.181
 9518SOL    HW229454   0.804   3.134   5.313
 9519SOL     OW29455   3.267   2.943   3.473
 9519SOL    HW129456   3.183   2.996   3.484
 9519SOL    HW229457   3.305   2.923   3.563
 9520SOL     OW29458   5.217   0.338   6.228
 9520SOL    HW129459   5.145   0.338   6.298
 9520SOL    HW229460   5.208   0.256   6.172
 9521SOL     OW29461   3.511   1.482   1.323
 9521SOL    HW129462   3.442   1.438   1.380
 9521SOL    HW229463   3.595   1.494   1.375
 9522SOL     OW29464   3.472   6.231   1.547
 9522SOL    HW129465   3.524   6.179   1.616
 9522SOL    HW229466   3.468   6.177   1.463
 9523SOL     OW29467   2.637   4.626   4.386
 9523SOL    HW129468   2.700   4.673   4.449
 9523SOL    HW229469   2.667   4.641   4.292
 9524SOL     OW29470   2.067   3.973   0.368
 9524SOL    HW129471   2.035   4.067   0.351
 9524SOL    HW229472   2.142   3.952   0.306
 9525SOL     OW29473   2.518   3.053   5.545
 9525SOL    HW129474   2.581   3.068   5.468
 9525SOL    HW229475   2.515   3.136   5.601
 9526SOL     OW29476   5.280   5.512   0.020
 9526SOL    HW129477   5.379   5.514   0.030
 9526SOL    HW229478   5.256   5.526   6.944
 9527SOL     OW29479   4.051   6.845   5.029
 9527SOL    HW129480   4.104   6.842   4.944
 9527SOL    HW229481   4.095   6.786   5.097
 9528SOL     OW29482   5.004   2.452   0.545
 9528SOL    HW129483   4.992   2.483   0.451
 9528SOL    HW229484   5.098   2.422   0.559
 9529SOL     OW29485   5.576   0.797   1.976
 9529SOL    HW129486   5.673   0.795   1.954
 9529SOL    HW229487   5.526   0.849   1.906
 9530SOL     OW29488   1.364   5.458   3.315
 9530SOL    HW129489   1.311   5.489   3.394
 9530SOL    HW229490   1.332   5.367   3.287
 9531SOL     OW29491   3.404   5.691   2.272
 9531SOL    HW129492   3.377   5.596   2.286
 9531SOL    HW229493   3.353   5.730   2.196
 9532SOL     OW29494   6.331   4.925   3.869
 9532SOL    HW129495   6.392   4.985   3.921
 9532SOL    HW229496   6.245   4.914   3.917
 9533SOL     OW29497   1.839   4.168   3.039
 9533SOL    HW129498   1.904   4.133   2.972
 9533SOL    HW229499   1.837   4.106   3.118
 9534SOL     OW29500   5.212   5.227   4.612
 9534SOL    HW129501   5.265   5.291   4.668
 9534SOL    HW229502   5.167   5.160   4.671
 9535SOL     OW29503   0.124   1.768   3.918
 9535SOL    HW129504   0.176   1.826   3.855
 9535SOL    HW229505   0.027   1.773   3.895
 9536SOL     OW29506   3.179   4.082   4.545
 9536SOL    HW129507   3.272   4.053   4.524
 9536SOL    HW229508   3.125   4.084   4.461
 9537SOL     OW29509   6.577   1.376   4.172
 9537SOL    HW129510   6.626   1.296   4.208
 9537SOL    HW229511   6.636   1.425   4.109
 9538SOL     OW29512   5.092   6.771   5.043
 9538SOL    HW129513   5.048   6.760   5.132
 9538SOL    HW229514   5.105   6.869   5.025
 9539SOL     OW29515   3.443   3.826   2.547
 9539SOL    HW129516   3.381   3.873   2.609
 9539SOL    HW229517   3.535   3.824   2.587
 9540SOL     OW29518   4.513   4.804   3.006
 9540SOL    HW129519   4.600   4.851   3.027
 9540SOL    HW229520   4.438   4.852   3.051
 9541SOL     OW29521   1.947   5.330   5.234
 9541SOL    HW129522   2.011   5.259   5.261
 9541SOL    HW229523   1.983   5.378   5.154
 9542SOL     OW29524   6.068   4.371   3.427
 9542SOL    HW129525   6.082   4.469   3.411
 9542SOL    HW229526   6.137   4.338   3.492
 9543SOL     OW29527   2.490   0.399   5.783
 9543SOL    HW129528   2.415   0.375   5.845
 9543SOL    HW229529   2.483   0.495   5.758
 9544SOL     OW29530   5.781   3.486   5.025
 9544SOL    HW129531   5.828   3.399   5.013
 9544SOL    HW229532   5.721   3.481   5.105
 9545SOL     OW29533   6.598   4.579   2.035
 9545SOL    HW129534   6.553   4.500   1.995
 9545SOL    HW229535   6.531   4.651   2.053
 9546SOL     OW29536   2.638   2.940   1.488
 9546SOL    HW129537   2.704   2.873   1.452
 9546SOL    HW229538   2.607   2.999   1.414
 9547SOL     OW29539   4.354   0.213   3.539
 9547SOL    HW129540   4.300   0.143   3.492
 9547SOL    HW229541   4.436   0.234   3.487
 9548SOL     OW29542   1.164   4.864   6.157
 9548SOL    HW129543   1.118   4.907   6.235
 9548SOL    HW229544   1.111   4.881   6.074
 9549SOL     OW29545   4.403   2.266   1.292
 9549SOL    HW129546   4.418   2.194   1.225
 9549SOL    HW229547   4.429   2.234   1.382
 9550SOL     OW29548   6.012   3.135   1.981
 9550SOL    HW129549   5.969   3.105   1.896
 9550SOL    HW229550   6.107   3.161   1.963
 9551SOL     OW29551   5.896   2.942   6.696
 9551SOL    HW129552   5.829   2.870   6.679
 9551SOL    HW229553   5.986   2.901   6.713
 9552SOL     OW29554   3.252   1.795   0.848
 9552SOL    HW129555   3.243   1.731   0.771
 9552SOL    HW229556   3.165   1.843   0.861
 9553SOL     OW29557   5.387   1.426   6.309
 9553SOL    HW129558   5.472   1.471   6.337
 9553SOL    HW229559   5.371   1.442   6.212
 9554SOL     OW29560   3.068   0.566   3.664
 9554SOL    HW129561   3.069   0.472   3.698
 9554SOL    HW229562   2.994   0.617   3.707
 9555SOL     OW29563   0.049   7.015   3.453
 9555SOL    HW129564   0.048   7.001   3.552
 9555SOL    HW229565   6.996   6.961   3.411
 9556SOL     OW29566   2.087   4.976   6.831
 9556SOL    HW129567   2.144   4.993   6.912
 9556SOL    HW229568   2.062   4.879   6.828
 9557SOL     OW29569   5.595   0.931   1.220
 9557SOL    HW129570   5.607   0.987   1.302
 9557SOL    HW229571   5.665   0.859   1.219
 9558SOL     OW29572   5.082   6.461   6.335
 9558SOL    HW129573   5.024   6.538   6.307
 9558SOL    HW229574   5.057   6.380   6.281
 9559SOL     OW29575   1.883   4.616   0.207
 9559SOL    HW129576   1.783   4.610   0.199
 9559SOL    HW229577   1.913   4.708   0.181
 9560SOL     OW29578   2.805   0.082   2.536
 9560SOL    HW129579   2.851   0.024   2.604
 9560SOL    HW229580   2.711   0.099   2.565
 9561SOL     OW29581   0.778   0.938   0.276
 9561SOL    HW129582   0.833   0.857   0.297
 9561SOL    HW229583   0.786   1.004   0.349
 9562SOL     OW29584   2.330   6.370   2.701
 9562SOL    HW129585   2.385   6.289   2.723
 9562SOL    HW229586   2.362   6.410   2.615
 9563SOL     OW29587   0.674   5.868   6.152
 9563SOL    HW129588   0.668   5.882   6.053
 9563SOL    HW229589   0.636   5.779   6.176
 9564SOL     OW29590   1.602   0.708   0.620
 9564SOL    HW129591   1.522   0.711   0.559
 9564SOL    HW229592   1.682   0.744   0.573
 9565SOL     OW29593   2.866   1.754   4.479
 9565SOL    HW129594   2.877   1.769   4.381
 9565SOL    HW229595   2.932   1.686   4.511
 9566SOL     OW29596   3.330   0.252   0.217
 9566SOL    HW129597   3.237   0.226   0.244
 9566SOL    HW229598   3.328   0.338   0.167
 9567SOL     OW29599   6.961   4.030   1.181
 9567SOL    HW129600   6.944   4.019   1.083
 9567SOL    HW229601   0.006   4.104   1.197
 9568SOL     OW29602   4.442   1.550   6.866
 9568SOL    HW129603   4.514   1.619   6.861
 9568SOL    HW229604   4.360   1.585   6.821
 9569SOL     OW29605   5.998   0.299   2.063
 9569SOL    HW129606   6.032   0.250   2.143
 9569SOL    HW229607   5.904   0.270   2.044
 9570SOL     OW29608   0.705   3.098   1.668
 9570SOL    HW129609   0.698   3.198   1.663
 9570SOL    HW229610   0.786   3.073   1.721
 9571SOL     OW29611   1.572   1.771   6.886
 9571SOL    HW129612   1.523   1.857   6.871
 9571SOL    HW229613   1.611   1.769   6.978
 9572SOL     OW29614   2.348   4.258   4.115
 9572SOL    HW129615   2.378   4.330   4.177
 9572SOL    HW229616   2.400   4.174   4.132
 9573SOL     OW29617   6.419   0.244   4.519
 9573SOL    HW129618   6.505   0.288   4.493
 9573SOL    HW229619   6.378   0.201   4.439
 9574SOL     OW29620   3.852   3.227   1.082
 9574SOL    HW129621   3.835   3.301   1.016
 9574SOL    HW229622   3.922   3.256   1.147
 9575SOL     OW29623   5.357   6.257   1.702
 9575SOL    HW129624   5.257   6.259   1.710
 9575SOL    HW229625   5.398   6.301   1.782
 9576SOL     OW29626   0.913   0.432   6.474
 9576SOL    HW129627   0.955   0.447   6.385
 9576SOL    HW229628   0.976   0.463   6.546
 9577SOL     OW29629   6.449   5.255   2.662
 9577SOL    HW129630   6.395   5.171   2.653
 9577SOL    HW229631   6.506   5.267   2.580
 9578SOL     OW29632   1.552   3.850   2.622
 9578SOL    HW129633   1.522   3.828   2.715
 9578SOL    HW229634   1.638   3.802   2.603
 9579SOL     OW29635   5.962   6.000   2.235
 9579SOL    HW129636   5.982   6.012   2.332
 9579SOL    HW229637   6.036   5.948   2.192
 9580SOL     OW29638   5.307   4.072   3.435
 9580SOL    HW129639   5.354   3.997   3.389
 9580SOL    HW229640   5.245   4.117   3.370
 9581SOL     OW29641   5.826   1.276   0.245
 9581SOL    HW129642   5.783   1.309   0.161
 9581SOL    HW229643   5.925   1.279   0.234
 9582SOL     OW29644   5.454   6.389   4.859
 9582SOL    HW129645   5.411   6.478   4.842
 9582SOL    HW229646   5.545   6.403   4.899
 9583SOL     OW29647   3.592   4.948   1.757
 9583SOL    HW129648   3.535   5.017   1.802
 9583SOL    HW229649   3.604   4.870   1.818
 9584SOL     OW29650   2.566   5.802   3.976
 9584SOL    HW129651   2.642   5.738   3.972
 9584SOL    HW229652   2.539   5.815   4.072
 9585SOL     OW29653   4.369   5.806   1.090
 9585SOL    HW129654   4.362   5.856   1.003
 9585SOL    HW229655   4.455   5.828   1.135
 9586SOL     OW29656   4.103   5.276   2.930
 9586SOL    HW129657   4.153   5.354   2.967
 9586SOL    HW229658   4.142   5.191   2.966
 9587SOL     OW29659   3.317   5.816   0.902
 9587SOL    HW129660   3.278   5.881   0.837
 9587SOL    HW229661   3.251   5.799   0.976
 9588SOL     OW29662   6.633   5.968   0.289
 9588SOL    HW129663   6.546   6.017   0.281
 9588SOL    HW229664   6.639   5.924   0.378
 9589SOL     OW29665   2.109   2.943   6.448
 9589SOL    HW129666   2.094   2.845   6.464
 9589SOL    HW229667   2.021   2.991   6.455
 9590SOL     OW29668   6.257   0.394   0.983
 9590SOL    HW129669   6.292   0.351   0.899
 9590SOL    HW229670   6.319   0.467   1.011
 9591SOL     OW29671   4.170   0.727   0.252
 9591SOL    HW129672   4.215   0.722   0.341
 9591SOL    HW229673   4.143   0.821   0.234
 9592SOL     OW29674   2.607   6.855   6.002
 9592SOL    HW129675   2.560   6.781   5.954
 9592SOL    HW229676   2.669   6.901   5.939
 9593SOL     OW29677   1.632   2.293   3.573
 9593SOL    HW129678   1.703   2.345   3.620
 9593SOL    HW229679   1.572   2.249   3.640
 9594SOL     OW29680   0.177   6.392   3.783
 9594SOL    HW129681   0.085   6.367   3.753
 9594SOL    HW229682   0.219   6.452   3.716
 9595SOL     OW29683   0.383   3.111   3.311
 9595SOL    HW129684   0.342   3.103   3.402
 9595SOL    HW229685   0.403   3.020   3.275
 9596SOL     OW29686   0.786   6.251   0.942
 9596SOL    HW129687   0.746   6.179   0.885
 9596SOL    HW229688   0.739   6.254   1.030
 9597SOL     OW29689   1.042   3.287   2.160
 9597SOL    HW129690   1.117   3.344   2.124
 9597SOL    HW229691   0.971   3.278   2.091
 9598SOL     OW29692   2.279   4.216   3.842
 9598SOL    HW129693   2.282   4.221   3.941
 9598SOL    HW229694   2.263   4.121   3.813
 9599SOL     OW29695   4.250   6.418   4.153
 9599SOL    HW129696   4.227   6.384   4.244
 9599SOL    HW229697   4.303   6.502   4.161
 9600SOL     OW29698   3.723   1.028   1.536
 9600SOL    HW129699   3.664   0.963   1.488
 9600SOL    HW229700   3.670   1.077   1.605
 9601SOL     OW29701   1.144   3.633   0.946
 9601SOL    HW129702   1.078   3.622   1.020
 9601SOL    HW229703   1.098   3.621   0.858
 9602SOL     OW29704   4.441   5.321   5.110
 9602SOL    HW129705   4.449   5.389   5.182
 9602SOL    HW229706   4.430   5.230   5.151
 9603SOL     OW29707   5.096   6.478   5.444
 9603SOL    HW129708   5.049   6.417   5.507
 9603SOL    HW229709   5.127   6.560   5.493
 9604SOL     OW29710   5.189   6.844   0.236
 9604SOL    HW129711   5.121   6.778   0.266
 9604SOL    HW229712   5.211   6.907   0.311
 9605SOL     OW29713   5.924   5.507   2.302
 9605SOL    HW129714   5.871   5.581   2.345
 9605SOL    HW229715   5.861   5.437   2.268
 9606SOL     OW29716   1.931   1.153   6.865
 9606SOL    HW129717   1.959   1.188   6.776
 9606SOL    HW229718   1.973   1.063   6.880
 9607SOL     OW29719   2.509   2.532   5.874
 9607SOL    HW129720   2.415   2.556   5.854
 9607SOL    HW229721   2.561   2.614   5.896
 9608SOL     OW29722   6.016   3.136   4.604
 9608SOL    HW129723   6.079   3.177   4.538
 9608SOL    HW229724   5.998   3.041   4.579
 9609SOL     OW29725   4.264   2.978   6.357
 9609SOL    HW129726   4.338   3.008   6.297
 9609SOL    HW229727   4.303   2.935   6.438
 9610SOL     OW29728   0.537   5.072   3.132
 9610SOL    HW129729   0.511   5.137   3.203
 9610SOL    HW229730   0.455   5.032   3.092
 9611SOL     OW29731   1.936   0.493   0.465
 9611SOL    HW129732   1.884   0.538   0.392
 9611SOL    HW229733   2.000   0.558   0.505
 9612SOL     OW29734   6.990   2.841   4.135
 9612SOL    HW129735   0.024   2.766   4.173
 9612SOL    HW229736   0.017   2.928   4.150
 9613SOL     OW29737   5.926   5.320   2.862
 9613SOL    HW129738   5.952   5.368   2.778
 9613SOL    HW229739   5.974   5.232   2.866
 9614SOL     OW29740   4.466   2.415   3.708
 9614SOL    HW129741   4.385   2.377   3.663
 9614SOL    HW229742   4.509   2.344   3.763
 9615SOL     OW29743   2.416   4.225   1.093
 9615SOL    HW129744   2.392   4.194   1.184
 9615SOL    HW229745   2.483   4.162   1.052
 9616SOL     OW29746   4.352   3.657   6.936
 9616SOL    HW129747   4.351   3.655   6.836
 9616SOL    HW229748   4.265   3.694   6.969
 9617SOL     OW29749   1.612   2.492   3.104
 9617SOL    HW129750   1.573   2.457   3.189
 9617SOL    HW229751   1.580   2.437   3.027
 9618SOL     OW29752   2.370   1.463   1.150
 9618SOL    HW129753   2.425   1.545   1.135
 9618SOL    HW229754   2.279   1.489   1.182
 9619SOL     OW29755   2.942   0.794   5.774
 9619SOL    HW129756   2.896   0.882   5.766
 9619SOL    HW229757   2.876   0.720   5.764
 9620SOL     OW29758   5.858   1.122   5.142
 9620SOL    HW129759   5.817   1.053   5.202
 9620SOL    HW229760   5.867   1.208   5.192
 9621SOL     OW29761   1.806   3.160   3.372
 9621SOL    HW129762   1.756   3.246   3.362
 9621SOL    HW229763   1.880   3.171   3.438
 9622SOL     OW29764   5.595   6.905   1.088
 9622SOL    HW129765   5.562   6.890   1.181
 9622SOL    HW229766   5.579   6.823   1.034
 9623SOL     OW29767   2.702   3.236   6.322
 9623SOL    HW129768   2.699   3.331   6.289
 9623SOL    HW229769   2.719   3.175   6.245
 9624SOL     OW29770   6.405   3.053   3.988
 9624SOL    HW129771   6.481   3.064   4.052
 9624SOL    HW229772   6.410   3.125   3.918
 9625SOL     OW29773   6.003   5.889   0.957
 9625SOL    HW129774   5.925   5.869   0.898
 9625SOL    HW229775   6.087   5.855   0.914
 9626SOL     OW29776   3.589   6.573   0.171
 9626SOL    HW129777   3.526   6.638   0.128
 9626SOL    HW229778   3.588   6.487   0.119
 9627SOL     OW29779   1.137   6.202   6.802
 9627SOL    HW129780   1.137   6.302   6.800
 9627SOL    HW229781   1.140   6.171   6.897
 9628SOL     OW29782   3.139   6.665   2.350
 9628SOL    HW129783   3.186   6.599   2.408
 9628SOL    HW229784   3.167   6.653   2.255
 9629SOL     OW29785   2.309   6.913   0.980
 9629SOL    HW129786   2.302   6.821   1.019
 9629SOL    HW229787   2.271   6.979   1.044
 9630SOL     OW29788   6.727   1.536   6.350
 9630SOL    HW129789   6.667   1.528   6.271
 9630SOL    HW229790   6.801   1.600   6.329
 9631SOL     OW29791   6.069   6.010   0.178
 9631SOL    HW129792   5.969   6.014   0.177
 9631SOL    HW229793   6.106   6.098   0.148
 9632SOL     OW29794   1.032   5.927   1.643
 9632SOL    HW129795   1.115   5.882   1.677
 9632SOL    HW229796   1.000   5.994   1.709
 9633SOL     OW29797   6.891   5.076   6.165
 9633SOL    HW129798   6.874   5.061   6.263
 9633SOL    HW229799   6.979   5.035   6.140
 9634SOL     OW29800   1.480   6.144   5.599
 9634SOL    HW129801   1.484   6.045   5.588
 9634SOL    HW229802   1.384   6.174   5.601
 9635SOL     OW29803   1.126   5.683   5.492
 9635SOL    HW129804   1.110   5.590   5.459
 9635SOL    HW229805   1.161   5.739   5.417
 9636SOL     OW29806   4.061   1.406   6.865
 9636SOL    HW129807   3.979   1.452   6.900
 9636SOL    HW229808   4.097   1.345   6.936
 9637SOL     OW29809   2.132   1.442   0.374
 9637SOL    HW129810   2.189   1.463   0.295
 9637SOL    HW229811   2.093   1.526   0.411
 9638SOL     OW29812   6.800   2.164   6.423
 9638SOL    HW129813   6.714   2.178   6.373
 9638SOL    HW229814   6.872   2.219   6.381
 9639SOL     OW29815   4.051   0.803   2.627
 9639SOL    HW129816   4.121   0.744   2.587
 9639SOL    HW229817   3.971   0.748   2.650
 9640SOL     OW29818   1.754   2.099   2.435
 9640SOL    HW129819   1.798   2.165   2.374
 9640SOL    HW229820   1.698   2.036   2.382
 9641SOL     OW29821   5.565   5.576   0.010
 9641SOL    HW129822   5.583   5.519   0.090
 9641SOL    HW229823   5.624   5.548   6.955
 9642SOL     OW29824   3.544   0.470   3.766
 9642SOL    HW129825   3.638   0.461   3.797
 9642SOL    HW229826   3.522   0.567   3.754
 9643SOL     OW29827   3.744   4.919   2.947
 9643SOL    HW129828   3.713   4.874   2.863
 9643SOL    HW229829   3.843   4.910   2.955
 9644SOL     OW29830   2.686   2.342   0.049
 9644SOL    HW129831   2.779   2.343   0.011
 9644SOL    HW229832   2.621   2.320   6.997
 9645SOL     OW29833   3.424   5.080   5.390
 9645SOL    HW129834   3.335   5.092   5.433
 9645SOL    HW229835   3.497   5.099   5.456
 9646SOL     OW29836   4.106   5.099   3.793
 9646SOL    HW129837   4.173   5.172   3.801
 9646SOL    HW229838   4.153   5.011   3.780
 9647SOL     OW29839   6.701   3.210   6.486
 9647SOL    HW129840   6.710   3.211   6.386
 9647SOL    HW229841   6.780   3.254   6.528
 9648SOL     OW29842   3.936   3.595   0.651
 9648SOL    HW129843   3.943   3.645   0.737
 9648SOL    HW229844   3.929   3.497   0.670
 9649SOL     OW29845   1.925   5.926   1.466
 9649SOL    HW129846   1.831   5.897   1.444
 9649SOL    HW229847   1.934   5.937   1.565
 9650SOL     OW29848   0.337   6.867   1.097
 9650SOL    HW129849   0.246   6.836   1.124
 9650SOL    HW229850   0.364   6.944   1.156
 9651SOL     OW29851   0.616   1.653   6.245
 9651SOL    HW129852   0.701   1.614   6.209
 9651SOL    HW229853   0.606   1.747   6.212
 9652SOL     OW29854   0.392   5.195   2.463
 9652SOL    HW129855   0.310   5.152   2.424
 9652SOL    HW229856   0.372   5.228   2.555
 9653SOL     OW29857   6.747   6.266   4.451
 9653SOL    HW129858   6.678   6.286   4.382
 9653SOL    HW229859   6.706   6.274   4.542
 9654SOL     OW29860   2.169   3.212   2.691
 9654SOL    HW129861   2.199   3.119   2.669
 9654SOL    HW229862   2.152   3.219   2.789
 9655SOL     OW29863   6.022   1.697   6.657
 9655SOL    HW129864   5.997   1.613   6.705
 9655SOL    HW229865   5.977   1.700   6.568
 9656SOL     OW29866   3.231   1.391   2.986
 9656SOL    HW129867   3.321   1.420   3.018
 9656SOL    HW229868   3.204   1.449   2.909
 9657SOL     OW29869   0.310   0.043   5.230
 9657SOL    HW129870   0.245   0.058   5.155
 9657SOL    HW229871   0.267   0.071   5.316
 9658SOL     OW29872   5.459   2.151   3.441
 9658SOL    HW129873   5.492   2.056   3.438
 9658SOL    HW229874   5.420   2.175   3.352
 9659SOL     OW29875   1.140   4.931   6.929
 9659SOL    HW129876   1.113   4.864   6.859
 9659SOL    HW229877   1.239   4.927   6.943
 9660SOL     OW29878   0.795   5.203   0.770
 9660SOL    HW129879   0.701   5.170   0.777
 9660SOL    HW229880   0.794   5.299   0.742
 9661SOL     OW29881   4.300   6.900   1.186
 9661SOL    HW129882   4.265   6.807   1.171
 9661SOL    HW229883   4.322   6.941   1.098
 9662SOL     OW29884   4.967   0.774   4.471
 9662SOL    HW129885   5.018   0.818   4.396
 9662SOL    HW229886   4.910   0.842   4.516
 9663SOL     OW29887   2.345   6.384   3.030
 9663SOL    HW129888   2.365   6.452   2.960
 9663SOL    HW229889   2.310   6.430   3.112
 9664SOL     OW29890   1.990   5.924   1.730
 9664SOL    HW129891   2.057   5.991   1.761
 9664SOL    HW229892   2.022   5.832   1.753
 9665SOL     OW29893   5.148   4.153   3.918
 9665SOL    HW129894   5.124   4.128   3.824
 9665SOL    HW229895   5.223   4.096   3.949
 9666SOL     OW29896   5.130   4.747   4.867
 9666SOL    HW129897   5.215   4.695   4.866
 9666SOL    HW229898   5.084   4.736   4.954
 9667SOL     OW29899   3.247   3.248   3.450
 9667SOL    HW129900   3.332   3.250   3.502
 9667SOL    HW229901   3.177   3.198   3.501
 9668SOL     OW29902   0.564   1.196   5.193
 9668SOL    HW129903   0.509   1.260   5.138
 9668SOL    HW229904   0.636   1.157   5.136
 9669SOL     OW29905   1.451   6.202   0.039
 9669SOL    HW129906   1.459   6.292   0.082
 9669SOL    HW229907   1.508   6.136   0.089
 9670SOL     OW29908   5.618   4.476   6.400
 9670SOL    HW129909   5.667   4.389   6.391
 9670SOL    HW229910   5.642   4.519   6.487
 9671SOL     OW29911   0.161   0.356   0.191
 9671SOL    HW129912   0.255   0.321   0.193
 9671SOL    HW229913   0.106   0.306   0.259
 9672SOL     OW29914   1.567   6.396   5.348
 9672SOL    HW129915   1.581   6.301   5.321
 9672SOL    HW229916   1.611   6.413   5.436
 9673SOL     OW29917   2.281   2.599   5.769
 9673SOL    HW129918   2.331   2.657   5.706
 9673SOL    HW229919   2.222   2.655   5.827
 9674SOL     OW29920   2.690   6.821   2.288
 9674SOL    HW129921   2.667   6.918   2.280
 9674SOL    HW229922   2.607   6.768   2.309
 9675SOL     OW29923   0.433   2.347   2.234
 9675SOL    HW129924   0.384   2.364   2.319
 9675SOL    HW229925   0.525   2.386   2.240
 9676SOL     OW29926   0.204   3.019   4.920
 9676SOL    HW129927   0.289   2.989   4.964
 9676SOL    HW229928   0.182   2.956   4.845
 9677SOL     OW29929   1.681   3.563   5.151
 9677SOL    HW129930   1.626   3.551   5.069
 9677SOL    HW229931   1.683   3.477   5.203
 9678SOL     OW29932   3.565   3.310   2.961
 9678SOL    HW129933   3.548   3.311   2.862
 9678SOL    HW229934   3.498   3.252   3.006
 9679SOL     OW29935   0.338   3.642   1.419
 9679SOL    HW129936   0.316   3.731   1.381
 9679SOL    HW229937   0.288   3.629   1.505
 9680SOL     OW29938   5.084   4.657   3.477
 9680SOL    HW129939   5.152   4.693   3.413
 9680SOL    HW229940   4.993   4.662   3.436
 9681SOL     OW29941   0.586   0.817   4.407
 9681SOL    HW129942   0.583   0.868   4.493
 9681SOL    HW229943   0.517   0.744   4.409
 9682SOL     OW29944   0.344   5.263   2.973
 9682SOL    HW129945   0.443   5.271   2.986
 9682SOL    HW229946   0.311   5.181   3.018
 9683SOL     OW29947   5.024   6.855   6.509
 9683SOL    HW129948   5.117   6.883   6.487
 9683SOL    HW229949   5.024   6.797   6.590
 9684SOL     OW29950   0.996   4.535   3.573
 9684SOL    HW129951   1.084   4.503   3.609
 9684SOL    HW229952   1.003   4.633   3.553
 9685SOL     OW29953   1.799   2.514   0.027
 9685SOL    HW129954   1.801   2.432   6.990
 9685SOL    HW229955   1.714   2.565   0.011
 9686SOL     OW29956   5.386   1.576   1.413
 9686SOL    HW129957   5.371   1.566   1.511
 9686SOL    HW229958   5.452   1.507   1.382
 9687SOL     OW29959   3.625   1.408   4.142
 9687SOL    HW129960   3.698   1.474   4.160
 9687SOL    HW229961   3.537   1.455   4.141
 9688SOL     OW29962   6.533   2.121   3.730
 9688SOL    HW129963   6.579   2.052   3.673
 9688SOL    HW229964   6.507   2.199   3.673
 9689SOL     OW29965   1.872   6.024   6.093
 9689SOL    HW129966   1.865   5.936   6.046
 9689SOL    HW229967   1.830   6.095   6.036
 9690SOL     OW29968   5.963   3.769   0.510
 9690SOL    HW129969   5.987   3.673   0.495
 9690SOL    HW229970   5.954   3.786   0.608
 9691SOL     OW29971   1.509   4.601   1.125
 9691SOL    HW129972   1.561   4.561   1.200
 9691SOL    HW229973   1.566   4.605   1.043
 9692SOL     OW29974   2.388   5.610   0.938
 9692SOL    HW129975   2.440   5.682   0.891
 9692SOL    HW229976   2.294   5.642   0.952
 9693SOL     OW29977   6.192   5.399   1.570
 9693SOL    HW129978   6.104   5.434   1.603
 9693SOL    HW229979   6.263   5.466   1.588
 9694SOL     OW29980   1.322   2.040   0.536
 9694SOL    HW129981   1.357   2.094   0.612
 9694SOL    HW229982   1.222   2.038   0.540
 9695SOL     OW29983   6.817   4.297   0.711
 9695SOL    HW129984   6.799   4.359   0.634
 9695SOL    HW229985   6.730   4.263   0.747
 9696SOL     OW29986   3.499   4.233   0.831
 9696SOL    HW129987   3.466   4.163   0.769
 9696SOL    HW229988   3.422   4.280   0.873
 9697SOL     OW29989   0.721   6.069   5.881
 9697SOL    HW129990   0.793   6.088   5.815
 9697SOL    HW229991   0.658   6.002   5.843
 9698SOL     OW29992   4.931   1.339   5.720
 9698SOL    HW129993   4.901   1.421   5.672
 9698SOL    HW229994   4.999   1.364   5.789
 9699SOL     OW29995   2.087   2.965   6.947
 9699SOL    HW129996   2.033   3.047   6.966
 9699SOL    HW229997   2.170   2.991   6.897
 9700SOL     OW29998   3.647   4.119   3.682
 9700SOL    HW129999   3.566   4.176   3.701
 9700SOL    HW230000   3.675   4.132   3.588
 9701SOL     OW30001   4.745   4.272   4.879
 9701SOL    HW130002   4.684   4.348   4.900
 9701SOL    HW230003   4.731   4.242   4.785
 9702SOL     OW30004   4.964   0.304   0.362
 9702SOL    HW130005   4.872   0.312   0.324
 9702SOL    HW230006   4.981   0.380   0.424
 9703SOL     OW30007   3.059   5.881   3.987
 9703SOL    HW130008   3.109   5.962   4.015
 9703SOL    HW230009   2.977   5.870   4.045
 9704SOL     OW30010   2.766   1.401   3.789
 9704SOL    HW130011   2.774   1.345   3.706
 9704SOL    HW230012   2.679   1.450   3.787
 9705SOL     OW30013   3.881   4.075   1.011
 9705SOL    HW130014   3.877   4.173   1.028
 9705SOL    HW230015   3.793   4.033   1.036
 9706SOL     OW30016   6.341   2.582   3.526
 9706SOL    HW130017   6.417   2.639   3.558
 9706SOL    HW230018   6.290   2.630   3.455
 9707SOL     OW30019   2.421   5.514   2.792
 9707SOL    HW130020   2.477   5.484   2.869
 9707SOL    HW230021   2.389   5.607   2.807
 9708SOL     OW30022   1.540   1.935   2.244
 9708SOL    HW130023   1.443   1.921   2.259
 9708SOL    HW230024   1.593   1.892   2.318
 9709SOL     OW30025   1.895   5.214   2.801
 9709SOL    HW130026   1.929   5.234   2.893
 9709SOL    HW230027   1.807   5.261   2.787
 9710SOL     OW30028   0.645   0.511   4.044
 9710SOL    HW130029   0.660   0.609   4.059
 9710SOL    HW230030   0.555   0.485   4.078
 9711SOL     OW30031   1.693   3.177   6.131
 9711SOL    HW130032   1.676   3.272   6.159
 9711SOL    HW230033   1.647   3.115   6.195
 9712SOL     OW30034   4.885   3.346   4.733
 9712SOL    HW130035   4.904   3.274   4.666
 9712SOL    HW230036   4.800   3.393   4.707
 9713SOL     OW30037   6.790   5.053   2.426
 9713SOL    HW130038   6.823   4.999   2.503
 9713SOL    HW230039   6.768   4.992   2.350
 9714SOL     OW30040   1.537   2.390   2.369
 9714SOL    HW130041   1.475   2.350   2.301
 9714SOL    HW230042   1.625   2.341   2.367
 9715SOL     OW30043   6.149   5.497   5.816
 9715SOL    HW130044   6.147   5.597   5.816
 9715SOL    HW230045   6.064   5.463   5.777
 9716SOL     OW30046   3.668   1.946   5.929
 9716SOL    HW130047   3.657   1.935   5.830
 9716SOL    HW230048   3.762   1.971   5.949
 9717SOL     OW30049   6.070   5.351   3.385
 9717SOL    HW130050   6.068   5.380   3.290
 9717SOL    HW230051   5.983   5.374   3.429
 9718SOL     OW30052   4.717   3.225   1.608
 9718SOL    HW130053   4.642   3.194   1.666
 9718SOL    HW230054   4.690   3.218   1.512
 9719SOL     OW30055   0.458   1.795   0.251
 9719SOL    HW130056   0.425   1.871   0.196
 9719SOL    HW230057   0.492   1.829   0.339
 9720SOL     OW30058   0.794   0.156   0.574
 9720SOL    HW130059   0.784   0.114   0.484
 9720SOL    HW230060   0.891   0.156   0.600
 9721SOL     OW30061   0.013   2.649   3.258
 9721SOL    HW130062   6.947   2.619   3.216
 9721SOL    HW230063   0.062   2.569   3.292
 9722SOL     OW30064   6.906   0.313   4.220
 9722SOL    HW130065   6.915   0.357   4.309
 9722SOL    HW230066   6.975   0.241   4.212
 9723SOL     OW30067   6.474   1.286   3.478
 9723SOL    HW130068   6.555   1.236   3.447
 9723SOL    HW230069   6.425   1.232   3.546
 9724SOL     OW30070   3.792   2.774   0.901
 9724SOL    HW130071   3.815   2.710   0.827
 9724SOL    HW230072   3.822   2.866   0.876
 9725SOL     OW30073   3.852   3.560   5.540
 9725SOL    HW130074   3.811   3.610   5.464
 9725SOL    HW230075   3.786   3.552   5.615
 9726SOL     OW30076   6.075   5.793   4.687
 9726SOL    HW130077   6.121   5.704   4.693
 9726SOL    HW230078   6.066   5.831   4.779
 9727SOL     OW30079   1.638   1.071   6.950
 9727SOL    HW130080   1.593   1.159   6.959
 9727SOL    HW230081   1.734   1.079   6.976
 9728SOL     OW30082   3.299   5.403   0.083
 9728SOL    HW130083   3.316   5.494   0.045
 9728SOL    HW230084   3.237   5.353   0.022
 9729SOL     OW30085   3.076   5.204   2.179
 9729SOL    HW130086   3.029   5.162   2.100
 9729SOL    HW230087   3.074   5.303   2.170
 9730SOL     OW30088   5.758   3.242   3.377
 9730SOL    HW130089   5.693   3.273   3.308
 9730SOL    HW230090   5.800   3.321   3.422
 9731SOL     OW30091   4.732   5.521   1.366
 9731SOL    HW130092   4.780   5.433   1.373
 9731SOL    HW230093   4.796   5.591   1.336
 9732SOL     OW30094   6.120   5.951   4.160
 9732SOL    HW130095   6.217   5.952   4.136
 9732SOL    HW230096   6.108   5.911   4.250
 9733SOL     OW30097   5.590   4.631   5.916
 9733SOL    HW130098   5.623   4.673   6.000
 9733SOL    HW230099   5.580   4.701   5.845
 9734SOL     OW30100   5.777   2.304   5.608
 9734SOL    HW130101   5.820   2.382   5.654
 9734SOL    HW230102   5.709   2.337   5.542
 9735SOL     OW30103   3.041   4.418   0.561
 9735SOL    HW130104   2.978   4.343   0.581
 9735SOL    HW230105   3.106   4.388   0.490
 9736SOL     OW30106   3.693   1.761   1.635
 9736SOL    HW130107   3.689   1.697   1.712
 9736SOL    HW230108   3.644   1.845   1.659
 9737SOL     OW30109   4.120   2.198   4.874
 9737SOL    HW130110   4.124   2.276   4.937
 9737SOL    HW230111   4.083   2.119   4.922
 9738SOL     OW30112   2.612   1.006   2.075
 9738SOL    HW130113   2.708   0.988   2.053
 9738SOL    HW230114   2.573   1.068   2.007
 9739SOL     OW30115   5.781   4.541   1.615
 9739SOL    HW130116   5.797   4.514   1.709
 9739SOL    HW230117   5.695   4.503   1.583
 9740SOL     OW30118   6.519   3.723   3.127
 9740SOL    HW130119   6.575   3.796   3.166
 9740SOL    HW230120   6.501   3.744   3.030
 9741SOL     OW30121   4.101   1.779   2.068
 9741SOL    HW130122   4.017   1.798   2.017
 9741SOL    HW230123   4.085   1.704   2.132
 9742SOL     OW30124   4.585   1.668   3.639
 9742SOL    HW130125   4.503   1.643   3.690
 9742SOL    HW230126   4.644   1.588   3.631
 9743SOL     OW30127   1.386   1.794   5.445
 9743SOL    HW130128   1.401   1.893   5.453
 9743SOL    HW230129   1.420   1.762   5.356
 9744SOL     OW30130   2.288   0.570   1.514
 9744SOL    HW130131   2.201   0.527   1.538
 9744SOL    HW230132   2.312   0.640   1.582
 9745SOL     OW30133   0.720   1.094   4.831
 9745SOL    HW130134   0.798   1.032   4.835
 9745SOL    HW230135   0.740   1.177   4.883
 9746SOL     OW30136   6.289   0.995   4.033
 9746SOL    HW130137   6.197   0.956   4.026
 9746SOL    HW230138   6.282   1.094   4.047
 9747SOL     OW30139   0.154   0.143   6.362
 9747SOL    HW130140   0.244   0.176   6.389
 9747SOL    HW230141   0.092   0.220   6.350
 9748SOL     OW30142   0.553   4.920   4.203
 9748SOL    HW130143   0.585   4.894   4.294
 9748SOL    HW230144   0.596   5.007   4.176
 9749SOL     OW30145   0.180   4.924   4.417
 9749SOL    HW130146   0.188   4.973   4.331
 9749SOL    HW230147   0.099   4.955   4.466
 9750SOL     OW30148   3.176   5.785   2.844
 9750SOL    HW130149   3.095   5.793   2.902
 9750SOL    HW230150   3.175   5.697   2.797
 9751SOL     OW30151   1.824   2.844   0.905
 9751SOL    HW130152   1.838   2.753   0.945
 9751SOL    HW230153   1.739   2.844   0.853
 9752SOL     OW30154   3.955   1.122   6.011
 9752SOL    HW130155   4.014   1.047   5.980
 9752SOL    HW230156   3.963   1.199   5.947
 9753SOL     OW30157   6.937   6.721   6.445
 9753SOL    HW130158   6.992   6.708   6.527
 9753SOL    HW230159   6.951   6.813   6.409
 9754SOL     OW30160   6.960   3.006   6.341
 9754SOL    HW130161   6.987   3.037   6.432
 9754SOL    HW230162   6.876   2.953   6.347
 9755SOL     OW30163   3.745   5.237   5.781
 9755SOL    HW130164   3.730   5.167   5.711
 9755SOL    HW230165   3.809   5.305   5.747
 9756SOL     OW30166   5.158   2.485   5.693
 9756SOL    HW130167   5.172   2.388   5.711
 9756SOL    HW230168   5.071   2.514   5.733
 9757SOL     OW30169   6.329   1.079   3.581
 9757SOL    HW130170   6.243   1.058   3.627
 9757SOL    HW230171   6.334   1.026   3.496
 9758SOL     OW30172   3.092   0.593   0.033
 9758SOL    HW130173   3.043   0.506   0.024
 9758SOL    HW230174   3.084   0.625   0.128
 9759SOL     OW30175   3.210   5.990   1.170
 9759SOL    HW130176   3.159   5.944   1.098
 9759SOL    HW230177   3.216   5.931   1.250
 9760SOL     OW30178   5.927   4.175   6.137
 9760SOL    HW130179   5.863   4.202   6.065
 9760SOL    HW230180   5.929   4.247   6.207
 9761SOL     OW30181   5.388   5.189   2.861
 9761SOL    HW130182   5.487   5.202   2.856
 9761SOL    HW230183   5.357   5.205   2.954
 9762SOL     OW30184   2.942   1.052   3.255
 9762SOL    HW130185   2.861   1.063   3.313
 9762SOL    HW230186   2.925   1.091   3.165
 9763SOL     OW30187   1.983   1.570   2.239
 9763SOL    HW130188   1.889   1.568   2.274
 9763SOL    HW230189   2.001   1.486   2.187
 9764SOL     OW30190   1.198   2.555   2.190
 9764SOL    HW130191   1.246   2.542   2.104
 9764SOL    HW230192   1.105   2.519   2.182
 9765SOL     OW30193   0.419   1.299   5.402
 9765SOL    HW130194   0.329   1.322   5.366
 9765SOL    HW230195   0.485   1.295   5.327
 9766SOL     OW30196   2.208   0.686   3.006
 9766SOL    HW130197   2.265   0.741   3.067
 9766SOL    HW230198   2.205   0.592   3.040
 9767SOL     OW30199   5.098   0.313   5.249
 9767SOL    HW130200   5.127   0.355   5.334
 9767SOL    HW230201   5.163   0.243   5.222
 9768SOL     OW30202   4.932   2.744   4.137
 9768SOL    HW130203   5.025   2.728   4.104
 9768SOL    HW230204   4.921   2.841   4.160
 9769SOL     OW30205   0.383   1.622   1.702
 9769SOL    HW130206   0.476   1.653   1.682
 9769SOL    HW230207   0.353   1.560   1.630
 9770SOL     OW30208   0.097   3.136   5.502
 9770SOL    HW130209   0.027   3.179   5.558
 9770SOL    HW230210   0.078   3.038   5.495
 9771SOL     OW30211   2.631   5.307   3.735
 9771SOL    HW130212   2.710   5.275   3.787
 9771SOL    HW230213   2.622   5.406   3.745
 9772SOL     OW30214   5.828   6.650   1.146
 9772SOL    HW130215   5.894   6.724   1.137
 9772SOL    HW230216   5.798   6.620   1.056
 9773SOL     OW30217   4.866   5.024   3.727
 9773SOL    HW130218   4.794   4.955   3.734
 9773SOL    HW230219   4.827   5.115   3.740
 9774SOL     OW30220   0.047   5.208   4.329
 9774SOL    HW130221   0.106   5.168   4.399
 9774SOL    HW230222   6.972   5.192   4.353
 9775SOL     OW30223   2.500   2.428   4.897
 9775SOL    HW130224   2.441   2.507   4.883
 9775SOL    HW230225   2.464   2.371   4.970
 9776SOL     OW30226   0.235   4.719   4.143
 9776SOL    HW130227   0.226   4.818   4.134
 9776SOL    HW230228   0.150   4.675   4.113
 9777SOL     OW30229   5.745   5.114   6.250
 9777SOL    HW130230   5.717   5.063   6.169
 9777SOL    HW230231   5.708   5.207   6.245
 9778SOL     OW30232   3.585   0.550   4.379
 9778SOL    HW130233   3.654   0.622   4.386
 9778SOL    HW230234   3.529   0.549   4.461
 9779SOL     OW30235   3.091   2.069   6.716
 9779SOL    HW130236   3.120   2.086   6.810
 9779SOL    HW230237   3.171   2.073   6.655
 9780SOL     OW30238   2.825   4.033   0.338
 9780SOL    HW130239   2.794   3.973   0.412
 9780SOL    HW230240   2.921   4.015   0.319
 9781SOL     OW30241   1.858   6.464   4.384
 9781SOL    HW130242   1.812   6.393   4.331
 9781SOL    HW230243   1.789   6.516   4.435
 9782SOL     OW30244   5.872   0.397   0.502
 9782SOL    HW130245   5.780   0.435   0.508
 9782SOL    HW230246   5.896   0.353   0.588
 9783SOL     OW30247   5.823   0.597   3.399
 9783SOL    HW130248   5.912   0.596   3.354
 9783SOL    HW230249   5.828   0.544   3.484
 9784SOL     OW30250   5.795   0.634   4.478
 9784SOL    HW130251   5.754   0.551   4.517
 9784SOL    HW230252   5.739   0.713   4.501
 9785SOL     OW30253   0.501   2.766   0.897
 9785SOL    HW130254   0.476   2.863   0.899
 9785SOL    HW230255   0.434   2.714   0.950
 9786SOL     OW30256   2.676   6.877   4.569
 9786SOL    HW130257   2.688   6.860   4.472
 9786SOL    HW230258   2.701   6.972   4.589
 9787SOL     OW30259   6.143   4.268   1.376
 9787SOL    HW130260   6.063   4.214   1.399
 9787SOL    HW230261   6.217   4.248   1.440
 9788SOL     OW30262   6.766   1.047   5.230
 9788SOL    HW130263   6.851   1.014   5.270
 9788SOL    HW230264   6.786   1.112   5.157
 9789SOL     OW30265   1.766   5.319   4.555
 9789SOL    HW130266   1.854   5.273   4.565
 9789SOL    HW230267   1.780   5.414   4.529
 9790SOL     OW30268   6.752   1.258   3.535
 9790SOL    HW130269   6.731   1.222   3.444
 9790SOL    HW230270   6.800   1.346   3.525
 9791SOL     OW30271   1.298   2.215   1.124
 9791SOL    HW130272   1.270   2.123   1.151
 9791SOL    HW230273   1.396   2.214   1.100
 9792SOL     OW30274   3.167   5.969   2.237
 9792SOL    HW130275   3.165   5.908   2.158
 9792SOL    HW230276   3.074   5.984   2.270
 9793SOL     OW30277   5.502   6.048   2.169
 9793SOL    HW130278   5.459   6.131   2.134
 9793SOL    HW230279   5.601   6.060   2.169
 9794SOL     OW30280   3.145   3.463   6.838
 9794SOL    HW130281   3.077   3.426   6.902
 9794SOL    HW230282   3.119   3.438   6.744
 9795SOL     OW30283   2.345   4.997   3.482
 9795SOL    HW130284   2.327   5.022   3.387
 9795SOL    HW230285   2.258   4.988   3.531
 9796SOL     OW30286   3.761   4.896   0.556
 9796SOL    HW130287   3.737   4.834   0.481
 9796SOL    HW230288   3.803   4.843   0.630
 9797SOL     OW30289   5.266   2.969   4.746
 9797SOL    HW130290   5.361   2.948   4.770
 9797SOL    HW230291   5.255   3.068   4.738
 9798SOL     OW30292   2.698   1.840   1.569
 9798SOL    HW130293   2.678   1.938   1.574
 9798SOL    HW230294   2.772   1.818   1.633
 9799SOL     OW30295   3.254   3.915   2.351
 9799SOL    HW130296   3.171   3.893   2.401
 9799SOL    HW230297   3.333   3.876   2.398
 9800SOL     OW30298   4.108   5.160   0.383
 9800SOL    HW130299   4.183   5.121   0.330
 9800SOL    HW230300   4.122   5.258   0.395
 9801SOL     OW30301   4.988   5.648   1.003
 9801SOL    HW130302   5.023   5.623   0.913
 9801SOL    HW230303   5.064   5.674   1.063
 9802SOL     OW30304   0.445   5.238   1.696
 9802SOL    HW130305   0.422   5.162   1.757
 9802SOL    HW230306   0.361   5.284   1.668
 9803SOL     OW30307   4.836   0.013   6.346
 9803SOL    HW130308   4.912   6.974   6.372
 9803SOL    HW230309   4.817   0.002   6.248
 9804SOL     OW30310   5.173   5.637   4.219
 9804SOL    HW130311   5.185   5.555   4.163
 9804SOL    HW230312   5.097   5.691   4.183
 9805SOL     OW30313   3.653   3.926   1.093
 9805SOL    HW130314   3.670   3.902   1.188
 9805SOL    HW230315   3.580   3.868   1.056
 9806SOL     OW30316   6.861   1.757   2.632
 9806SOL    HW130317   6.810   1.759   2.546
 9806SOL    HW230318   6.867   1.663   2.665
 9807SOL     OW30319   2.298   3.420   0.780
 9807SOL    HW130320   2.308   3.354   0.854
 9807SOL    HW230321   2.372   3.487   0.785
 9808SOL     OW30322   1.947   1.876   4.475
 9808SOL    HW130323   1.865   1.918   4.437
 9808SOL    HW230324   2.021   1.944   4.480
 9809SOL     OW30325   0.669   0.793   4.153
 9809SOL    HW130326   0.763   0.822   4.130
 9809SOL    HW230327   0.648   0.821   4.246
 9810SOL     OW30328   4.314   1.903   2.451
 9810SOL    HW130329   4.291   1.935   2.359
 9810SOL    HW230330   4.241   1.845   2.486
 9811SOL     OW30331   1.344   6.987   2.674
 9811SOL    HW130332   1.374   0.062   2.679
 9811SOL    HW230333   1.360   6.943   2.763
 9812SOL     OW30334   5.608   3.109   5.788
 9812SOL    HW130335   5.519   3.089   5.747
 9812SOL    HW230336   5.650   3.186   5.741
 9813SOL     OW30337   6.491   4.192   0.351
 9813SOL    HW130338   6.541   4.264   0.304
 9813SOL    HW230339   6.392   4.210   0.344
 9814SOL     OW30340   6.785   0.829   5.684
 9814SOL    HW130341   6.760   0.831   5.781
 9814SOL    HW230342   6.711   0.870   5.630
 9815SOL     OW30343   6.832   3.909   2.778
 9815SOL    HW130344   6.875   3.998   2.767
 9815SOL    HW230345   6.872   3.862   2.857
 9816SOL     OW30346   6.087   1.154   5.544
 9816SOL    HW130347   6.124   1.160   5.637
 9816SOL    HW230348   6.034   1.070   5.534
 9817SOL     OW30349   2.674   1.186   0.491
 9817SOL    HW130350   2.654   1.232   0.404
 9817SOL    HW230351   2.692   1.090   0.473
 9818SOL     OW30352   0.413   6.703   2.366
 9818SOL    HW130353   0.485   6.737   2.306
 9818SOL    HW230354   0.448   6.627   2.422
 9819SOL     OW30355   6.438   2.532   4.451
 9819SOL    HW130356   6.457   2.458   4.387
 9819SOL    HW230357   6.429   2.618   4.401
 9820SOL     OW30358   4.084   1.308   6.278
 9820SOL    HW130359   4.118   1.216   6.258
 9820SOL    HW230360   4.056   1.313   6.373
 9821SOL     OW30361   4.444   3.434   0.151
 9821SOL    HW130362   4.504   3.512   0.137
 9821SOL    HW230363   4.458   3.368   0.077
 9822SOL     OW30364   3.462   4.909   4.042
 9822SOL    HW130365   3.367   4.927   4.015
 9822SOL    HW230366   3.510   4.865   3.966
 9823SOL     OW30367   4.208   6.542   3.323
 9823SOL    HW130368   4.241   6.450   3.342
 9823SOL    HW230369   4.176   6.585   3.408
 9824SOL     OW30370   1.602   5.530   5.302
 9824SOL    HW130371   1.507   5.503   5.287
 9824SOL    HW230372   1.637   5.486   5.385
 9825SOL     OW30373   0.445   6.114   4.911
 9825SOL    HW130374   0.472   6.183   4.978
 9825SOL    HW230375   0.525   6.084   4.859
 9826SOL     OW30376   1.985   5.546   6.489
 9826SOL    HW130377   2.065   5.604   6.476
 9826SOL    HW230378   1.906   5.587   6.443
 9827SOL     OW30379   1.967   4.682   1.685
 9827SOL    HW130380   1.924   4.603   1.730
 9827SOL    HW230381   1.896   4.737   1.640
 9828SOL     OW30382   4.528   1.998   4.956
 9828SOL    HW130383   4.549   2.095   4.948
 9828SOL    HW230384   4.533   1.970   5.051
 9829SOL     OW30385   5.318   4.215   5.792
 9829SOL    HW130386   5.280   4.203   5.884
 9829SOL    HW230387   5.255   4.269   5.736
 9830SOL     OW30388   5.956   1.499   3.318
 9830SOL    HW130389   5.956   1.598   3.331
 9830SOL    HW230390   6.009   1.455   3.391
 9831SOL     OW30391   0.246   4.775   2.105
 9831SOL    HW130392   0.307   4.794   2.182
 9831SOL    HW230393   0.195   4.692   2.123
 9832SOL     OW30394   4.997   5.749   4.899
 9832SOL    HW130395   5.062   5.729   4.972
 9832SOL    HW230396   5.043   5.745   4.810
 9833SOL     OW30397   3.767   3.413   5.118
 9833SOL    HW130398   3.812   3.335   5.161
 9833SOL    HW230399   3.671   3.417   5.145
 9834SOL     OW30400   3.429   5.900   5.790
 9834SOL    HW130401   3.453   5.971   5.856
 9834SOL    HW230402   3.329   5.888   5.788
 9835SOL     OW30403   3.883   3.233   3.902
 9835SOL    HW130404   3.874   3.326   3.866
 9835SOL    HW230405   3.962   3.229   3.964
 9836SOL     OW30406   6.661   3.420   5.479
 9836SOL    HW130407   6.758   3.424   5.455
 9836SOL    HW230408   6.609   3.472   5.412
 9837SOL     OW30409   6.302   0.911   3.355
 9837SOL    HW130410   6.396   0.901   3.322
 9837SOL    HW230411   6.247   0.958   3.286
 9838SOL     OW30412   0.353   5.547   0.502
 9838SOL    HW130413   0.267   5.511   0.465
 9838SOL    HW230414   0.373   5.500   0.588
 9839SOL     OW30415   4.425   6.047   3.216
 9839SOL    HW130416   4.402   6.127   3.161
 9839SOL    HW230417   4.346   6.020   3.271
 9840SOL     OW30418   6.708   1.827   6.732
 9840SOL    HW130419   6.657   1.751   6.691
 9840SOL    HW230420   6.694   1.827   6.831
 9841SOL     OW30421   0.154   6.056   2.359
 9841SOL    HW130422   0.081   6.082   2.296
 9841SOL    HW230423   0.241   6.049   2.309
 9842SOL     OW30424   3.745   0.757   0.216
 9842SOL    HW130425   3.807   0.784   0.143
 9842SOL    HW230426   3.794   0.697   0.280
 9843SOL     OW30427   6.891   0.652   1.006
 9843SOL    HW130428   6.950   0.578   0.974
 9843SOL    HW230429   6.938   0.739   0.995
 9844SOL     OW30430   5.067   0.381   4.778
 9844SOL    HW130431   5.115   0.294   4.765
 9844SOL    HW230432   5.076   0.409   4.874
 9845SOL     OW30433   1.038   4.096   2.288
 9845SOL    HW130434   1.120   4.128   2.337
 9845SOL    HW230435   1.025   4.152   2.206
 9846SOL     OW30436   5.279   1.910   2.670
 9846SOL    HW130437   5.347   1.971   2.629
 9846SOL    HW230438   5.234   1.956   2.747
 9847SOL     OW30439   3.841   4.268   0.103
 9847SOL    HW130440   3.767   4.263   0.036
 9847SOL    HW230441   3.850   4.181   0.150
 9848SOL     OW30442   3.028   4.562   5.618
 9848SOL    HW130443   2.938   4.531   5.587
 9848SOL    HW230444   3.093   4.558   5.542
 9849SOL     OW30445   2.049   2.569   3.289
 9849SOL    HW130446   2.141   2.576   3.249
 9849SOL    HW230447   2.030   2.473   3.310
 9850SOL     OW30448   0.863   6.975   4.260
 9850SOL    HW130449   0.817   0.028   4.210
 9850SOL    HW230450   0.911   6.916   4.195
 9851SOL     OW30451   3.710   5.575   3.741
 9851SOL    HW130452   3.617   5.609   3.751
 9851SOL    HW230453   3.743   5.543   3.830
 9852SOL     OW30454   1.967   6.393   0.068
 9852SOL    HW130455   1.912   6.314   0.041
 9852SOL    HW230456   2.060   6.363   0.092
 9853SOL     OW30457   0.047   4.029   4.024
 9853SOL    HW130458   0.065   4.033   3.925
 9853SOL    HW230459   0.007   3.941   4.047
 9854SOL     OW30460   6.790   3.760   6.772
 9854SOL    HW130461   6.800   3.764   6.872
 9854SOL    HW230462   6.862   3.701   6.734
 9855SOL     OW30463   0.840   5.930   6.557
 9855SOL    HW130464   0.791   5.891   6.635
 9855SOL    HW230465   0.935   5.948   6.584
 9856SOL     OW30466   5.325   4.026   3.081
 9856SOL    HW130467   5.252   4.003   3.145
 9856SOL    HW230468   5.296   4.102   3.023
 9857SOL     OW30469   5.004   0.280   5.903
 9857SOL    HW130470   5.087   0.256   5.954
 9857SOL    HW230471   4.955   0.196   5.878
 9858SOL     OW30472   6.567   5.221   2.385
 9858SOL    HW130473   6.630   5.146   2.404
 9858SOL    HW230474   6.617   5.297   2.344
 9859SOL     OW30475   0.951   5.139   2.281
 9859SOL    HW130476   1.024   5.106   2.341
 9859SOL    HW230477   0.880   5.069   2.273
 9860SOL     OW30478   1.518   3.370   3.873
 9860SOL    HW130479   1.569   3.446   3.833
 9860SOL    HW230480   1.481   3.313   3.801
 9861SOL     OW30481   3.600   2.047   3.588
 9861SOL    HW130482   3.547   1.979   3.537
 9861SOL    HW230483   3.683   2.069   3.538
 9862SOL     OW30484   1.882   3.110   6.421
 9862SOL    HW130485   1.836   3.122   6.509
 9862SOL    HW230486   1.877   3.194   6.368
 9863SOL     OW30487   4.136   6.746   2.141
 9863SOL    HW130488   4.098   6.769   2.052
 9863SOL    HW230489   4.149   6.830   2.195
 9864SOL     OW30490   2.893   6.417   5.481
 9864SOL    HW130491   2.964   6.346   5.477
 9864SOL    HW230492   2.815   6.383   5.534
 9865SOL     OW30493   2.534   6.507   6.012
 9865SOL    HW130494   2.508   6.450   6.090
 9865SOL    HW230495   2.625   6.482   5.981
 9866SOL     OW30496   6.876   5.462   6.516
 9866SOL    HW130497   6.865   5.515   6.600
 9866SOL    HW230498   6.961   5.489   6.471
 9867SOL     OW30499   5.103   1.164   2.096
 9867SOL    HW130500   5.013   1.144   2.134
 9867SOL    HW230501   5.127   1.259   2.112
 9868SOL     OW30502   2.594   4.602   3.567
 9868SOL    HW130503   2.598   4.527   3.502
 9868SOL    HW230504   2.531   4.578   3.641
 9869SOL     OW30505   6.410   2.663   2.888
 9869SOL    HW130506   6.401   2.731   2.960
 9869SOL    HW230507   6.456   2.704   2.809
 9870SOL     OW30508   1.947   2.291   3.279
 9870SOL    HW130509   1.864   2.264   3.230
 9870SOL    HW230510   2.022   2.231   3.251
 9871SOL     OW30511   5.628   5.830   3.165
 9871SOL    HW130512   5.553   5.890   3.138
 9871SOL    HW230513   5.635   5.827   3.264
 9872SOL     OW30514   0.704   6.427   5.769
 9872SOL    HW130515   0.739   6.488   5.698
 9872SOL    HW230516   0.777   6.404   5.833
 9873SOL     OW30517   0.426   0.966   5.290
 9873SOL    HW130518   0.337   0.990   5.252
 9873SOL    HW230519   0.484   1.048   5.292
 9874SOL     OW30520   0.284   2.247   3.672
 9874SOL    HW130521   0.213   2.187   3.636
 9874SOL    HW230522   0.369   2.233   3.620
 9875SOL     OW30523   6.357   6.209   0.807
 9875SOL    HW130524   6.423   6.135   0.794
 9875SOL    HW230525   6.267   6.180   0.776
 9876SOL     OW30526   0.291   6.727   3.905
 9876SOL    HW130527   0.281   6.725   4.004
 9876SOL    HW230528   0.372   6.781   3.881
 9877SOL     OW30529   1.392   6.042   5.287
 9877SOL    HW130530   1.421   6.012   5.379
 9877SOL    HW230531   1.348   6.131   5.294
 9878SOL     OW30532   3.541   2.298   0.185
 9878SOL    HW130533   3.622   2.288   0.243
 9878SOL    HW230534   3.522   2.395   0.171
 9879SOL     OW30535   6.090   5.921   4.437
 9879SOL    HW130536   6.109   5.882   4.527
 9879SOL    HW230537   5.995   5.903   4.412
 9880SOL     OW30538   3.892   1.269   1.105
 9880SOL    HW130539   3.806   1.320   1.107
 9880SOL    HW230540   3.911   1.230   1.195
 9881SOL     OW30541   5.969   0.172   3.444
 9881SOL    HW130542   6.045   0.179   3.378
 9881SOL    HW230543   5.893   0.123   3.401
 9882SOL     OW30544   3.474   2.833   4.892
 9882SOL    HW130545   3.554   2.820   4.835
 9882SOL    HW230546   3.501   2.834   4.988
 9883SOL     OW30547   1.789   6.286   2.553
 9883SOL    HW130548   1.763   6.190   2.563
 9883SOL    HW230549   1.862   6.293   2.485
 9884SOL     OW30550   3.161   2.581   5.374
 9884SOL    HW130551   3.175   2.514   5.302
 9884SOL    HW230552   3.076   2.560   5.423
 9885SOL     OW30553   4.865   2.540   5.717
 9885SOL    HW130554   4.834   2.450   5.688
 9885SOL    HW230555   4.879   2.598   5.636
 9886SOL     OW30556   2.357   6.180   1.314
 9886SOL    HW130557   2.378   6.247   1.243
 9886SOL    HW230558   2.258   6.174   1.326
 9887SOL     OW30559   3.518   1.289   0.046
 9887SOL    HW130560   3.518   1.189   0.048
 9887SOL    HW230561   3.555   1.324   0.132
 9888SOL     OW30562   6.660   6.389   3.703
 9888SOL    HW130563   6.654   6.407   3.605
 9888SOL    HW230564   6.734   6.442   3.743
 9889SOL     OW30565   6.300   5.816   2.658
 9889SOL    HW130566   6.229   5.776   2.716
 9889SOL    HW230567   6.261   5.841   2.570
 9890SOL     OW30568   1.710   3.243   2.759
 9890SOL    HW130569   1.645   3.305   2.802
 9890SOL    HW230570   1.692   3.149   2.789
 9891SOL     OW30571   4.364   6.890   1.645
 9891SOL    HW130572   4.267   6.877   1.626
 9891SOL    HW230573   4.411   6.916   1.561
 9892SOL     OW30574   1.747   6.161   3.164
 9892SOL    HW130575   1.833   6.210   3.148
 9892SOL    HW230576   1.676   6.227   3.188
 9893SOL     OW30577   5.887   4.719   5.660
 9893SOL    HW130578   5.958   4.784   5.687
 9893SOL    HW230579   5.886   4.642   5.725
 9894SOL     OW30580   4.330   4.177   5.473
 9894SOL    HW130581   4.347   4.197   5.570
 9894SOL    HW230582   4.373   4.247   5.417
 9895SOL     OW30583   5.110   2.152   6.320
 9895SOL    HW130584   5.027   2.146   6.376
 9895SOL    HW230585   5.088   2.194   6.232
 9896SOL     OW30586   4.127   3.744   0.090
 9896SOL    HW130587   4.093   3.707   0.176
 9896SOL    HW230588   4.049   3.772   0.033
 9897SOL     OW30589   0.439   1.584   2.723
 9897SOL    HW130590   0.456   1.525   2.645
 9897SOL    HW230591   0.455   1.533   2.808
 9898SOL     OW30592   0.416   4.662   0.135
 9898SOL    HW130593   0.389   4.722   0.060
 9898SOL    HW230594   0.441   4.572   0.098
 9899SOL     OW30595   4.356   5.510   2.539
 9899SOL    HW130596   4.342   5.606   2.513
 9899SOL    HW230597   4.317   5.450   2.470
 9900SOL     OW30598   2.258   5.042   4.211
 9900SOL    HW130599   2.207   5.092   4.141
 9900SOL    HW230600   2.353   5.031   4.181
 9901SOL     OW30601   2.539   1.773   6.100
 9901SOL    HW130602   2.638   1.763   6.090
 9901SOL    HW230603   2.496   1.767   6.010
 9902SOL     OW30604   3.924   3.932   6.909
 9902SOL    HW130605   3.955   3.984   6.830
 9902SOL    HW230606   3.868   3.990   6.968
 9903SOL     OW30607   3.194   1.582   1.281
 9903SOL    HW130608   3.274   1.599   1.223
 9903SOL    HW230609   3.172   1.485   1.281
 9904SOL     OW30610   6.711   6.172   2.315
 9904SOL    HW130611   6.645   6.124   2.373
 9904SOL    HW230612   6.802   6.167   2.356
 9905SOL     OW30613   2.173   6.914   6.051
 9905SOL    HW130614   2.229   6.836   6.023
 9905SOL    HW230615   2.076   6.888   6.048
 9906SOL     OW30616   3.438   4.300   5.925
 9906SOL    HW130617   3.455   4.399   5.929
 9906SOL    HW230618   3.387   4.272   6.006
 9907SOL     OW30619   0.955   6.305   3.071
 9907SOL    HW130620   1.037   6.347   3.112
 9907SOL    HW230621   0.948   6.331   2.975
 9908SOL     OW30622   6.544   2.787   5.357
 9908SOL    HW130623   6.500   2.698   5.370
 9908SOL    HW230624   6.480   2.850   5.315
 9909SOL     OW30625   3.132   6.949   2.695
 9909SOL    HW130626   3.129   6.954   2.595
 9909SOL    HW230627   3.058   7.004   2.733
 9910SOL     OW30628   0.946   5.431   0.668
 9910SOL    HW130629   1.016   5.496   0.639
 9910SOL    HW230630   0.943   5.428   0.768
 9911SOL     OW30631   3.131   4.885   2.444
 9911SOL    HW130632   3.183   4.899   2.359
 9911SOL    HW230633   3.034   4.878   2.423
 9912SOL     OW30634   5.337   6.609   0.588
 9912SOL    HW130635   5.309   6.517   0.558
 9912SOL    HW230636   5.256   6.668   0.593
 9913SOL     OW30637   5.292   2.195   3.213
 9913SOL    HW130638   5.322   2.163   3.123
 9913SOL    HW230639   5.277   2.294   3.210
 9914SOL     OW30640   2.429   5.846   4.239
 9914SOL    HW130641   2.509   5.852   4.299
 9914SOL    HW230642   2.352   5.806   4.289
 9915SOL     OW30643   6.096   4.115   4.610
 9915SOL    HW130644   6.070   4.100   4.706
 9915SOL    HW230645   6.169   4.184   4.606
 9916SOL     OW30646   2.469   3.555   0.408
 9916SOL    HW130647   2.394   3.490   0.420
 9916SOL    HW230648   2.549   3.524   0.460
 9917SOL     OW30649   2.269   3.083   4.562
 9917SOL    HW130650   2.339   3.042   4.504
 9917SOL    HW230651   2.273   3.042   4.653
 9918SOL     OW30652   2.424   0.596   4.756
 9918SOL    HW130653   2.330   0.630   4.748
 9918SOL    HW230654   2.475   0.620   4.673
 9919SOL     OW30655   0.692   5.022   1.974
 9919SOL    HW130656   0.736   5.070   1.899
 9919SOL    HW230657   0.668   5.087   2.046
 9920SOL     OW30658   4.092   0.208   2.836
 9920SOL    HW130659   4.039   0.226   2.753
 9920SOL    HW230660   4.046   0.249   2.915
 9921SOL     OW30661   4.748   0.930   2.458
 9921SOL    HW130662   4.826   0.901   2.402
 9921SOL    HW230663   4.781   0.954   2.550
 9922SOL     OW30664   5.374   2.606   2.525
 9922SOL    HW130665   5.299   2.549   2.493
 9922SOL    HW230666   5.340   2.698   2.547
 9923SOL     OW30667   6.166   0.507   6.817
 9923SOL    HW130668   6.114   0.479   6.736
 9923SOL    HW230669   6.251   0.454   6.822
 9924SOL     OW30670   5.275   1.167   4.122
 9924SOL    HW130671   5.183   1.172   4.083
 9924SOL    HW230672   5.328   1.246   4.092
 9925SOL     OW30673   3.667   2.132   4.545
 9925SOL    HW130674   3.622   2.137   4.455
 9925SOL    HW230675   3.674   2.037   4.573
 9926SOL     OW30676   2.172   0.967   5.710
 9926SOL    HW130677   2.242   0.947   5.642
 9926SOL    HW230678   2.134   1.058   5.694
 9927SOL     OW30679   1.156   3.318   3.372
 9927SOL    HW130680   1.152   3.413   3.403
 9927SOL    HW230681   1.232   3.306   3.309
 9928SOL     OW30682   0.125   2.954   2.175
 9928SOL    HW130683   0.155   2.861   2.193
 9928SOL    HW230684   0.142   2.977   2.078
 9929SOL     OW30685   1.241   5.266   5.756
 9929SOL    HW130686   1.182   5.225   5.826
 9929SOL    HW230687   1.327   5.294   5.797
 9930SOL     OW30688   6.544   5.547   6.463
 9930SOL    HW130689   6.556   5.452   6.434
 9930SOL    HW230690   6.533   5.551   6.562
 9931SOL     OW30691   2.092   4.722   6.887
 9931SOL    HW130692   2.013   4.674   6.849
 9931SOL    HW230693   2.171   4.662   6.885
 9932SOL     OW30694   2.322   2.636   0.991
 9932SOL    HW130695   2.279   2.717   0.951
 9932SOL    HW230696   2.362   2.661   1.079
 9933SOL     OW30697   0.756   1.605   3.356
 9933SOL    HW130698   0.747   1.545   3.435
 9933SOL    HW230699   0.676   1.665   3.350
 9934SOL     OW30700   5.372   0.565   6.265
 9934SOL    HW130701   5.451   0.578   6.204
 9934SOL    HW230702   5.341   0.470   6.257
 9935SOL     OW30703   2.763   3.389   0.848
 9935SOL    HW130704   2.703   3.326   0.798
 9935SOL    HW230705   2.828   3.431   0.785
 9936SOL     OW30706   5.219   6.243   6.942
 9936SOL    HW130707   5.216   6.241   6.842
 9936SOL    HW230708   5.256   6.331   6.972
 9937SOL     OW30709   1.945   6.603   4.022
 9937SOL    HW130710   1.894   6.517   4.035
 9937SOL    HW230711   2.036   6.593   4.061
 9938SOL     OW30712   6.836   1.208   3.109
 9938SOL    HW130713   6.923   1.163   3.130
 9938SOL    HW230714   6.832   1.226   3.010
 9939SOL     OW30715   2.793   3.822   1.303
 9939SOL    HW130716   2.738   3.899   1.333
 9939SOL    HW230717   2.849   3.789   1.379
 9940SOL     OW30718   0.429   0.783   3.253
 9940SOL    HW130719   0.352   0.721   3.264
 9940SOL    HW230720   0.481   0.787   3.339
 9941SOL     OW30721   6.147   3.047   0.520
 9941SOL    HW130722   6.097   3.014   0.600
 9941SOL    HW230723   6.146   3.147   0.520
 9942SOL     OW30724   6.142   5.633   2.449
 9942SOL    HW130725   6.086   5.589   2.378
 9942SOL    HW230726   6.142   5.576   2.531
 9943SOL     OW30727   1.172   4.146   5.542
 9943SOL    HW130728   1.128   4.114   5.626
 9943SOL    HW230729   1.177   4.072   5.476
 9944SOL     OW30730   2.612   5.386   6.798
 9944SOL    HW130731   2.643   5.351   6.887
 9944SOL    HW230732   2.534   5.332   6.766
 9945SOL     OW30733   6.607   3.732   6.519
 9945SOL    HW130734   6.645   3.743   6.611
 9945SOL    HW230735   6.575   3.638   6.507
 9946SOL     OW30736   5.453   2.037   1.851
 9946SOL    HW130737   5.453   2.134   1.873
 9946SOL    HW230738   5.435   2.024   1.754
 9947SOL     OW30739   0.940   0.813   3.007
 9947SOL    HW130740   0.857   0.768   3.039
 9947SOL    HW230741   0.921   0.910   2.992
 9948SOL     OW30742   5.790   0.870   5.301
 9948SOL    HW130743   5.695   0.838   5.304
 9948SOL    HW230744   5.849   0.796   5.270
 9949SOL     OW30745   0.186   3.460   2.714
 9949SOL    HW130746   0.202   3.377   2.662
 9949SOL    HW230747   0.095   3.456   2.755
 9950SOL     OW30748   4.716   5.597   6.069
 9950SOL    HW130749   4.791   5.654   6.102
 9950SOL    HW230750   4.754   5.518   6.019
 9951SOL     OW30751   0.216   2.010   2.693
 9951SOL    HW130752   0.180   1.953   2.619
 9951SOL    HW230753   0.227   1.954   2.775
 9952SOL     OW30754   1.457   4.586   1.525
 9952SOL    HW130755   1.454   4.563   1.623
 9952SOL    HW230756   1.403   4.519   1.474
 9953SOL     OW30757   5.870   4.597   4.794
 9953SOL    HW130758   5.916   4.531   4.734
 9953SOL    HW230759   5.933   4.671   4.816
 9954SOL     OW30760   4.405   1.296   1.469
 9954SOL    HW130761   4.468   1.247   1.409
 9954SOL    HW230762   4.421   1.268   1.563
 9955SOL     OW30763   6.142   4.880   0.900
 9955SOL    HW130764   6.124   4.949   0.970
 9955SOL    HW230765   6.180   4.925   0.819
 9956SOL     OW30766   1.157   3.842   3.424
 9956SOL    HW130767   1.172   3.912   3.355
 9956SOL    HW230768   1.178   3.878   3.515
 9957SOL     OW30769   5.355   0.107   0.012
 9957SOL    HW130770   5.286   0.141   0.076
 9957SOL    HW230771   5.445   0.112   0.055
 9958SOL     OW30772   5.902   6.155   5.932
 9958SOL    HW130773   5.896   6.072   5.986
 9958SOL    HW230774   5.810   6.190   5.914
 9959SOL     OW30775   5.683   4.720   6.969
 9959SOL    HW130776   5.709   4.633   6.928
 9959SOL    HW230777   5.746   4.791   6.937
 9960SOL     OW30778   6.818   0.531   6.630
 9960SOL    HW130779   6.778   0.451   6.673
 9960SOL    HW230780   6.760   0.562   6.555
 9961SOL     OW30781   3.347   6.847   0.278
 9961SOL    HW130782   3.335   6.897   0.363
 9961SOL    HW230783   3.295   6.762   0.280
 9962SOL     OW30784   3.305   0.494   1.531
 9962SOL    HW130785   3.214   0.487   1.489
 9962SOL    HW230786   3.324   0.411   1.583
 9963SOL     OW30787   1.261   0.577   6.676
 9963SOL    HW130788   1.177   0.587   6.730
 9963SOL    HW230789   1.339   0.602   6.733
 9964SOL     OW30790   4.816   5.449   5.122
 9964SOL    HW130791   4.748   5.428   5.192
 9964SOL    HW230792   4.773   5.443   5.031
 9965SOL     OW30793   2.288   4.754   4.226
 9965SOL    HW130794   2.250   4.743   4.318
 9965SOL    HW230795   2.248   4.834   4.183
 9966SOL     OW30796   2.420   5.802   2.395
 9966SOL    HW130797   2.344   5.738   2.392
 9966SOL    HW230798   2.482   5.785   2.319
 9967SOL     OW30799   0.256   0.582   2.571
 9967SOL    HW130800   0.215   0.492   2.579
 9967SOL    HW230801   0.293   0.595   2.479
 9968SOL     OW30802   4.987   6.455   6.804
 9968SOL    HW130803   5.061   6.388   6.790
 9968SOL    HW230804   4.902   6.420   6.765
 9969SOL     OW30805   0.404   5.777   2.978
 9969SOL    HW130806   0.440   5.857   2.929
 9969SOL    HW230807   0.359   5.807   3.062
 9970SOL     OW30808   0.426   3.018   1.862
 9970SOL    HW130809   0.514   2.977   1.885
 9970SOL    HW230810   0.442   3.108   1.820
 9971SOL     OW30811   0.091   5.287   5.037
 9971SOL    HW130812   0.002   5.302   5.080
 9971SOL    HW230813   0.160   5.273   5.108
 9972SOL     OW30814   3.039   4.521   5.894
 9972SOL    HW130815   3.054   4.527   5.795
 9972SOL    HW230816   3.032   4.613   5.932
 9973SOL     OW30817   3.141   2.171   3.075
 9973SOL    HW130818   3.195   2.152   2.993
 9973SOL    HW230819   3.179   2.252   3.121
 9974SOL     OW30820   0.723   2.734   3.002
 9974SOL    HW130821   0.790   2.780   3.061
 9974SOL    HW230822   0.736   2.765   2.907
 9975SOL     OW30823   1.544   3.838   6.338
 9975SOL    HW130824   1.550   3.816   6.241
 9975SOL    HW230825   1.582   3.929   6.354
 9976SOL     OW30826   3.821   6.297   5.575
 9976SOL    HW130827   3.732   6.308   5.618
 9976SOL    HW230828   3.891   6.284   5.646
 9977SOL     OW30829   4.325   0.224   5.702
 9977SOL    HW130830   4.303   0.290   5.631
 9977SOL    HW230831   4.273   0.245   5.785
 9978SOL     OW30832   6.720   2.966   0.126
 9978SOL    HW130833   6.751   2.872   0.113
 9978SOL    HW230834   6.752   3.023   0.050
 9979SOL     OW30835   3.676   3.515   4.099
 9979SOL    HW130836   3.666   3.614   4.095
 9979SOL    HW230837   3.618   3.472   4.030
 9980SOL     OW30838   0.402   0.253   0.256
 9980SOL    HW130839   0.455   0.208   0.329
 9980SOL    HW230840   0.464   0.303   0.196
 9981SOL     OW30841   5.709   0.959   0.274
 9981SOL    HW130842   5.790   0.964   0.333
 9981SOL    HW230843   5.654   1.042   0.284
 9982SOL     OW30844   2.558   2.453   4.633
 9982SOL    HW130845   2.617   2.385   4.591
 9982SOL    HW230846   2.557   2.439   4.732
 9983SOL     OW30847   0.059   2.696   2.204
 9983SOL    HW130848   0.110   2.618   2.168
 9983SOL    HW230849   0.006   2.667   2.284
 9984SOL     OW30850   0.635   4.517   0.775
 9984SOL    HW130851   0.706   4.578   0.741
 9984SOL    HW230852   0.616   4.538   0.871
 9985SOL     OW30853   4.802   4.557   0.509
 9985SOL    HW130854   4.853   4.491   0.455
 9985SOL    HW230855   4.772   4.633   0.451
 9986SOL     OW30856   5.302   4.869   0.136
 9986SOL    HW130857   5.296   4.917   0.224
 9986SOL    HW230858   5.332   4.775   0.152
 9987SOL     OW30859   4.664   2.408   1.244
 9987SOL    HW130860   4.624   2.481   1.300
 9987SOL    HW230861   4.687   2.330   1.303
 9988SOL     OW30862   5.909   6.780   3.755
 9988SOL    HW130863   5.826   6.736   3.721
 9988SOL    HW230864   5.988   6.750   3.702
 9989SOL     OW30865   5.998   5.467   1.893
 9989SOL    HW130866   5.960   5.473   1.801
 9989SOL    HW230867   5.970   5.381   1.935
 9990SOL     OW30868   0.577   6.087   3.197
 9990SOL    HW130869   0.573   5.987   3.199
 9990SOL    HW230870   0.639   6.119   3.268
 9991SOL     OW30871   1.995   4.239   2.139
 9991SOL    HW130872   1.933   4.170   2.103
 9991SOL    HW230873   1.945   4.324   2.154
 9992SOL     OW30874   2.724   5.016   0.069
 9992SOL    HW130875   2.649   4.959   0.100
 9992SOL    HW230876   2.801   5.008   0.133
 9993SOL     OW30877   3.717   0.049   5.207
 9993SOL    HW130878   3.768   0.050   5.293
 9993SOL    HW230879   3.779   0.032   5.131
 9994SOL     OW30880   5.844   5.397   4.887
 9994SOL    HW130881   5.844   5.300   4.913
 9994SOL    HW230882   5.762   5.441   4.924
 9995SOL     OW30883   4.476   1.207   6.337
 9995SOL    HW130884   4.427   1.270   6.397
 9995SOL    HW230885   4.564   1.183   6.379
 9996SOL     OW30886   2.689   4.715   0.495
 9996SOL    HW130887   2.611   4.720   0.558
 9996SOL    HW230888   2.765   4.769   0.532
 9997SOL     OW30889   6.213   1.087   3.143
 9997SOL    HW130890   6.261   1.174   3.156
 9997SOL    HW230891   6.237   1.049   3.054
 9998SOL     OW30892   5.351   3.671   2.280
 9998SOL    HW130893   5.393   3.716   2.359
 9998SOL    HW230894   5.406   3.592   2.254
 9999SOL     OW30895   0.593   6.885   4.639
 9999SOL    HW130896   0.610   6.805   4.696
 9999SOL    HW230897   0.566   6.962   4.696
10000SOL     OW30898   4.563   2.634   1.384
10000SOL    HW130899   4.518   2.600   1.467
10000SOL    HW230900   4.527   2.724   1.362
10001SOL     OW30901   3.608   6.589   1.682
10001SOL    HW130902   3.685   6.530   1.656
10001SOL    HW230903   3.524   6.535   1.687
10002SOL     OW30904   2.165   6.934   2.544
10002SOL    HW130905   2.091   7.000   2.535
10002SOL    HW230906   2.157   6.865   2.471
10003SOL     OW30907   1.071   1.074   2.232
10003SOL    HW130908   1.121   1.153   2.194
10003SOL    HW230909   1.075   1.076   2.331
10004SOL     OW30910   6.960   3.520   3.545
10004SOL    HW130911   6.955   3.429   3.504
10004SOL    HW230912   6.946   3.512   3.644
10005SOL     OW30913   2.939   5.591   2.848
10005SOL    HW130914   2.949   5.572   2.751
10005SOL    HW230915   2.920   5.506   2.897
10006SOL     OW30916   5.551   1.947   5.496
10006SOL    HW130917   5.569   1.919   5.591
10006SOL    HW230918   5.537   2.046   5.493
10007SOL     OW30919   1.587   5.476   3.612
10007SOL    HW130920   1.503   5.439   3.652
10007SOL    HW230921   1.666   5.434   3.654
10008SOL     OW30922   4.465   0.911   5.730
10008SOL    HW130923   4.382   0.943   5.777
10008SOL    HW230924   4.535   0.982   5.737
10009SOL     OW30925   0.642   4.597   2.491
10009SOL    HW130926   0.710   4.540   2.447
10009SOL    HW230927   0.685   4.651   2.563
10010SOL     OW30928   1.881   4.514   0.779
10010SOL    HW130929   1.815   4.528   0.853
10010SOL    HW230930   1.834   4.478   0.698
10011SOL     OW30931   3.355   3.160   0.342
10011SOL    HW130932   3.336   3.076   0.393
10011SOL    HW230933   3.292   3.232   0.372
10012SOL     OW30934   5.299   2.101   4.060
10012SOL    HW130935   5.288   2.172   4.129
10012SOL    HW230936   5.270   2.013   4.097
10013SOL     OW30937   0.929   6.200   4.509
10013SOL    HW130938   0.913   6.282   4.564
10013SOL    HW230939   0.928   6.225   4.412
10014SOL     OW30940   1.244   1.046   3.294
10014SOL    HW130941   1.337   1.052   3.331
10014SOL    HW230942   1.181   1.017   3.366
10015SOL     OW30943   4.445   0.071   6.396
10015SOL    HW130944   4.351   0.102   6.406
10015SOL    HW230945   4.475   0.083   6.301
10016SOL     OW30946   2.863   1.051   4.477
10016SOL    HW130947   2.817   1.039   4.565
10016SOL    HW230948   2.802   1.101   4.415
10017SOL     OW30949   3.270   1.845   2.721
10017SOL    HW130950   3.279   1.871   2.625
10017SOL    HW230951   3.361   1.842   2.763
10018SOL     OW30952   0.053   4.569   5.174
10018SOL    HW130953   0.082   4.519   5.092
10018SOL    HW230954   0.095   4.660   5.173
10019SOL     OW30955   6.701   2.114   2.277
10019SOL    HW130956   6.789   2.107   2.229
10019SOL    HW230957   6.673   2.210   2.281
10020SOL     OW30958   6.238   0.741   2.309
10020SOL    HW130959   6.296   0.659   2.317
10020SOL    HW230960   6.175   0.729   2.232
10021SOL     OW30961   0.805   3.469   1.499
10021SOL    HW130962   0.892   3.507   1.528
10021SOL    HW230963   0.820   3.401   1.427
10022SOL     OW30964   1.412   6.403   5.930
10022SOL    HW130965   1.451   6.313   5.915
10022SOL    HW230966   1.320   6.407   5.889
10023SOL     OW30967   0.494   1.735   5.741
10023SOL    HW130968   0.398   1.754   5.764
10023SOL    HW230969   0.499   1.652   5.686
10024SOL     OW30970   2.222   4.703   3.064
10024SOL    HW130971   2.193   4.612   3.035
10024SOL    HW230972   2.157   4.739   3.131
10025SOL     OW30973   0.737   3.034   1.122
10025SOL    HW130974   0.805   3.077   1.062
10025SOL    HW230975   0.777   3.018   1.212
10026SOL     OW30976   5.569   1.136   4.662
10026SOL    HW130977   5.483   1.132   4.712
10026SOL    HW230978   5.642   1.165   4.724
10027SOL     OW30979   3.611   1.419   5.460
10027SOL    HW130980   3.549   1.385   5.531
10027SOL    HW230981   3.577   1.392   5.370
10028SOL     OW30982   4.090   7.010   2.260
10028SOL    HW130983   4.117   0.055   2.331
10028SOL    HW230984   4.126   0.020   2.172
10029SOL     OW30985   0.153   4.248   4.188
10029SOL    HW130986   0.157   4.194   4.104
10029SOL    HW230987   0.083   4.211   4.249
10030SOL     OW30988   2.172   6.979   4.620
10030SOL    HW130989   2.170   6.998   4.718
10030SOL    HW230990   2.125   6.893   4.601
10031SOL     OW30991   1.995   6.091   3.435
10031SOL    HW130992   2.031   6.182   3.413
10031SOL    HW230993   1.918   6.100   3.498
10032SOL     OW30994   3.370   5.774   4.113
10032SOL    HW130995   3.347   5.862   4.071
10032SOL    HW230996   3.460   5.744   4.081
10033SOL     OW30997   3.278   1.158   5.309
10033SOL    HW130998   3.321   1.071   5.286
10033SOL    HW230999   3.235   1.152   5.399
10034SOL     OW31000   2.474   1.425   2.486
10034SOL    HW131001   2.480   1.454   2.582
10034SOL    HW231002   2.520   1.337   2.476
10035SOL     OW31003   6.598   2.744   2.662
10035SOL    HW131004   6.588   2.843   2.648
10035SOL    HW231005   6.685   2.727   2.710
10036SOL     OW31006   1.041   0.863   6.882
10036SOL    HW131007   0.985   0.934   6.924
10036SOL    HW231008   1.116   0.906   6.831
10037SOL     OW31009   5.685   6.822   6.339
10037SOL    HW131010   5.708   6.735   6.382
10037SOL    HW231011   5.767   6.862   6.297
10038SOL     OW31012   4.909   6.282   6.528
10038SOL    HW131013   4.891   6.195   6.575
10038SOL    HW231014   5.001   6.313   6.551
10039SOL     OW31015   0.167   5.815   1.963
10039SOL    HW131016   0.151   5.792   2.059
10039SOL    HW231017   0.255   5.861   1.954
10040SOL     OW31018   2.193   6.692   0.100
10040SOL    HW131019   2.149   6.679   0.012
10040SOL    HW231020   2.132   6.741   0.162
10041SOL     OW31021   5.658   5.561   5.431
10041SOL    HW131022   5.611   5.577   5.518
10041SOL    HW231023   5.687   5.466   5.426
10042SOL     OW31024   6.893   0.728   5.071
10042SOL    HW131025   6.841   0.729   5.157
10042SOL    HW231026   6.956   0.650   5.071
10043SOL     OW31027   0.664   0.766   3.083
10043SOL    HW131028   0.580   0.766   3.138
10043SOL    HW231029   0.643   0.800   2.992
10044SOL     OW31030   2.709   2.151   0.262
10044SOL    HW131031   2.639   2.209   0.222
10044SOL    HW231032   2.786   2.144   0.198
10045SOL     OW31033   3.857   6.647   4.928
10045SOL    HW131034   3.852   6.554   4.965
10045SOL    HW231035   3.932   6.696   4.973
10046SOL     OW31036   6.519   2.185   1.939
10046SOL    HW131037   6.466   2.155   2.019
10046SOL    HW231038   6.492   2.278   1.915
10047SOL     OW31039   0.633   2.772   3.285
10047SOL    HW131040   0.653   2.685   3.240
10047SOL    HW231041   0.583   2.831   3.222
10048SOL     OW31042   3.756   2.558   1.717
10048SOL    HW131043   3.790   2.629   1.779
10048SOL    HW231044   3.709   2.487   1.770
10049SOL     OW31045   2.096   6.598   4.338
10049SOL    HW131046   2.010   6.551   4.360
10049SOL    HW231047   2.166   6.530   4.315
10050SOL     OW31048   5.686   0.927   4.527
10050SOL    HW131049   5.710   0.965   4.438
10050SOL    HW231050   5.634   0.994   4.580
10051SOL     OW31051   6.151   2.224   0.166
10051SOL    HW131052   6.238   2.186   0.135
10051SOL    HW231053   6.146   2.321   0.143
10052SOL     OW31054   1.482   4.513   1.793
10052SOL    HW131055   1.398   4.500   1.844
10052SOL    HW231056   1.547   4.441   1.814
10053SOL     OW31057   3.044   6.872   3.259
10053SOL    HW131058   3.044   6.774   3.278
10053SOL    HW231059   3.136   6.908   3.273
10054SOL     OW31060   4.211   5.706   3.950
10054SOL    HW131061   4.150   5.752   3.886
10054SOL    HW231062   4.223   5.762   4.032
10055SOL     OW31063   6.480   3.173   6.656
10055SOL    HW131064   6.553   3.200   6.593
10055SOL    HW231065   6.432   3.094   6.618
10056SOL     OW31066   6.319   4.627   2.189
10056SOL    HW131067   6.360   4.682   2.262
10056SOL    HW231068   6.305   4.684   2.108
10057SOL     OW31069   2.350   2.241   3.667
10057SOL    HW131070   2.298   2.255   3.751
10057SOL    HW231071   2.292   2.196   3.599
10058SOL     OW31072   1.053   4.815   3.582
10058SOL    HW131073   1.125   4.873   3.544
10058SOL    HW231074   0.965   4.864   3.579
10059SOL     OW31075   5.604   6.865   1.770
10059SOL    HW131076   5.517   6.899   1.804
10059SOL    HW231077   5.673   6.937   1.775
10060SOL     OW31078   2.317   2.589   2.145
10060SOL    HW131079   2.343   2.494   2.159
10060SOL    HW231080   2.294   2.604   2.049
10061SOL     OW31081   6.454   2.116   4.721
10061SOL    HW131082   6.515   2.080   4.650
10061SOL    HW231083   6.488   2.089   4.811
10062SOL     OW31084   5.740   5.580   3.006
10062SOL    HW131085   5.679   5.652   3.040
10062SOL    HW231086   5.706   5.491   3.036
10063SOL     OW31087   0.664   2.592   2.543
10063SOL    HW131088   0.655   2.655   2.466
10063SOL    HW231089   0.576   2.581   2.588
10064SOL     OW31090   5.679   5.864   5.254
10064SOL    HW131091   5.625   5.943   5.225
10064SOL    HW231092   5.667   5.849   5.352
10065SOL     OW31093   0.522   6.431   3.376
10065SOL    HW131094   0.571   6.502   3.428
10065SOL    HW231095   0.577   6.403   3.298
10066SOL     OW31096   0.712   0.442   3.398
10066SOL    HW131097   0.631   0.383   3.400
10066SOL    HW231098   0.794   0.386   3.395
10067SOL     OW31099   4.954   6.806   3.481
10067SOL    HW131100   4.984   6.731   3.422
10067SOL    HW231101   5.010   6.808   3.564
10068SOL     OW31102   4.731   3.870   5.578
10068SOL    HW131103   4.748   3.943   5.644
10068SOL    HW231104   4.657   3.898   5.517
10069SOL     OW31105   5.028   0.935   3.896
10069SOL    HW131106   5.084   0.895   3.968
10069SOL    HW231107   5.023   1.034   3.908
10070SOL     OW31108   1.259   6.984   4.333
10070SOL    HW131109   1.267   6.951   4.239
10070SOL    HW231110   1.223   6.912   4.392
10071SOL     OW31111   5.106   5.056   5.152
10071SOL    HW131112   5.157   5.012   5.078
10071SOL    HW231113   5.126   5.154   5.151
10072SOL     OW31114   1.040   6.892   3.525
10072SOL    HW131115   0.972   6.821   3.508
10072SOL    HW231116   1.100   6.899   3.445
10073SOL     OW31117   6.995   5.770   6.342
10073SOL    HW131118   6.955   5.818   6.419
10073SOL    HW231119   6.937   5.782   6.261
10074SOL     OW31120   2.527   7.009   5.755
10074SOL    HW131121   2.576   0.034   5.681
10074SOL    HW231122   2.581   6.932   5.788
10075SOL     OW31123   1.361   2.488   3.700
10075SOL    HW131124   1.323   2.539   3.777
10075SOL    HW231125   1.427   2.545   3.652
10076SOL     OW31126   5.493   0.180   4.278
10076SOL    HW131127   5.460   0.258   4.225
10076SOL    HW231128   5.591   0.168   4.263
10077SOL     OW31129   2.708   1.269   6.808
10077SOL    HW131130   2.717   1.209   6.729
10077SOL    HW231131   2.719   1.364   6.778
10078SOL     OW31132   5.692   6.098   5.505
10078SOL    HW131133   5.781   6.114   5.463
10078SOL    HW231134   5.626   6.164   5.469
10079SOL     OW31135   6.624   2.697   6.109
10079SOL    HW131136   6.663   2.735   6.193
10079SOL    HW231137   6.697   2.674   6.046
10080SOL     OW31138   1.184   2.225   5.873
10080SOL    HW131139   1.235   2.308   5.848
10080SOL    HW231140   1.248   2.151   5.892
10081SOL     OW31141   0.343   1.327   0.133
10081SOL    HW131142   0.277   1.269   0.181
10081SOL    HW231143   0.295   1.405   0.092
10082SOL     OW31144   0.014   0.621   0.627
10082SOL    HW131145   0.036   0.615   0.529
10082SOL    HW231146   6.938   0.644   0.638
10083SOL     OW31147   4.904   1.253   4.609
10083SOL    HW131148   4.990   1.282   4.568
10083SOL    HW231149   4.885   1.158   4.585
10084SOL     OW31150   2.143   1.093   6.453
10084SOL    HW131151   2.124   1.002   6.417
10084SOL    HW231152   2.174   1.152   6.378
10085SOL     OW31153   0.713   5.525   2.156
10085SOL    HW131154   0.642   5.483   2.099
10085SOL    HW231155   0.717   5.477   2.244
10086SOL     OW31156   6.820   3.667   2.244
10086SOL    HW131157   6.815   3.656   2.145
10086SOL    HW231158   6.895   3.612   2.280
10087SOL     OW31159   1.219   6.903   3.726
10087SOL    HW131160   1.134   6.902   3.674
10087SOL    HW231161   1.233   6.813   3.768
10088SOL     OW31162   6.652   0.416   4.476
10088SOL    HW131163   6.744   0.448   4.456
10088SOL    HW231164   6.624   0.450   4.566
10089SOL     OW31165   1.550   2.830   2.324
10089SOL    HW131166   1.572   2.801   2.231
10089SOL    HW231167   1.530   2.749   2.380
10090SOL     OW31168   0.138   4.346   1.612
10090SOL    HW131169   0.076   4.280   1.653
10090SOL    HW231170   0.207   4.298   1.557
10091SOL     OW31171   0.393   2.127   4.030
10091SOL    HW131172   0.476   2.116   3.975
10091SOL    HW231173   0.362   2.038   4.062
10092SOL     OW31174   1.860   3.234   4.972
10092SOL    HW131175   1.951   3.193   4.986
10092SOL    HW231176   1.848   3.256   4.876
10093SOL     OW31177   0.196   5.545   6.630
10093SOL    HW131178   0.149   5.512   6.548
10093SOL    HW231179   0.165   5.492   6.709
10094SOL     OW31180   1.474   1.456   1.929
10094SOL    HW131181   1.563   1.485   1.963
10094SOL    HW231182   1.486   1.402   1.846
10095SOL     OW31183   0.388   1.199   5.977
10095SOL    HW131184   0.364   1.168   6.069
10095SOL    HW231185   0.471   1.255   5.982
10096SOL     OW31186   7.004   4.919   2.173
10096SOL    HW131187   6.984   4.990   2.107
10096SOL    HW231188   0.011   4.835   2.125
10097SOL     OW31189   1.067   2.239   6.124
10097SOL    HW131190   1.112   2.159   6.165
10097SOL    HW231191   1.105   2.255   6.033
10098SOL     OW31192   3.328   5.332   6.420
10098SOL    HW131193   3.241   5.363   6.460
10098SOL    HW231194   3.399   5.399   6.441
10099SOL     OW31195   6.627   4.617   4.471
10099SOL    HW131196   6.673   4.590   4.555
10099SOL    HW231197   6.695   4.637   4.400
10100SOL     OW31198   5.548   0.761   5.371
10100SOL    HW131199   5.481   0.779   5.300
10100SOL    HW231200   5.507   0.706   5.444
10101SOL     OW31201   6.725   4.729   2.417
10101SOL    HW131202   6.692   4.649   2.467
10101SOL    HW231203   6.817   4.752   2.449
10102SOL     OW31204   3.890   1.066   3.544
10102SOL    HW131205   3.902   1.162   3.570
10102SOL    HW231206   3.792   1.045   3.539
10103SOL     OW31207   1.870   1.989   0.443
10103SOL    HW131208   1.806   2.065   0.434
10103SOL    HW231209   1.841   1.913   0.385
10104SOL     OW31210   2.011   5.774   5.419
10104SOL    HW131211   1.987   5.677   5.425
10104SOL    HW231212   2.098   5.790   5.464
10105SOL     OW31213   3.060   0.147   6.882
10105SOL    HW131214   3.151   0.127   6.919
10105SOL    HW231215   3.010   0.062   6.869
10106SOL     OW31216   5.243   5.799   1.071
10106SOL    HW131217   5.328   5.815   1.122
10106SOL    HW231218   5.265   5.776   0.976
10107SOL     OW31219   5.561   1.017   5.668
10107SOL    HW131220   5.479   0.981   5.624
10107SOL    HW231221   5.552   1.116   5.679
10108SOL     OW31222   5.813   6.298   6.953
10108SOL    HW131223   5.812   6.322   6.856
10108SOL    HW231224   5.905   6.271   6.980
10109SOL     OW31225   4.722   5.238   3.786
10109SOL    HW131226   4.781   5.278   3.857
10109SOL    HW231227   4.638   5.206   3.828
10110SOL     OW31228   3.512   1.233   6.171
10110SOL    HW131229   3.498   1.274   6.261
10110SOL    HW231230   3.437   1.169   6.152
10111SOL     OW31231   0.409   2.346   2.512
10111SOL    HW131232   0.419   2.414   2.584
10111SOL    HW231233   0.498   2.306   2.491
10112SOL     OW31234   4.165   4.333   6.325
10112SOL    HW131235   4.177   4.277   6.243
10112SOL    HW231236   4.225   4.413   6.321
10113SOL     OW31237   4.040   6.296   0.551
10113SOL    HW131238   4.047   6.275   0.648
10113SOL    HW231239   4.132   6.308   0.513
10114SOL     OW31240   4.004   1.775   1.690
10114SOL    HW131241   3.911   1.801   1.714
10114SOL    HW231242   4.014   1.773   1.590
10115SOL     OW31243   1.190   1.995   3.908
10115SOL    HW131244   1.095   1.970   3.892
10115SOL    HW231245   1.195   2.089   3.941
10116SOL     OW31246   0.855   0.763   0.958
10116SOL    HW131247   0.887   0.849   0.996
10116SOL    HW231248   0.796   0.716   1.024
10117SOL     OW31249   5.118   0.562   5.889
10117SOL    HW131250   5.138   0.602   5.979
10117SOL    HW231251   5.089   0.467   5.901
10118SOL     OW31252   6.423   4.790   2.383
10118SOL    HW131253   6.523   4.786   2.387
10118SOL    HW231254   6.395   4.879   2.350
10119SOL     OW31255   2.718   0.493   5.486
10119SOL    HW131256   2.735   0.546   5.569
10119SOL    HW231257   2.635   0.438   5.498
10120SOL     OW31258   5.518   3.181   3.977
10120SOL    HW131259   5.542   3.124   3.898
10120SOL    HW231260   5.533   3.129   4.061
10121SOL     OW31261   5.765   4.908   4.350
10121SOL    HW131262   5.813   4.842   4.407
10121SOL    HW231263   5.778   5.000   4.388
10122SOL     OW31264   5.612   3.561   0.003
10122SOL    HW131265   5.594   3.560   0.102
10122SOL    HW231266   5.626   3.467   6.992
10123SOL     OW31267   0.003   0.149   0.335
10123SOL    HW131268   0.081   0.092   0.360
10123SOL    HW231269   6.988   0.195   0.416
10124SOL     OW31270   3.036   4.551   0.799
10124SOL    HW131271   3.093   4.633   0.795
10124SOL    HW231272   3.050   4.497   0.716
10125SOL     OW31273   1.443   0.163   0.801
10125SOL    HW131274   1.517   0.196   0.860
10125SOL    HW231275   1.377   0.236   0.785
10126SOL     OW31276   5.493   4.938   6.970
10126SOL    HW131277   5.560   4.865   6.984
10126SOL    HW231278   5.406   4.911   7.011
10127SOL     OW31279   3.764   4.310   5.248
10127SOL    HW131280   3.826   4.252   5.301
10127SOL    HW231281   3.675   4.266   5.242
10128SOL     OW31282   0.197   1.728   1.354
10128SOL    HW131283   0.101   1.709   1.375
10128SOL    HW231284   0.254   1.651   1.385
10129SOL     OW31285   5.085   2.759   3.708
10129SOL    HW131286   5.014   2.694   3.736
10129SOL    HW231287   5.113   2.739   3.614
10130SOL     OW31288   6.361   5.653   1.603
10130SOL    HW131289   6.459   5.643   1.586
10130SOL    HW231290   6.342   5.641   1.700
10131SOL     OW31291   6.375   0.308   0.738
10131SOL    HW131292   6.384   0.222   0.686
10131SOL    HW231293   6.424   0.381   0.690
10132SOL     OW31294   2.566   0.080   2.670
10132SOL    HW131295   2.478   0.060   2.627
10132SOL    HW231296   2.556   0.160   2.729
10133SOL     OW31297   5.187   5.079   3.289
10133SOL    HW131298   5.105   5.109   3.240
10133SOL    HW231299   5.171   5.086   3.387
10134SOL     OW31300   0.283   1.507   2.394
10134SOL    HW131301   0.366   1.456   2.417
10134SOL    HW231302   0.221   1.505   2.473
10135SOL     OW31303   2.958   5.998   2.757
10135SOL    HW131304   3.013   6.082   2.754
10135SOL    HW231305   2.998   5.930   2.695
10136SOL     OW31306   6.721   0.351   2.174
10136SOL    HW131307   6.697   0.262   2.212
10136SOL    HW231308   6.638   0.398   2.144
10137SOL     OW31309   5.454   5.066   4.517
10137SOL    HW131310   5.368   5.117   4.510
10137SOL    HW231311   5.519   5.119   4.571
10138SOL     OW31312   5.520   2.153   6.655
10138SOL    HW131313   5.520   2.210   6.737
10138SOL    HW231314   5.426   2.133   6.628
10139SOL     OW31315   3.838   2.999   3.510
10139SOL    HW131316   3.751   2.960   3.541
10139SOL    HW231317   3.853   2.973   3.415
10140SOL     OW31318   0.733   4.994   4.820
10140SOL    HW131319   0.634   4.991   4.826
10140SOL    HW231320   0.770   5.041   4.901
10141SOL     OW31321   2.054   0.547   3.879
10141SOL    HW131322   2.101   0.551   3.791
10141SOL    HW231323   2.057   0.638   3.922
10142SOL     OW31324   4.830   6.001   4.296
10142SOL    HW131325   4.847   6.015   4.394
10142SOL    HW231326   4.732   6.005   4.278
10143SOL     OW31327   4.999   6.143   1.442
10143SOL    HW131328   4.981   6.232   1.399
10143SOL    HW231329   4.994   6.071   1.373
10144SOL     OW31330   2.829   5.360   3.052
10144SOL    HW131331   2.923   5.323   3.052
10144SOL    HW231332   2.766   5.289   3.021
10145SOL     OW31333   2.709   6.272   5.610
10145SOL    HW131334   2.613   6.260   5.632
10145SOL    HW231335   2.765   6.216   5.671
10146SOL     OW31336   5.512   4.893   4.752
10146SOL    HW131337   5.474   4.955   4.684
10146SOL    HW231338   5.575   4.829   4.708
10147SOL     OW31339   4.768   5.737   4.456
10147SOL    HW131340   4.835   5.796   4.501
10147SOL    HW231341   4.804   5.643   4.454
10148SOL     OW31342   5.802   5.036   0.259
10148SOL    HW131343   5.890   5.072   0.230
10148SOL    HW231344   5.732   5.064   0.193
10149SOL     OW31345   4.177   3.337   0.767
10149SOL    HW131346   4.097   3.287   0.733
10149SOL    HW231347   4.260   3.296   0.731
10150SOL     OW31348   5.135   4.210   1.552
10150SOL    HW131349   5.213   4.271   1.541
10150SOL    HW231350   5.050   4.264   1.550
10151SOL     OW31351   1.678   6.757   5.828
10151SOL    HW131352   1.709   6.723   5.739
10151SOL    HW231353   1.678   6.682   5.894
10152SOL     OW31354   0.394   5.277   4.095
10152SOL    HW131355   0.400   5.217   4.015
10152SOL    HW231356   0.337   5.356   4.072
10153SOL     OW31357   5.653   6.663   3.699
10153SOL    HW131358   5.660   6.607   3.616
10153SOL    HW231359   5.652   6.603   3.779
10154SOL     OW31360   6.519   5.542   5.516
10154SOL    HW131361   6.513   5.508   5.422
10154SOL    HW231362   6.612   5.575   5.535
10155SOL     OW31363   3.631   1.575   6.689
10155SOL    HW131364   3.587   1.489   6.665
10155SOL    HW231365   3.569   1.651   6.668
10156SOL     OW31366   5.890   0.133   2.325
10156SOL    HW131367   5.989   0.130   2.341
10156SOL    HW231368   5.865   0.062   2.259
10157SOL     OW31369   4.968   1.123   5.032
10157SOL    HW131370   4.930   1.066   5.105
10157SOL    HW231371   4.900   1.190   5.003
10158SOL     OW31372   4.362   3.945   6.212
10158SOL    HW131373   4.421   4.025   6.204
10158SOL    HW231374   4.280   3.959   6.156
10159SOL     OW31375   1.246   1.186   6.368
10159SOL    HW131376   1.153   1.178   6.403
10159SOL    HW231377   1.252   1.142   6.279
10160SOL     OW31378   1.003   5.923   3.164
10160SOL    HW131379   0.967   5.875   3.084
10160SOL    HW231380   1.101   5.903   3.173
10161SOL     OW31381   2.271   6.173   5.897
10161SOL    HW131382   2.217   6.256   5.884
10161SOL    HW231383   2.254   6.110   5.821
10162SOL     OW31384   3.167   2.140   6.974
10162SOL    HW131385   3.230   2.079   0.000
10162SOL    HW231386   3.200   2.235   6.981
10163SOL     OW31387   6.702   2.650   5.771
10163SOL    HW131388   6.683   2.560   5.810
10163SOL    HW231389   6.794   2.679   5.797
10164SOL     OW31390   0.648   2.766   5.282
10164SOL    HW131391   0.579   2.737   5.216
10164SOL    HW231392   0.697   2.685   5.316
10165SOL     OW31393   6.717   2.406   3.433
10165SOL    HW131394   6.643   2.443   3.489
10165SOL    HW231395   6.803   2.407   3.485
10166SOL     OW31396   0.775   0.860   2.281
10166SOL    HW131397   0.827   0.876   2.197
10166SOL    HW231398   0.696   0.922   2.284
10167SOL     OW31399   4.472   0.458   0.456
10167SOL    HW131400   4.423   0.499   0.533
10167SOL    HW231401   4.522   0.377   0.487
10168SOL     OW31402   6.404   3.779   4.728
10168SOL    HW131403   6.395   3.873   4.696
10168SOL    HW231404   6.500   3.752   4.727
10169SOL     OW31405   6.452   4.015   4.365
10169SOL    HW131406   6.373   3.958   4.341
10169SOL    HW231407   6.444   4.103   4.316
10170SOL     OW31408   1.456   3.886   4.729
10170SOL    HW131409   1.550   3.905   4.760
10170SOL    HW231410   1.456   3.871   4.631
10171SOL     OW31411   6.687   3.074   5.817
10171SOL    HW131412   6.697   2.997   5.754
10171SOL    HW231413   6.619   3.139   5.781
10172SOL     OW31414   4.655   1.044   3.919
10172SOL    HW131415   4.688   0.974   3.982
10172SOL    HW231416   4.574   1.088   3.958
10173SOL     OW31417   2.216   2.007   2.317
10173SOL    HW131418   2.233   2.089   2.263
10173SOL    HW231419   2.229   1.926   2.260
10174SOL     OW31420   6.029   4.641   0.797
10174SOL    HW131421   6.030   4.627   0.698
10174SOL    HW231422   6.103   4.703   0.822
10175SOL     OW31423   6.265   1.982   6.306
10175SOL    HW131424   6.286   2.076   6.278
10175SOL    HW231425   6.190   1.983   6.372
10176SOL     OW31426   2.151   3.806   7.001
10176SOL    HW131427   2.190   3.881   0.033
10176SOL    HW231428   2.150   3.723   0.036
10177SOL     OW31429   2.135   0.301   5.885
10177SOL    HW131430   2.111   0.387   5.840
10177SOL    HW231431   2.221   0.312   5.935
10178SOL     OW31432   5.825   2.718   5.144
10178SOL    HW131433   5.845   2.705   5.241
10178SOL    HW231434   5.726   2.713   5.130
10179SOL     OW31435   0.968   3.152   6.405
10179SOL    HW131436   1.048   3.092   6.408
10179SOL    HW231437   0.922   3.142   6.316
10180SOL     OW31438   2.699   6.778   5.510
10180SOL    HW131439   2.758   6.856   5.527
10180SOL    HW231440   2.689   6.764   5.412
10181SOL     OW31441   5.780   3.157   1.509
10181SOL    HW131442   5.715   3.180   1.580
10181SOL    HW231443   5.805   3.239   1.457
10182SOL     OW31444   5.596   1.754   0.422
10182SOL    HW131445   5.531   1.759   0.346
10182SOL    HW231446   5.552   1.784   0.506
10183SOL     OW31447   1.760   2.103   6.537
10183SOL    HW131448   1.741   2.201   6.536
10183SOL    HW231449   1.772   2.073   6.632
10184SOL     OW31450   4.828   0.312   6.306
10184SOL    HW131451   4.838   0.212   6.310
10184SOL    HW231452   4.758   0.341   6.371
10185SOL     OW31453   4.995   1.204   6.983
10185SOL    HW131454   4.981   1.297   7.017
10185SOL    HW231455   4.961   1.139   0.031
10186SOL     OW31456   4.128   1.949   3.213
10186SOL    HW131457   4.170   2.004   3.141
10186SOL    HW231458   4.081   1.871   3.172
10187SOL     OW31459   0.962   2.462   2.230
10187SOL    HW131460   0.941   2.364   2.231
10187SOL    HW231461   0.883   2.513   2.195
10188SOL     OW31462   3.509   4.756   1.092
10188SOL    HW131463   3.482   4.782   0.999
10188SOL    HW231464   3.457   4.675   1.120
10189SOL     OW31465   1.391   6.486   5.530
10189SOL    HW131466   1.418   6.580   5.549
10189SOL    HW231467   1.428   6.458   5.441
10190SOL     OW31468   5.034   2.241   0.235
10190SOL    HW131469   4.987   2.324   0.265
10190SOL    HW231470   5.014   2.166   0.299
10191SOL     OW31471   6.519   4.436   6.593
10191SOL    HW131472   6.573   4.519   6.581
10191SOL    HW231473   6.452   4.428   6.519
10192SOL     OW31474   3.118   1.068   6.960
10192SOL    HW131475   3.189   1.134   6.935
10192SOL    HW231476   3.083   1.024   6.878
10193SOL     OW31477   4.012   3.635   0.391
10193SOL    HW131478   3.995   3.621   0.488
10193SOL    HW231479   4.086   3.575   0.361
10194SOL     OW31480   4.975   3.757   5.717
10194SOL    HW131481   5.006   3.837   5.769
10194SOL    HW231482   4.940   3.786   5.628
10195SOL     OW31483   6.405   4.167   1.496
10195SOL    HW131484   6.460   4.245   1.466
10195SOL    HW231485   6.461   4.107   1.553
10196SOL     OW31486   0.479   1.307   4.918
10196SOL    HW131487   0.487   1.407   4.919
10196SOL    HW231488   0.472   1.275   4.824
10197SOL     OW31489   5.899   0.854   6.603
10197SOL    HW131490   5.961   0.913   6.552
10197SOL    HW231491   5.821   0.830   6.545
10198SOL     OW31492   4.355   6.787   3.272
10198SOL    HW131493   4.349   6.818   3.177
10198SOL    HW231494   4.326   6.691   3.277
10199SOL     OW31495   0.785   2.132   5.427
10199SOL    HW131496   0.742   2.187   5.498
10199SOL    HW231497   0.716   2.098   5.363
10200SOL     OW31498   5.334   1.540   1.705
10200SOL    HW131499   5.272   1.479   1.656
10200SOL    HW231500   5.285   1.587   1.778
10201SOL     OW31501   0.834   3.878   0.479
10201SOL    HW131502   0.794   3.792   0.511
10201SOL    HW231503   0.811   3.891   0.382
10202SOL     OW31504   4.201   0.728   3.863
10202SOL    HW131505   4.156   0.790   3.799
10202SOL    HW231506   4.266   0.779   3.920
10203SOL     OW31507   6.529   2.862   4.826
10203SOL    HW131508   6.534   2.928   4.900
10203SOL    HW231509   6.484   2.903   4.747
10204SOL     OW31510   5.880   4.893   6.557
10204SOL    HW131511   5.926   4.954   6.493
10204SOL    HW231512   5.948   4.833   6.600
10205SOL     OW31513   1.250   0.690   6.173
10205SOL    HW131514   1.306   0.633   6.112
10205SOL    HW231515   1.310   0.736   6.239
10206SOL     OW31516   1.647   0.764   4.677
10206SOL    HW131517   1.634   0.819   4.595
10206SOL    HW231518   1.678   0.673   4.652
10207SOL     OW31519   2.294   2.088   5.092
10207SOL    HW131520   2.204   2.077   5.135
10207SOL    HW231521   2.354   2.140   5.153
10208SOL     OW31522   6.983   6.019   5.471
10208SOL    HW131523   6.986   5.930   5.517
10208SOL    HW231524   0.016   6.014   5.387
10209SOL     OW31525   0.212   6.953   5.899
10209SOL    HW131526   0.234   0.011   5.956
10209SOL    HW231527   0.293   6.896   5.887
10210SOL     OW31528   2.956   0.099   1.151
10210SOL    HW131529   2.984   0.134   1.061
10210SOL    HW231530   3.004   0.150   1.222
10211SOL     OW31531   5.346   5.860   5.937
10211SOL    HW131532   5.365   5.840   6.033
10211SOL    HW231533   5.432   5.868   5.887
10212SOL     OW31534   0.679   0.687   6.347
10212SOL    HW131535   0.729   0.663   6.431
10212SOL    HW231536   0.728   0.650   6.268
10213SOL     OW31537   6.504   2.363   0.870
10213SOL    HW131538   6.410   2.340   0.846
10213SOL    HW231539   6.504   2.427   0.947
10214SOL     OW31540   1.242   2.232   6.809
10214SOL    HW131541   1.211   2.285   6.730
10214SOL    HW231542   1.222   2.135   6.795
10215SOL     OW31543   2.852   3.480   2.077
10215SOL    HW131544   2.913   3.548   2.117
10215SOL    HW231545   2.772   3.526   2.038
10216SOL     OW31546   0.716   6.528   2.074
10216SOL    HW131547   0.803   6.501   2.033
10216SOL    HW231548   0.681   6.610   2.029
10217SOL     OW31549   3.101   1.350   4.908
10217SOL    HW131550   3.049   1.435   4.918
10217SOL    HW231551   3.152   1.331   4.992
10218SOL     OW31552   1.002   3.238   2.602
10218SOL    HW131553   1.082   3.252   2.661
10218SOL    HW231554   1.032   3.203   2.513
10219SOL     OW31555   6.817   5.999   3.220
10219SOL    HW131556   6.754   6.060   3.172
10219SOL    HW231557   6.844   5.925   3.159
10220SOL     OW31558   3.314   2.957   0.503
10220SOL    HW131559   3.364   2.897   0.565
10220SOL    HW231560   3.247   2.904   0.452
10221SOL     OW31561   0.784   5.421   3.985
10221SOL    HW131562   0.711   5.441   4.050
10221SOL    HW231563   0.871   5.414   4.033
10222SOL     OW31564   3.352   3.559   4.047
10222SOL    HW131565   3.410   3.630   4.088
10222SOL    HW231566   3.404   3.509   3.978
10223SOL     OW31567   1.930   5.880   0.730
10223SOL    HW131568   1.864   5.941   0.685
10223SOL    HW231569   2.013   5.932   0.752
10224SOL     OW31570   6.192   3.985   3.096
10224SOL    HW131571   6.129   4.056   3.067
10224SOL    HW231572   6.276   4.027   3.131
10225SOL     OW31573   2.266   3.867   5.621
10225SOL    HW131574   2.171   3.850   5.593
10225SOL    HW231575   2.327   3.851   5.543
10226SOL     OW31576   5.005   3.534   0.478
10226SOL    HW131577   5.018   3.530   0.379
10226SOL    HW231578   5.057   3.611   0.516
10227SOL     OW31579   5.630   2.982   1.360
10227SOL    HW131580   5.648   3.018   1.268
10227SOL    HW231581   5.678   3.037   1.428
10228SOL     OW31582   5.331   0.820   0.528
10228SOL    HW131583   5.235   0.838   0.548
10228SOL    HW231584   5.381   0.906   0.518
10229SOL     OW31585   0.037   2.923   5.135
10229SOL    HW131586   0.074   2.932   5.043
10229SOL    HW231587   6.975   2.866   5.132
10230SOL     OW31588   6.834   6.314   1.636
10230SOL    HW131589   6.829   6.371   1.718
10230SOL    HW231590   6.846   6.218   1.663
10231SOL     OW31591   0.608   5.088   2.573
10231SOL    HW131592   0.559   5.164   2.530
10231SOL    HW231593   0.676   5.051   2.509
10232SOL     OW31594   4.863   4.669   3.317
10232SOL    HW131595   4.855   4.609   3.237
10232SOL    HW231596   4.772   4.701   3.343
10233SOL     OW31597   2.742   4.204   5.675
10233SOL    HW131598   2.779   4.239   5.589
10233SOL    HW231599   2.774   4.260   5.751
10234SOL     OW31600   0.543   0.991   2.315
10234SOL    HW131601   0.548   1.058   2.241
10234SOL    HW231602   0.449   0.959   2.325
10235SOL     OW31603   1.473   0.957   2.965
10235SOL    HW131604   1.528   0.884   3.005
10235SOL    HW231605   1.534   1.026   2.924
10236SOL     OW31606   1.698   6.995   2.611
10236SOL    HW131607   1.651   0.051   2.655
10236SOL    HW231608   1.642   6.960   2.536
10237SOL     OW31609   0.535   3.493   4.688
10237SOL    HW131610   0.436   3.483   4.677
10237SOL    HW231611   0.554   3.573   4.745
10238SOL     OW31612   2.711   0.164   1.549
10238SOL    HW131613   2.753   0.127   1.466
10238SOL    HW231614   2.691   0.261   1.536
10239SOL     OW31615   0.653   1.843   4.299
10239SOL    HW131616   0.585   1.846   4.373
10239SOL    HW231617   0.733   1.792   4.330
10240SOL     OW31618   1.764   6.042   0.598
10240SOL    HW131619   1.669   6.014   0.614
10240SOL    HW231620   1.770   6.142   0.603
10241SOL     OW31621   4.469   2.901   1.372
10241SOL    HW131622   4.403   2.903   1.447
10241SOL    HW231623   4.423   2.924   1.286
10242SOL     OW31624   0.073   3.117   6.572
10242SOL    HW131625   0.106   3.040   6.627
10242SOL    HW231626   0.147   3.149   6.513
10243SOL     OW31627   2.944   6.318   1.827
10243SOL    HW131628   2.972   6.298   1.733
10243SOL    HW231629   2.932   6.416   1.837
10244SOL     OW31630   2.606   5.379   1.902
10244SOL    HW131631   2.583   5.319   1.825
10244SOL    HW231632   2.555   5.352   1.983
10245SOL     OW31633   4.910   4.378   0.921
10245SOL    HW131634   4.923   4.464   0.971
10245SOL    HW231635   4.860   4.313   0.978
10246SOL     OW31636   3.080   3.049   4.311
10246SOL    HW131637   3.033   3.006   4.234
10246SOL    HW231638   3.130   3.129   4.279
10247SOL     OW31639   0.699   3.023   4.642
10247SOL    HW131640   0.702   2.973   4.728
10247SOL    HW231641   0.666   2.963   4.569
10248SOL     OW31642   0.968   1.216   4.529
10248SOL    HW131643   0.903   1.148   4.497
10248SOL    HW231644   1.000   1.271   4.452
10249SOL     OW31645   2.511   5.278   5.946
10249SOL    HW131646   2.560   5.215   6.006
10249SOL    HW231647   2.562   5.363   5.939
10250SOL     OW31648   3.615   2.365   0.753
10250SOL    HW131649   3.617   2.464   0.738
10250SOL    HW231650   3.532   2.326   0.713
10251SOL     OW31651   1.626   0.210   4.338
10251SOL    HW131652   1.712   0.217   4.389
10251SOL    HW231653   1.550   0.208   4.402
10252SOL     OW31654   5.202   4.661   5.740
10252SOL    HW131655   5.108   4.692   5.723
10252SOL    HW231656   5.216   4.650   5.838
10253SOL     OW31657   3.992   6.048   6.456
10253SOL    HW131658   3.960   6.129   6.504
10253SOL    HW231659   3.987   6.064   6.357
10254SOL     OW31660   6.598   2.108   5.676
10254SOL    HW131661   6.614   2.175   5.604
10254SOL    HW231662   6.656   2.129   5.755
10255SOL     OW31663   3.961   4.351   1.695
10255SOL    HW131664   4.054   4.320   1.716
10255SOL    HW231665   3.895   4.288   1.737
10256SOL     OW31666   3.675   1.154   4.267
10256SOL    HW131667   3.711   1.236   4.224
10256SOL    HW231668   3.584   1.173   4.304
10257SOL     OW31669   4.037   5.827   3.138
10257SOL    HW131670   4.048   5.774   3.054
10257SOL    HW231671   3.988   5.912   3.118
10258SOL     OW31672   2.709   1.634   2.373
10258SOL    HW131673   2.628   1.583   2.402
10258SOL    HW231674   2.791   1.583   2.399
10259SOL     OW31675   1.875   4.074   3.828
10259SOL    HW131676   1.916   4.165   3.819
10259SOL    HW231677   1.776   4.081   3.816
10260SOL     OW31678   0.410   6.989   3.036
10260SOL    HW131679   0.471   0.033   3.082
10260SOL    HW231680   0.330   0.017   3.001
10261SOL     OW31681   0.182   3.728   0.693
10261SOL    HW131682   0.203   3.639   0.733
10261SOL    HW231683   0.215   3.801   0.754
10262SOL     OW31684   3.647   1.184   0.306
10262SOL    HW131685   3.726   1.244   0.296
10262SOL    HW231686   3.677   1.094   0.340
10263SOL     OW31687   5.506   0.333   2.585
10263SOL    HW131688   5.521   0.387   2.668
10263SOL    HW231689   5.447   0.255   2.607
10264SOL     OW31690   6.505   0.450   6.452
10264SOL    HW131691   6.533   0.545   6.468
10264SOL    HW231692   6.568   0.388   6.499
10265SOL     OW31693   1.849   2.199   1.031
10265SOL    HW131694   1.924   2.219   1.093
10265SOL    HW231695   1.762   2.215   1.077
10266SOL     OW31696   2.611   3.435   1.704
10266SOL    HW131697   2.670   3.506   1.743
10266SOL    HW231698   2.520   3.441   1.746
10267SOL     OW31699   6.060   0.298   0.836
10267SOL    HW131700   6.132   0.339   0.892
10267SOL    HW231701   5.977   0.354   0.842
10268SOL     OW31702   3.943   6.518   2.201
10268SOL    HW131703   3.870   6.497   2.137
10268SOL    HW231704   3.945   6.616   2.219
10269SOL     OW31705   2.461   2.010   1.033
10269SOL    HW131706   2.395   1.987   0.962
10269SOL    HW231707   2.529   2.074   0.996
10270SOL     OW31708   3.245   0.908   2.961
10270SOL    HW131709   3.253   0.909   3.061
10270SOL    HW231710   3.222   0.999   2.928
10271SOL     OW31711   1.656   1.634   6.647
10271SOL    HW131712   1.647   1.534   6.647
10271SOL    HW231713   1.624   1.670   6.734
10272SOL     OW31714   6.151   0.045   4.562
10272SOL    HW131715   6.171   0.119   4.498
10272SOL    HW231716   6.231   0.031   4.622
10273SOL     OW31717   2.362   5.301   3.666
10273SOL    HW131718   2.357   5.347   3.577
10273SOL    HW231719   2.455   5.309   3.703
10274SOL     OW31720   0.975   4.777   4.977
10274SOL    HW131721   1.003   4.869   4.950
10274SOL    HW231722   1.034   4.709   4.933
10275SOL     OW31723   6.561   0.278   1.853
10275SOL    HW131724   6.660   0.265   1.848
10275SOL    HW231725   6.538   0.328   1.937
10276SOL     OW31726   3.285   5.501   5.402
10276SOL    HW131727   3.320   5.516   5.494
10276SOL    HW231728   3.362   5.481   5.341
10277SOL     OW31729   0.986   5.695   3.934
10277SOL    HW131730   0.925   5.742   3.999
10277SOL    HW231731   0.939   5.683   3.847
10278SOL     OW31732   6.594   0.068   4.868
10278SOL    HW131733   6.658   0.103   4.800
10278SOL    HW231734   6.637   7.013   4.918
10279SOL     OW31735   1.402   6.021   3.739
10279SOL    HW131736   1.321   5.970   3.710
10279SOL    HW231737   1.472   5.958   3.772
10280SOL     OW31738   6.852   4.879   0.054
10280SOL    HW131739   6.803   4.809   0.105
10280SOL    HW231740   6.816   4.969   0.078
10281SOL     OW31741   6.097   1.170   3.694
10281SOL    HW131742   5.998   1.166   3.680
10281SOL    HW231743   6.116   1.189   3.790
10282SOL     OW31744   4.797   2.939   3.735
10282SOL    HW131745   4.841   2.912   3.821
10282SOL    HW231746   4.785   3.038   3.733
10283SOL     OW31747   1.046   3.063   0.805
10283SOL    HW131748   1.018   3.158   0.793
10283SOL    HW231749   0.990   3.004   0.746
10284SOL     OW31750   6.845   4.155   4.101
10284SOL    HW131751   6.772   4.087   4.108
10284SOL    HW231752   6.932   4.108   4.084
10285SOL     OW31753   6.344   6.517   5.579
10285SOL    HW131754   6.435   6.495   5.612
10285SOL    HW231755   6.277   6.501   5.652
10286SOL     OW31756   2.622   1.881   3.087
10286SOL    HW131757   2.589   1.787   3.099
10286SOL    HW231758   2.550   1.936   3.043
10287SOL     OW31759   1.425   5.910   2.602
10287SOL    HW131760   1.375   5.864   2.675
10287SOL    HW231761   1.519   5.928   2.632
10288SOL     OW31762   3.795   6.225   5.288
10288SOL    HW131763   3.746   6.305   5.253
10288SOL    HW231764   3.806   6.233   5.387
10289SOL     OW31765   3.499   5.968   0.081
10289SOL    HW131766   3.569   6.037   0.100
10289SOL    HW231767   3.528   5.880   0.118
10290SOL     OW31768   3.560   3.046   2.023
10290SOL    HW131769   3.612   3.056   1.938
10290SOL    HW231770   3.494   3.120   2.031
10291SOL     OW31771   2.164   1.828   2.075
10291SOL    HW131772   2.235   1.887   2.037
10291SOL    HW231773   2.115   1.782   2.001
10292SOL     OW31774   0.023   6.841   6.092
10292SOL    HW131775   0.075   6.886   6.020
10292SOL    HW231776   6.955   6.811   6.056
10293SOL     OW31777   1.369   4.306   4.907
10293SOL    HW131778   1.451   4.311   4.850
10293SOL    HW231779   1.340   4.398   4.933
10294SOL     OW31780   3.621   0.632   2.453
10294SOL    HW131781   3.581   0.541   2.446
10294SOL    HW231782   3.552   0.701   2.428
10295SOL     OW31783   1.251   1.425   6.227
10295SOL    HW131784   1.250   1.370   6.311
10295SOL    HW231785   1.343   1.460   6.211
10296SOL     OW31786   6.007   1.374   5.802
10296SOL    HW131787   5.964   1.295   5.845
10296SOL    HW231788   5.955   1.401   5.721
10297SOL     OW31789   3.356   1.524   0.419
10297SOL    HW131790   3.343   1.598   0.353
10297SOL    HW231791   3.280   1.524   0.484
10298SOL     OW31792   0.212   2.481   2.116
10298SOL    HW131793   0.237   2.559   2.059
10298SOL    HW231794   0.295   2.429   2.139
10299SOL     OW31795   4.637   6.790   2.663
10299SOL    HW131796   4.570   6.779   2.589
10299SOL    HW231797   4.629   6.882   2.702
10300SOL     OW31798   1.359   3.966   1.642
10300SOL    HW131799   1.423   3.920   1.704
10300SOL    HW231800   1.385   4.062   1.634
10301SOL     OW31801   3.464   0.840   0.279
10301SOL    HW131802   3.563   0.824   0.274
10301SOL    HW231803   3.429   0.808   0.367
10302SOL     OW31804   2.701   6.390   5.220
10302SOL    HW131805   2.733   6.336   5.298
10302SOL    HW231806   2.739   6.482   5.226
10303SOL     OW31807   0.452   5.043   4.785
10303SOL    HW131808   0.397   5.123   4.761
10303SOL    HW231809   0.464   4.985   4.705
10304SOL     OW31810   6.004   6.444   0.700
10304SOL    HW131811   6.043   6.390   0.625
10304SOL    HW231812   6.077   6.475   0.761
10305SOL     OW31813   3.153   4.076   6.013
10305SOL    HW131814   3.073   4.072   6.073
10305SOL    HW231815   3.159   3.991   5.959
10306SOL     OW31816   3.867   0.899   1.156
10306SOL    HW131817   3.938   0.909   1.085
10306SOL    HW231818   3.888   0.960   1.232
10307SOL     OW31819   1.760   0.106   5.748
10307SOL    HW131820   1.767   0.204   5.770
10307SOL    HW231821   1.675   0.070   5.787
10308SOL     OW31822   3.086   4.784   1.834
10308SOL    HW131823   3.108   4.750   1.743
10308SOL    HW231824   2.993   4.758   1.858
10309SOL     OW31825   0.279   0.964   5.569
10309SOL    HW131826   0.338   0.884   5.580
10309SOL    HW231827   0.312   1.020   5.493
10310SOL     OW31828   2.409   4.109   5.597
10310SOL    HW131829   2.482   4.068   5.651
10310SOL    HW231830   2.321   4.070   5.624
10311SOL     OW31831   5.249   5.045   6.843
10311SOL    HW131832   5.325   5.037   6.778
10311SOL    HW231833   5.285   5.071   6.932
10312SOL     OW31834   3.830   0.047   2.261
10312SOL    HW131835   3.823   0.139   2.224
10312SOL    HW231836   3.926   0.026   2.279
10313SOL     OW31837   5.254   6.454   2.672
10313SOL    HW131838   5.346   6.431   2.704
10313SOL    HW231839   5.226   6.541   2.712
10314SOL     OW31840   0.165   0.151   0.959
10314SOL    HW131841   0.095   0.132   0.891
10314SOL    HW231842   0.251   0.172   0.913
10315SOL     OW31843   5.599   5.263   3.575
10315SOL    HW131844   5.551   5.308   3.651
10315SOL    HW231845   5.654   5.188   3.611
10316SOL     OW31846   0.544   1.589   6.968
10316SOL    HW131847   0.626   1.646   6.971
10316SOL    HW231848   0.498   1.603   6.880
10317SOL     OW31849   3.099   6.295   5.089
10317SOL    HW131850   3.179   6.354   5.077
10317SOL    HW231851   3.100   6.223   5.020
10318SOL     OW31852   6.279   0.285   0.091
10318SOL    HW131853   6.188   0.292   0.050
10318SOL    HW231854   6.278   0.324   0.183
10319SOL     OW31855   0.667   4.455   4.044
10319SOL    HW131856   0.676   4.381   3.978
10319SOL    HW231857   0.586   4.509   4.023
10320SOL     OW31858   0.395   6.801   3.237
10320SOL    HW131859   0.463   6.730   3.220
10320SOL    HW231860   0.387   6.860   3.157
10321SOL     OW31861   5.355   2.839   2.256
10321SOL    HW131862   5.455   2.833   2.263
10321SOL    HW231863   5.315   2.833   2.347
10322SOL     OW31864   4.540   4.449   4.832
10322SOL    HW131865   4.487   4.404   4.760
10322SOL    HW231866   4.481   4.470   4.909
10323SOL     OW31867   0.888   4.108   6.173
10323SOL    HW131868   0.927   4.029   6.220
10323SOL    HW231869   0.935   4.121   6.086
10324SOL     OW31870   3.159   3.151   2.093
10324SOL    HW131871   3.193   3.062   2.122
10324SOL    HW231872   3.059   3.151   2.096
10325SOL     OW31873   6.378   5.663   4.066
10325SOL    HW131874   6.279   5.654   4.073
10325SOL    HW231875   6.405   5.758   4.080
10326SOL     OW31876   5.734   3.895   6.655
10326SOL    HW131877   5.687   3.817   6.696
10326SOL    HW231878   5.832   3.877   6.650
10327SOL     OW31879   2.330   4.953   0.344
10327SOL    HW131880   2.318   4.914   0.252
10327SOL    HW231881   2.428   4.960   0.364
10328SOL     OW31882   5.795   2.528   2.552
10328SOL    HW131883   5.776   2.624   2.531
10328SOL    HW231884   5.709   2.479   2.566
10329SOL     OW31885   3.512   2.093   2.924
10329SOL    HW131886   3.420   2.124   2.899
10329SOL    HW231887   3.577   2.122   2.855
10330SOL     OW31888   5.393   0.458   1.938
10330SOL    HW131889   5.338   0.537   1.964
10330SOL    HW231890   5.334   0.377   1.933
10331SOL     OW31891   6.298   5.995   5.830
10331SOL    HW131892   6.352   5.959   5.754
10331SOL    HW231893   6.235   6.064   5.797
10332SOL     OW31894   1.580   1.276   6.301
10332SOL    HW131895   1.524   1.351   6.339
10332SOL    HW231896   1.543   1.189   6.331
10333SOL     OW31897   1.476   3.809   4.110
10333SOL    HW131898   1.404   3.762   4.059
10333SOL    HW231899   1.553   3.747   4.124
10334SOL     OW31900   3.388   1.508   4.139
10334SOL    HW131901   3.296   1.539   4.161
10334SOL    HW231902   3.417   1.548   4.052
10335SOL     OW31903   1.110   2.289   5.103
10335SOL    HW131904   1.055   2.372   5.098
10335SOL    HW231905   1.183   2.294   5.035
10336SOL     OW31906   5.357   6.575   3.409
10336SOL    HW131907   5.445   6.554   3.452
10336SOL    HW231908   5.372   6.598   3.313
10337SOL     OW31909   6.578   5.684   6.909
10337SOL    HW131910   6.554   5.771   6.952
10337SOL    HW231911   6.631   5.703   6.826
10338SOL     OW31912   1.393   6.730   1.865
10338SOL    HW131913   1.388   6.754   1.962
10338SOL    HW231914   1.481   6.688   1.845
10339SOL     OW31915   6.035   2.617   5.979
10339SOL    HW131916   6.104   2.546   5.994
10339SOL    HW231917   6.002   2.651   6.067
10340SOL     OW31918   2.390   3.274   6.114
10340SOL    HW131919   2.366   3.268   6.211
10340SOL    HW231920   2.473   3.221   6.097
10341SOL     OW31921   2.074   3.950   3.095
10341SOL    HW131922   1.983   3.945   3.134
10341SOL    HW231923   2.128   4.019   3.144
10342SOL     OW31924   0.296   0.923   3.616
10342SOL    HW131925   0.389   0.956   3.631
10342SOL    HW231926   0.296   0.824   3.609
10343SOL     OW31927   3.572   5.808   1.668
10343SOL    HW131928   3.574   5.791   1.570
10343SOL    HW231929   3.476   5.810   1.699
10344SOL     OW31930   4.766   6.499   6.450
10344SOL    HW131931   4.729   6.525   6.540
10344SOL    HW231932   4.820   6.415   6.460
10345SOL     OW31933   1.818   3.436   4.196
10345SOL    HW131934   1.780   3.345   4.182
10345SOL    HW231935   1.904   3.430   4.247
10346SOL     OW31936   0.032   6.004   0.079
10346SOL    HW131937   0.080   6.086   0.050
10346SOL    HW231938   0.067   5.974   0.168
10347SOL     OW31939   5.098   1.975   5.013
10347SOL    HW131940   5.063   2.065   4.989
10347SOL    HW231941   5.027   1.906   4.996
10348SOL     OW31942   6.895   4.844   1.040
10348SOL    HW131943   6.990   4.818   1.061
10348SOL    HW231944   6.835   4.766   1.055
10349SOL     OW31945   0.659   7.009   5.863
10349SOL    HW131946   0.658   0.086   5.842
10349SOL    HW231947   0.569   6.969   5.843
10350SOL     OW31948   2.734   0.578   6.484
10350SOL    HW131949   2.784   0.570   6.570
10350SOL    HW231950   2.638   0.556   6.498
10351SOL     OW31951   3.909   5.405   6.401
10351SOL    HW131952   3.869   5.491   6.433
10351SOL    HW231953   4.005   5.418   6.379
10352SOL     OW31954   3.506   4.369   6.273
10352SOL    HW131955   3.427   4.332   6.223
10352SOL    HW231956   3.486   4.370   6.371
10353SOL     OW31957   1.094   3.126   4.894
10353SOL    HW131958   1.112   3.093   4.802
10353SOL    HW231959   1.002   3.166   4.898
10354SOL     OW31960   5.161   1.691   1.421
10354SOL    HW131961   5.158   1.790   1.406
10354SOL    HW231962   5.256   1.659   1.415
10355SOL     OW31963   1.212   5.201   2.945
10355SOL    HW131964   1.190   5.153   3.030
10355SOL    HW231965   1.251   5.290   2.966
10356SOL     OW31966   0.439   2.568   4.729
10356SOL    HW131967   0.493   2.575   4.645
10356SOL    HW231968   0.366   2.637   4.727
10357SOL     OW31969   3.236   2.423   6.982
10357SOL    HW131970   3.194   2.483   6.914
10357SOL    HW231971   3.206   2.449   0.053
10358SOL     OW31972   6.838   1.411   2.298
10358SOL    HW131973   6.928   1.386   2.263
10358SOL    HW231974   6.777   1.332   2.295
10359SOL     OW31975   0.495   1.479   1.051
10359SOL    HW131976   0.502   1.571   1.091
10359SOL    HW231977   0.479   1.487   0.953
10360SOL     OW31978   6.972   5.304   3.175
10360SOL    HW131979   0.035   5.357   3.163
10360SOL    HW231980   6.923   5.297   3.088
10361SOL     OW31981   1.715   5.311   1.763
10361SOL    HW131982   1.721   5.409   1.745
10361SOL    HW231983   1.619   5.286   1.775
10362SOL     OW31984   1.795   4.717   4.437
10362SOL    HW131985   1.823   4.639   4.380
10362SOL    HW231986   1.695   4.719   4.444
10363SOL     OW31987   5.711   6.974   3.673
10363SOL    HW131988   5.719   6.890   3.728
10363SOL    HW231989   5.614   6.991   3.653
10364SOL     OW31990   1.732   4.548   1.290
10364SOL    HW131991   1.779   4.634   1.270
10364SOL    HW231992   1.746   4.524   1.386
10365SOL     OW31993   4.717   5.910   0.249
10365SOL    HW131994   4.796   5.855   0.274
10365SOL    HW231995   4.645   5.851   0.212
10366SOL     OW31996   3.764   6.614   3.725
10366SOL    HW131997   3.811   6.603   3.812
10366SOL    HW231998   3.774   6.708   3.692
10367SOL     OW31999   6.482   1.763   3.279
10367SOL    HW132000   6.421   1.737   3.354
10367SOL    HW232001   6.497   1.683   3.221
10368SOL     OW32002   2.617   0.273   0.718
10368SOL    HW132003   2.572   0.356   0.750
10368SOL    HW232004   2.683   0.243   0.787
10369SOL     OW32005   4.370   2.819   7.009
10369SOL    HW132006   4.449   2.843   6.952
10369SOL    HW232007   4.332   2.902   0.030
10370SOL     OW32008   4.221   0.321   5.202
10370SOL    HW132009   4.142   0.370   5.238
10370SOL    HW232010   4.202   0.222   5.203
10371SOL     OW32011   5.235   6.667   5.616
10371SOL    HW132012   5.335   6.663   5.608
10371SOL    HW232013   5.208   6.626   5.704
10372SOL     OW32014   1.324   0.771   3.281
10372SOL    HW132015   1.272   0.785   3.197
10372SOL    HW232016   1.265   0.788   3.360
10373SOL     OW32017   1.608   5.154   5.036
10373SOL    HW132018   1.642   5.165   4.943
10373SOL    HW232019   1.531   5.217   5.052
10374SOL     OW32020   2.944   1.949   4.748
10374SOL    HW132021   2.985   1.860   4.728
10374SOL    HW232022   2.846   1.947   4.728
10375SOL     OW32023   0.227   1.791   0.521
10375SOL    HW132024   0.287   1.854   0.471
10375SOL    HW232025   0.231   1.700   0.479
10376SOL     OW32026   6.183   0.687   3.497
10376SOL    HW132027   6.157   0.609   3.440
10376SOL    HW232028   6.198   0.767   3.439
10377SOL     OW32029   0.658   6.478   4.477
10377SOL    HW132030   0.574   6.532   4.471
10377SOL    HW232031   0.635   6.381   4.475
10378SOL     OW32032   6.243   0.121   5.743
10378SOL    HW132033   6.244   0.084   5.650
10378SOL    HW232034   6.165   0.083   5.792
10379SOL     OW32035   4.718   1.874   4.642
10379SOL    HW132036   4.814   1.903   4.639
10379SOL    HW232037   4.685   1.859   4.549
10380SOL     OW32038   4.392   1.105   4.044
10380SOL    HW132039   4.295   1.119   4.064
10380SOL    HW232040   4.417   1.011   4.066
10381SOL     OW32041   4.377   5.724   4.814
10381SOL    HW132042   4.439   5.779   4.758
10381SOL    HW232043   4.367   5.767   4.904
10382SOL     OW32044   1.261   5.961   0.531
10382SOL    HW132045   1.169   5.945   0.569
10382SOL    HW232046   1.254   5.981   0.434
10383SOL     OW32047   5.504   2.351   0.024
10383SOL    HW132048   5.436   2.338   6.973
10383SOL    HW232049   5.462   2.334   0.113
10384SOL     OW32050   6.229   1.127   6.659
10384SOL    HW132051   6.312   1.072   6.648
10384SOL    HW232052   6.238   1.185   6.740
10385SOL     OW32053   6.226   2.447   6.855
10385SOL    HW132054   6.271   2.358   6.855
10385SOL    HW232055   6.185   2.464   6.944
10386SOL     OW32056   6.558   1.670   6.560
10386SOL    HW132057   6.594   1.640   6.471
10386SOL    HW232058   6.460   1.685   6.553
10387SOL     OW32059   1.433   3.900   2.371
10387SOL    HW132060   1.467   3.867   2.460
10387SOL    HW232061   1.434   3.825   2.305
10388SOL     OW32062   1.368   5.243   2.276
10388SOL    HW132063   1.429   5.185   2.221
10388SOL    HW232064   1.417   5.325   2.305
10389SOL     OW32065   0.571   5.798   3.638
10389SOL    HW132066   0.625   5.713   3.635
10389SOL    HW232067   0.631   5.874   3.661
10390SOL     OW32068   1.834   3.896   3.542
10390SOL    HW132069   1.860   3.819   3.601
10390SOL    HW232070   1.900   3.970   3.552
10391SOL     OW32071   3.285   6.297   4.582
10391SOL    HW132072   3.214   6.306   4.512
10391SOL    HW232073   3.287   6.204   4.617
10392SOL     OW32074   6.509   5.480   6.718
10392SOL    HW132075   6.463   5.401   6.758
10392SOL    HW232076   6.564   5.525   6.788
10393SOL     OW32077   0.517   1.070   3.943
10393SOL    HW132078   0.496   0.975   3.968
10393SOL    HW232079   0.443   1.129   3.975
10394SOL     OW32080   3.030   6.570   0.852
10394SOL    HW132081   3.027   6.594   0.949
10394SOL    HW232082   3.098   6.627   0.805
10395SOL     OW32083   1.590   1.459   4.979
10395SOL    HW132084   1.559   1.369   4.949
10395SOL    HW232085   1.580   1.466   5.079
10396SOL     OW32086   0.657   0.000   5.020
10396SOL    HW132087   0.620   0.033   4.933
10396SOL    HW232088   0.638   0.067   5.092
10397SOL     OW32089   4.394   1.752   2.681
10397SOL    HW132090   4.320   1.797   2.632
10397SOL    HW232091   4.478   1.804   2.671
10398SOL     OW32092   6.772   3.660   1.979
10398SOL    HW132093   6.758   3.759   1.970
10398SOL    HW232094   6.684   3.615   1.996
10399SOL     OW32095   6.075   2.378   5.628
10399SOL    HW132096   6.147   2.444   5.605
10399SOL    HW232097   6.088   2.295   5.573
10400SOL     OW32098   1.311   4.901   1.989
10400SOL    HW132099   1.255   4.852   2.056
10400SOL    HW232100   1.294   4.864   1.898
10401SOL     OW32101   0.936   5.395   0.942
10401SOL    HW132102   0.931   5.295   0.948
10401SOL    HW232103   0.890   5.435   1.021
10402SOL     OW32104   0.934   2.192   4.761
10402SOL    HW132105   0.956   2.144   4.846
10402SOL    HW232106   0.990   2.275   4.755
10403SOL     OW32107   5.475   0.898   2.223
10403SOL    HW132108   5.539   0.919   2.296
10403SOL    HW232109   5.517   0.918   2.134
10404SOL     OW32110   0.098   0.156   4.048
10404SOL    HW132111   0.193   0.137   4.023
10404SOL    HW232112   0.040   0.079   4.022
10405SOL     OW32113   2.537   6.503   6.649
10405SOL    HW132114   2.636   6.490   6.652
10405SOL    HW232115   2.492   6.415   6.634
10406SOL     OW32116   1.877   6.026   5.736
10406SOL    HW132117   1.824   5.953   5.779
10406SOL    HW232118   1.973   6.000   5.734
10407SOL     OW32119   1.948   1.241   6.204
10407SOL    HW132120   1.926   1.338   6.211
10407SOL    HW232121   2.045   1.229   6.183
10408SOL     OW32122   4.398   6.350   2.700
10408SOL    HW132123   4.336   6.428   2.701
10408SOL    HW232124   4.407   6.313   2.792
10409SOL     OW32125   6.856   4.674   2.806
10409SOL    HW132126   6.828   4.588   2.762
10409SOL    HW232127   6.867   4.745   2.736
10410SOL     OW32128   5.328   6.198   0.858
10410SOL    HW132129   5.380   6.196   0.773
10410SOL    HW232130   5.382   6.155   0.931
10411SOL     OW32131   1.441   4.768   2.295
10411SOL    HW132132   1.519   4.760   2.233
10411SOL    HW232133   1.473   4.759   2.390
10412SOL     OW32134   0.143   2.260   6.314
10412SOL    HW132135   0.211   2.315   6.266
10412SOL    HW232136   0.082   2.320   6.366
10413SOL     OW32137   0.359   1.862   5.281
10413SOL    HW132138   0.457   1.869   5.301
10413SOL    HW232139   0.341   1.774   5.237
10414SOL     OW32140   5.888   6.260   5.164
10414SOL    HW132141   5.816   6.307   5.215
10414SOL    HW232142   5.906   6.171   5.205
10415SOL     OW32143   6.812   5.734   3.061
10415SOL    HW132144   6.820   5.793   2.981
10415SOL    HW232145   6.904   5.705   3.090
10416SOL     OW32146   4.937   0.459   0.107
10416SOL    HW132147   4.930   0.454   0.206
10416SOL    HW232148   4.938   0.366   0.069
10417SOL     OW32149   4.505   4.542   3.986
10417SOL    HW132150   4.518   4.443   3.991
10417SOL    HW232151   4.509   4.581   4.078
10418SOL     OW32152   6.223   3.872   6.982
10418SOL    HW132153   6.303   3.814   6.995
10418SOL    HW232154   6.184   3.856   6.891
10419SOL     OW32155   2.014   0.446   4.400
10419SOL    HW132156   1.980   0.383   4.330
10419SOL    HW232157   1.959   0.529   4.399
10420SOL     OW32158   5.929   3.726   5.049
10420SOL    HW132159   5.892   3.645   5.004
10420SOL    HW232160   6.024   3.740   5.020
10421SOL     OW32161   1.267   4.168   4.258
10421SOL    HW132162   1.292   4.249   4.312
10421SOL    HW232163   1.182   4.129   4.293
10422SOL     OW32164   5.961   3.265   5.816
10422SOL    HW132165   5.894   3.312   5.758
10422SOL    HW232166   6.002   3.331   5.879
10423SOL     OW32167   3.051   5.174   3.020
10423SOL    HW132168   3.132   5.212   3.063
10423SOL    HW232169   3.014   5.100   3.076
10424SOL     OW32170   4.378   0.990   1.875
10424SOL    HW132171   4.359   0.903   1.830
10424SOL    HW232172   4.303   1.013   1.937
10425SOL     OW32173   1.339   3.939   0.219
10425SOL    HW132174   1.356   3.938   0.318
10425SOL    HW232175   1.420   3.906   0.171
10426SOL     OW32176   6.331   2.194   6.835
10426SOL    HW132177   6.357   2.164   6.926
10426SOL    HW232178   6.380   2.140   6.766
10427SOL     OW32179   5.686   0.825   4.005
10427SOL    HW132180   5.653   0.845   3.913
10427SOL    HW232181   5.608   0.816   4.068
10428SOL     OW32182   1.361   6.596   4.731
10428SOL    HW132183   1.281   6.537   4.724
10428SOL    HW232184   1.441   6.548   4.694
10429SOL     OW32185   2.298   4.328   1.588
10429SOL    HW132186   2.382   4.341   1.641
10429SOL    HW232187   2.252   4.245   1.618
10430SOL     OW32188   3.798   7.017   4.673
10430SOL    HW132189   3.783   0.056   4.753
10430SOL    HW232190   3.895   7.016   4.650
10431SOL     OW32191   3.976   1.835   4.235
10431SOL    HW132192   3.881   1.866   4.235
10431SOL    HW232193   3.981   1.741   4.268
10432SOL     OW32194   1.031   4.797   0.448
10432SOL    HW132195   1.093   4.852   0.504
10432SOL    HW232196   1.079   4.715   0.417
10433SOL     OW32197   3.631   6.583   4.435
10433SOL    HW132198   3.656   6.659   4.375
10433SOL    HW232199   3.714   6.536   4.465
10434SOL     OW32200   4.016   0.853   6.739
10434SOL    HW132201   4.045   0.864   6.644
10434SOL    HW232202   4.044   0.934   6.792
10435SOL     OW32203   2.439   1.448   1.425
10435SOL    HW132204   2.411   1.516   1.492
10435SOL    HW232205   2.404   1.474   1.335
10436SOL     OW32206   1.107   3.705   4.592
10436SOL    HW132207   1.182   3.672   4.650
10436SOL    HW232208   1.046   3.764   4.646
10437SOL     OW32209   0.040   6.207   4.677
10437SOL    HW132210   0.042   6.126   4.619
10437SOL    HW232211   0.132   6.225   4.712
10438SOL     OW32212   6.863   5.898   6.540
10438SOL    HW132213   6.852   5.997   6.529
10438SOL    HW232214   6.773   5.856   6.555
10439SOL     OW32215   6.207   5.488   4.584
10439SOL    HW132216   6.158   5.448   4.662
10439SOL    HW232217   6.305   5.486   4.602
10440SOL     OW32218   5.843   2.813   1.043
10440SOL    HW132219   5.905   2.776   0.974
10440SOL    HW232220   5.870   2.780   1.133
10441SOL     OW32221   4.437   2.095   7.013
10441SOL    HW132222   4.344   2.128   0.006
10441SOL    HW232223   4.436   2.001   6.979
10442SOL     OW32224   2.818   1.053   5.021
10442SOL    HW132225   2.884   0.984   4.993
10442SOL    HW232226   2.727   1.011   5.029
10443SOL     OW32227   0.558   0.446   0.126
10443SOL    HW132228   0.526   0.516   0.062
10443SOL    HW232229   0.566   0.486   0.217
10444SOL     OW32230   4.568   4.904   3.942
10444SOL    HW132231   4.473   4.910   3.973
10444SOL    HW232232   4.572   4.916   3.842
10445SOL     OW32233   1.001   3.627   3.634
10445SOL    HW132234   1.092   3.595   3.608
10445SOL    HW232235   0.936   3.603   3.562
10446SOL     OW32236   2.384   4.995   4.626
10446SOL    HW132237   2.331   4.915   4.653
10446SOL    HW232238   2.467   5.000   4.682
10447SOL     OW32239   0.911   1.873   2.838
10447SOL    HW132240   0.820   1.853   2.874
10447SOL    HW232241   0.906   1.955   2.780
10448SOL     OW32242   1.118   6.014   2.465
10448SOL    HW132243   1.197   5.954   2.466
10448SOL    HW232244   1.039   5.964   2.429
10449SOL     OW32245   3.714   4.954   4.547
10449SOL    HW132246   3.798   4.913   4.583
10449SOL    HW232247   3.726   4.973   4.449
10450SOL     OW32248   0.825   2.134   3.993
10450SOL    HW132249   0.861   2.049   3.953
10450SOL    HW232250   0.733   2.151   3.956
10451SOL     OW32251   3.025   2.219   4.113
10451SOL    HW132252   2.997   2.195   4.207
10451SOL    HW232253   3.122   2.199   4.101
10452SOL     OW32254   6.887   2.973   4.875
10452SOL    HW132255   6.927   3.005   4.790
10452SOL    HW232256   6.831   3.045   4.915
10453SOL     OW32257   3.850   5.006   4.038
10453SOL    HW132258   3.934   5.052   4.069
10453SOL    HW232259   3.808   5.060   3.965
10454SOL     OW32260   6.442   0.952   6.674
10454SOL    HW132261   6.432   0.917   6.767
10454SOL    HW232262   6.488   0.883   6.618
10455SOL     OW32263   0.387   6.005   2.540
10455SOL    HW132264   0.424   5.960   2.459
10455SOL    HW232265   0.369   6.101   2.519
10456SOL     OW32266   1.347   5.290   6.304
10456SOL    HW132267   1.404   5.311   6.384
10456SOL    HW232268   1.389   5.330   6.223
10457SOL     OW32269   4.112   1.594   0.338
10457SOL    HW132270   4.186   1.658   0.361
10457SOL    HW232271   4.149   1.518   0.286
10458SOL     OW32272   1.197   6.088   0.046
10458SOL    HW132273   1.120   6.152   0.047
10458SOL    HW232274   1.282   6.140   0.031
10459SOL     OW32275   6.116   6.145   1.066
10459SOL    HW132276   6.070   6.056   1.067
10459SOL    HW232277   6.087   6.198   1.146
10460SOL     OW32278   6.144   0.702   6.982
10460SOL    HW132279   6.148   0.623   6.919
10460SOL    HW232280   6.064   0.757   6.960
10461SOL     OW32281   0.222   4.442   6.091
10461SOL    HW132282   0.166   4.396   6.022
10461SOL    HW232283   0.169   4.516   6.133
10462SOL     OW32284   3.537   3.681   6.380
10462SOL    HW132285   3.514   3.595   6.426
10462SOL    HW232286   3.623   3.671   6.331
10463SOL     OW32287   4.728   2.674   6.311
10463SOL    HW132288   4.685   2.762   6.288
10463SOL    HW232289   4.824   2.676   6.286
10464SOL     OW32290   6.557   4.291   1.945
10464SOL    HW132291   6.540   4.253   2.036
10464SOL    HW232292   6.653   4.320   1.938
10465SOL     OW32293   5.929   4.272   1.774
10465SOL    HW132294   6.006   4.336   1.771
10465SOL    HW232295   5.924   4.231   1.865
10466SOL     OW32296   5.662   3.776   5.524
10466SOL    HW132297   5.683   3.824   5.439
10466SOL    HW232298   5.610   3.836   5.585
10467SOL     OW32299   0.077   2.906   6.756
10467SOL    HW132300   0.161   2.866   6.719
10467SOL    HW232301   0.043   2.849   6.831
10468SOL     OW32302   1.603   4.133   3.805
10468SOL    HW132303   1.587   4.208   3.742
10468SOL    HW232304   1.602   4.167   3.899
10469SOL     OW32305   1.190   1.751   3.748
10469SOL    HW132306   1.260   1.679   3.751
10469SOL    HW232307   1.230   1.838   3.777
10470SOL     OW32308   2.282   3.990   1.943
10470SOL    HW132309   2.316   4.084   1.938
10470SOL    HW232310   2.341   3.930   1.888
10471SOL     OW32311   2.681   4.868   6.817
10471SOL    HW132312   2.605   4.915   6.771
10471SOL    HW232313   2.716   4.926   6.891
10472SOL     OW32314   4.153   5.439   6.254
10472SOL    HW132315   4.232   5.496   6.276
10472SOL    HW232316   4.177   5.343   6.265
10473SOL     OW32317   6.378   5.258   6.859
10473SOL    HW132318   6.329   5.213   6.934
10473SOL    HW232319   6.331   5.238   6.773
10474SOL     OW32320   6.453   6.783   5.242
10474SOL    HW132321   6.381   6.736   5.293
10474SOL    HW232322   6.412   6.831   5.164
10475SOL     OW32323   0.579   4.975   1.582
10475SOL    HW132324   0.524   5.032   1.643
10475SOL    HW232325   0.675   5.002   1.588
10476SOL     OW32326   5.143   6.583   1.277
10476SOL    HW132327   5.128   6.573   1.375
10476SOL    HW232328   5.064   6.627   1.235
10477SOL     OW32329   6.889   5.678   3.627
10477SOL    HW132330   6.952   5.627   3.686
10477SOL    HW232331   6.842   5.615   3.566
10478SOL     OW32332   0.102   0.788   6.468
10478SOL    HW132333   0.113   0.709   6.528
10478SOL    HW232334   0.038   0.766   6.394
10479SOL     OW32335   0.672   3.364   1.740
10479SOL    HW132336   0.683   3.411   1.827
10479SOL    HW232337   0.725   3.410   1.669
10480SOL     OW32338   2.496   0.854   3.040
10480SOL    HW132339   2.557   0.868   2.962
10480SOL    HW232340   2.414   0.911   3.030
10481SOL     OW32341   6.695   1.497   1.295
10481SOL    HW132342   6.666   1.507   1.390
10481SOL    HW232343   6.776   1.438   1.291
10482SOL     OW32344   5.166   3.903   4.615
10482SOL    HW132345   5.148   3.993   4.655
10482SOL    HW232346   5.170   3.835   4.688
10483SOL     OW32347   6.040   0.166   6.780
10483SOL    HW132348   6.038   0.102   6.704
10483SOL    HW232349   5.951   0.210   6.789
10484SOL     OW32350   6.471   0.528   1.558
10484SOL    HW132351   6.550   0.496   1.611
10484SOL    HW232352   6.390   0.529   1.617
10485SOL     OW32353   5.429   3.145   4.967
10485SOL    HW132354   5.423   3.216   5.037
10485SOL    HW232355   5.385   3.176   4.884
10486SOL     OW32356   5.334   2.669   2.948
10486SOL    HW132357   5.424   2.712   2.945
10486SOL    HW232358   5.325   2.605   2.872
10487SOL     OW32359   4.522   6.958   2.160
10487SOL    HW132360   4.616   6.978   2.188
10487SOL    HW232361   4.524   6.907   2.074
10488SOL     OW32362   3.650   4.197   6.652
10488SOL    HW132363   3.619   4.105   6.677
10488SOL    HW232364   3.693   4.239   6.732
10489SOL     OW32365   1.652   5.308   4.813
10489SOL    HW132366   1.690   5.275   4.727
10489SOL    HW232367   1.704   5.387   4.845
10490SOL     OW32368   6.094   0.105   3.966
10490SOL    HW132369   6.059   0.122   4.057
10490SOL    HW232370   6.018   0.097   3.901
10491SOL     OW32371   0.375   5.075   5.062
10491SOL    HW132372   0.418   5.040   4.979
10491SOL    HW232373   0.280   5.041   5.067
10492SOL     OW32374   4.117   4.547   5.692
10492SOL    HW132375   4.204   4.576   5.654
10492SOL    HW232376   4.069   4.491   5.624
10493SOL     OW32377   3.855   1.493   0.842
10493SOL    HW132378   3.880   1.396   0.838
10493SOL    HW232379   3.787   1.506   0.914
10494SOL     OW32380   5.597   1.635   6.008
10494SOL    HW132381   5.549   1.715   6.045
10494SOL    HW232382   5.659   1.664   5.935
10495SOL     OW32383   1.576   6.824   6.451
10495SOL    HW132384   1.626   6.770   6.520
10495SOL    HW232385   1.560   6.916   6.487
10496SOL     OW32386   6.364   0.402   5.488
10496SOL    HW132387   6.343   0.386   5.584
10496SOL    HW232388   6.395   0.496   5.475
10497SOL     OW32389   1.419   1.729   6.546
10497SOL    HW132390   1.440   1.787   6.468
10497SOL    HW232391   1.503   1.695   6.587
10498SOL     OW32392   3.035   4.784   5.967
10498SOL    HW132393   2.985   4.810   6.050
10498SOL    HW232394   3.121   4.834   5.962
10499SOL     OW32395   3.097   6.060   3.124
10499SOL    HW132396   3.022   5.995   3.125
10499SOL    HW232397   3.181   6.015   3.156
10500SOL     OW32398   2.128   2.105   6.759
10500SOL    HW132399   2.072   2.103   6.677
10500SOL    HW232400   2.126   2.196   6.799
10501SOL     OW32401   1.092   3.799   3.078
10501SOL    HW132402   1.140   3.882   3.050
10501SOL    HW232403   1.154   3.742   3.133
10502SOL     OW32404   2.955   5.404   5.095
10502SOL    HW132405   2.948   5.316   5.048
10502SOL    HW232406   3.017   5.396   5.172
10503SOL     OW32407   2.855   2.996   5.542
10503SOL    HW132408   2.790   3.038   5.478
10503SOL    HW232409   2.946   3.033   5.526
10504SOL     OW32410   2.175   3.396   1.164
10504SOL    HW132411   2.246   3.440   1.109
10504SOL    HW232412   2.121   3.465   1.211
10505SOL     OW32413   0.416   6.655   0.545
10505SOL    HW132414   0.475   6.736   0.544
10505SOL    HW232415   0.354   6.659   0.624
10506SOL     OW32416   0.401   3.983   5.147
10506SOL    HW132417   0.410   3.981   5.048
10506SOL    HW232418   0.307   4.009   5.172
10507SOL     OW32419   1.869   0.349   3.601
10507SOL    HW132420   1.916   0.271   3.644
10507SOL    HW232421   1.924   0.432   3.614
10508SOL     OW32422   5.654   3.573   2.568
10508SOL    HW132423   5.621   3.651   2.515
10508SOL    HW232424   5.697   3.606   2.652
10509SOL     OW32425   2.323   0.722   6.012
10509SOL    HW132426   2.386   0.690   6.082
10509SOL    HW232427   2.337   0.820   5.996
10510SOL     OW32428   5.944   6.875   6.741
10510SOL    HW132429   5.929   6.797   6.802
10510SOL    HW232430   5.874   6.945   6.759
10511SOL     OW32431   0.737   2.240   0.702
10511SOL    HW132432   0.767   2.294   0.781
10511SOL    HW232433   0.755   2.290   0.618
10512SOL     OW32434   2.452   0.405   6.304
10512SOL    HW132435   2.462   0.458   6.388
10512SOL    HW232436   2.472   0.309   6.323
10513SOL     OW32437   0.253   1.999   0.204
10513SOL    HW132438   0.270   2.086   0.158
10513SOL    HW232439   0.195   2.015   0.285
10514SOL     OW32440   0.605   2.851   1.505
10514SOL    HW132441   0.577   2.888   1.416
10514SOL    HW232442   0.618   2.927   1.569
10515SOL     OW32443   6.234   2.975   4.201
10515SOL    HW132444   6.212   2.878   4.197
10515SOL    HW232445   6.294   2.999   4.125
10516SOL     OW32446   2.527   6.627   0.824
10516SOL    HW132447   2.602   6.693   0.825
10516SOL    HW232448   2.461   6.653   0.753
10517SOL     OW32449   0.369   2.279   2.930
10517SOL    HW132450   0.274   2.304   2.917
10517SOL    HW232451   0.429   2.354   2.902
10518SOL     OW32452   0.503   6.511   2.587
10518SOL    HW132453   0.556   6.482   2.508
10518SOL    HW232454   0.562   6.513   2.668
10519SOL     OW32455   3.569   3.869   5.413
10519SOL    HW132456   3.571   3.950   5.472
10519SOL    HW232457   3.516   3.890   5.330
10520SOL     OW32458   3.316   4.752   6.656
10520SOL    HW132459   3.293   4.779   6.749
10520SOL    HW232460   3.359   4.662   6.657
10521SOL     OW32461   6.147   5.042   1.871
10521SOL    HW132462   6.196   5.091   1.798
10521SOL    HW232463   6.051   5.033   1.845
10522SOL     OW32464   6.642   0.104   2.283
10522SOL    HW132465   6.694   0.032   2.236
10522SOL    HW232466   6.544   0.086   2.274
10523SOL     OW32467   7.008   5.778   5.591
10523SOL    HW132468   0.070   5.745   5.545
10523SOL    HW232469   0.003   5.782   5.690
10524SOL     OW32470   4.667   0.357   4.342
10524SOL    HW132471   4.722   0.291   4.292
10524SOL    HW232472   4.577   0.365   4.299
10525SOL     OW32473   2.882   6.162   4.696
10525SOL    HW132474   2.886   6.108   4.612
10525SOL    HW232475   2.823   6.116   4.762
10526SOL     OW32476   5.329   6.990   2.446
10526SOL    HW132477   5.320   0.000   2.352
10526SOL    HW232478   5.241   7.000   2.493
10527SOL     OW32479   1.473   2.789   4.467
10527SOL    HW132480   1.495   2.838   4.551
10527SOL    HW232481   1.403   2.839   4.416
10528SOL     OW32482   6.090   5.157   5.479
10528SOL    HW132483   6.169   5.216   5.491
10528SOL    HW232484   6.006   5.207   5.502
10529SOL     OW32485   0.061   5.996   4.511
10529SOL    HW132486   0.056   5.899   4.486
10529SOL    HW232487   0.144   6.036   4.471
10530SOL     OW32488   1.851   1.360   5.499
10530SOL    HW132489   1.840   1.278   5.443
10530SOL    HW232490   1.776   1.423   5.479
10531SOL     OW32491   1.648   1.953   5.177
10531SOL    HW132492   1.588   2.031   5.196
10531SOL    HW232493   1.593   1.872   5.160
10532SOL     OW32494   3.072   3.080   4.918
10532SOL    HW132495   3.123   3.017   4.977
10532SOL    HW232496   3.124   3.097   4.834
10533SOL     OW32497   2.964   1.044   6.652
10533SOL    HW132498   2.880   1.092   6.626
10533SOL    HW232499   3.040   1.110   6.656
10534SOL     OW32500   5.572   5.380   1.168
10534SOL    HW132501   5.587   5.421   1.258
10534SOL    HW232502   5.592   5.282   1.173
10535SOL     OW32503   0.095   1.031   1.397
10535SOL    HW132504   0.073   0.951   1.341
10535SOL    HW232505   0.069   1.014   1.492
10536SOL     OW32506   5.642   5.669   3.430
10536SOL    HW132507   5.723   5.653   3.374
10536SOL    HW232508   5.573   5.600   3.409
10537SOL     OW32509   6.604   5.444   0.787
10537SOL    HW132510   6.536   5.412   0.854
10537SOL    HW232511   6.558   5.467   0.701
10538SOL     OW32512   4.161   4.184   0.065
10538SOL    HW132513   4.205   4.099   0.094
10538SOL    HW232514   4.079   4.200   0.120
10539SOL     OW32515   1.268   3.221   5.093
10539SOL    HW132516   1.216   3.180   5.018
10539SOL    HW232517   1.319   3.150   5.141
10540SOL     OW32518   3.309   0.623   0.446
10540SOL    HW132519   3.404   0.595   0.432
10540SOL    HW232520   3.278   0.590   0.535
10541SOL     OW32521   4.286   2.860   0.631
10541SOL    HW132522   4.266   2.772   0.675
10541SOL    HW232523   4.335   2.919   0.695
10542SOL     OW32524   1.158   2.342   0.188
10542SOL    HW132525   1.174   2.413   0.256
10542SOL    HW232526   1.193   2.371   0.099
10543SOL     OW32527   3.013   0.603   5.050
10543SOL    HW132528   3.078   0.530   5.070
10543SOL    HW232529   2.956   0.620   5.130
10544SOL     OW32530   6.707   2.270   1.552
10544SOL    HW132531   6.646   2.221   1.614
10544SOL    HW232532   6.801   2.239   1.566
10545SOL     OW32533   4.698   1.307   2.617
10545SOL    HW132534   4.658   1.278   2.530
10545SOL    HW232535   4.777   1.366   2.599
10546SOL     OW32536   4.156   1.224   5.487
10546SOL    HW132537   4.104   1.258   5.408
10546SOL    HW232538   4.125   1.271   5.570
10547SOL     OW32539   4.689   6.921   1.467
10547SOL    HW132540   4.749   6.985   1.516
10547SOL    HW232541   4.687   6.834   1.517
10548SOL     OW32542   4.366   4.791   5.391
10548SOL    HW132543   4.267   4.783   5.408
10548SOL    HW232544   4.416   4.749   5.466
10549SOL     OW32545   1.042   1.552   1.768
10549SOL    HW132546   1.012   1.644   1.793
10549SOL    HW232547   0.980   1.484   1.807
10550SOL     OW32548   5.309   6.431   4.547
10550SOL    HW132549   5.264   6.375   4.478
10550SOL    HW232550   5.240   6.479   4.601
10551SOL     OW32551   0.969   2.489   5.913
10551SOL    HW132552   0.882   2.517   5.954
10551SOL    HW232553   0.990   2.395   5.940
10552SOL     OW32554   2.948   2.209   4.815
10552SOL    HW132555   3.009   2.226   4.892
10552SOL    HW232556   2.956   2.114   4.786
10553SOL     OW32557   2.870   5.223   5.775
10553SOL    HW132558   2.822   5.183   5.853
10553SOL    HW232559   2.834   5.314   5.757
10554SOL     OW32560   6.734   4.208   6.021
10554SOL    HW132561   6.665   4.135   6.017
10554SOL    HW232562   6.803   4.185   6.090
10555SOL     OW32563   3.632   2.933   1.366
10555SOL    HW132564   3.557   2.946   1.431
10555SOL    HW232565   3.632   2.838   1.334
10556SOL     OW32566   1.351   3.600   3.726
10556SOL    HW132567   1.441   3.572   3.759
10556SOL    HW232568   1.299   3.642   3.801
10557SOL     OW32569   5.457   1.200   3.449
10557SOL    HW132570   5.521   1.142   3.399
10557SOL    HW232571   5.447   1.288   3.402
10558SOL     OW32572   5.201   5.912   5.019
10558SOL    HW132573   5.137   5.958   4.958
10558SOL    HW232574   5.294   5.927   4.988
10559SOL     OW32575   4.306   2.557   0.807
10559SOL    HW132576   4.268   2.641   0.845
10559SOL    HW232577   4.315   2.488   0.879
10560SOL     OW32578   6.987   2.567   4.356
10560SOL    HW132579   6.918   2.536   4.291
10560SOL    HW232580   0.057   2.565   4.313
10561SOL     OW32581   2.681   4.068   6.400
10561SOL    HW132582   2.588   4.102   6.419
10561SOL    HW232583   2.733   4.066   6.485
10562SOL     OW32584   3.215   1.789   0.559
10562SOL    HW132585   3.123   1.787   0.520
10562SOL    HW232586   3.252   1.697   0.563
10563SOL     OW32587   1.555   2.275   2.950
10563SOL    HW132588   1.615   2.242   2.877
10563SOL    HW232589   1.530   2.199   3.010
10564SOL     OW32590   6.890   2.151   2.089
10564SOL    HW132591   6.922   2.231   2.140
10564SOL    HW232592   6.951   2.134   2.012
10565SOL     OW32593   5.102   1.595   4.792
10565SOL    HW132594   5.194   1.603   4.830
10565SOL    HW232595   5.108   1.584   4.692
10566SOL     OW32596   4.533   5.236   0.029
10566SOL    HW132597   4.601   5.296   7.006
10566SOL    HW232598   4.453   5.291   0.055
10567SOL     OW32599   2.122   5.439   3.891
10567SOL    HW132600   2.185   5.513   3.918
10567SOL    HW232601   2.125   5.428   3.792
10568SOL     OW32602   3.734   1.746   2.722
10568SOL    HW132603   3.679   1.792   2.791
10568SOL    HW232604   3.739   1.649   2.743
10569SOL     OW32605   6.213   3.078   3.414
10569SOL    HW132606   6.155   3.022   3.474
10569SOL    HW232607   6.184   3.067   3.319
10570SOL     OW32608   1.183   4.142   1.161
10570SOL    HW132609   1.188   4.242   1.156
10570SOL    HW232610   1.263   4.102   1.116
10571SOL     OW32611   6.366   6.723   4.860
10571SOL    HW132612   6.289   6.666   4.887
10571SOL    HW232613   6.363   6.810   4.910
10572SOL     OW32614   6.575   3.332   1.745
10572SOL    HW132615   6.569   3.280   1.660
10572SOL    HW232616   6.644   3.404   1.736
10573SOL     OW32617   6.130   4.500   6.055
10573SOL    HW132618   6.082   4.456   6.131
10573SOL    HW232619   6.223   4.462   6.049
10574SOL     OW32620   0.467   2.260   3.457
10574SOL    HW132621   0.533   2.193   3.424
10574SOL    HW232622   0.456   2.333   3.390
10575SOL     OW32623   1.123   6.899   5.873
10575SOL    HW132624   1.113   6.976   5.811
10575SOL    HW232625   1.196   6.918   5.939
10576SOL     OW32626   1.330   5.570   3.053
10576SOL    HW132627   1.230   5.578   3.048
10576SOL    HW232628   1.356   5.544   3.146
10577SOL     OW32629   0.407   2.399   5.864
10577SOL    HW132630   0.418   2.461   5.786
10577SOL    HW232631   0.310   2.387   5.883
10578SOL     OW32632   5.648   1.104   5.366
10578SOL    HW132633   5.663   1.007   5.350
10578SOL    HW232634   5.555   1.119   5.398
10579SOL     OW32635   5.416   6.928   0.701
10579SOL    HW132636   5.358   6.852   0.671
10579SOL    HW232637   5.450   6.978   0.622
10580SOL     OW32638   0.139   5.895   0.316
10580SOL    HW132639   0.238   5.903   0.322
10580SOL    HW232640   0.100   5.887   0.408
10581SOL     OW32641   4.609   2.287   3.896
10581SOL    HW132642   4.689   2.257   3.844
10581SOL    HW232643   4.639   2.327   3.983
10582SOL     OW32644   3.289   4.767   0.218
10582SOL    HW132645   3.348   4.847   0.212
10582SOL    HW232646   3.325   4.694   0.160
10583SOL     OW32647   4.723   0.948   1.691
10583SOL    HW132648   4.775   1.006   1.627
10583SOL    HW232649   4.779   0.871   1.719
10584SOL     OW32650   6.046   6.825   1.144
10584SOL    HW132651   6.106   6.753   1.181
10584SOL    HW232652   6.096   6.912   1.143
10585SOL     OW32653   2.481   4.655   6.442
10585SOL    HW132654   2.464   4.746   6.479
10585SOL    HW232655   2.516   4.662   6.349
10586SOL     OW32656   5.178   1.706   1.108
10586SOL    HW132657   5.150   1.771   1.038
10586SOL    HW232658   5.099   1.651   1.136
10587SOL     OW32659   5.913   2.882   0.094
10587SOL    HW132660   5.832   2.842   0.052
10587SOL    HW232661   5.979   2.906   0.023
10588SOL     OW32662   1.483   5.126   3.192
10588SOL    HW132663   1.519   5.174   3.112
10588SOL    HW232664   1.543   5.050   3.215
10589SOL     OW32665   5.553   1.600   4.125
10589SOL    HW132666   5.594   1.680   4.168
10589SOL    HW232667   5.624   1.547   4.079
10590SOL     OW32668   1.351   0.208   4.946
10590SOL    HW132669   1.271   0.237   5.000
10590SOL    HW232670   1.430   0.200   5.006
10591SOL     OW32671   1.909   2.487   1.320
10591SOL    HW132672   1.820   2.444   1.333
10591SOL    HW232673   1.973   2.421   1.283
10592SOL     OW32674   6.358   1.238   6.893
10592SOL    HW132675   6.356   1.244   6.993
10592SOL    HW232676   6.450   1.214   6.863
10593SOL     OW32677   1.095   4.822   1.572
10593SOL    HW132678   1.070   4.725   1.572
10593SOL    HW232679   1.039   4.870   1.639
10594SOL     OW32680   1.106   1.370   4.360
10594SOL    HW132681   1.190   1.390   4.409
10594SOL    HW232682   1.107   1.416   4.271
10595SOL     OW32683   2.454   5.655   4.851
10595SOL    HW132684   2.528   5.588   4.851
10595SOL    HW232685   2.398   5.645   4.769
10596SOL     OW32686   3.279   0.961   2.010
10596SOL    HW132687   3.346   0.948   1.937
10596SOL    HW232688   3.228   1.045   1.994
10597SOL     OW32689   1.497   0.956   4.165
10597SOL    HW132690   1.536   0.890   4.101
10597SOL    HW232691   1.405   0.925   4.193
10598SOL     OW32692   1.836   1.078   0.459
10598SOL    HW132693   1.766   1.145   0.482
10598SOL    HW232694   1.925   1.124   0.451
10599SOL     OW32695   5.202   0.570   6.672
10599SOL    HW132696   5.105   0.573   6.651
10599SOL    HW232697   5.254   0.611   6.596
10600SOL     OW32698   1.482   2.482   5.441
10600SOL    HW132699   1.457   2.500   5.346
10600SOL    HW232700   1.571   2.523   5.460
10601SOL     OW32701   3.065   6.198   5.378
10601SOL    HW132702   3.153   6.150   5.383
10601SOL    HW232703   3.042   6.215   5.282
10602SOL     OW32704   4.660   1.194   1.351
10602SOL    HW132705   4.712   1.280   1.356
10602SOL    HW232706   4.653   1.165   1.255
10603SOL     OW32707   0.985   5.542   4.992
10603SOL    HW132708   0.946   5.497   5.073
10603SOL    HW232709   0.974   5.641   5.000
10604SOL     OW32710   6.990   3.982   5.483
10604SOL    HW132711   6.965   3.974   5.579
10604SOL    HW232712   6.974   4.075   5.451
10605SOL     OW32713   2.038   5.223   6.458
10605SOL    HW132714   2.041   5.314   6.500
10605SOL    HW232715   1.947   5.207   6.422
10606SOL     OW32716   0.057   1.181   2.326
10606SOL    HW132717   0.091   1.231   2.246
10606SOL    HW232718   7.019   1.105   2.296
10607SOL     OW32719   5.911   4.498   6.549
10607SOL    HW132720   5.969   4.567   6.593
10607SOL    HW232721   5.815   4.525   6.557
10608SOL     OW32722   5.590   0.166   3.042
10608SOL    HW132723   5.540   0.142   2.959
10608SOL    HW232724   5.669   0.222   3.019
10609SOL     OW32725   3.661   6.970   2.738
10609SOL    HW132726   3.571   6.928   2.732
10609SOL    HW232727   3.731   6.900   2.725
10610SOL     OW32728   2.315   4.449   4.546
10610SOL    HW132729   2.394   4.497   4.585
10610SOL    HW232730   2.231   4.492   4.578
10611SOL     OW32731   4.655   2.421   6.206
10611SOL    HW132732   4.678   2.506   6.253
10611SOL    HW232733   4.605   2.360   6.268
10612SOL     OW32734   1.474   0.361   1.075
10612SOL    HW132735   1.545   0.430   1.059
10612SOL    HW232736   1.517   0.274   1.099
10613SOL     OW32737   0.570   6.633   6.898
10613SOL    HW132738   0.601   6.693   6.972
10613SOL    HW232739   0.498   6.678   6.846
10614SOL     OW32740   6.636   0.527   3.077
10614SOL    HW132741   6.599   0.440   3.045
10614SOL    HW232742   6.618   0.537   3.175
10615SOL     OW32743   6.927   6.350   5.155
10615SOL    HW132744   6.871   6.429   5.182
10615SOL    HW232745   7.012   6.350   5.209
10616SOL     OW32746   2.552   5.658   1.208
10616SOL    HW132747   2.488   5.644   1.133
10616SOL    HW232748   2.553   5.577   1.267
10617SOL     OW32749   0.268   1.556   0.024
10617SOL    HW132750   0.355   1.599   0.003
10617SOL    HW232751   0.200   1.626   0.047
10618SOL     OW32752   6.487   3.897   0.907
10618SOL    HW132753   6.500   3.854   0.818
10618SOL    HW232754   6.531   3.842   0.978
10619SOL     OW32755   0.932   4.126   3.283
10619SOL    HW132756   1.030   4.103   3.276
10619SOL    HW232757   0.916   4.216   3.242
10620SOL     OW32758   1.269   5.294   3.921
10620SOL    HW132759   1.344   5.277   3.985
10620SOL    HW232760   1.306   5.301   3.828
10621SOL     OW32761   3.618   6.224   0.750
10621SOL    HW132762   3.615   6.126   0.734
10621SOL    HW232763   3.526   6.260   0.758
10622SOL     OW32764   4.386   1.997   0.640
10622SOL    HW132765   4.342   1.922   0.689
10622SOL    HW232766   4.476   1.967   0.608
10623SOL     OW32767   6.875   0.794   4.247
10623SOL    HW132768   6.804   0.843   4.298
10623SOL    HW232769   6.963   0.839   4.260
10624SOL     OW32770   2.855   0.975   3.750
10624SOL    HW132771   2.820   1.059   3.793
10624SOL    HW232772   2.922   1.000   3.680
10625SOL     OW32773   0.785   2.835   0.041
10625SOL    HW132774   0.877   2.803   0.063
10625SOL    HW232775   0.768   2.923   0.087
10626SOL     OW32776   5.776   2.114   2.220
10626SOL    HW132777   5.754   2.211   2.202
10626SOL    HW232778   5.752   2.060   2.139
10627SOL     OW32779   5.737   5.980   4.733
10627SOL    HW132780   5.820   6.021   4.769
10627SOL    HW232781   5.710   5.903   4.791
10628SOL     OW32782   0.149   5.523   5.752
10628SOL    HW132783   0.114   5.435   5.717
10628SOL    HW232784   0.077   5.569   5.805
10629SOL     OW32785   2.155   4.470   6.623
10629SOL    HW132786   2.100   4.523   6.558
10629SOL    HW232787   2.232   4.428   6.575
10630SOL     OW32788   6.166   0.754   1.853
10630SOL    HW132789   6.095   0.686   1.872
10630SOL    HW232790   6.176   0.815   1.931
10631SOL     OW32791   1.256   6.252   4.991
10631SOL    HW132792   1.338   6.280   4.942
10631SOL    HW232793   1.276   6.247   5.089
10632SOL     OW32794   6.889   3.262   6.262
10632SOL    HW132795   6.897   3.282   6.164
10632SOL    HW232796   6.956   3.192   6.287
10633SOL     OW32797   0.808   5.089   0.269
10633SOL    HW132798   0.780   5.137   0.352
10633SOL    HW232799   0.796   4.991   0.282
10634SOL     OW32800   3.479   6.398   2.310
10634SOL    HW132801   3.403   6.422   2.371
10634SOL    HW232802   3.447   6.397   2.216
10635SOL     OW32803   1.515   1.460   1.351
10635SOL    HW132804   1.599   1.457   1.297
10635SOL    HW232805   1.442   1.412   1.301
10636SOL     OW32806   5.497   1.755   1.246
10636SOL    HW132807   5.452   1.699   1.315
10636SOL    HW232808   5.442   1.837   1.229
10637SOL     OW32809   3.208   4.480   6.084
10637SOL    HW132810   3.128   4.471   6.024
10637SOL    HW232811   3.270   4.548   6.046
10638SOL     OW32812   6.812   6.797   5.957
10638SOL    HW132813   6.838   6.883   5.914
10638SOL    HW232814   6.715   6.779   5.942
10639SOL     OW32815   3.282   2.109   4.845
10639SOL    HW132816   3.375   2.097   4.881
10639SOL    HW232817   3.224   2.150   4.916
10640SOL     OW32818   4.614   6.161   1.185
10640SOL    HW132819   4.526   6.199   1.157
10640SOL    HW232820   4.684   6.232   1.182
10641SOL     OW32821   3.522   0.544   6.560
10641SOL    HW132822   3.563   0.569   6.648
10641SOL    HW232823   3.515   0.445   6.554
10642SOL     OW32824   0.003   4.820   0.247
10642SOL    HW132825   6.969   4.836   0.164
10642SOL    HW232826   0.027   4.723   0.252
10643SOL     OW32827   4.298   3.132   5.304
10643SOL    HW132828   4.356   3.205   5.341
10643SOL    HW232829   4.353   3.050   5.291
10644SOL     OW32830   3.624   1.314   5.213
10644SOL    HW132831   3.587   1.259   5.139
10644SOL    HW232832   3.706   1.362   5.181
10645SOL     OW32833   2.232   6.990   4.911
10645SOL    HW132834   2.329   6.989   4.934
10645SOL    HW232835   2.180   6.944   4.983
10646SOL     OW32836   0.445   4.636   6.775
10646SOL    HW132837   0.483   4.551   6.810
10646SOL    HW232838   0.385   4.617   6.698
10647SOL     OW32839   0.400   5.994   0.980
10647SOL    HW132840   0.461   6.071   0.994
10647SOL    HW232841   0.453   5.909   0.982
10648SOL     OW32842   4.725   5.282   6.474
10648SOL    HW132843   4.743   5.212   6.543
10648SOL    HW232844   4.659   5.247   6.408
10649SOL     OW32845   0.285   4.152   6.094
10649SOL    HW132846   0.298   4.251   6.086
10649SOL    HW232847   0.243   4.131   6.182
10650SOL     OW32848   3.293   0.839   5.283
10650SOL    HW132849   3.273   0.833   5.185
10650SOL    HW232850   3.208   0.842   5.335
10651SOL     OW32851   2.649   0.822   5.369
10651SOL    HW132852   2.641   0.869   5.281
10651SOL    HW232853   2.708   0.875   5.429
10652SOL     OW32854   3.806   1.591   0.577
10652SOL    HW132855   3.815   1.564   0.673
10652SOL    HW232856   3.852   1.523   0.520
10653SOL     OW32857   6.257   3.882   4.195
10653SOL    HW132858   6.206   3.962   4.229
10653SOL    HW232859   6.236   3.868   4.099
10654SOL     OW32860   4.577   0.565   1.771
10654SOL    HW132861   4.546   0.618   1.850
10654SOL    HW232862   4.540   0.472   1.776
10655SOL     OW32863   2.581   5.423   1.340
10655SOL    HW132864   2.626   5.339   1.370
10655SOL    HW232865   2.483   5.419   1.364
10656SOL     OW32866   6.381   2.520   6.626
10656SOL    HW132867   6.340   2.534   6.716
10656SOL    HW232868   6.474   2.485   6.636
10657SOL     OW32869   6.553   0.260   1.298
10657SOL    HW132870   6.548   0.282   1.395
10657SOL    HW232871   6.617   0.184   1.285
10658SOL     OW32872   0.232   6.418   4.337
10658SOL    HW132873   0.141   6.413   4.379
10658SOL    HW232874   0.223   6.425   4.238
10659SOL     OW32875   4.991   1.178   1.067
10659SOL    HW132876   4.896   1.148   1.076
10659SOL    HW232877   5.009   1.203   0.972
10660SOL     OW32878   5.733   5.609   6.130
10660SOL    HW132879   5.702   5.660   6.210
10660SOL    HW232880   5.802   5.662   6.080
10661SOL     OW32881   0.339   0.680   2.309
10661SOL    HW132882   0.316   0.775   2.289
10661SOL    HW232883   0.436   0.664   2.288
10662SOL     OW32884   6.647   2.052   0.027
10662SOL    HW132885   6.650   1.956   0.002
10662SOL    HW232886   6.654   2.109   6.966
10663SOL     OW32887   0.741   2.133   0.185
10663SOL    HW132888   0.772   2.180   0.102
10663SOL    HW232889   0.707   2.200   0.250
10664SOL     OW32890   2.415   4.961   6.117
10664SOL    HW132891   2.339   5.022   6.096
10664SOL    HW232892   2.388   4.866   6.096
10665SOL     OW32893   5.987   1.461   6.868
10665SOL    HW132894   5.895   1.492   6.847
10665SOL    HW232895   5.982   1.372   6.914
10666SOL     OW32896   0.556   0.031   0.366
10666SOL    HW132897   0.525   0.008   0.273
10666SOL    HW232898   0.538   6.975   0.427
10667SOL     OW32899   2.801   2.478   5.684
10667SOL    HW132900   2.863   2.460   5.760
10667SOL    HW232901   2.721   2.418   5.692
10668SOL     OW32902   2.510   1.470   6.543
10668SOL    HW132903   2.508   1.530   6.463
10668SOL    HW232904   2.430   1.410   6.542
10669SOL     OW32905   1.400   6.552   6.268
10669SOL    HW132906   1.326   6.497   6.230
10669SOL    HW232907   1.397   6.547   6.368
10670SOL     OW32908   6.261   3.821   4.988
10670SOL    HW132909   6.283   3.799   4.893
10670SOL    HW232910   6.269   3.920   5.002
10671SOL     OW32911   1.962   2.436   2.928
10671SOL    HW132912   1.906   2.421   3.009
10671SOL    HW232913   2.058   2.427   2.950
10672SOL     OW32914   0.215   2.376   0.683
10672SOL    HW132915   0.177   2.339   0.598
10672SOL    HW232916   0.312   2.399   0.668
10673SOL     OW32917   3.145   3.524   4.224
10673SOL    HW132918   3.155   3.591   4.298
10673SOL    HW232919   3.215   3.541   4.155
10674SOL     OW32920   4.023   1.454   2.485
10674SOL    HW132921   4.076   1.441   2.569
10674SOL    HW232922   3.926   1.439   2.504
10675SOL     OW32923   1.116   1.008   5.665
10675SOL    HW132924   1.193   1.018   5.602
10675SOL    HW232925   1.134   1.061   5.748
10676SOL     OW32926   0.064   0.547   6.608
10676SOL    HW132927   0.119   0.529   6.690
10676SOL    HW232928   6.987   0.546   6.632
10677SOL     OW32929   6.197   1.347   0.995
10677SOL    HW132930   6.152   1.260   1.015
10677SOL    HW232931   6.155   1.419   1.051
10678SOL     OW32932   2.321   5.090   3.199
10678SOL    HW132933   2.350   5.183   3.178
10678SOL    HW232934   2.379   5.025   3.150
10679SOL     OW32935   5.418   4.691   3.799
10679SOL    HW132936   5.444   4.613   3.741
10679SOL    HW232937   5.355   4.660   3.870
10680SOL     OW32938   0.578   2.821   3.547
10680SOL    HW132939   0.535   2.912   3.553
10680SOL    HW232940   0.602   2.803   3.451
10681SOL     OW32941   0.567   2.645   6.783
10681SOL    HW132942   0.567   2.622   6.880
10681SOL    HW232943   0.538   2.565   6.731
10682SOL     OW32944   6.602   1.812   2.933
10682SOL    HW132945   6.514   1.773   2.960
10682SOL    HW232946   6.587   1.898   2.884
10683SOL     OW32947   1.270   0.440   4.448
10683SOL    HW132948   1.205   0.443   4.524
10683SOL    HW232949   1.274   0.347   4.411
10684SOL     OW32950   4.956   5.879   0.664
10684SOL    HW132951   4.963   5.794   0.613
10684SOL    HW232952   4.860   5.894   0.690
10685SOL     OW32953   6.162   2.767   2.641
10685SOL    HW132954   6.121   2.679   2.668
10685SOL    HW232955   6.213   2.754   2.556
10686SOL     OW32956   4.367   4.606   1.326
10686SOL    HW132957   4.289   4.604   1.265
10686SOL    HW232958   4.448   4.570   1.279
10687SOL     OW32959   6.341   5.198   1.184
10687SOL    HW132960   6.242   5.203   1.197
10687SOL    HW232961   6.385   5.204   1.274
10688SOL     OW32962   0.420   4.986   1.351
10688SOL    HW132963   0.371   4.906   1.385
10688SOL    HW232964   0.499   5.005   1.410
10689SOL     OW32965   1.063   0.305   0.916
10689SOL    HW132966   0.985   0.284   0.974
10689SOL    HW232967   1.033   0.313   0.821
10690SOL     OW32968   4.602   6.474   3.023
10690SOL    HW132969   4.657   6.546   3.066
10690SOL    HW232970   4.521   6.515   2.981
10691SOL     OW32971   5.836   0.817   1.729
10691SOL    HW132972   5.902   0.890   1.712
10691SOL    HW232973   5.845   0.747   1.659
10692SOL     OW32974   6.593   6.574   3.973
10692SOL    HW132975   6.498   6.543   3.973
10692SOL    HW232976   6.595   6.674   3.977
10693SOL     OW32977   4.867   2.985   4.610
10693SOL    HW132978   4.774   2.968   4.641
10693SOL    HW232979   4.932   2.951   4.678
10694SOL     OW32980   2.165   5.816   0.476
10694SOL    HW132981   2.179   5.914   0.461
10694SOL    HW232982   2.089   5.785   0.419
10695SOL     OW32983   5.711   3.375   5.670
10695SOL    HW132984   5.765   3.455   5.642
10695SOL    HW232985   5.615   3.389   5.644
10696SOL     OW32986   6.345   6.850   1.316
10696SOL    HW132987   6.269   6.786   1.307
10696SOL    HW232988   6.314   6.942   1.292
10697SOL     OW32989   1.774   6.144   2.879
10697SOL    HW132990   1.759   6.147   2.978
10697SOL    HW232991   1.861   6.100   2.860
10698SOL     OW32992   2.916   0.521   4.652
10698SOL    HW132993   2.857   0.518   4.571
10698SOL    HW232994   3.003   0.476   4.631
10699SOL     OW32995   1.421   2.738   3.528
10699SOL    HW132996   1.382   2.785   3.608
10699SOL    HW232997   1.511   2.775   3.508
10700SOL     OW32998   0.798   3.022   2.440
10700SOL    HW132999   0.894   3.015   2.412
10700SOL    HW233000   0.792   3.063   2.531
10701SOL     OW33001   2.678   0.299   1.049
10701SOL    HW133002   2.611   0.228   1.027
10701SOL    HW233003   2.677   0.317   1.147
10702SOL     OW33004   5.164   2.266   0.846
10702SOL    HW133005   5.068   2.276   0.818
10702SOL    HW233006   5.168   2.230   0.940
10703SOL     OW33007   3.653   2.905   4.647
10703SOL    HW133008   3.623   2.977   4.585
10703SOL    HW233009   3.613   2.818   4.620
10704SOL     OW33010   5.642   5.822   2.542
10704SOL    HW133011   5.691   5.765   2.607
10704SOL    HW233012   5.677   5.805   2.450
10705SOL     OW33013   1.596   3.303   6.490
10705SOL    HW133014   1.605   3.391   6.444
10705SOL    HW233015   1.500   3.285   6.511
10706SOL     OW33016   3.509   3.349   1.003
10706SOL    HW133017   3.500   3.266   1.058
10706SOL    HW233018   3.605   3.363   0.979
10707SOL     OW33019   5.923   6.886   6.203
10707SOL    HW133020   5.999   6.950   6.193
10707SOL    HW233021   5.954   6.805   6.254
10708SOL     OW33022   4.735   1.585   1.789
10708SOL    HW133023   4.749   1.676   1.828
10708SOL    HW233024   4.645   1.581   1.745
10709SOL     OW33025   0.905   6.751   5.829
10709SOL    HW133026   0.999   6.782   5.836
10709SOL    HW233027   0.855   6.776   5.912
10710SOL     OW33028   0.142   6.331   3.456
10710SOL    HW133029   0.056   6.326   3.507
10710SOL    HW233030   0.170   6.427   3.447
10711SOL     OW33031   2.153   4.798   5.717
10711SOL    HW133032   2.111   4.889   5.718
10711SOL    HW233033   2.109   4.741   5.787
10712SOL     OW33034   3.336   1.682   6.556
10712SOL    HW133035   3.306   1.590   6.582
10712SOL    HW233036   3.287   1.712   6.474
10713SOL     OW33037   1.797   6.611   0.116
10713SOL    HW133038   1.869   6.542   0.103
10713SOL    HW233039   1.837   6.694   0.154
10714SOL     OW33040   5.497   5.546   4.580
10714SOL    HW133041   5.453   5.596   4.506
10714SOL    HW233042   5.577   5.498   4.545
10715SOL     OW33043   5.995   0.349   2.700
10715SOL    HW133044   6.060   0.420   2.673
10715SOL    HW233045   5.938   0.324   2.621
10716SOL     OW33046   0.042   0.508   1.593
10716SOL    HW133047   0.024   0.447   1.516
10716SOL    HW233048   6.987   0.574   1.602
10717SOL     OW33049   0.530   6.599   1.723
10717SOL    HW133050   0.497   6.520   1.671
10717SOL    HW233051   0.465   6.674   1.713
10718SOL     OW33052   0.968   4.310   5.435
10718SOL    HW133053   0.909   4.262   5.369
10718SOL    HW233054   1.044   4.250   5.461
10719SOL     OW33055   3.758   6.241   2.374
10719SOL    HW133056   3.723   6.147   2.381
10719SOL    HW233057   3.686   6.301   2.338
10720SOL     OW33058   0.484   2.928   5.988
10720SOL    HW133059   0.478   2.830   5.973
10720SOL    HW233060   0.523   2.972   5.907
10721SOL     OW33061   5.202   1.902   4.227
10721SOL    HW133062   5.131   1.941   4.287
10721SOL    HW233063   5.254   1.833   4.278
10722SOL     OW33064   0.581   5.233   0.364
10722SOL    HW133065   0.583   5.171   0.285
10722SOL    HW233066   0.560   5.326   0.333
10723SOL     OW33067   6.648   4.029   6.453
10723SOL    HW133068   6.692   4.052   6.366
10723SOL    HW233069   6.610   3.936   6.447
10724SOL     OW33070   3.540   0.035   5.911
10724SOL    HW133071   3.526   6.977   5.972
10724SOL    HW233072   3.451   0.074   5.886
10725SOL     OW33073   0.343   6.788   5.323
10725SOL    HW133074   0.312   6.869   5.274
10725SOL    HW233075   0.267   6.749   5.375
10726SOL     OW33076   6.914   0.238   3.087
10726SOL    HW133077   6.887   0.294   3.165
10726SOL    HW233078   6.954   0.152   3.120
10727SOL     OW33079   4.930   6.699   6.308
10727SOL    HW133080   4.877   6.624   6.347
10727SOL    HW233081   4.933   6.775   6.374
10728SOL     OW33082   6.073   5.422   3.700
10728SOL    HW133083   6.086   5.372   3.615
10728SOL    HW233084   6.125   5.507   3.698
10729SOL     OW33085   6.868   2.777   4.476
10729SOL    HW133086   6.806   2.743   4.546
10729SOL    HW233087   6.925   2.702   4.443
10730SOL     OW33088   1.554   6.412   4.364
10730SOL    HW133089   1.503   6.490   4.327
10730SOL    HW233090   1.505   6.374   4.442
10731SOL     OW33091   4.915   4.820   6.251
10731SOL    HW133092   4.892   4.725   6.228
10731SOL    HW233093   4.921   4.830   6.350
10732SOL     OW33094   6.473   6.050   2.497
10732SOL    HW133095   6.469   6.028   2.594
10732SOL    HW233096   6.381   6.073   2.464
10733SOL     OW33097   0.249   1.816   6.308
10733SOL    HW133098   0.342   1.842   6.281
10733SOL    HW233099   0.227   1.727   6.269
10734SOL     OW33100   0.506   0.758   4.733
10734SOL    HW133101   0.470   0.838   4.780
10734SOL    HW233102   0.452   0.740   4.651
10735SOL     OW33103   6.712   0.426   1.636
10735SOL    HW133104   6.773   0.349   1.657
10735SOL    HW233105   6.764   0.511   1.639
10736SOL     OW33106   6.087   5.694   4.035
10736SOL    HW133107   6.087   5.791   4.058
10736SOL    HW233108   6.023   5.646   4.095
10737SOL     OW33109   6.736   0.736   1.249
10737SOL    HW133110   6.773   0.657   1.200
10737SOL    HW233111   6.690   0.797   1.185
10738SOL     OW33112   1.911   6.906   1.613
10738SOL    HW133113   1.831   6.874   1.664
10738SOL    HW233114   1.887   6.987   1.559
10739SOL     OW33115   5.037   2.702   4.477
10739SOL    HW133116   4.982   2.681   4.396
10739SOL    HW233117   5.125   2.740   4.449
10740SOL     OW33118   2.837   0.541   6.023
10740SOL    HW133119   2.820   0.492   6.108
10740SOL    HW233120   2.935   0.540   6.002
10741SOL     OW33121   1.141   2.787   4.075
10741SOL    HW133122   1.102   2.754   4.161
10741SOL    HW233123   1.078   2.851   4.032
10742SOL     OW33124   0.341   0.054   1.877
10742SOL    HW133125   0.252   0.039   1.920
10742SOL    HW233126   0.410   7.019   1.923
10743SOL     OW33127   3.409   1.765   5.931
10743SOL    HW133128   3.442   1.847   5.885
10743SOL    HW233129   3.450   1.684   5.890
10744SOL     OW33130   2.302   1.996   1.340
10744SOL    HW133131   2.263   1.990   1.249
10744SOL    HW233132   2.375   2.064   1.342
10745SOL     OW33133   2.877   5.652   1.440
10745SOL    HW133134   2.822   5.626   1.519
10745SOL    HW233135   2.885   5.574   1.378
10746SOL     OW33136   2.246   5.173   6.098
10746SOL    HW133137   2.249   5.233   6.019
10746SOL    HW233138   2.305   5.209   6.170
10747SOL     OW33139   0.062   0.088   4.323
10747SOL    HW133140   0.081   0.114   4.228
10747SOL    HW233141   0.026   7.015   4.325
10748SOL     OW33142   2.982   6.499   2.607
10748SOL    HW133143   2.931   6.580   2.636
10748SOL    HW233144   2.987   6.496   2.507
10749SOL     OW33145   5.262   3.935   1.860
10749SOL    HW133146   5.165   3.934   1.884
10749SOL    HW233147   5.294   3.842   1.845
10750SOL     OW33148   3.893   1.858   3.949
10750SOL    HW133149   3.944   1.812   4.022
10750SOL    HW233150   3.923   1.953   3.942
10751SOL     OW33151   6.604   6.122   3.803
10751SOL    HW133152   6.654   6.205   3.782
10751SOL    HW233153   6.631   6.089   3.894
10752SOL     OW33154   0.373   6.384   6.513
10752SOL    HW133155   0.283   6.422   6.536
10752SOL    HW233156   0.414   6.343   6.594
10753SOL     OW33157   5.429   6.679   4.713
10753SOL    HW133158   5.335   6.664   4.743
10753SOL    HW233159   5.431   6.689   4.613
10754SOL     OW33160   0.559   5.772   2.214
10754SOL    HW133161   0.480   5.737   2.264
10754SOL    HW233162   0.610   5.695   2.174
10755SOL     OW33163   0.147   1.948   1.665
10755SOL    HW133164   0.243   1.950   1.694
10755SOL    HW233165   0.104   1.864   1.699
10756SOL     OW33166   1.295   0.072   6.289
10756SOL    HW133167   1.229   0.133   6.332
10756SOL    HW233168   1.350   0.028   6.360
10757SOL     OW33169   6.887   2.951   1.830
10757SOL    HW133170   6.846   2.862   1.845
10757SOL    HW233171   6.816   3.021   1.828
10758SOL     OW33172   1.235   1.723   0.733
10758SOL    HW133173   1.146   1.699   0.772
10758SOL    HW233174   1.223   1.789   0.659
10759SOL     OW33175   3.693   4.089   4.774
10759SOL    HW133176   3.596   4.090   4.799
10759SOL    HW233177   3.735   4.176   4.801
10760SOL     OW33178   0.941   5.203   6.770
10760SOL    HW133179   0.934   5.157   6.858
10760SOL    HW233180   0.859   5.259   6.755
10761SOL     OW33181   1.437   1.331   6.671
10761SOL    HW133182   1.525   1.315   6.627
10761SOL    HW233183   1.368   1.350   6.601
10762SOL     OW33184   1.600   6.690   0.342
10762SOL    HW133185   1.584   6.753   0.266
10762SOL    HW233186   1.695   6.658   0.339
10763SOL     OW33187   5.018   1.091   2.438
10763SOL    HW133188   5.101   1.038   2.453
10763SOL    HW233189   5.001   1.150   2.517
10764SOL     OW33190   5.316   6.240   5.072
10764SOL    HW133191   5.369   6.308   5.020
10764SOL    HW233192   5.260   6.187   5.008
10765SOL     OW33193   0.753   2.352   0.946
10765SOL    HW133194   0.678   2.323   1.007
10765SOL    HW233195   0.837   2.360   0.999
10766SOL     OW33196   2.688   4.829   6.189
10766SOL    HW133197   2.681   4.730   6.198
10766SOL    HW233198   2.597   4.869   6.202
10767SOL     OW33199   1.850   5.118   6.731
10767SOL    HW133200   1.921   5.069   6.782
10767SOL    HW233201   1.893   5.185   6.670
10768SOL     OW33202   5.307   6.092   6.510
10768SOL    HW133203   5.239   6.048   6.451
10768SOL    HW233204   5.336   6.027   6.581
10769SOL     OW33205   2.989   3.819   4.482
10769SOL    HW133206   2.996   3.900   4.425
10769SOL    HW233207   3.077   3.772   4.485
10770SOL     OW33208   4.716   6.920   3.554
10770SOL    HW133209   4.786   6.862   3.513
10770SOL    HW233210   4.760   6.998   3.599
10771SOL     OW33211   4.285   5.982   5.831
10771SOL    HW133212   4.265   6.073   5.795
10771SOL    HW233213   4.375   5.982   5.874
10772SOL     OW33214   4.715   4.306   3.188
10772SOL    HW133215   4.702   4.275   3.282
10772SOL    HW233216   4.628   4.337   3.151
10773SOL     OW33217   0.437   3.992   0.642
10773SOL    HW133218   0.523   4.017   0.687
10773SOL    HW233219   0.368   3.971   0.712
10774SOL     OW33220   0.401   3.277   0.875
10774SOL    HW133221   0.359   3.363   0.847
10774SOL    HW233222   0.349   3.200   0.837
10775SOL     OW33223   2.226   4.564   0.275
10775SOL    HW133224   2.160   4.619   0.327
10775SOL    HW233225   2.192   4.553   0.182
10776SOL     OW33226   0.743   3.487   3.004
10776SOL    HW133227   0.816   3.508   3.068
10776SOL    HW233228   0.771   3.512   2.911
10777SOL     OW33229   1.726   0.192   1.609
10777SOL    HW133230   1.821   0.161   1.601
10777SOL    HW233231   1.720   0.288   1.583
10778SOL     OW33232   4.590   0.333   3.452
10778SOL    HW133233   4.624   0.404   3.514
10778SOL    HW233234   4.666   0.273   3.426
10779SOL     OW33235   5.921   2.724   6.197
10779SOL    HW133236   5.940   2.817   6.167
10779SOL    HW233237   5.829   2.719   6.236
10780SOL     OW33238   1.308   5.008   5.078
10780SOL    HW133239   1.299   5.104   5.105
10780SOL    HW233240   1.383   4.966   5.128
10781SOL     OW33241   6.221   2.377   6.072
10781SOL    HW133242   6.299   2.357   6.013
10781SOL    HW233243   6.137   2.343   6.028
10782SOL     OW33244   1.052   3.300   5.228
10782SOL    HW133245   1.123   3.245   5.184
10782SOL    HW233246   0.965   3.251   5.224
10783SOL     OW33247   1.620   3.859   3.708
10783SOL    HW133248   1.698   3.885   3.650
10783SOL    HW233249   1.591   3.938   3.762
10784SOL     OW33250   4.854   5.417   3.991
10784SOL    HW133251   4.931   5.461   3.945
10784SOL    HW233252   4.886   5.337   4.042
10785SOL     OW33253   1.460   5.242   1.870
10785SOL    HW133254   1.368   5.279   1.882
10785SOL    HW233255   1.478   5.174   1.942
10786SOL     OW33256   5.274   1.381   2.675
10786SOL    HW133257   5.276   1.360   2.773
10786SOL    HW233258   5.321   1.309   2.624
10787SOL     OW33259   3.565   1.683   3.454
10787SOL    HW133260   3.630   1.720   3.387
10787SOL    HW233261   3.613   1.663   3.539
10788SOL     OW33262   1.504   3.120   6.793
10788SOL    HW133263   1.469   3.211   6.772
10788SOL    HW233264   1.476   3.094   6.886
10789SOL     OW33265   6.200   1.685   2.529
10789SOL    HW133266   6.133   1.724   2.465
10789SOL    HW233267   6.203   1.741   2.612
10790SOL     OW33268   6.890   2.095   5.399
10790SOL    HW133269   6.930   2.006   5.420
10790SOL    HW233270   6.828   2.085   5.321
10791SOL     OW33271   1.743   3.119   3.738
10791SOL    HW133272   1.778   3.132   3.831
10791SOL    HW233273   1.803   3.056   3.689
10792SOL     OW33274   3.771   1.268   2.327
10792SOL    HW133275   3.676   1.271   2.297
10792SOL    HW233276   3.817   1.191   2.283
10793SOL     OW33277   3.321   1.699   4.602
10793SOL    HW133278   3.335   1.764   4.528
10793SOL    HW233279   3.368   1.731   4.684
10794SOL     OW33280   4.754   3.030   6.501
10794SOL    HW133281   4.743   3.087   6.420
10794SOL    HW233282   4.847   2.995   6.505
10795SOL     OW33283   5.930   3.301   3.685
10795SOL    HW133284   5.933   3.352   3.599
10795SOL    HW233285   6.004   3.332   3.745
10796SOL     OW33286   0.453   1.437   6.271
10796SOL    HW133287   0.359   1.468   6.257
10796SOL    HW233288   0.515   1.514   6.261
10797SOL     OW33289   5.606   4.992   6.457
10797SOL    HW133290   5.587   4.944   6.372
10797SOL    HW233291   5.700   5.026   6.457
10798SOL     OW33292   1.857   6.007   0.325
10798SOL    HW133293   1.905   6.091   0.299
10798SOL    HW233294   1.833   6.012   0.422
10799SOL     OW33295   2.418   0.659   2.656
10799SOL    HW133296   2.414   0.756   2.633
10799SOL    HW233297   2.440   0.649   2.753
10800SOL     OW33298   1.947   0.546   4.886
10800SOL    HW133299   1.989   0.471   4.835
10800SOL    HW233300   1.965   0.533   4.984
10801SOL     OW33301   2.920   6.038   6.719
10801SOL    HW133302   2.876   6.118   6.680
10801SOL    HW233303   2.995   6.009   6.660
10802SOL     OW33304   1.019   4.914   4.045
10802SOL    HW133305   0.938   4.864   4.014
10802SOL    HW233306   1.054   4.874   4.130
10803SOL     OW33307   6.867   4.178   4.603
10803SOL    HW133308   6.850   4.086   4.567
10803SOL    HW233309   6.957   4.209   4.574
10804SOL     OW33310   3.922   4.512   0.584
10804SOL    HW133311   3.827   4.520   0.613
10804SOL    HW233312   3.927   4.464   0.497
10805SOL     OW33313   4.466   6.410   0.621
10805SOL    HW133314   4.456   6.350   0.701
10805SOL    HW233315   4.555   6.392   0.578
10806SOL     OW33316   5.362   2.901   6.367
10806SOL    HW133317   5.343   2.812   6.325
10806SOL    HW233318   5.303   2.970   6.326
10807SOL     OW33319   4.640   2.235   5.365
10807SOL    HW133320   4.622   2.225   5.463
10807SOL    HW233321   4.710   2.305   5.351
10808SOL     OW33322   0.497   2.246   6.908
10808SOL    HW133323   0.579   2.294   6.936
10808SOL    HW233324   0.522   2.158   6.868
10809SOL     OW33325   1.069   0.808   2.309
10809SOL    HW133326   1.027   0.896   2.287
10809SOL    HW233327   1.165   0.808   2.280
10810SOL     OW33328   1.832   0.799   6.168
10810SOL    HW133329   1.740   0.780   6.135
10810SOL    HW233330   1.882   0.850   6.098
10811SOL     OW33331   4.257   5.985   6.627
10811SOL    HW133332   4.192   6.019   6.559
10811SOL    HW233333   4.229   6.017   6.718
10812SOL     OW33334   6.573   2.815   3.308
10812SOL    HW133335   6.604   2.795   3.215
10812SOL    HW233336   6.612   2.903   3.338
10813SOL     OW33337   2.928   5.989   2.334
10813SOL    HW133338   2.870   6.068   2.352
10813SOL    HW233339   2.943   5.938   2.419
10814SOL     OW33340   1.880   6.482   4.780
10814SOL    HW133341   1.958   6.473   4.718
10814SOL    HW233342   1.902   6.437   4.867
10815SOL     OW33343   5.250   1.579   5.642
10815SOL    HW133344   5.254   1.488   5.682
10815SOL    HW233345   5.161   1.593   5.599
10816SOL     OW33346   2.459   1.702   1.613
10816SOL    HW133347   2.444   1.665   1.704
10816SOL    HW233348   2.541   1.760   1.614
10817SOL     OW33349   3.559   1.779   2.048
10817SOL    HW133350   3.629   1.770   1.978
10817SOL    HW233351   3.521   1.871   2.045
10818SOL     OW33352   4.721   3.661   6.062
10818SOL    HW133353   4.639   3.603   6.064
10818SOL    HW233354   4.798   3.607   6.029
10819SOL     OW33355   1.987   4.013   5.057
10819SOL    HW133356   2.046   4.093   5.067
10819SOL    HW233357   2.039   3.931   5.081
10820SOL     OW33358   0.962   5.774   5.254
10820SOL    HW133359   1.031   5.847   5.253
10820SOL    HW233360   1.008   5.685   5.261
10821SOL     OW33361   0.396   0.624   6.946
10821SOL    HW133362   0.444   0.679   6.877
10821SOL    HW233363   0.406   0.667   0.015
10822SOL     OW33364   0.806   4.623   6.242
10822SOL    HW133365   0.731   4.637   6.178
10822SOL    HW233366   0.823   4.525   6.251
10823SOL     OW33367   1.768   2.312   0.646
10823SOL    HW133368   1.773   2.277   0.553
10823SOL    HW233369   1.749   2.410   0.644
10824SOL     OW33370   5.142   1.352   4.502
10824SOL    HW133371   5.195   1.359   4.587
10824SOL    HW233372   5.195   1.392   4.427
10825SOL     OW33373   3.069   1.303   2.572
10825SOL    HW133374   3.016   1.335   2.650
10825SOL    HW233375   3.159   1.272   2.604
10826SOL     OW33376   6.691   3.745   1.525
10826SOL    HW133377   6.678   3.673   1.457
10826SOL    HW233378   6.679   3.707   1.617
10827SOL     OW33379   0.760   2.572   4.411
10827SOL    HW133380   0.663   2.552   4.422
10827SOL    HW233381   0.811   2.486   4.414
10828SOL     OW33382   2.573   4.643   6.952
10828SOL    HW133383   2.527   4.590   6.881
10828SOL    HW233384   2.634   4.710   6.909
10829SOL     OW33385   2.378   4.235   1.920
10829SOL    HW133386   2.393   4.281   2.007
10829SOL    HW233387   2.425   4.285   1.847
10830SOL     OW33388   6.012   0.786   3.683
10830SOL    HW133389   5.946   0.844   3.637
10830SOL    HW233390   6.074   0.746   3.616
10831SOL     OW33391   5.206   2.302   1.895
10831SOL    HW133392   5.299   2.290   1.928
10831SOL    HW233393   5.184   2.399   1.891
10832SOL     OW33394   0.509   3.063   2.426
10832SOL    HW133395   0.476   3.069   2.332
10832SOL    HW233396   0.606   3.088   2.429
10833SOL     OW33397   3.106   0.036   4.371
10833SOL    HW133398   3.155   6.994   4.311
10833SOL    HW233399   3.085   7.010   4.457
10834SOL     OW33400   0.167   1.540   5.986
10834SOL    HW133401   0.146   1.454   5.940
10834SOL    HW233402   0.121   1.542   6.075
10835SOL     OW33403   1.069   2.037   0.648
10835SOL    HW133404   0.997   2.091   0.606
10835SOL    HW233405   1.044   2.014   0.742
10836SOL     OW33406   1.003   2.615   1.185
10836SOL    HW133407   1.020   2.633   1.088
10836SOL    HW233408   0.928   2.673   1.217
10837SOL     OW33409   0.697   5.491   0.595
10837SOL    HW133410   0.790   5.456   0.587
10837SOL    HW233411   0.654   5.495   0.504
10838SOL     OW33412   6.135   6.112   0.706
10838SOL    HW133413   6.106   6.034   0.650
10838SOL    HW233414   6.055   6.160   0.741
10839SOL     OW33415   2.206   1.870   6.571
10839SOL    HW133416   2.176   1.963   6.589
10839SOL    HW233417   2.273   1.843   6.641
10840SOL     OW33418   1.936   0.387   2.810
10840SOL    HW133419   1.892   0.298   2.816
10840SOL    HW233420   1.943   0.427   2.901
10841SOL     OW33421   4.588   3.825   0.878
10841SOL    HW133422   4.657   3.897   0.867
10841SOL    HW233423   4.577   3.805   0.975
10842SOL     OW33424   6.231   1.997   1.830
10842SOL    HW133425   6.297   1.943   1.882
10842SOL    HW233426   6.272   2.086   1.808
10843SOL     OW33427   1.180   2.369   1.287
10843SOL    HW133428   1.169   2.464   1.258
10843SOL    HW233429   1.222   2.317   1.212
10844SOL     OW33430   5.174   6.887   4.131
10844SOL    HW133431   5.194   6.825   4.208
10844SOL    HW233432   5.256   6.897   4.075
10845SOL     OW33433   2.248   3.155   1.249
10845SOL    HW133434   2.299   3.165   1.334
10845SOL    HW233435   2.226   3.245   1.213
10846SOL     OW33436   3.594   2.799   2.224
10846SOL    HW133437   3.648   2.733   2.172
10846SOL    HW233438   3.585   2.883   2.171
10847SOL     OW33439   4.483   1.876   5.552
10847SOL    HW133440   4.433   1.940   5.493
10847SOL    HW233441   4.551   1.827   5.497
10848SOL     OW33442   1.516   0.966   6.740
10848SOL    HW133443   1.579   0.929   6.672
10848SOL    HW233444   1.568   1.010   6.813
10849SOL     OW33445   1.381   4.603   4.340
10849SOL    HW133446   1.332   4.525   4.377
10849SOL    HW233447   1.330   4.640   4.262
10850SOL     OW33448   5.861   0.672   2.657
10850SOL    HW133449   5.920   0.593   2.673
10850SOL    HW233450   5.826   0.670   2.563
10851SOL     OW33451   4.595   2.684   6.891
10851SOL    HW133452   4.646   2.701   6.806
10851SOL    HW233453   4.505   2.648   6.868
10852SOL     OW33454   5.847   0.840   6.033
10852SOL    HW133455   5.768   0.900   6.025
10852SOL    HW233456   5.928   0.893   6.059
10853SOL     OW33457   3.505   0.443   4.789
10853SOL    HW133458   3.485   0.477   4.881
10853SOL    HW233459   3.482   0.513   4.721
10854SOL     OW33460   6.119   0.172   0.621
10854SOL    HW133461   6.103   0.220   0.707
10854SOL    HW233462   6.176   0.091   0.639
10855SOL     OW33463   0.272   5.746   1.463
10855SOL    HW133464   0.284   5.785   1.372
10855SOL    HW233465   0.361   5.734   1.507
10856SOL     OW33466   5.524   6.248   6.668
10856SOL    HW133467   5.494   6.284   6.757
10856SOL    HW233468   5.497   6.311   6.596
10857SOL     OW33469   6.606   6.745   4.721
10857SOL    HW133470   6.525   6.728   4.777
10857SOL    HW233471   6.579   6.782   4.632
10858SOL     OW33472   1.710   2.219   0.360
10858SOL    HW133473   1.753   2.305   0.332
10858SOL    HW233474   1.611   2.225   0.344
10859SOL     OW33475   2.360   5.417   2.334
10859SOL    HW133476   2.352   5.397   2.431
10859SOL    HW233477   2.273   5.396   2.288
10860SOL     OW33478   6.229   1.656   1.510
10860SOL    HW133479   6.163   1.582   1.493
10860SOL    HW233480   6.184   1.730   1.559
10861SOL     OW33481   1.964   4.062   1.435
10861SOL    HW133482   1.956   4.161   1.428
10861SOL    HW233483   2.038   4.030   1.377
10862SOL     OW33484   3.533   4.171   5.135
10862SOL    HW133485   3.526   4.186   5.036
10862SOL    HW233486   3.496   4.081   5.158
10863SOL     OW33487   1.433   0.282   3.094
10863SOL    HW133488   1.366   0.349   3.128
10863SOL    HW233489   1.516   0.330   3.066
10864SOL     OW33490   3.132   3.906   1.842
10864SOL    HW133491   3.173   3.950   1.921
10864SOL    HW233492   3.057   3.962   1.808
10865SOL     OW33493   2.743   2.115   2.883
10865SOL    HW133494   2.836   2.078   2.892
10865SOL    HW233495   2.682   2.044   2.850
10866SOL     OW33496   1.112   3.343   4.282
10866SOL    HW133497   1.205   3.376   4.267
10866SOL    HW233498   1.074   3.387   4.364
10867SOL     OW33499   4.655   3.002   0.230
10867SOL    HW133500   4.566   3.006   0.276
10867SOL    HW233501   4.664   2.915   0.181
10868SOL     OW33502   1.216   6.959   5.177
10868SOL    HW133503   1.187   6.899   5.103
10868SOL    HW233504   1.267   6.906   5.245
10869NA      NA33505   0.195   0.984   6.559
10870NA      NA33506   4.647   4.810   5.074
10871NA      NA33507   0.718   4.907   3.112
10872NA      NA33508   6.193   3.715   3.477
10873NA      NA33509   4.115   2.292   5.270
10874NA      NA33510   2.212   3.951   6.820
10875NA      NA33511   1.558   5.414   0.603
10876NA      NA33512   4.189   4.939   2.272
10877NA      NA33513   5.224   3.202   1.325
10878NA      NA33514   3.831   1.836   0.542
10879NA      NA33515   5.428   6.538   1.342
10880NA      NA33516   2.768   6.659   4.668
10881NA      NA33517   3.994   5.279   2.734
10882NA      NA33518   3.999   4.995   6.609
   7.02052   7.02052   7.02052
