Generated by trjconv : CNT in water t= 241.00000
33518
    1C        C    1   2.841   2.767   4.746
    1C        C    2   2.894   2.714   4.866
    1C        C    3   2.843   2.772   4.983
    1C        C    4   2.852   2.774   4.260
    1C        C    5   2.903   2.726   4.383
    1C        C    6   2.846   2.770   4.504
    1C        C    7   3.012   2.639   4.625
    1C        C    8   2.895   2.718   4.626
    1C        C    9   3.077   2.605   4.746
    1C        C   10   3.007   2.629   4.866
    1C        C   11   3.183   2.488   4.977
    1C        C   12   3.061   2.556   4.972
    1C        C   13   2.850   2.770   3.774
    1C        C   14   2.904   2.722   3.895
    1C        C   15   2.851   2.770   4.018
    1C        C   16   3.022   2.645   4.137
    1C        C   17   2.902   2.719   4.139
    1C        C   18   3.084   2.612   4.260
    1C        C   19   3.020   2.647   4.381
    1C        C   20   3.212   2.563   4.506
    1C        C   21   3.078   2.607   4.504
    1C        C   22   3.280   2.535   4.626
    1C        C   23   3.208   2.550   4.747
    1C        C   24   3.414   2.488   4.871
    1C        C   25   3.272   2.504   4.866
    1C        C   26   3.491   2.481   4.988
    1C        C   27   2.855   2.771   3.285
    1C        C   28   2.908   2.724   3.407
    1C        C   29   2.852   2.769   3.529
    1C        C   30   3.021   2.643   3.651
    1C        C   31   2.905   2.724   3.652
    1C        C   32   3.079   2.601   3.773
    1C        C   33   3.015   2.636   3.894
    1C        C   34   3.206   2.542   4.021
    1C        C   35   3.078   2.601   4.015
    1C        C   36   3.280   2.531   4.141
    1C        C   37   3.215   2.559   4.263
    1C        C   38   3.420   2.507   4.383
    1C        C   39   3.283   2.541   4.385
    1C        C   40   3.488   2.500   4.507
    1C        C   41   3.417   2.504   4.629
    1C        C   42   3.630   2.485   4.750
    1C        C   43   3.488   2.481   4.749
    1C        C   44   3.704   2.487   4.870
    1C        C   45   3.630   2.473   4.988
    1C        C   46   2.842   2.760   2.795
    1C        C   47   2.896   2.715   2.918
    1C        C   48   2.848   2.766   3.041
    1C        C   49   3.019   2.639   3.163
    1C        C   50   2.905   2.722   3.162
    1C        C   51   3.082   2.605   3.285
    1C        C   52   3.020   2.638   3.407
    1C        C   53   3.210   2.545   3.528
    1C        C   54   3.081   2.603   3.530
    1C        C   55   3.277   2.523   3.651
    1C        C   56   3.210   2.548   3.773
    1C        C   57   3.414   2.505   3.894
    1C        C   58   3.274   2.526   3.898
    1C        C   59   3.485   2.498   4.015
    1C        C   60   3.418   2.505   4.139
    1C        C   61   3.631   2.496   4.260
    1C        C   62   3.490   2.494   4.261
    1C        C   63   3.700   2.501   4.383
    1C        C   64   3.629   2.501   4.505
    1C        C   65   3.833   2.548   4.625
    1C        C   66   3.699   2.504   4.628
    1C        C   67   3.903   2.566   4.747
    1C        C   68   3.841   2.522   4.865
    1C        C   69   4.055   2.583   4.978
    1C        C   70   3.925   2.530   4.977
    1C        C   71   2.825   2.737   2.306
    1C        C   72   2.881   2.695   2.429
    1C        C   73   2.831   2.746   2.551
    1C        C   74   3.011   2.633   2.672
    1C        C   75   2.890   2.706   2.674
    1C        C   76   3.076   2.604   2.794
    1C        C   77   3.013   2.636   2.916
    1C        C   78   3.205   2.547   3.038
    1C        C   79   3.074   2.599   3.038
    1C        C   80   3.274   2.526   3.159
    1C        C   81   3.210   2.544   3.284
    1C        C   82   3.414   2.491   3.401
    1C        C   83   3.275   2.517   3.406
    1C        C   84   3.483   2.490   3.525
    1C        C   85   3.415   2.495   3.648
    1C        C   86   3.624   2.505   3.769
    1C        C   87   3.484   2.490   3.772
    1C        C   88   3.696   2.510   3.891
    1C        C   89   3.627   2.501   4.014
    1C        C   90   3.833   2.550   4.138
    1C        C   91   3.697   2.512   4.136
    1C        C   92   3.900   2.576   4.260
    1C        C   93   3.835   2.544   4.381
    1C        C   94   4.023   2.641   4.501
    1C        C   95   3.899   2.574   4.503
    1C        C   96   4.092   2.670   4.621
    1C        C   97   4.029   2.632   4.741
    1C        C   98   4.196   2.761   4.861
    1C        C   99   4.098   2.656   4.863
    1C        C  100   4.215   2.844   4.973
    1C        C  101   2.820   2.732   2.067
    1C        C  102   2.989   2.594   2.192
    1C        C  103   2.877   2.683   2.185
    1C        C  104   3.062   2.574   2.313
    1C        C  105   2.999   2.616   2.432
    1C        C  106   3.200   2.537   2.551
    1C        C  107   3.071   2.593   2.551
    1C        C  108   3.272   2.521   2.672
    1C        C  109   3.205   2.546   2.793
    1C        C  110   3.410   2.493   2.914
    1C        C  111   3.272   2.524   2.916
    1C        C  112   3.484   2.493   3.035
    1C        C  113   3.413   2.501   3.157
    1C        C  114   3.625   2.490   3.281
    1C        C  115   3.484   2.487   3.279
    1C        C  116   3.694   2.502   3.404
    1C        C  117   3.624   2.496   3.527
    1C        C  118   3.831   2.551   3.647
    1C        C  119   3.695   2.513   3.648
    1C        C  120   3.894   2.579   3.771
    1C        C  121   3.831   2.552   3.895
    1C        C  122   4.022   2.644   4.014
    1C        C  123   3.900   2.573   4.016
    1C        C  124   4.087   2.674   4.136
    1C        C  125   4.028   2.635   4.258
    1C        C  126   4.201   2.760   4.377
    1C        C  127   4.089   2.674   4.380
    1C        C  128   4.251   2.813   4.498
    1C        C  129   4.201   2.761   4.619
    1C        C  130   4.329   2.931   4.737
    1C        C  131   4.248   2.814   4.740
    1C        C  132   4.357   3.002   4.856
    1C        C  133   4.282   2.965   4.969
    1C        C  134   3.175   2.474   2.082
    1C        C  135   3.040   2.511   2.087
    1C        C  136   3.260   2.477   2.193
    1C        C  137   3.192   2.517   2.310
    1C        C  138   3.406   2.485   2.429
    1C        C  139   3.266   2.506   2.430
    1C        C  140   3.481   2.483   2.549
    1C        C  141   3.412   2.501   2.670
    1C        C  142   3.623   2.494   2.790
    1C        C  143   3.482   2.496   2.793
    1C        C  144   3.694   2.503   2.912
    1C        C  145   3.625   2.498   3.035
    1C        C  146   3.830   2.536   3.155
    1C        C  147   3.694   2.498   3.158
    1C        C  148   3.894   2.562   3.278
    1C        C  149   3.830   2.540   3.402
    1C        C  150   4.023   2.633   3.523
    1C        C  151   3.896   2.571   3.523
    1C        C  152   4.085   2.670   3.645
    1C        C  153   4.020   2.641   3.767
    1C        C  154   4.190   2.768   3.887
    1C        C  155   4.076   2.683   3.889
    1C        C  156   4.241   2.812   4.011
    1C        C  157   4.199   2.760   4.136
    1C        C  158   4.341   2.921   4.253
    1C        C  159   4.254   2.809   4.256
    1C        C  160   4.375   2.985   4.374
    1C        C  161   4.335   2.927   4.496
    1C        C  162   4.442   3.113   4.614
    1C        C  163   4.374   2.989   4.616
    1C        C  164   4.474   3.180   4.735
    1C        C  165   4.432   3.121   4.856
    1C        C  166   4.519   3.322   4.970
    1C        C  167   4.480   3.189   4.969
    1C        C  168   3.475   2.436   2.074
    1C        C  169   3.399   2.454   2.190
    1C        C  170   3.618   2.471   2.305
    1C        C  171   3.476   2.468   2.308
    1C        C  172   3.694   2.492   2.423
    1C        C  173   3.623   2.484   2.544
    1C        C  174   3.827   2.539   2.668
    1C        C  175   3.692   2.497   2.666
    1C        C  176   3.899   2.557   2.788
    1C        C  177   3.831   2.538   2.910
    1C        C  178   4.022   2.628   3.031
    1C        C  179   3.897   2.563   3.033
    1C        C  180   4.079   2.666   3.154
    1C        C  181   4.020   2.627   3.276
    1C        C  182   4.190   2.754   3.397
    1C        C  183   4.082   2.663   3.398
    1C        C  184   4.240   2.806   3.518
    1C        C  185   4.196   2.757   3.643
    1C        C  186   4.338   2.916   3.763
    1C        C  187   4.248   2.807   3.765
    1C        C  188   4.378   2.974   3.886
    1C        C  189   4.336   2.917   4.008
    1C        C  190   4.442   3.102   4.127
    1C        C  191   4.379   2.976   4.128
    1C        C  192   4.469   3.171   4.247
    1C        C  193   4.441   3.110   4.371
    1C        C  194   4.498   3.317   4.490
    1C        C  195   4.465   3.180   4.492
    1C        C  196   4.517   3.387   4.612
    1C        C  197   4.513   3.317   4.734
    1C        C  198   4.552   3.536   4.853
    1C        C  199   4.534   3.394   4.851
    1C        C  200   4.583   3.619   4.966
    1C        C  201   3.614   2.417   2.073
    1C        C  202   3.825   2.512   2.183
    1C        C  203   3.692   2.459   2.185
    1C        C  204   3.898   2.544   2.301
    1C        C  205   3.831   2.525   2.425
    1C        C  206   4.023   2.619   2.543
    1C        C  207   3.897   2.555   2.546
    1C        C  208   4.086   2.655   2.664
    1C        C  209   4.024   2.623   2.787
    1C        C  210   4.197   2.748   2.907
    1C        C  211   4.084   2.663   2.909
    1C        C  212   4.248   2.796   3.029
    1C        C  213   4.193   2.751   3.151
    1C        C  214   4.332   2.909   3.270
    1C        C  215   4.241   2.801   3.274
    1C        C  216   4.372   2.969   3.392
    1C        C  217   4.333   2.913   3.515
    1C        C  218   4.433   3.099   3.640
    1C        C  219   4.374   2.971   3.638
    1C        C  220   4.462   3.167   3.760
    1C        C  221   4.441   3.101   3.883
    1C        C  222   4.502   3.305   4.003
    1C        C  223   4.467   3.168   4.005
    1C        C  224   4.508   3.379   4.123
    1C        C  225   4.502   3.309   4.245
    1C        C  226   4.523   3.522   4.366
    1C        C  227   4.517   3.381   4.366
    1C        C  228   4.515   3.597   4.486
    1C        C  229   4.525   3.528   4.609
    1C        C  230   4.502   3.741   4.725
    1C        C  231   4.535   3.603   4.728
    1C        C  232   4.492   3.816   4.844
    1C        C  233   4.550   3.755   4.956
    1C        C  234   4.020   2.609   2.063
    1C        C  235   3.893   2.551   2.067
    1C        C  236   4.089   2.646   2.179
    1C        C  237   4.025   2.607   2.299
    1C        C  238   4.199   2.735   2.420
    1C        C  239   4.084   2.651   2.420
    1C        C  240   4.253   2.786   2.540
    1C        C  241   4.197   2.742   2.663
    1C        C  242   4.337   2.904   2.783
    1C        C  243   4.250   2.793   2.784
    1C        C  244   4.379   2.962   2.904
    1C        C  245   4.342   2.902   3.027
    1C        C  246   4.436   3.093   3.149
    1C        C  247   4.376   2.965   3.148
    1C        C  248   4.459   3.160   3.271
    1C        C  249   4.431   3.097   3.394
    1C        C  250   4.493   3.301   3.513
    1C        C  251   4.454   3.165   3.516
    1C        C  252   4.512   3.371   3.635
    1C        C  253   4.499   3.303   3.758
    1C        C  254   4.524   3.514   3.877
    1C        C  255   4.515   3.373   3.880
    1C        C  256   4.514   3.590   3.996
    1C        C  257   4.517   3.520   4.119
    1C        C  258   4.482   3.727   4.242
    1C        C  259   4.517   3.591   4.242
    1C        C  260   4.464   3.799   4.362
    1C        C  261   4.482   3.734   4.487
    1C        C  262   4.425   3.942   4.603
    1C        C  263   4.476   3.810   4.605
    1C        C  264   4.399   4.011   4.724
    1C        C  265   4.433   3.945   4.844
    1C        C  266   4.322   4.130   4.956
    1C        C  267   4.396   4.013   4.960
    1C        C  268   4.266   2.768   2.063
    1C        C  269   4.198   2.736   2.181
    1C        C  270   4.355   2.885   2.300
    1C        C  271   4.255   2.784   2.300
    1C        C  272   4.391   2.950   2.420
    1C        C  273   4.344   2.894   2.541
    1C        C  274   4.444   3.085   2.659
    1C        C  275   4.383   2.958   2.661
    1C        C  276   4.472   3.152   2.781
    1C        C  277   4.447   3.086   2.903
    1C        C  278   4.509   3.289   3.022
    1C        C  279   4.470   3.153   3.026
    1C        C  280   4.508   3.362   3.143
    1C        C  281   4.491   3.298   3.268
    1C        C  282   4.516   3.509   3.389
    1C        C  283   4.505   3.368   3.390
    1C        C  284   4.515   3.582   3.510
    1C        C  285   4.514   3.512   3.633
    1C        C  286   4.483   3.721   3.753
    1C        C  287   4.516   3.584   3.755
    1C        C  288   4.467   3.795   3.873
    1C        C  289   4.483   3.728   3.997
    1C        C  290   4.423   3.931   4.118
    1C        C  291   4.466   3.796   4.119
    1C        C  292   4.389   3.997   4.238
    1C        C  293   4.424   3.934   4.359
    1C        C  294   4.325   4.125   4.480
    1C        C  295   4.399   4.005   4.479
    1C        C  296   4.285   4.189   4.599
    1C        C  297   4.332   4.137   4.722
    1C        C  298   4.197   4.313   4.837
    1C        C  299   4.284   4.199   4.840
    1C        C  300   4.168   4.399   4.947
    1C        C  301   4.349   2.880   2.062
    1C        C  302   4.469   3.066   2.173
    1C        C  303   4.400   2.941   2.177
    1C        C  304   4.483   3.140   2.294
    1C        C  305   4.452   3.077   2.417
    1C        C  306   4.516   3.283   2.537
    1C        C  307   4.480   3.146   2.537
    1C        C  308   4.520   3.358   2.657
    1C        C  309   4.508   3.289   2.779
    1C        C  310   4.526   3.501   2.899
    1C        C  311   4.524   3.359   2.900
    1C        C  312   4.514   3.571   3.021
    1C        C  313   4.511   3.503   3.144
    1C        C  314   4.482   3.715   3.262
    1C        C  315   4.506   3.576   3.265
    1C        C  316   4.469   3.785   3.384
    1C        C  317   4.490   3.721   3.508
    1C        C  318   4.422   3.922   3.628
    1C        C  319   4.465   3.788   3.630
    1C        C  320   4.392   3.989   3.749
    1C        C  321   4.420   3.928   3.873
    1C        C  322   4.320   4.114   3.988
    1C        C  323   4.393   3.993   3.995
    1C        C  324   4.283   4.176   4.110
    1C        C  325   4.320   4.121   4.234
    1C        C  326   4.188   4.284   4.353
    1C        C  327   4.285   4.181   4.357
    1C        C  328   4.137   4.339   4.473
    1C        C  329   4.192   4.296   4.596
    1C        C  330   4.027   4.440   4.711
    1C        C  331   4.140   4.354   4.713
    1C        C  332   3.974   4.496   4.829
    1C        C  333   4.051   4.476   4.944
    1C        C  334   4.551   3.264   2.058
    1C        C  335   4.535   3.125   2.060
    1C        C  336   4.534   3.344   2.171
    1C        C  337   4.512   3.279   2.294
    1C        C  338   4.517   3.494   2.408
    1C        C  339   4.523   3.353   2.415
    1C        C  340   4.520   3.565   2.530
    1C        C  341   4.525   3.499   2.655
    1C        C  342   4.495   3.710   2.773
    1C        C  343   4.514   3.570   2.776
    1C        C  344   4.476   3.780   2.894
    1C        C  345   4.486   3.709   3.016
    1C        C  346   4.419   3.912   3.136
    1C        C  347   4.464   3.779   3.137
    1C        C  348   4.395   3.981   3.257
    1C        C  349   4.425   3.919   3.381
    1C        C  350   4.322   4.104   3.500
    1C        C  351   4.393   3.982   3.503
    1C        C  352   4.278   4.165   3.620
    1C        C  353   4.319   4.110   3.743
    1C        C  354   4.183   4.274   3.865
    1C        C  355   4.278   4.169   3.865
    1C        C  356   4.130   4.322   3.987
    1C        C  357   4.184   4.276   4.109
    1C        C  358   4.018   4.410   4.231
    1C        C  359   4.132   4.327   4.230
    1C        C  360   3.958   4.454   4.351
    1C        C  361   4.025   4.424   4.472
    1C        C  362   3.830   4.523   4.590
    1C        C  363   3.960   4.468   4.590
    1C        C  364   3.764   4.552   4.712
    1C        C  365   3.841   4.543   4.830
    1C        C  366   3.629   4.590   4.948
    1C        C  367   3.766   4.569   4.946
    1C        C  368   4.512   3.560   2.050
    1C        C  369   4.533   3.485   2.167
    1C        C  370   4.500   3.702   2.284
    1C        C  371   4.517   3.562   2.284
    1C        C  372   4.484   3.773   2.405
    1C        C  373   4.500   3.704   2.528
    1C        C  374   4.423   3.905   2.645
    1C        C  375   4.479   3.775   2.648
    1C        C  376   4.394   3.972   2.766
    1C        C  377   4.429   3.914   2.890
    1C        C  378   4.316   4.094   3.010
    1C        C  379   4.392   3.975   3.012
    1C        C  380   4.276   4.155   3.131
    1C        C  381   4.314   4.097   3.254
    1C        C  382   4.176   4.256   3.376
    1C        C  383   4.273   4.154   3.377
    1C        C  384   4.125   4.309   3.497
    1C        C  385   4.181   4.268   3.620
    1C        C  386   4.013   4.397   3.742
    1C        C  387   4.131   4.319   3.741
    1C        C  388   3.949   4.429   3.863
    1C        C  389   4.008   4.393   3.986
    1C        C  390   3.821   4.489   4.106
    1C        C  391   3.950   4.432   4.110
    1C        C  392   3.754   4.516   4.227
    1C        C  393   3.826   4.506   4.349
    1C        C  394   3.620   4.557   4.474
    1C        C  395   3.760   4.540   4.469
    1C        C  396   3.548   4.566   4.595
    1C        C  397   3.624   4.569   4.714
    1C        C  398   3.412   4.545   4.836
    1C        C  399   3.550   4.574   4.834
    1C        C  400   3.343   4.516   4.954
    1C        C  401   4.502   3.699   2.049
    1C        C  402   4.452   3.913   2.165
    1C        C  403   4.486   3.775   2.165
    1C        C  404   4.414   3.977   2.285
    1C        C  405   4.441   3.908   2.405
    1C        C  406   4.327   4.093   2.525
    1C        C  407   4.402   3.973   2.524
    1C        C  408   4.278   4.151   2.644
    1C        C  409   4.320   4.092   2.766
    1C        C  410   4.174   4.249   2.886
    1C        C  411   4.272   4.146   2.887
    1C        C  412   4.124   4.300   3.008
    1C        C  413   4.178   4.257   3.132
    1C        C  414   4.003   4.380   3.253
    1C        C  415   4.121   4.302   3.253
    1C        C  416   3.944   4.416   3.377
    1C        C  417   4.005   4.383   3.500
    1C        C  418   3.814   4.478   3.619
    1C        C  419   3.946   4.426   3.621
    1C        C  420   3.748   4.505   3.741
    1C        C  421   3.817   4.480   3.862
    1C        C  422   3.613   4.535   3.986
    1C        C  423   3.751   4.508   3.984
    1C        C  424   3.543   4.537   4.109
    1C        C  425   3.614   4.535   4.231
    1C        C  426   3.406   4.545   4.356
    1C        C  427   3.547   4.553   4.353
    1C        C  428   3.333   4.544   4.477
    1C        C  429   3.407   4.553   4.597
    1C        C  430   3.194   4.518   4.719
    1C        C  431   3.334   4.541   4.718
    1C        C  432   3.125   4.496   4.842
    1C        C  433   3.206   4.494   4.957
    1C        C  434   4.389   4.123   2.055
    1C        C  435   4.448   3.997   2.053
    1C        C  436   4.303   4.163   2.163
    1C        C  437   4.337   4.097   2.284
    1C        C  438   4.178   4.244   2.402
    1C        C  439   4.284   4.151   2.403
    1C        C  440   4.122   4.294   2.522
    1C        C  441   4.177   4.249   2.644
    1C        C  442   4.002   4.374   2.765
    1C        C  443   4.121   4.297   2.765
    1C        C  444   3.943   4.410   2.888
    1C        C  445   4.007   4.378   3.010
    1C        C  446   3.812   4.470   3.129
    1C        C  447   3.942   4.413   3.131
    1C        C  448   3.749   4.494   3.253
    1C        C  449   3.817   4.477   3.376
    1C        C  450   3.609   4.528   3.496
    1C        C  451   3.748   4.502   3.497
    1C        C  452   3.542   4.543   3.619
    1C        C  453   3.609   4.535   3.742
    1C        C  454   3.398   4.541   3.864
    1C        C  455   3.539   4.538   3.865
    1C        C  456   3.334   4.524   3.988
    1C        C  457   3.402   4.530   4.112
    1C        C  458   3.198   4.490   4.235
    1C        C  459   3.335   4.523   4.236
    1C        C  460   3.127   4.479   4.357
    1C        C  461   3.196   4.511   4.476
    1C        C  462   3.000   4.428   4.605
    1C        C  463   3.127   4.490   4.598
    1C        C  464   2.934   4.393   4.724
    1C        C  465   2.995   4.437   4.845
    1C        C  466   2.799   4.335   4.962
    1C        C  467   2.907   4.424   4.958
    1C        C  468   4.122   4.286   2.041
    1C        C  469   4.187   4.247   2.159
    1C        C  470   4.005   4.364   2.279
    1C        C  471   4.128   4.294   2.279
    1C        C  472   3.938   4.399   2.399
    1C        C  473   4.002   4.368   2.521
    1C        C  474   3.808   4.458   2.643
    1C        C  475   3.937   4.400   2.642
    1C        C  476   3.744   4.489   2.765
    1C        C  477   3.814   4.467   2.885
    1C        C  478   3.607   4.519   3.008
    1C        C  479   3.746   4.493   3.006
    1C        C  480   3.537   4.527   3.131
    1C        C  481   3.611   4.524   3.251
    1C        C  482   3.399   4.538   3.378
    1C        C  483   3.540   4.535   3.373
    1C        C  484   3.330   4.525   3.501
    1C        C  485   3.401   4.540   3.623
    1C        C  486   3.190   4.494   3.744
    1C        C  487   3.326   4.534   3.743
    1C        C  488   3.129   4.468   3.869
    1C        C  489   3.197   4.488   3.992
    1C        C  490   3.003   4.405   4.113
    1C        C  491   3.129   4.467   4.114
    1C        C  492   2.944   4.374   4.238
    1C        C  493   3.001   4.415   4.360
    1C        C  494   2.826   4.302   4.480
    1C        C  495   2.941   4.384   4.484
    1C        C  496   2.773   4.254   4.602
    1C        C  497   2.823   4.304   4.724
    1C        C  498   2.665   4.164   4.842
    1C        C  499   2.756   4.272   4.844
    1C        C  500   2.593   4.122   4.954
    1C        C  501   4.000   4.353   2.040
    1C        C  502   3.815   4.463   2.156
    1C        C  503   3.943   4.403   2.158
    1C        C  504   3.743   4.483   2.275
    1C        C  505   3.808   4.455   2.397
    1C        C  506   3.604   4.510   2.516
    1C        C  507   3.742   4.480   2.520
    1C        C  508   3.535   4.517   2.639
    1C        C  509   3.605   4.510   2.762
    1C        C  510   3.395   4.523   2.888
    1C        C  511   3.536   4.520   2.885
    1C        C  512   3.325   4.526   3.010
    1C        C  513   3.396   4.533   3.132
    1C        C  514   3.193   4.491   3.258
    1C        C  515   3.328   4.531   3.256
    1C        C  516   3.126   4.463   3.379
    1C        C  517   3.194   4.488   3.501
    1C        C  518   2.997   4.408   3.623
    1C        C  519   3.123   4.472   3.622
    1C        C  520   2.937   4.372   3.745
    1C        C  521   3.005   4.401   3.866
    1C        C  522   2.831   4.285   3.994
    1C        C  523   2.946   4.366   3.990
    1C        C  524   2.780   4.239   4.117
    1C        C  525   2.828   4.293   4.238
    1C        C  526   2.691   4.133   4.364
    1C        C  527   2.776   4.246   4.361
    1C        C  528   2.648   4.077   4.486
    1C        C  529   2.686   4.143   4.605
    1C        C  530   2.583   3.957   4.731
    1C        C  531   2.639   4.087   4.727
    1C        C  532   2.539   3.902   4.855
    1C        C  533   2.528   3.998   4.960
    1C        C  534   3.618   4.549   2.039
    1C        C  535   3.754   4.516   2.042
    1C        C  536   3.533   4.533   2.152
    1C        C  537   3.605   4.517   2.274
    1C        C  538   3.393   4.512   2.400
    1C        C  539   3.533   4.525   2.395
    1C        C  540   3.323   4.506   2.523
    1C        C  541   3.394   4.510   2.645
    1C        C  542   3.185   4.480   2.769
    1C        C  543   3.323   4.506   2.767
    1C        C  544   3.121   4.458   2.893
    1C        C  545   3.189   4.486   3.014
    1C        C  546   2.997   4.404   3.137
    1C        C  547   3.123   4.469   3.137
    1C        C  548   2.940   4.361   3.259
    1C        C  549   2.999   4.402   3.381
    1C        C  550   2.826   4.279   3.504
    1C        C  551   2.935   4.369   3.503
    1C        C  552   2.772   4.236   3.628
    1C        C  553   2.825   4.287   3.749
    1C        C  554   2.689   4.127   3.875
    1C        C  555   2.778   4.236   3.872
    1C        C  556   2.646   4.071   3.998
    1C        C  557   2.693   4.127   4.119
    1C        C  558   2.597   3.942   4.244
    1C        C  559   2.654   4.071   4.243
    1C        C  560   2.562   3.881   4.367
    1C        C  561   2.582   3.952   4.488
    1C        C  562   2.523   3.750   4.615
    1C        C  563   2.558   3.887   4.611
    1C        C  564   2.515   3.682   4.739
    1C        C  565   2.524   3.759   4.858
    1C        C  566   2.535   3.548   4.980
    1C        C  567   2.531   3.687   4.977
    1C        C  568   3.328   4.466   2.038
    1C        C  569   3.392   4.511   2.154
    1C        C  570   3.184   4.474   2.280
    1C        C  571   3.323   4.505   2.278
    1C        C  572   3.115   4.458   2.402
    1C        C  573   3.184   4.481   2.523
    1C        C  574   2.991   4.398   2.650
    1C        C  575   3.118   4.460   2.646
    1C        C  576   2.933   4.358   2.773
    1C        C  577   2.994   4.396   2.894
    1C        C  578   2.827   4.269   3.016
    1C        C  579   2.935   4.360   3.018
    1C        C  580   2.779   4.219   3.139
    1C        C  581   2.830   4.273   3.259
    1C        C  582   2.691   4.115   3.384
    1C        C  583   2.778   4.227   3.382
    1C        C  584   2.661   4.056   3.508
    1C        C  585   2.694   4.118   3.631
    1C        C  586   2.588   3.937   3.755
    1C        C  587   2.656   4.062   3.754
    1C        C  588   2.563   3.876   3.880
    1C        C  589   2.589   3.942   4.002
    1C        C  590   2.528   3.739   4.129
    1C        C  591   2.566   3.875   4.124
    1C        C  592   2.517   3.671   4.252
    1C        C  593   2.525   3.745   4.372
    1C        C  594   2.509   3.535   4.498
    1C        C  595   2.513   3.677   4.495
    1C        C  596   2.510   3.467   4.621
    1C        C  597   2.511   3.540   4.742
    1C        C  598   2.534   3.329   4.859
    1C        C  599   2.521   3.470   4.864
    1C        C  600   2.532   3.252   4.976
    1C        C  601   3.192   4.443   2.044
    1C        C  602   2.978   4.398   2.163
    1C        C  603   3.113   4.444   2.160
    1C        C  604   2.921   4.361   2.288
    1C        C  605   2.990   4.393   2.407
    1C        C  606   2.822   4.267   2.531
    1C        C  607   2.930   4.358   2.530
    1C        C  608   2.768   4.220   2.653
    1C        C  609   2.820   4.273   2.774
    1C        C  610   2.681   4.112   2.895
    1C        C  611   2.771   4.221   2.896
    1C        C  612   2.645   4.055   3.019
    1C        C  613   2.684   4.114   3.142
    1C        C  614   2.580   3.930   3.264
    1C        C  615   2.645   4.056   3.264
    1C        C  616   2.558   3.868   3.389
    1C        C  617   2.591   3.933   3.510
    1C        C  618   2.532   3.732   3.637
    1C        C  619   2.567   3.869   3.634
    1C        C  620   2.518   3.667   3.762
    1C        C  621   2.526   3.739   3.883
    1C        C  622   2.511   3.528   4.007
    1C        C  623   2.518   3.669   4.006
    1C        C  624   2.516   3.459   4.130
    1C        C  625   2.512   3.530   4.252
    1C        C  626   2.546   3.324   4.378
    1C        C  627   2.519   3.463   4.377
    1C        C  628   2.559   3.255   4.500
    1C        C  629   2.539   3.329   4.619
    1C        C  630   2.597   3.122   4.742
    1C        C  631   2.551   3.256   4.740
    1C        C  632   2.618   3.053   4.865
    1C        C  633   2.565   3.116   4.982
    1C        C  634   2.780   4.305   2.058
    1C        C  635   2.890   4.391   2.050
    1C        C  636   2.742   4.233   2.172
    1C        C  637   2.809   4.273   2.290
    1C        C  638   2.673   4.111   2.411
    1C        C  639   2.761   4.222   2.412
    1C        C  640   2.632   4.054   2.533
    1C        C  641   2.682   4.108   2.654
    1C        C  642   2.580   3.921   2.777
    1C        C  643   2.638   4.050   2.775
    1C        C  644   2.559   3.856   2.900
    1C        C  645   2.586   3.927   3.020
    1C        C  646   2.534   3.723   3.148
    1C        C  647   2.562   3.861   3.142
    1C        C  648   2.518   3.656   3.271
    1C        C  649   2.531   3.729   3.392
    1C        C  650   2.508   3.521   3.518
    1C        C  651   2.515   3.662   3.515
    1C        C  652   2.518   3.455   3.642
    1C        C  653   2.512   3.526   3.764
    1C        C  654   2.540   3.318   3.888
    1C        C  655   2.507   3.456   3.886
    1C        C  656   2.562   3.252   4.011
    1C        C  657   2.545   3.321   4.133
    1C        C  658   2.612   3.122   4.257
    1C        C  659   2.565   3.255   4.256
    1C        C  660   2.635   3.056   4.380
    1C        C  661   2.605   3.122   4.501
    1C        C  662   2.713   2.938   4.624
    1C        C  663   2.637   3.057   4.623
    1C        C  664   2.751   2.878   4.745
    1C        C  665   2.698   2.935   4.864
    1C        C  666   2.746   2.872   4.980
    1C        C  667   2.683   4.022   2.058
    1C        C  668   2.681   4.106   2.170
    1C        C  669   2.584   3.915   2.293
    1C        C  670   2.641   4.045   2.290
    1C        C  671   2.556   3.849   2.415
    1C        C  672   2.580   3.923   2.533
    1C        C  673   2.518   3.719   2.661
    1C        C  674   2.554   3.855   2.655
    1C        C  675   2.508   3.645   2.781
    1C        C  676   2.527   3.718   2.901
    1C        C  677   2.508   3.512   3.030
    1C        C  678   2.517   3.653   3.026
    1C        C  679   2.506   3.442   3.153
    1C        C  680   2.506   3.515   3.273
    1C        C  681   2.533   3.308   3.400
    1C        C  682   2.510   3.447   3.397
    1C        C  683   2.557   3.245   3.525
    1C        C  684   2.541   3.315   3.646
    1C        C  685   2.608   3.114   3.770
    1C        C  686   2.558   3.246   3.768
    1C        C  687   2.640   3.052   3.893
    1C        C  688   2.606   3.118   4.013
    1C        C  689   2.722   2.940   4.138
    1C        C  690   2.641   3.056   4.135
    1C        C  691   2.760   2.881   4.261
    1C        C  692   2.715   2.940   4.381
    1C        C  693   2.759   2.882   4.502
    1C        C  694   2.635   3.891   2.060
    1C        C  695   2.527   3.705   2.180
    1C        C  696   2.576   3.837   2.175
    1C        C  697   2.502   3.637   2.301
    1C        C  698   2.511   3.715   2.419
    1C        C  699   2.484   3.506   2.542
    1C        C  700   2.496   3.646   2.542
    1C        C  701   2.493   3.434   2.663
    1C        C  702   2.501   3.504   2.786
    1C        C  703   2.522   3.296   2.910
    1C        C  704   2.508   3.437   2.910
    1C        C  705   2.541   3.231   3.034
    1C        C  706   2.531   3.303   3.155
    1C        C  707   2.603   3.107   3.277
    1C        C  708   2.549   3.237   3.279
    1C        C  709   2.635   3.049   3.402
    1C        C  710   2.603   3.111   3.525
    1C        C  711   2.716   2.932   3.648
    1C        C  712   2.638   3.050   3.647
    1C        C  713   2.755   2.875   3.771
    1C        C  714   2.718   2.934   3.894
    1C        C  715   2.765   2.882   4.017
    1C        C  716   2.452   3.501   2.063
    1C        C  717   2.496   3.634   2.064
    1C        C  718   2.458   3.424   2.184
    1C        C  719   2.480   3.497   2.304
    1C        C  720   2.508   3.287   2.426
    1C        C  721   2.480   3.425   2.426
    1C        C  722   2.534   3.220   2.548
    1C        C  723   2.520   3.295   2.667
    1C        C  724   2.579   3.091   2.790
    1C        C  725   2.531   3.224   2.789
    1C        C  726   2.613   3.029   2.912
    1C        C  727   2.587   3.097   3.033
    1C        C  728   2.708   2.923   3.160
    1C        C  729   2.628   3.039   3.156
    1C        C  730   2.759   2.875   3.283
    1C        C  731   2.716   2.933   3.404
    1C        C  732   2.761   2.877   3.526
    1C        C  733   2.489   3.205   2.071
    1C        C  734   2.482   3.283   2.187
    1C        C  735   2.583   3.087   2.303
    1C        C  736   2.522   3.215   2.305
    1C        C  737   2.618   3.024   2.424
    1C        C  738   2.592   3.092   2.545
    1C        C  739   2.698   2.912   2.668
    1C        C  740   2.615   3.027   2.669
    1C        C  741   2.743   2.861   2.792
    1C        C  742   2.701   2.918   2.914
    1C        C  743   2.748   2.867   3.037
    1C        C  744   2.547   3.078   2.070
    1C        C  745   2.680   2.898   2.183
    1C        C  746   2.609   3.020   2.181
    1C        C  747   2.729   2.842   2.303
    1C        C  748   2.687   2.900   2.425
    1C        C  749   2.736   2.850   2.547
    1C        C  750   2.731   2.839   2.067
    1C        C  751   3.670   2.335   1.963
    1C        O  752   3.685   2.210   1.954
    1C        O  753   3.696   2.387   1.835
    1C        C  754   4.633   3.043   1.985
    1C        O  755   4.614   3.027   1.861
    1C        O  756   4.767   3.030   2.022
    1C        C  757   4.451   4.222   1.965
    1C        O  758   4.550   4.297   1.986
    1C        O  759   4.402   4.229   1.834
    1C        C  760   3.592   4.655   1.939
    1C        O  761   3.621   4.775   1.963
    1C        O  762   3.565   4.617   1.807
    1C        C  763   2.867   4.508   1.962
    1C        O  764   2.847   4.487   1.839
    1C        O  765   2.806   4.625   2.009
    1C        C  766   2.352   3.473   1.958
    1C        O  767   2.399   3.433   1.848
    1C        O  768   2.230   3.409   1.983
    1C        C  769   4.698   3.589   5.054
    1C        O  770   4.673   3.552   5.171
    1C        O  771   4.811   3.524   5.002
    1C        C  772   4.265   4.427   5.056
    1C        O  773   4.227   4.400   5.173
    1C        O  774   4.363   4.527   5.044
    1C        C  775   4.147   2.520   5.075
    1C        O  776   4.200   2.407   5.057
    1C        O  777   4.163   2.568   5.206
    1C        C  778   2.865   4.549   5.025
    1C        O  779   2.788   4.638   4.981
    1C        O  780   2.933   4.612   5.131
    1C        C  781   2.485   3.042   5.082
    1C        O  782   2.364   3.008   5.073
    1C        O  783   2.537   3.023   5.210
    1C        C  784   2.426   3.985   5.067
    1C        O  785   2.307   4.015   5.038
    1C        O  786   2.453   3.950   5.200
    1C        C  787   2.954   2.414   2.014
    1C        O  788   2.906   2.422   1.898
    1C        O  789   2.908   2.305   2.086
    1C        C  790   3.191   2.379   5.076
    1C        O  791   3.217   2.261   5.041
    1C        O  792   3.186   2.418   5.211
    1C        H  793   4.275   3.036   5.050
    1C        H  794   4.201   2.805   5.072
    1C        H  795   4.508   3.129   5.053
    1C        H  796   4.544   3.361   5.067
    1C        H  797   4.596   3.821   5.027
    1C        H  798   4.429   3.983   5.057
    1C        H  799   4.267   4.148   5.046
    1C        H  800   4.040   4.553   5.018
    1C        H  801   3.818   4.574   5.039
    1C        H  802   3.603   4.674   5.010
    1C        H  803   3.396   4.535   5.045
    1C        H  804   3.161   4.462   5.049
    1C        H  805   3.880   2.529   5.074
    1C        H  806   3.675   2.424   5.072
    1C        H  807   3.015   2.571   5.068
    1C        H  808   3.444   2.462   5.082
    1C        H  809   2.833   2.721   5.077
    1C        H  810   2.729   2.916   5.076
    1C        H  811   2.512   3.297   5.071
    1C        H  812   2.593   3.507   5.060
    1C        H  813   2.522   3.741   5.069
    1C        H  814   2.583   4.183   5.041
    1C        H  815   2.746   4.328   5.054
    1C        H  816   2.688   2.870   1.974
    1C        H  817   2.813   2.668   1.982
    1C        H  818   3.213   2.433   1.991
    1C        H  819   3.436   2.485   1.988
    1C        H  820   3.844   2.531   1.974
    1C        H  821   4.057   2.634   1.966
    1C        H  822   4.283   2.700   1.982
    1C        H  823   4.393   2.904   1.967
    1C        H  824   4.613   3.296   1.976
    1C        H  825   4.540   3.516   1.957
    1C        H  826   4.549   3.744   1.964
    1C        H  827   3.817   4.556   1.965
    1C        H  828   3.929   4.314   1.971
    1C        H  829   4.188   4.331   1.970
    1C        H  830   4.478   3.958   1.958
    1C        H  831   2.632   3.846   1.962
    1C        H  832   2.755   4.045   1.982
    1C        H  833   2.721   4.287   1.971
    1C        H  834   3.369   4.489   1.942
    1C        H  835   3.150   4.400   1.956
    1C        H  836   2.500   3.009   2.003
    1C        H  837   2.418   3.223   1.993
    1C        H  838   2.511   3.678   1.967
    2V3OU   H29  839   2.804   3.558   2.465
    2V3OU   C27  840   2.788   3.505   2.562
    2V3OU   H27  841   2.729   3.570   2.632
    2V3OU   H28  842   2.737   3.409   2.536
    2V3OU   O11  843   2.913   3.478   2.628
    2V3OU   C15  844   2.930   3.399   2.740
    2V3OU   C13  845   3.054   3.372   2.801
    2V3OU   C14  846   3.084   3.265   2.885
    2V3OU   C16  847   2.979   3.179   2.917
    2V3OU    H6  848   2.993   3.103   2.995
    2V3OU   C12  849   3.217   3.225   2.936
    2V3OU    O2  850   3.239   3.119   2.999
    2V3OU   C10  851   3.330   3.307   2.889
    2V3OU    C8  852   3.461   3.263   2.909
    2V3OU   O10  853   3.489   3.157   2.988
    2V3OU   H26  854   3.403   3.111   2.984
    2V3OU    C6  855   3.569   3.344   2.863
    2V3OU    C5  856   3.539   3.465   2.801
    2V3OU    C4  857   3.709   3.292   2.869
    2V3OU    H4  858   3.729   3.225   2.958
    2V3OU    H5  859   3.719   3.224   2.780
    2V3OU    C2  860   3.817   3.400   2.868
    2V3OU    O6  861   3.810   3.477   2.988
    2V3OU   H21  862   3.768   3.555   2.947
    2V3OU    C3  863   3.785   3.492   2.750
    2V3OU    H2  864   3.867   3.568   2.741
    2V3OU    H3  865   3.782   3.438   2.652
    2V3OU   C25  866   3.951   3.327   2.856
    2V3OU    O7  867   3.992   3.291   2.746
    2V3OU   C26  868   4.028   3.288   2.981
    2V3OU   H22  869   4.064   3.379   3.035
    2V3OU   H23  870   4.118   3.227   2.953
    2V3OU    O8  871   3.962   3.207   3.076
    2V3OU   H24  872   3.932   3.266   3.148
    2V3OU    C1  873   3.651   3.560   2.769
    2V3OU    H1  874   3.627   3.621   2.677
    2V3OU    O3  875   3.662   3.654   2.876
    2V3OU   C19  876   3.621   3.788   2.847
    2V3OU    H9  877   3.517   3.800   2.804
    2V3OU    O4  878   3.714   3.843   2.757
    2V3OU   C20  879   3.842   3.874   2.813
    2V3OU   H10  880   3.887   3.770   2.819
    2V3OU   C24  881   3.610   3.857   2.983
    2V3OU   H16  882   3.542   3.799   3.050
    2V3OU   H17  883   3.568   3.960   2.970
    2V3OU   C23  884   3.751   3.870   3.042
    2V3OU   H15  885   3.792   3.766   3.061
    2V3OU    N1  886   3.737   3.951   3.162
    2V3OU   H19  887   3.808   3.929   3.229
    2V3OU   H20  888   3.642   3.938   3.191
    2V3OU   C21  889   3.847   3.948   2.947
    2V3OU   H11  890   3.953   3.925   2.978
    2V3OU    O5  891   3.830   4.089   2.942
    2V3OU   H18  892   3.789   4.106   3.029
    2V3OU   C22  893   3.911   3.951   2.701
    2V3OU   H12  894   3.858   4.050   2.691
    2V3OU   H13  895   3.898   3.901   2.602
    2V3OU   H14  896   4.021   3.956   2.716
    2V3OU   C11  897   3.163   3.471   2.790
    2V3OU    O1  898   3.141   3.588   2.752
    2V3OU    C9  899   3.302   3.426   2.817
    2V3OU    C7  900   3.406   3.505   2.769
    2V3OU    O9  901   3.389   3.609   2.680
    2V3OU   H25  902   3.295   3.631   2.681
    2V3OU   C17  903   2.827   3.311   2.778
    2V3OU    H7  904   2.727   3.354   2.774
    2V3OU   C18  905   2.853   3.207   2.866
    2V3OU    H8  906   2.779   3.172   2.941
    3SOL     OW  907   2.671   5.124   0.188
    3SOL    HW1  908   2.619   5.142   0.272
    3SOL    HW2  909   2.757   5.079   0.211
    4SOL     OW  910   0.051   6.702   2.198
    4SOL    HW1  911   7.011   6.745   2.134
    4SOL    HW2  912   0.020   6.718   2.292
    5SOL     OW  913   4.266   1.840   2.774
    5SOL    HW1  914   4.329   1.763   2.764
    5SOL    HW2  915   4.269   1.897   2.692
    6SOL     OW  916   4.109   1.182   1.870
    6SOL    HW1  917   4.156   1.158   1.785
    6SOL    HW2  918   4.165   1.247   1.921
    7SOL     OW  919   0.005   3.526   2.716
    7SOL    HW1  920   0.048   3.464   2.650
    7SOL    HW2  921   0.069   3.545   2.790
    8SOL     OW  922   3.451   0.564   0.020
    8SOL    HW1  923   3.369   0.548   0.075
    8SOL    HW2  924   3.502   0.479   0.011
    9SOL     OW  925   5.136   1.061   5.710
    9SOL    HW1  926   5.041   1.077   5.684
    9SOL    HW2  927   5.138   1.022   5.802
   10SOL     OW  928   1.614   4.948   6.256
   10SOL    HW1  929   1.554   4.881   6.299
   10SOL    HW2  930   1.703   4.907   6.238
   11SOL     OW  931   2.808   0.134   5.776
   11SOL    HW1  932   2.766   0.049   5.744
   11SOL    HW2  933   2.882   0.111   5.840
   12SOL     OW  934   3.592   5.622   3.474
   12SOL    HW1  935   3.627   5.568   3.551
   12SOL    HW2  936   3.640   5.710   3.471
   13SOL     OW  937   3.944   6.484   4.309
   13SOL    HW1  938   4.035   6.486   4.350
   13SOL    HW2  939   3.875   6.497   4.381
   14SOL     OW  940   3.916   5.632   5.758
   14SOL    HW1  941   3.862   5.689   5.696
   14SOL    HW2  942   3.884   5.538   5.753
   15SOL     OW  943   0.886   6.682   2.249
   15SOL    HW1  944   0.952   6.752   2.275
   15SOL    HW2  945   0.924   6.626   2.175
   16SOL     OW  946   5.016   2.558   6.050
   16SOL    HW1  947   5.052   2.652   6.055
   16SOL    HW2  948   4.917   2.560   6.064
   17SOL     OW  949   5.569   6.643   6.059
   17SOL    HW1  950   5.595   6.634   6.155
   17SOL    HW2  951   5.519   6.728   6.045
   18SOL     OW  952   3.342   0.753   5.647
   18SOL    HW1  953   3.242   0.753   5.643
   18SOL    HW2  954   3.374   0.663   5.676
   19SOL     OW  955   0.262   1.776   3.030
   19SOL    HW1  956   0.261   1.695   2.973
   19SOL    HW2  957   0.357   1.803   3.047
   20SOL     OW  958   5.137   1.719   3.925
   20SOL    HW1  959   5.077   1.639   3.935
   20SOL    HW2  960   5.232   1.688   3.922
   21SOL     OW  961   3.475   1.339   2.829
   21SOL    HW1  962   3.477   1.404   2.753
   21SOL    HW2  963   3.553   1.278   2.822
   22SOL     OW  964   2.408   6.687   6.926
   22SOL    HW1  965   2.393   6.681   0.003
   22SOL    HW2  966   2.365   6.770   6.891
   23SOL     OW  967   5.614   5.463   3.290
   23SOL    HW1  968   5.648   5.387   3.234
   23SOL    HW2  969   5.547   5.516   3.237
   24SOL     OW  970   4.329   0.199   3.257
   24SOL    HW1  971   4.352   0.107   3.289
   24SOL    HW2  972   4.256   0.237   3.314
   25SOL     OW  973   2.989   0.758   4.859
   25SOL    HW1  974   3.050   0.747   4.781
   25SOL    HW2  975   3.036   0.727   4.942
   26SOL     OW  976   0.704   0.722   0.364
   26SOL    HW1  977   0.623   0.773   0.333
   26SOL    HW2  978   0.719   0.741   0.461
   27SOL     OW  979   1.249   2.398   2.402
   27SOL    HW1  980   1.289   2.419   2.313
   27SOL    HW2  981   1.217   2.483   2.445
   28SOL     OW  982   3.075   1.684   6.026
   28SOL    HW1  983   3.099   1.750   6.097
   28SOL    HW2  984   2.983   1.704   5.992
   29SOL     OW  985   6.350   1.652   2.093
   29SOL    HW1  986   6.318   1.743   2.068
   29SOL    HW2  987   6.446   1.657   2.121
   30SOL     OW  988   4.067   0.807   3.844
   30SOL    HW1  989   3.981   0.768   3.878
   30SOL    HW2  990   4.112   0.856   3.919
   31SOL     OW  991   0.887   2.667   6.137
   31SOL    HW1  992   0.831   2.584   6.131
   31SOL    HW2  993   0.943   2.675   6.055
   32SOL     OW  994   0.772   1.728   2.645
   32SOL    HW1  995   0.721   1.650   2.682
   32SOL    HW2  996   0.750   1.740   2.549
   33SOL     OW  997   1.244   4.725   5.732
   33SOL    HW1  998   1.271   4.630   5.748
   33SOL    HW2  999   1.321   4.776   5.693
   34SOL     OW 1000   2.923   0.210   4.333
   34SOL    HW1 1001   2.953   0.275   4.263
   34SOL    HW2 1002   2.827   0.184   4.316
   35SOL     OW 1003   3.687   3.931   6.755
   35SOL    HW1 1004   3.587   3.937   6.754
   35SOL    HW2 1005   3.720   3.899   6.666
   36SOL     OW 1006   6.010   1.597   4.884
   36SOL    HW1 1007   6.036   1.684   4.925
   36SOL    HW2 1008   6.085   1.564   4.826
   37SOL     OW 1009   1.266   2.179   0.481
   37SOL    HW1 1010   1.311   2.097   0.517
   37SOL    HW2 1011   1.294   2.193   0.386
   38SOL     OW 1012   0.380   5.079   2.016
   38SOL    HW1 1013   0.391   5.125   2.104
   38SOL    HW2 1014   0.283   5.073   1.993
   39SOL     OW 1015   6.815   4.309   6.626
   39SOL    HW1 1016   6.801   4.404   6.653
   39SOL    HW2 1017   6.750   4.284   6.555
   40SOL     OW 1018   5.480   1.605   0.324
   40SOL    HW1 1019   5.430   1.639   0.404
   40SOL    HW2 1020   5.433   1.634   0.241
   41SOL     OW 1021   6.697   5.012   3.175
   41SOL    HW1 1022   6.727   5.091   3.122
   41SOL    HW2 1023   6.604   5.028   3.209
   42SOL     OW 1024   2.676   5.310   4.696
   42SOL    HW1 1025   2.624   5.289   4.614
   42SOL    HW2 1026   2.769   5.339   4.670
   43SOL     OW 1027   5.214   0.163   5.599
   43SOL    HW1 1028   5.121   0.182   5.631
   43SOL    HW2 1029   5.250   0.083   5.647
   44SOL     OW 1030   4.155   1.324   6.024
   44SOL    HW1 1031   4.245   1.350   5.991
   44SOL    HW2 1032   4.115   1.399   6.077
   45SOL     OW 1033   4.288   5.887   2.204
   45SOL    HW1 1034   4.200   5.865   2.161
   45SOL    HW2 1035   4.314   5.981   2.181
   46SOL     OW 1036   0.292   3.167   2.767
   46SOL    HW1 1037   0.350   3.225   2.824
   46SOL    HW2 1038   0.199   3.167   2.803
   47SOL     OW 1039   4.747   3.945   1.071
   47SOL    HW1 1040   4.813   3.873   1.088
   47SOL    HW2 1041   4.773   3.997   0.990
   48SOL     OW 1042   6.644   3.327   5.516
   48SOL    HW1 1043   6.629   3.388   5.594
   48SOL    HW2 1044   6.649   3.380   5.432
   49SOL     OW 1045   4.953   3.737   1.743
   49SOL    HW1 1046   4.975   3.804   1.814
   49SOL    HW2 1047   4.987   3.769   1.655
   50SOL     OW 1048   5.707   1.071   5.294
   50SOL    HW1 1049   5.685   1.150   5.352
   50SOL    HW2 1050   5.767   1.099   5.220
   51SOL     OW 1051   2.384   6.585   3.071
   51SOL    HW1 1052   2.318   6.566   3.143
   51SOL    HW2 1053   2.451   6.511   3.067
   52SOL     OW 1054   6.206   3.522   2.964
   52SOL    HW1 1055   6.157   3.606   2.941
   52SOL    HW2 1056   6.286   3.513   2.905
   53SOL     OW 1057   3.839   6.397   3.915
   53SOL    HW1 1058   3.763   6.377   3.977
   53SOL    HW2 1059   3.863   6.493   3.921
   54SOL     OW 1060   3.852   4.788   1.067
   54SOL    HW1 1061   3.820   4.761   0.976
   54SOL    HW2 1062   3.936   4.739   1.089
   55SOL     OW 1063   2.171   3.009   6.386
   55SOL    HW1 1064   2.217   3.045   6.468
   55SOL    HW2 1065   2.094   2.952   6.414
   56SOL     OW 1066   0.288   0.547   1.459
   56SOL    HW1 1067   0.312   0.629   1.408
   56SOL    HW2 1068   0.235   0.573   1.541
   57SOL     OW 1069   4.628   1.169   1.880
   57SOL    HW1 1070   4.636   1.167   1.781
   57SOL    HW2 1071   4.695   1.107   1.921
   58SOL     OW 1072   0.222   6.450   5.757
   58SOL    HW1 1073   0.190   6.545   5.753
   58SOL    HW2 1074   0.311   6.447   5.802
   59SOL     OW 1075   1.549   2.571   5.555
   59SOL    HW1 1076   1.475   2.503   5.551
   59SOL    HW2 1077   1.615   2.552   5.483
   60SOL     OW 1078   5.393   2.639   4.698
   60SOL    HW1 1079   5.445   2.592   4.769
   60SOL    HW2 1080   5.439   2.724   4.673
   61SOL     OW 1081   6.620   2.230   4.532
   61SOL    HW1 1082   6.564   2.206   4.611
   61SOL    HW2 1083   6.566   2.216   4.448
   62SOL     OW 1084   1.209   1.399   1.886
   62SOL    HW1 1085   1.179   1.347   1.806
   62SOL    HW2 1086   1.160   1.486   1.891
   63SOL     OW 1087   5.682   1.068   3.546
   63SOL    HW1 1088   5.594   1.021   3.551
   63SOL    HW2 1089   5.718   1.082   3.638
   64SOL     OW 1090   0.045   3.572   5.821
   64SOL    HW1 1091   0.117   3.504   5.805
   64SOL    HW2 1092   0.002   3.596   5.734
   65SOL     OW 1093   0.735   5.078   6.811
   65SOL    HW1 1094   0.663   5.011   6.832
   65SOL    HW2 1095   0.694   5.158   6.766
   66SOL     OW 1096   4.401   1.144   5.403
   66SOL    HW1 1097   4.485   1.189   5.434
   66SOL    HW2 1098   4.410   1.120   5.306
   67SOL     OW 1099   5.690   3.687   5.751
   67SOL    HW1 1100   5.771   3.701   5.807
   67SOL    HW2 1101   5.667   3.590   5.750
   68SOL     OW 1102   6.239   0.855   6.713
   68SOL    HW1 1103   6.217   0.910   6.632
   68SOL    HW2 1104   6.203   0.762   6.702
   69SOL     OW 1105   0.878   3.786   6.091
   69SOL    HW1 1106   0.822   3.869   6.091
   69SOL    HW2 1107   0.844   3.723   6.161
   70SOL     OW 1108   5.480   4.003   5.155
   70SOL    HW1 1109   5.391   3.969   5.185
   70SOL    HW2 1110   5.491   4.098   5.183
   71SOL     OW 1111   4.310   1.499   3.913
   71SOL    HW1 1112   4.215   1.467   3.916
   71SOL    HW2 1113   4.313   1.587   3.866
   72SOL     OW 1114   2.106   0.166   4.082
   72SOL    HW1 1115   2.029   0.162   4.145
   72SOL    HW2 1116   2.093   0.242   4.018
   73SOL     OW 1117   3.533   0.792   1.175
   73SOL    HW1 1118   3.631   0.777   1.187
   73SOL    HW2 1119   3.492   0.813   1.264
   74SOL     OW 1120   4.050   0.325   0.234
   74SOL    HW1 1121   4.030   0.227   0.240
   74SOL    HW2 1122   3.964   0.376   0.226
   75SOL     OW 1123   4.640   0.551   0.892
   75SOL    HW1 1124   4.568   0.507   0.946
   75SOL    HW2 1125   4.612   0.644   0.868
   76SOL     OW 1126   2.897   3.448   1.546
   76SOL    HW1 1127   2.982   3.409   1.511
   76SOL    HW2 1128   2.828   3.376   1.553
   77SOL     OW 1129   0.722   6.968   3.542
   77SOL    HW1 1130   0.669   0.028   3.521
   77SOL    HW2 1131   0.697   6.934   3.632
   78SOL     OW 1132   5.839   1.347   0.194
   78SOL    HW1 1133   5.743   1.375   0.192
   78SOL    HW2 1134   5.845   1.247   0.194
   79SOL     OW 1135   3.076   5.949   0.993
   79SOL    HW1 1136   3.000   5.934   1.057
   79SOL    HW2 1137   3.157   5.899   1.026
   80SOL     OW 1138   4.959   1.356   4.674
   80SOL    HW1 1139   4.946   1.413   4.755
   80SOL    HW2 1140   4.924   1.265   4.691
   81SOL     OW 1141   2.243   0.092   2.387
   81SOL    HW1 1142   2.219   0.010   2.438
   81SOL    HW2 1143   2.282   0.066   2.299
   82SOL     OW 1144   5.862   4.753   0.671
   82SOL    HW1 1145   5.764   4.765   0.654
   82SOL    HW2 1146   5.907   4.721   0.588
   83SOL     OW 1147   0.800   0.225   0.117
   83SOL    HW1 1148   0.790   0.312   0.166
   83SOL    HW2 1149   0.886   0.182   0.143
   84SOL     OW 1150   6.466   2.722   3.499
   84SOL    HW1 1151   6.533   2.661   3.541
   84SOL    HW2 1152   6.508   2.810   3.479
   85SOL     OW 1153   1.654   1.139   4.143
   85SOL    HW1 1154   1.741   1.091   4.152
   85SOL    HW2 1155   1.643   1.172   4.050
   86SOL     OW 1156   0.618   1.623   6.154
   86SOL    HW1 1157   0.585   1.712   6.123
   86SOL    HW2 1158   0.563   1.593   6.233
   87SOL     OW 1159   4.619   4.351   1.256
   87SOL    HW1 1160   4.699   4.393   1.212
   87SOL    HW2 1161   4.643   4.318   1.347
   88SOL     OW 1162   3.681   1.936   5.932
   88SOL    HW1 1163   3.678   2.017   5.991
   88SOL    HW2 1164   3.734   1.957   5.850
   89SOL     OW 1165   2.330   2.580   6.001
   89SOL    HW1 1166   2.401   2.641   5.965
   89SOL    HW2 1167   2.265   2.557   5.928
   90SOL     OW 1168   4.229   5.178   2.435
   90SOL    HW1 1169   4.253   5.125   2.353
   90SOL    HW2 1170   4.281   5.143   2.513
   91SOL     OW 1171   5.818   3.993   6.038
   91SOL    HW1 1172   5.747   3.925   6.054
   91SOL    HW2 1173   5.861   3.977   5.949
   92SOL     OW 1174   4.280   4.709   0.854
   92SOL    HW1 1175   4.328   4.715   0.767
   92SOL    HW2 1176   4.283   4.798   0.900
   93SOL     OW 1177   3.146   3.630   0.390
   93SOL    HW1 1178   3.126   3.543   0.435
   93SOL    HW2 1179   3.067   3.691   0.399
   94SOL     OW 1180   2.062   6.099   5.962
   94SOL    HW1 1181   2.046   6.116   5.865
   94SOL    HW2 1182   2.060   6.000   5.979
   95SOL     OW 1183   0.900   0.270   3.020
   95SOL    HW1 1184   0.942   0.335   2.957
   95SOL    HW2 1185   0.968   0.237   3.085
   96SOL     OW 1186   3.267   0.398   4.804
   96SOL    HW1 1187   3.340   0.333   4.785
   96SOL    HW2 1188   3.247   0.452   4.722
   97SOL     OW 1189   2.513   3.336   6.154
   97SOL    HW1 1190   2.437   3.285   6.193
   97SOL    HW2 1191   2.489   3.433   6.146
   98SOL     OW 1192   0.563   3.562   0.852
   98SOL    HW1 1193   0.525   3.473   0.828
   98SOL    HW2 1194   0.501   3.634   0.821
   99SOL     OW 1195   3.693   2.546   1.406
   99SOL    HW1 1196   3.607   2.502   1.381
   99SOL    HW2 1197   3.703   2.544   1.506
  100SOL     OW 1198   0.769   6.765   4.918
  100SOL    HW1 1199   0.697   6.706   4.881
  100SOL    HW2 1200   0.858   6.721   4.904
  101SOL     OW 1201   1.825   5.192   2.422
  101SOL    HW1 1202   1.790   5.285   2.410
  101SOL    HW2 1203   1.748   5.128   2.423
  102SOL     OW 1204   3.872   5.442   1.463
  102SOL    HW1 1205   3.784   5.401   1.437
  102SOL    HW2 1206   3.929   5.454   1.381
  103SOL     OW 1207   2.187   2.191   1.561
  103SOL    HW1 1208   2.207   2.170   1.466
  103SOL    HW2 1209   2.254   2.147   1.620
  104SOL     OW 1210   1.693   5.977   2.508
  104SOL    HW1 1211   1.749   5.955   2.587
  104SOL    HW2 1212   1.718   5.918   2.431
  105SOL     OW 1213   6.891   1.258   6.003
  105SOL    HW1 1214   6.926   1.167   5.978
  105SOL    HW2 1215   6.954   1.328   5.970
  106SOL     OW 1216   3.568   6.497   4.795
  106SOL    HW1 1217   3.558   6.455   4.705
  106SOL    HW2 1218   3.608   6.432   4.858
  107SOL     OW 1219   0.949   1.075   0.960
  107SOL    HW1 1220   0.959   0.976   0.971
  107SOL    HW2 1221   0.870   1.107   1.012
  108SOL     OW 1222   2.691   6.821   5.800
  108SOL    HW1 1223   2.743   6.752   5.750
  108SOL    HW2 1224   2.622   6.861   5.740
  109SOL     OW 1225   0.953   0.996   2.432
  109SOL    HW1 1226   0.954   0.947   2.345
  109SOL    HW2 1227   1.031   1.058   2.437
  110SOL     OW 1228   3.049   5.944   3.845
  110SOL    HW1 1229   3.012   5.852   3.851
  110SOL    HW2 1230   3.135   5.949   3.895
  111SOL     OW 1231   1.355   1.202   4.156
  111SOL    HW1 1232   1.313   1.144   4.225
  111SOL    HW2 1233   1.455   1.194   4.163
  112SOL     OW 1234   3.379   6.210   6.217
  112SOL    HW1 1235   3.346   6.145   6.148
  112SOL    HW2 1236   3.338   6.190   6.305
  113SOL     OW 1237   0.624   5.426   2.625
  113SOL    HW1 1238   0.590   5.412   2.718
  113SOL    HW2 1239   0.708   5.373   2.612
  114SOL     OW 1240   1.357   0.008   2.423
  114SOL    HW1 1241   1.454   7.010   2.437
  114SOL    HW2 1242   1.302   6.953   2.454
  115SOL     OW 1243   4.979   1.410   3.362
  115SOL    HW1 1244   4.997   1.504   3.332
  115SOL    HW2 1245   5.057   1.376   3.415
  116SOL     OW 1246   6.085   5.655   1.969
  116SOL    HW1 1247   6.013   5.593   2.000
  116SOL    HW2 1248   6.061   5.749   1.994
  117SOL     OW 1249   1.716   2.074   0.691
  117SOL    HW1 1250   1.713   2.173   0.703
  117SOL    HW2 1251   1.624   2.041   0.669
  118SOL     OW 1252   1.719   0.667   2.442
  118SOL    HW1 1253   1.678   0.592   2.390
  118SOL    HW2 1254   1.647   0.726   2.479
  119SOL     OW 1255   0.787   0.391   6.895
  119SOL    HW1 1256   0.756   0.346   6.978
  119SOL    HW2 1257   0.885   0.377   6.884
  120SOL     OW 1258   5.804   0.227   6.324
  120SOL    HW1 1259   5.846   0.273   6.246
  120SOL    HW2 1260   5.838   0.267   6.409
  121SOL     OW 1261   1.756   3.389   6.167
  121SOL    HW1 1262   1.856   3.382   6.159
  121SOL    HW2 1263   1.729   3.484   6.160
  122SOL     OW 1264   1.359   3.838   6.408
  122SOL    HW1 1265   1.391   3.914   6.464
  122SOL    HW2 1266   1.356   3.865   6.312
  123SOL     OW 1267   0.596   1.080   2.798
  123SOL    HW1 1268   0.660   1.045   2.866
  123SOL    HW2 1269   0.563   1.004   2.742
  124SOL     OW 1270   3.374   2.629   0.393
  124SOL    HW1 1271   3.442   2.557   0.408
  124SOL    HW2 1272   3.284   2.596   0.424
  125SOL     OW 1273   3.522   1.825   0.718
  125SOL    HW1 1274   3.582   1.861   0.647
  125SOL    HW2 1275   3.553   1.735   0.747
  126SOL     OW 1276   1.794   4.250   0.675
  126SOL    HW1 1277   1.846   4.235   0.759
  126SOL    HW2 1278   1.698   4.266   0.698
  127SOL     OW 1279   0.818   4.734   6.941
  127SOL    HW1 1280   0.878   4.696   6.870
  127SOL    HW2 1281   0.751   4.795   6.899
  128SOL     OW 1282   5.072   2.262   1.183
  128SOL    HW1 1283   5.103   2.189   1.122
  128SOL    HW2 1284   5.037   2.223   1.268
  129SOL     OW 1285   3.059   3.300   6.382
  129SOL    HW1 1286   3.067   3.370   6.453
  129SOL    HW2 1287   2.968   3.258   6.388
  130SOL     OW 1288   1.282   1.887   4.532
  130SOL    HW1 1289   1.222   1.938   4.470
  130SOL    HW2 1290   1.374   1.927   4.529
  131SOL     OW 1291   4.846   0.782   3.395
  131SOL    HW1 1292   4.833   0.684   3.403
  131SOL    HW2 1293   4.757   0.827   3.391
  132SOL     OW 1294   2.810   3.179   1.798
  132SOL    HW1 1295   2.799   3.139   1.707
  132SOL    HW2 1296   2.882   3.131   1.847
  133SOL     OW 1297   5.192   1.246   4.322
  133SOL    HW1 1298   5.223   1.153   4.343
  133SOL    HW2 1299   5.267   1.298   4.281
  134SOL     OW 1300   6.812   0.919   2.699
  134SOL    HW1 1301   6.787   0.875   2.613
  134SOL    HW2 1302   6.730   0.958   2.742
  135SOL     OW 1303   5.445   3.868   3.862
  135SOL    HW1 1304   5.441   3.773   3.895
  135SOL    HW2 1305   5.540   3.899   3.862
  136SOL     OW 1306   2.083   5.444   5.322
  136SOL    HW1 1307   2.107   5.517   5.258
  136SOL    HW2 1308   2.051   5.484   5.407
  137SOL     OW 1309   5.651   1.339   3.161
  137SOL    HW1 1310   5.692   1.334   3.252
  137SOL    HW2 1311   5.617   1.249   3.135
  138SOL     OW 1312   1.240   4.140   2.606
  138SOL    HW1 1313   1.190   4.194   2.674
  138SOL    HW2 1314   1.242   4.044   2.634
  139SOL     OW 1315   1.536   6.836   5.357
  139SOL    HW1 1316   1.504   6.845   5.451
  139SOL    HW2 1317   1.575   6.922   5.325
  140SOL     OW 1318   1.109   6.718   3.724
  140SOL    HW1 1319   1.035   6.784   3.707
  140SOL    HW2 1320   1.076   6.647   3.787
  141SOL     OW 1321   0.125   2.629   5.098
  141SOL    HW1 1322   0.065   2.618   5.177
  141SOL    HW2 1323   0.116   2.721   5.061
  142SOL     OW 1324   1.075   4.209   1.179
  142SOL    HW1 1325   1.127   4.124   1.172
  142SOL    HW2 1326   1.042   4.221   1.273
  143SOL     OW 1327   5.523   4.096   0.876
  143SOL    HW1 1328   5.556   4.056   0.791
  143SOL    HW2 1329   5.472   4.027   0.928
  144SOL     OW 1330   1.106   4.785   6.011
  144SOL    HW1 1331   1.156   4.736   5.940
  144SOL    HW2 1332   1.165   4.858   6.048
  145SOL     OW 1333   0.819   5.391   0.952
  145SOL    HW1 1334   0.910   5.377   0.990
  145SOL    HW2 1335   0.816   5.353   0.859
  146SOL     OW 1336   4.440   0.920   6.093
  146SOL    HW1 1337   4.344   0.921   6.118
  146SOL    HW2 1338   4.473   0.826   6.090
  147SOL     OW 1339   5.512   3.248   6.152
  147SOL    HW1 1340   5.462   3.214   6.072
  147SOL    HW2 1341   5.502   3.183   6.228
  148SOL     OW 1342   6.850   5.621   1.061
  148SOL    HW1 1343   6.835   5.569   1.146
  148SOL    HW2 1344   6.763   5.637   1.016
  149SOL     OW 1345   4.043   2.259   3.897
  149SOL    HW1 1346   4.121   2.319   3.879
  149SOL    HW2 1347   4.013   2.270   3.992
  150SOL     OW 1348   5.856   0.094   0.643
  150SOL    HW1 1349   5.891   0.109   0.551
  150SOL    HW2 1350   5.828   0.181   0.684
  151SOL     OW 1351   3.147   1.735   1.370
  151SOL    HW1 1352   3.126   1.639   1.388
  151SOL    HW2 1353   3.153   1.751   1.271
  152SOL     OW 1354   0.112   0.765   1.597
  152SOL    HW1 1355   0.106   0.690   1.663
  152SOL    HW2 1356   0.091   0.851   1.644
  153SOL     OW 1357   3.175   0.702   3.617
  153SOL    HW1 1358   3.140   0.785   3.574
  153SOL    HW2 1359   3.102   0.634   3.624
  154SOL     OW 1360   1.103   3.224   1.620
  154SOL    HW1 1361   1.116   3.268   1.709
  154SOL    HW2 1362   1.026   3.266   1.572
  155SOL     OW 1363   0.483   1.562   4.520
  155SOL    HW1 1364   0.566   1.515   4.491
  155SOL    HW2 1365   0.490   1.659   4.500
  156SOL     OW 1366   0.330   0.450   1.025
  156SOL    HW1 1367   0.309   0.357   1.054
  156SOL    HW2 1368   0.335   0.510   1.105
  157SOL     OW 1369   5.335   2.899   1.591
  157SOL    HW1 1370   5.240   2.872   1.610
  157SOL    HW2 1371   5.357   2.981   1.644
  158SOL     OW 1372   1.759   3.422   2.155
  158SOL    HW1 1373   1.764   3.422   2.055
  158SOL    HW2 1374   1.843   3.459   2.193
  159SOL     OW 1375   4.667   4.256   2.799
  159SOL    HW1 1376   4.672   4.288   2.705
  159SOL    HW2 1377   4.572   4.245   2.826
  160SOL     OW 1378   5.193   5.910   0.856
  160SOL    HW1 1379   5.102   5.887   0.888
  160SOL    HW2 1380   5.238   5.829   0.819
  161SOL     OW 1381   1.557   6.205   3.398
  161SOL    HW1 1382   1.502   6.176   3.320
  161SOL    HW2 1383   1.536   6.300   3.422
  162SOL     OW 1384   3.363   6.466   0.238
  162SOL    HW1 1385   3.293   6.498   0.301
  162SOL    HW2 1386   3.452   6.504   0.263
  163SOL     OW 1387   6.328   5.384   1.431
  163SOL    HW1 1388   6.394   5.359   1.360
  163SOL    HW2 1389   6.312   5.483   1.429
  164SOL     OW 1390   0.048   4.266   2.212
  164SOL    HW1 1391   6.987   4.299   2.168
  164SOL    HW2 1392   0.038   4.271   2.311
  165SOL     OW 1393   5.140   3.427   1.052
  165SOL    HW1 1394   5.173   3.451   1.143
  165SOL    HW2 1395   5.217   3.401   0.994
  166SOL     OW 1396   1.517   3.754   2.196
  166SOL    HW1 1397   1.426   3.745   2.237
  166SOL    HW2 1398   1.514   3.720   2.102
  167SOL     OW 1399   4.697   3.404   6.867
  167SOL    HW1 1400   4.720   3.358   6.781
  167SOL    HW2 1401   4.771   3.389   6.932
  168SOL     OW 1402   3.163   2.816   0.692
  168SOL    HW1 1403   3.143   2.721   0.716
  168SOL    HW2 1404   3.179   2.868   0.776
  169SOL     OW 1405   5.509   1.783   1.939
  169SOL    HW1 1406   5.602   1.789   1.903
  169SOL    HW2 1407   5.481   1.872   1.975
  170SOL     OW 1408   0.567   6.924   2.894
  170SOL    HW1 1409   0.526   6.837   2.867
  170SOL    HW2 1410   0.663   6.926   2.866
  171SOL     OW 1411   2.351   4.738   7.008
  171SOL    HW1 1412   2.339   4.754   6.910
  171SOL    HW2 1413   2.396   4.818   0.026
  172SOL     OW 1414   6.525   0.959   2.770
  172SOL    HW1 1415   6.464   0.958   2.690
  172SOL    HW2 1416   6.486   0.902   2.842
  173SOL     OW 1417   6.448   1.144   4.282
  173SOL    HW1 1418   6.407   1.215   4.225
  173SOL    HW2 1419   6.547   1.147   4.273
  174SOL     OW 1420   3.956   5.827   3.925
  174SOL    HW1 1421   4.007   5.743   3.909
  174SOL    HW2 1422   3.926   5.866   3.838
  175SOL     OW 1423   3.201   6.879   1.906
  175SOL    HW1 1424   3.101   6.888   1.904
  175SOL    HW2 1425   3.234   6.858   1.814
  176SOL     OW 1426   6.587   4.083   0.657
  176SOL    HW1 1427   6.543   4.170   0.637
  176SOL    HW2 1428   6.662   4.098   0.721
  177SOL     OW 1429   6.351   3.032   2.915
  177SOL    HW1 1430   6.402   2.975   2.851
  177SOL    HW2 1431   6.389   3.022   3.007
  178SOL     OW 1432   2.840   3.681   6.449
  178SOL    HW1 1433   2.787   3.606   6.489
  178SOL    HW2 1434   2.777   3.749   6.412
  179SOL     OW 1435   4.376   1.701   5.781
  179SOL    HW1 1436   4.287   1.745   5.791
  179SOL    HW2 1437   4.384   1.662   5.689
  180SOL     OW 1438   2.216   6.825   0.301
  180SOL    HW1 1439   2.151   6.850   0.373
  180SOL    HW2 1440   2.199   6.881   0.220
  181SOL     OW 1441   3.430   3.119   5.888
  181SOL    HW1 1442   3.332   3.120   5.910
  181SOL    HW2 1443   3.443   3.153   5.794
  182SOL     OW 1444   3.568   1.777   5.319
  182SOL    HW1 1445   3.501   1.816   5.256
  182SOL    HW2 1446   3.544   1.804   5.413
  183SOL     OW 1447   3.715   2.102   3.131
  183SOL    HW1 1448   3.687   2.094   3.226
  183SOL    HW2 1449   3.637   2.128   3.075
  184SOL     OW 1450   1.043   6.820   4.657
  184SOL    HW1 1451   1.048   6.808   4.756
  184SOL    HW2 1452   0.960   6.777   4.623
  185SOL     OW 1453   0.216   1.419   6.372
  185SOL    HW1 1454   0.231   1.385   6.279
  185SOL    HW2 1455   0.190   1.342   6.431
  186SOL     OW 1456   5.913   0.877   4.257
  186SOL    HW1 1457   5.997   0.833   4.225
  186SOL    HW2 1458   5.874   0.824   4.332
  187SOL     OW 1459   5.065   0.132   2.515
  187SOL    HW1 1460   5.069   0.107   2.611
  187SOL    HW2 1461   5.057   0.049   2.459
  188SOL     OW 1462   1.186   2.801   2.860
  188SOL    HW1 1463   1.086   2.801   2.856
  188SOL    HW2 1464   1.216   2.827   2.952
  189SOL     OW 1465   2.441   5.334   1.224
  189SOL    HW1 1466   2.518   5.273   1.242
  189SOL    HW2 1467   2.362   5.305   1.279
  190SOL     OW 1468   5.024   2.977   5.190
  190SOL    HW1 1469   5.085   3.019   5.122
  190SOL    HW2 1470   5.058   2.998   5.282
  191SOL     OW 1471   6.167   0.304   6.898
  191SOL    HW1 1472   6.201   0.227   6.843
  191SOL    HW2 1473   6.117   0.268   6.977
  192SOL     OW 1474   0.874   5.254   1.777
  192SOL    HW1 1475   0.799   5.320   1.772
  192SOL    HW2 1476   0.961   5.303   1.771
  193SOL     OW 1477   4.467   3.771   5.319
  193SOL    HW1 1478   4.374   3.741   5.337
  193SOL    HW2 1479   4.525   3.692   5.301
  194SOL     OW 1480   4.316   0.526   2.914
  194SOL    HW1 1481   4.342   0.621   2.899
  194SOL    HW2 1482   4.233   0.522   2.970
  195SOL     OW 1483   1.765   0.003   4.118
  195SOL    HW1 1484   1.740   6.973   4.200
  195SOL    HW2 1485   1.848   0.055   4.136
  196SOL     OW 1486   3.297   0.475   0.838
  196SOL    HW1 1487   3.252   0.408   0.897
  196SOL    HW2 1488   3.230   0.518   0.778
  197SOL     OW 1489   2.187   6.977   1.160
  197SOL    HW1 1490   2.169   6.899   1.220
  197SOL    HW2 1491   2.167   6.951   1.066
  198SOL     OW 1492   5.372   6.736   1.384
  198SOL    HW1 1493   5.323   6.649   1.380
  198SOL    HW2 1494   5.307   6.810   1.406
  199SOL     OW 1495   0.097   1.565   3.164
  199SOL    HW1 1496   7.022   1.576   3.178
  199SOL    HW2 1497   0.135   1.649   3.124
  200SOL     OW 1498   1.244   4.860   2.297
  200SOL    HW1 1499   1.157   4.830   2.337
  200SOL    HW2 1500   1.305   4.781   2.286
  201SOL     OW 1501   6.444   6.607   6.229
  201SOL    HW1 1502   6.543   6.613   6.236
  201SOL    HW2 1503   6.403   6.697   6.243
  202SOL     OW 1504   4.663   0.604   6.608
  202SOL    HW1 1505   4.740   0.613   6.672
  202SOL    HW2 1506   4.628   0.510   6.611
  203SOL     OW 1507   4.580   2.608   4.366
  203SOL    HW1 1508   4.672   2.644   4.378
  203SOL    HW2 1509   4.552   2.618   4.270
  204SOL     OW 1510   0.693   0.858   6.323
  204SOL    HW1 1511   0.615   0.806   6.357
  204SOL    HW2 1512   0.667   0.954   6.313
  205SOL     OW 1513   0.871   1.284   3.204
  205SOL    HW1 1514   0.879   1.371   3.156
  205SOL    HW2 1515   0.779   1.275   3.242
  206SOL     OW 1516   6.862   4.750   0.947
  206SOL    HW1 1517   6.831   4.723   1.038
  206SOL    HW2 1518   6.961   4.766   0.948
  207SOL     OW 1519   5.440   1.269   3.414
  207SOL    HW1 1520   5.394   1.195   3.463
  207SOL    HW2 1521   5.472   1.237   3.326
  208SOL     OW 1522   5.728   2.797   5.245
  208SOL    HW1 1523   5.795   2.787   5.171
  208SOL    HW2 1524   5.708   2.894   5.258
  209SOL     OW 1525   0.298   4.552   3.789
  209SOL    HW1 1526   0.312   4.651   3.803
  209SOL    HW2 1527   0.289   4.508   3.878
  210SOL     OW 1528   3.928   1.724   0.892
  210SOL    HW1 1529   3.868   1.778   0.951
  210SOL    HW2 1530   3.927   1.628   0.922
  211SOL     OW 1531   2.429   6.217   2.994
  211SOL    HW1 1532   2.483   6.139   3.026
  211SOL    HW2 1533   2.490   6.295   2.977
  212SOL     OW 1534   1.353   4.340   1.884
  212SOL    HW1 1535   1.358   4.431   1.926
  212SOL    HW2 1536   1.341   4.349   1.785
  213SOL     OW 1537   3.065   0.681   0.037
  213SOL    HW1 1538   2.983   0.633   0.067
  213SOL    HW2 1539   3.089   0.650   6.967
  214SOL     OW 1540   4.562   5.011   1.599
  214SOL    HW1 1541   4.529   5.078   1.533
  214SOL    HW2 1542   4.484   4.971   1.647
  215SOL     OW 1543   1.940   3.399   1.124
  215SOL    HW1 1544   1.933   3.478   1.062
  215SOL    HW2 1545   1.859   3.342   1.115
  216SOL     OW 1546   2.316   5.935   3.782
  216SOL    HW1 1547   2.329   5.929   3.683
  216SOL    HW2 1548   2.386   5.994   3.822
  217SOL     OW 1549   2.296   2.328   4.135
  217SOL    HW1 1550   2.224   2.268   4.168
  217SOL    HW2 1551   2.258   2.418   4.113
  218SOL     OW 1552   0.804   3.578   4.497
  218SOL    HW1 1553   0.716   3.580   4.544
  218SOL    HW2 1554   0.856   3.660   4.519
  219SOL     OW 1555   4.486   6.545   6.212
  219SOL    HW1 1556   4.580   6.579   6.212
  219SOL    HW2 1557   4.487   6.446   6.201
  220SOL     OW 1558   3.566   0.152   1.265
  220SOL    HW1 1559   3.476   0.184   1.237
  220SOL    HW2 1560   3.611   0.107   1.188
  221SOL     OW 1561   6.300   3.061   1.284
  221SOL    HW1 1562   6.337   3.092   1.197
  221SOL    HW2 1563   6.265   3.140   1.335
  222SOL     OW 1564   2.543   4.996   5.145
  222SOL    HW1 1565   2.603   4.924   5.180
  222SOL    HW2 1566   2.483   4.959   5.075
  223SOL     OW 1567   5.446   2.462   0.100
  223SOL    HW1 1568   5.424   2.425   0.191
  223SOL    HW2 1569   5.522   2.526   0.108
  224SOL     OW 1570   2.262   1.980   4.709
  224SOL    HW1 1571   2.178   1.968   4.761
  224SOL    HW2 1572   2.329   2.029   4.765
  225SOL     OW 1573   4.654   3.007   6.314
  225SOL    HW1 1574   4.619   3.018   6.407
  225SOL    HW2 1575   4.635   2.914   6.282
  226SOL     OW 1576   1.197   0.686   6.033
  226SOL    HW1 1577   1.197   0.746   6.112
  226SOL    HW2 1578   1.151   0.600   6.056
  227SOL     OW 1579   1.381   3.231   2.985
  227SOL    HW1 1580   1.396   3.139   3.019
  227SOL    HW2 1581   1.467   3.282   2.987
  228SOL     OW 1582   2.858   6.441   3.885
  228SOL    HW1 1583   2.881   6.462   3.790
  228SOL    HW2 1584   2.941   6.443   3.941
  229SOL     OW 1585   5.083   5.845   0.123
  229SOL    HW1 1586   5.064   5.820   0.218
  229SOL    HW2 1587   5.020   5.797   0.063
  230SOL     OW 1588   3.547   4.899   3.753
  230SOL    HW1 1589   3.513   4.874   3.663
  230SOL    HW2 1590   3.481   4.872   3.823
  231SOL     OW 1591   6.263   2.186   6.951
  231SOL    HW1 1592   6.165   2.178   6.971
  231SOL    HW2 1593   6.275   2.218   6.857
  232SOL     OW 1594   0.957   3.346   6.581
  232SOL    HW1 1595   1.029   3.295   6.535
  232SOL    HW2 1596   0.876   3.349   6.522
  233SOL     OW 1597   2.799   1.984   3.646
  233SOL    HW1 1598   2.712   1.997   3.694
  233SOL    HW2 1599   2.781   1.970   3.548
  234SOL     OW 1600   4.932   6.905   4.944
  234SOL    HW1 1601   5.016   6.858   4.915
  234SOL    HW2 1602   4.944   6.941   5.037
  235SOL     OW 1603   3.546   2.853   1.627
  235SOL    HW1 1604   3.573   2.879   1.535
  235SOL    HW2 1605   3.621   2.872   1.691
  236SOL     OW 1606   4.392   3.252   6.730
  236SOL    HW1 1607   4.304   3.213   6.757
  236SOL    HW2 1608   4.438   3.189   6.667
  237SOL     OW 1609   5.780   4.699   2.005
  237SOL    HW1 1610   5.775   4.600   2.014
  237SOL    HW2 1611   5.873   4.726   1.979
  238SOL     OW 1612   5.157   1.867   0.286
  238SOL    HW1 1613   5.144   1.775   0.248
  238SOL    HW2 1614   5.233   1.913   0.240
  239SOL     OW 1615   0.489   5.414   6.499
  239SOL    HW1 1616   0.467   5.405   6.402
  239SOL    HW2 1617   0.576   5.462   6.509
  240SOL     OW 1618   0.422   2.809   3.323
  240SOL    HW1 1619   0.442   2.895   3.275
  240SOL    HW2 1620   0.358   2.827   3.398
  241SOL     OW 1621   1.702   0.328   4.613
  241SOL    HW1 1622   1.710   0.251   4.675
  241SOL    HW2 1623   1.770   0.398   4.637
  242SOL     OW 1624   3.173   3.243   5.287
  242SOL    HW1 1625   3.215   3.165   5.241
  242SOL    HW2 1626   3.245   3.298   5.332
  243SOL     OW 1627   3.926   0.369   5.518
  243SOL    HW1 1628   3.997   0.329   5.461
  243SOL    HW2 1629   3.913   0.311   5.599
  244SOL     OW 1630   5.755   2.256   4.312
  244SOL    HW1 1631   5.668   2.301   4.333
  244SOL    HW2 1632   5.750   2.214   4.221
  245SOL     OW 1633   6.438   3.587   4.247
  245SOL    HW1 1634   6.531   3.615   4.269
  245SOL    HW2 1635   6.437   3.491   4.219
  246SOL     OW 1636   5.039   2.526   3.434
  246SOL    HW1 1637   5.043   2.584   3.515
  246SOL    HW2 1638   5.061   2.431   3.460
  247SOL     OW 1639   2.756   2.016   1.757
  247SOL    HW1 1640   2.833   1.963   1.793
  247SOL    HW2 1641   2.721   2.077   1.828
  248SOL     OW 1642   3.851   2.141   2.757
  248SOL    HW1 1643   3.928   2.149   2.693
  248SOL    HW2 1644   3.884   2.149   2.851
  249SOL     OW 1645   4.052   0.033   5.162
  249SOL    HW1 1646   4.024   0.097   5.090
  249SOL    HW2 1647   4.141   7.017   5.141
  250SOL     OW 1648   5.352   2.407   1.047
  250SOL    HW1 1649   5.283   2.377   0.981
  250SOL    HW2 1650   5.323   2.492   1.090
  251SOL     OW 1651   4.383   3.902   5.951
  251SOL    HW1 1652   4.398   3.837   6.026
  251SOL    HW2 1653   4.440   3.876   5.873
  252SOL     OW 1654   6.422   6.650   6.618
  252SOL    HW1 1655   6.382   6.558   6.626
  252SOL    HW2 1656   6.516   6.647   6.650
  253SOL     OW 1657   2.764   4.502   6.981
  253SOL    HW1 1658   2.774   4.462   0.049
  253SOL    HW2 1659   2.831   4.461   6.919
  254SOL     OW 1660   5.090   2.962   3.405
  254SOL    HW1 1661   5.140   2.875   3.401
  254SOL    HW2 1662   5.099   3.009   3.318
  255SOL     OW 1663   1.864   2.802   4.535
  255SOL    HW1 1664   1.894   2.817   4.629
  255SOL    HW2 1665   1.773   2.841   4.522
  256SOL     OW 1666   6.503   4.295   6.108
  256SOL    HW1 1667   6.412   4.323   6.076
  256SOL    HW2 1668   6.503   4.198   6.130
  257SOL     OW 1669   5.355   6.359   3.819
  257SOL    HW1 1670   5.404   6.326   3.900
  257SOL    HW2 1671   5.396   6.444   3.788
  258SOL     OW 1672   1.112   4.989   4.715
  258SOL    HW1 1673   1.145   5.083   4.701
  258SOL    HW2 1674   1.160   4.948   4.793
  259SOL     OW 1675   1.503   1.568   2.418
  259SOL    HW1 1676   1.475   1.487   2.366
  259SOL    HW2 1677   1.566   1.623   2.363
  260SOL     OW 1678   4.552   1.378   0.726
  260SOL    HW1 1679   4.633   1.340   0.680
  260SOL    HW2 1680   4.518   1.312   0.793
  261SOL     OW 1681   6.153   4.024   0.193
  261SOL    HW1 1682   6.197   3.960   0.130
  261SOL    HW2 1683   6.200   4.112   0.190
  262SOL     OW 1684   6.468   4.271   0.477
  262SOL    HW1 1685   6.380   4.261   0.431
  262SOL    HW2 1686   6.535   4.309   0.413
  263SOL     OW 1687   0.561   1.175   3.592
  263SOL    HW1 1688   0.576   1.081   3.561
  263SOL    HW2 1689   0.470   1.183   3.631
  264SOL     OW 1690   4.858   3.453   6.394
  264SOL    HW1 1691   4.828   3.371   6.442
  264SOL    HW2 1692   4.794   3.528   6.415
  265SOL     OW 1693   4.843   5.026   2.829
  265SOL    HW1 1694   4.942   5.037   2.829
  265SOL    HW2 1695   4.800   5.112   2.801
  266SOL     OW 1696   3.387   3.094   5.508
  266SOL    HW1 1697   3.322   3.049   5.446
  266SOL    HW2 1698   3.471   3.040   5.512
  267SOL     OW 1699   0.416   1.714   6.568
  267SOL    HW1 1700   0.505   1.749   6.598
  267SOL    HW2 1701   0.410   1.719   6.468
  268SOL     OW 1702   3.841   0.492   5.044
  268SOL    HW1 1703   3.938   0.496   5.020
  268SOL    HW2 1704   3.829   0.432   5.123
  269SOL     OW 1705   1.516   3.144   1.333
  269SOL    HW1 1706   1.483   3.224   1.384
  269SOL    HW2 1707   1.546   3.074   1.398
  270SOL     OW 1708   7.017   0.602   0.198
  270SOL    HW1 1709   6.937   0.559   0.240
  270SOL    HW2 1710   0.002   0.572   0.103
  271SOL     OW 1711   1.676   1.989   6.993
  271SOL    HW1 1712   1.655   1.920   0.039
  271SOL    HW2 1713   1.593   2.011   6.942
  272SOL     OW 1714   3.232   4.867   4.618
  272SOL    HW1 1715   3.276   4.952   4.645
  272SOL    HW2 1716   3.261   4.793   4.678
  273SOL     OW 1717   1.714   4.130   5.069
  273SOL    HW1 1718   1.737   4.102   4.975
  273SOL    HW2 1719   1.683   4.225   5.069
  274SOL     OW 1720   4.853   1.748   2.844
  274SOL    HW1 1721   4.797   1.819   2.801
  274SOL    HW2 1722   4.947   1.780   2.851
  275SOL     OW 1723   6.125   4.343   5.119
  275SOL    HW1 1724   6.036   4.306   5.094
  275SOL    HW2 1725   6.194   4.311   5.054
  276SOL     OW 1726   6.963   5.477   2.393
  276SOL    HW1 1727   0.026   5.529   2.385
  276SOL    HW2 1728   6.898   5.529   2.448
  277SOL     OW 1729   1.492   4.001   1.039
  277SOL    HW1 1730   1.507   3.931   1.109
  277SOL    HW2 1731   1.536   3.973   0.954
  278SOL     OW 1732   6.613   5.122   1.867
  278SOL    HW1 1733   6.539   5.054   1.867
  278SOL    HW2 1734   6.599   5.187   1.792
  279SOL     OW 1735   6.367   2.904   4.776
  279SOL    HW1 1736   6.298   2.879   4.843
  279SOL    HW2 1737   6.368   3.003   4.764
  280SOL     OW 1738   2.581   6.867   2.766
  280SOL    HW1 1739   2.557   6.771   2.756
  280SOL    HW2 1740   2.675   6.881   2.735
  281SOL     OW 1741   3.124   4.846   2.028
  281SOL    HW1 1742   3.217   4.866   1.996
  281SOL    HW2 1743   3.128   4.775   2.099
  282SOL     OW 1744   3.721   1.537   5.393
  282SOL    HW1 1745   3.652   1.595   5.350
  282SOL    HW2 1746   3.749   1.465   5.330
  283SOL     OW 1747   6.943   1.100   5.658
  283SOL    HW1 1748   6.864   1.153   5.689
  283SOL    HW2 1749   6.974   1.133   5.570
  284SOL     OW 1750   1.037   4.213   4.488
  284SOL    HW1 1751   1.049   4.269   4.406
  284SOL    HW2 1752   0.959   4.246   4.541
  285SOL     OW 1753   5.522   5.064   5.733
  285SOL    HW1 1754   5.603   5.083   5.790
  285SOL    HW2 1755   5.551   5.014   5.651
  286SOL     OW 1756   3.394   5.662   4.880
  286SOL    HW1 1757   3.397   5.607   4.964
  286SOL    HW2 1758   3.309   5.714   4.878
  287SOL     OW 1759   0.420   4.628   0.052
  287SOL    HW1 1760   0.487   4.554   0.061
  287SOL    HW2 1761   0.359   4.609   6.997
  288SOL     OW 1762   3.835   1.838   6.182
  288SOL    HW1 1763   3.770   1.914   6.181
  288SOL    HW2 1764   3.800   1.765   6.240
  289SOL     OW 1765   0.226   5.103   4.875
  289SOL    HW1 1766   0.261   5.011   4.893
  289SOL    HW2 1767   0.218   5.153   4.962
  290SOL     OW 1768   5.409   1.595   3.959
  290SOL    HW1 1769   5.456   1.611   3.872
  290SOL    HW2 1770   5.428   1.670   4.021
  291SOL     OW 1771   2.078   2.053   4.921
  291SOL    HW1 1772   2.103   2.087   5.012
  291SOL    HW2 1773   2.044   1.959   4.928
  292SOL     OW 1774   1.840   2.025   2.956
  292SOL    HW1 1775   1.827   2.020   3.055
  292SOL    HW2 1776   1.936   2.006   2.935
  293SOL     OW 1777   4.852   4.616   2.029
  293SOL    HW1 1778   4.756   4.602   2.005
  293SOL    HW2 1779   4.890   4.530   2.063
  294SOL     OW 1780   6.577   5.484   6.107
  294SOL    HW1 1781   6.536   5.431   6.181
  294SOL    HW2 1782   6.536   5.458   6.020
  295SOL     OW 1783   3.221   1.929   4.160
  295SOL    HW1 1784   3.285   1.868   4.207
  295SOL    HW2 1785   3.222   2.018   4.204
  296SOL     OW 1786   5.432   1.727   2.245
  296SOL    HW1 1787   5.449   1.794   2.316
  296SOL    HW2 1788   5.398   1.772   2.163
  297SOL     OW 1789   2.725   4.768   2.925
  297SOL    HW1 1790   2.646   4.830   2.921
  297SOL    HW2 1791   2.695   4.679   2.957
  298SOL     OW 1792   3.368   5.860   0.585
  298SOL    HW1 1793   3.350   5.823   0.494
  298SOL    HW2 1794   3.460   5.832   0.614
  299SOL     OW 1795   3.870   3.531   6.469
  299SOL    HW1 1796   3.799   3.550   6.536
  299SOL    HW2 1797   3.958   3.521   6.515
  300SOL     OW 1798   5.567   0.642   1.892
  300SOL    HW1 1799   5.593   0.561   1.944
  300SOL    HW2 1800   5.597   0.725   1.940
  301SOL     OW 1801   5.557   2.947   0.806
  301SOL    HW1 1802   5.475   2.890   0.797
  301SOL    HW2 1803   5.549   3.005   0.887
  302SOL     OW 1804   0.508   0.925   3.427
  302SOL    HW1 1805   0.531   0.844   3.374
  302SOL    HW2 1806   0.410   0.946   3.416
  303SOL     OW 1807   6.308   6.945   1.820
  303SOL    HW1 1808   6.221   6.922   1.775
  303SOL    HW2 1809   6.377   6.965   1.751
  304SOL     OW 1810   2.104   0.156   5.303
  304SOL    HW1 1811   2.106   0.056   5.313
  304SOL    HW2 1812   2.109   0.180   5.206
  305SOL     OW 1813   0.444   3.192   0.282
  305SOL    HW1 1814   0.492   3.172   0.367
  305SOL    HW2 1815   0.364   3.248   0.301
  306SOL     OW 1816   2.278   0.356   3.783
  306SOL    HW1 1817   2.219   0.324   3.709
  306SOL    HW2 1818   2.351   0.414   3.745
  307SOL     OW 1819   5.027   6.093   0.267
  307SOL    HW1 1820   4.998   6.007   0.309
  307SOL    HW2 1821   4.949   6.154   0.257
  308SOL     OW 1822   6.448   3.190   4.483
  308SOL    HW1 1823   6.488   3.107   4.444
  308SOL    HW2 1824   6.402   3.242   4.410
  309SOL     OW 1825   2.891   5.902   6.501
  309SOL    HW1 1826   2.810   5.845   6.514
  309SOL    HW2 1827   2.949   5.861   6.430
  310SOL     OW 1828   6.209   6.846   5.302
  310SOL    HW1 1829   6.118   6.843   5.262
  310SOL    HW2 1830   6.270   6.784   5.253
  311SOL     OW 1831   4.750   5.040   3.107
  311SOL    HW1 1832   4.663   4.996   3.086
  311SOL    HW2 1833   4.799   5.060   3.022
  312SOL     OW 1834   4.123   0.951   4.865
  312SOL    HW1 1835   4.112   0.975   4.961
  312SOL    HW2 1836   4.210   0.903   4.853
  313SOL     OW 1837   3.234   3.729   2.383
  313SOL    HW1 1838   3.206   3.660   2.316
  313SOL    HW2 1839   3.242   3.818   2.338
  314SOL     OW 1840   3.685   5.658   6.993
  314SOL    HW1 1841   3.724   5.644   6.902
  314SOL    HW2 1842   3.709   5.580   0.029
  315SOL     OW 1843   1.421   2.625   4.016
  315SOL    HW1 1844   1.516   2.601   4.037
  315SOL    HW2 1845   1.397   2.710   4.062
  316SOL     OW 1846   3.001   1.805   4.004
  316SOL    HW1 1847   3.085   1.824   4.054
  316SOL    HW2 1848   2.973   1.710   4.021
  317SOL     OW 1849   0.376   0.795   1.260
  317SOL    HW1 1850   0.457   0.754   1.218
  317SOL    HW2 1851   0.360   0.885   1.221
  318SOL     OW 1852   1.241   5.399   6.552
  318SOL    HW1 1853   1.263   5.438   6.463
  318SOL    HW2 1854   1.153   5.352   6.548
  319SOL     OW 1855   6.670   0.410   3.694
  319SOL    HW1 1856   6.625   0.485   3.743
  319SOL    HW2 1857   6.601   0.348   3.657
  320SOL     OW 1858   6.291   2.394   0.573
  320SOL    HW1 1859   6.249   2.335   0.504
  320SOL    HW2 1860   6.229   2.468   0.596
  321SOL     OW 1861   3.993   1.529   0.211
  321SOL    HW1 1862   4.040   1.483   0.136
  321SOL    HW2 1863   3.971   1.463   0.282
  322SOL     OW 1864   3.848   3.040   4.513
  322SOL    HW1 1865   3.844   3.000   4.605
  322SOL    HW2 1866   3.924   3.104   4.507
  323SOL     OW 1867   0.877   3.177   6.308
  323SOL    HW1 1868   0.887   3.206   6.213
  323SOL    HW2 1869   0.898   3.080   6.316
  324SOL     OW 1870   2.416   1.228   5.109
  324SOL    HW1 1871   2.488   1.193   5.050
  324SOL    HW2 1872   2.384   1.316   5.074
  325SOL     OW 1873   1.024   2.882   1.830
  325SOL    HW1 1874   1.063   2.790   1.819
  325SOL    HW2 1875   0.972   2.906   1.748
  326SOL     OW 1876   1.211   5.232   0.111
  326SOL    HW1 1877   1.219   5.143   0.066
  326SOL    HW2 1878   1.268   5.299   0.063
  327SOL     OW 1879   1.444   5.114   3.645
  327SOL    HW1 1880   1.505   5.035   3.638
  327SOL    HW2 1881   1.355   5.085   3.682
  328SOL     OW 1882   1.224   5.164   2.284
  328SOL    HW1 1883   1.207   5.067   2.302
  328SOL    HW2 1884   1.138   5.214   2.285
  329SOL     OW 1885   3.937   4.020   4.700
  329SOL    HW1 1886   3.894   4.108   4.719
  329SOL    HW2 1887   3.974   3.982   4.785
  330SOL     OW 1888   3.454   0.295   1.605
  330SOL    HW1 1889   3.377   0.232   1.618
  330SOL    HW2 1890   3.425   0.370   1.546
  331SOL     OW 1891   3.271   4.887   0.961
  331SOL    HW1 1892   3.330   4.948   0.908
  331SOL    HW2 1893   3.199   4.851   0.903
  332SOL     OW 1894   3.963   1.581   5.163
  332SOL    HW1 1895   3.885   1.641   5.153
  332SOL    HW2 1896   4.044   1.622   5.120
  333SOL     OW 1897   3.006   0.132   5.982
  333SOL    HW1 1898   3.010   0.222   6.026
  333SOL    HW2 1899   2.972   0.065   6.048
  334SOL     OW 1900   2.650   0.534   1.479
  334SOL    HW1 1901   2.607   0.596   1.544
  334SOL    HW2 1902   2.664   0.582   1.392
  335SOL     OW 1903   4.115   6.680   4.780
  335SOL    HW1 1904   4.085   6.607   4.718
  335SOL    HW2 1905   4.054   6.758   4.771
  336SOL     OW 1906   2.167   0.753   3.441
  336SOL    HW1 1907   2.192   0.803   3.523
  336SOL    HW2 1908   2.082   0.790   3.404
  337SOL     OW 1909   0.399   2.782   0.032
  337SOL    HW1 1910   0.345   2.866   0.041
  337SOL    HW2 1911   0.454   2.769   0.114
  338SOL     OW 1912   2.831   2.378   1.493
  338SOL    HW1 1913   2.810   2.440   1.568
  338SOL    HW2 1914   2.758   2.384   1.424
  339SOL     OW 1915   3.070   6.509   3.284
  339SOL    HW1 1916   3.115   6.461   3.359
  339SOL    HW2 1917   2.971   6.507   3.298
  340SOL     OW 1918   4.773   4.549   5.470
  340SOL    HW1 1919   4.844   4.563   5.540
  340SOL    HW2 1920   4.816   4.520   5.385
  341SOL     OW 1921   6.746   1.249   4.723
  341SOL    HW1 1922   6.781   1.282   4.636
  341SOL    HW2 1923   6.817   1.198   4.771
  342SOL     OW 1924   5.911   3.699   6.949
  342SOL    HW1 1925   5.842   3.760   6.987
  342SOL    HW2 1926   5.899   3.692   6.850
  343SOL     OW 1927   1.843   5.015   0.618
  343SOL    HW1 1928   1.899   4.990   0.698
  343SOL    HW2 1929   1.846   4.940   0.552
  344SOL     OW 1930   0.804   5.132   2.206
  344SOL    HW1 1931   0.787   5.121   2.304
  344SOL    HW2 1932   0.875   5.200   2.192
  345SOL     OW 1933   4.703   1.766   3.820
  345SOL    HW1 1934   4.664   1.681   3.784
  345SOL    HW2 1935   4.727   1.754   3.916
  346SOL     OW 1936   2.384   0.726   2.463
  346SOL    HW1 1937   2.297   0.739   2.511
  346SOL    HW2 1938   2.446   0.801   2.486
  347SOL     OW 1939   3.345   5.715   6.348
  347SOL    HW1 1940   3.443   5.729   6.337
  347SOL    HW2 1941   3.327   5.620   6.375
  348SOL     OW 1942   5.565   3.740   1.970
  348SOL    HW1 1943   5.598   3.827   1.932
  348SOL    HW2 1944   5.558   3.747   2.069
  349SOL     OW 1945   6.836   4.738   0.653
  349SOL    HW1 1946   6.823   4.720   0.750
  349SOL    HW2 1947   6.903   4.812   0.641
  350SOL     OW 1948   3.587   3.480   0.947
  350SOL    HW1 1949   3.514   3.484   1.015
  350SOL    HW2 1950   3.660   3.420   0.980
  351SOL     OW 1951   1.661   2.669   0.360
  351SOL    HW1 1952   1.574   2.621   0.375
  351SOL    HW2 1953   1.668   2.745   0.424
  352SOL     OW 1954   2.878   1.382   4.523
  352SOL    HW1 1955   2.917   1.473   4.507
  352SOL    HW2 1956   2.781   1.391   4.546
  353SOL     OW 1957   2.696   6.258   0.612
  353SOL    HW1 1958   2.731   6.164   0.615
  353SOL    HW2 1959   2.770   6.322   0.627
  354SOL     OW 1960   3.392   2.874   0.544
  354SOL    HW1 1961   3.322   2.872   0.616
  354SOL    HW2 1962   3.392   2.788   0.494
  355SOL     OW 1963   0.512   3.599   2.859
  355SOL    HW1 1964   0.563   3.656   2.794
  355SOL    HW2 1965   0.536   3.625   2.952
  356SOL     OW 1966   3.294   6.985   5.596
  356SOL    HW1 1967   3.351   0.010   5.662
  356SOL    HW2 1968   3.350   6.919   5.545
  357SOL     OW 1969   6.791   6.888   5.521
  357SOL    HW1 1970   6.750   6.873   5.431
  357SOL    HW2 1971   6.839   6.805   5.550
  358SOL     OW 1972   4.729   0.479   1.357
  358SOL    HW1 1973   4.760   0.463   1.263
  358SOL    HW2 1974   4.802   0.455   1.420
  359SOL     OW 1975   1.719   2.477   2.006
  359SOL    HW1 1976   1.669   2.450   1.924
  359SOL    HW2 1977   1.780   2.554   1.984
  360SOL     OW 1978   0.889   5.441   6.439
  360SOL    HW1 1979   0.960   5.510   6.428
  360SOL    HW2 1980   0.878   5.389   6.354
  361SOL     OW 1981   5.775   5.696   2.930
  361SOL    HW1 1982   5.846   5.659   2.871
  361SOL    HW2 1983   5.795   5.671   3.025
  362SOL     OW 1984   3.774   3.681   1.781
  362SOL    HW1 1985   3.854   3.692   1.840
  362SOL    HW2 1986   3.705   3.749   1.805
  363SOL     OW 1987   5.350   4.675   4.025
  363SOL    HW1 1988   5.427   4.728   3.991
  363SOL    HW2 1989   5.361   4.658   4.123
  364SOL     OW 1990   6.089   5.342   5.923
  364SOL    HW1 1991   6.181   5.381   5.926
  364SOL    HW2 1992   6.022   5.416   5.921
  365SOL     OW 1993   5.438   6.007   2.312
  365SOL    HW1 1994   5.361   6.020   2.374
  365SOL    HW2 1995   5.467   5.911   2.314
  366SOL     OW 1996   6.358   0.868   6.272
  366SOL    HW1 1997   6.289   0.860   6.344
  366SOL    HW2 1998   6.441   0.819   6.300
  367SOL     OW 1999   4.578   3.043   0.918
  367SOL    HW1 2000   4.526   2.986   0.982
  367SOL    HW2 2001   4.515   3.081   0.850
  368SOL     OW 2002   0.284   3.688   5.348
  368SOL    HW1 2003   0.292   3.589   5.355
  368SOL    HW2 2004   0.310   3.718   5.256
  369SOL     OW 2005   6.752   5.489   1.266
  369SOL    HW1 2006   6.677   5.527   1.321
  369SOL    HW2 2007   6.720   5.407   1.219
  370SOL     OW 2008   2.582   1.670   5.997
  370SOL    HW1 2009   2.614   1.576   6.009
  370SOL    HW2 2010   2.577   1.716   6.085
  371SOL     OW 2011   2.484   3.537   6.489
  371SOL    HW1 2012   2.559   3.473   6.508
  371SOL    HW2 2013   2.520   3.614   6.436
  372SOL     OW 2014   0.906   6.546   5.986
  372SOL    HW1 2015   0.923   6.603   5.905
  372SOL    HW2 2016   0.821   6.495   5.973
  373SOL     OW 2017   6.790   6.418   4.255
  373SOL    HW1 2018   6.869   6.440   4.311
  373SOL    HW2 2019   6.820   6.375   4.170
  374SOL     OW 2020   2.839   1.891   2.809
  374SOL    HW1 2021   2.879   1.865   2.720
  374SOL    HW2 2022   2.864   1.985   2.830
  375SOL     OW 2023   0.704   4.598   3.855
  375SOL    HW1 2024   0.750   4.619   3.942
  375SOL    HW2 2025   0.747   4.518   3.813
  376SOL     OW 2026   2.009   1.342   4.717
  376SOL    HW1 2027   1.948   1.322   4.793
  376SOL    HW2 2028   1.957   1.382   4.642
  377SOL     OW 2029   0.683   1.957   1.630
  377SOL    HW1 2030   0.681   2.057   1.627
  377SOL    HW2 2031   0.594   1.921   1.604
  378SOL     OW 2032   3.141   2.598   5.655
  378SOL    HW1 2033   3.120   2.582   5.558
  378SOL    HW2 2034   3.055   2.603   5.707
  379SOL     OW 2035   6.142   4.187   0.505
  379SOL    HW1 2036   6.167   4.176   0.409
  379SOL    HW2 2037   6.156   4.101   0.554
  380SOL     OW 2038   2.605   0.940   1.223
  380SOL    HW1 2039   2.611   0.964   1.126
  380SOL    HW2 2040   2.566   1.016   1.274
  381SOL     OW 2041   1.325   4.496   2.468
  381SOL    HW1 2042   1.246   4.447   2.433
  381SOL    HW2 2043   1.398   4.431   2.491
  382SOL     OW 2044   5.487   6.411   5.937
  382SOL    HW1 2045   5.419   6.444   5.871
  382SOL    HW2 2046   5.534   6.490   5.978
  383SOL     OW 2047   4.845   3.049   5.593
  383SOL    HW1 2048   4.769   3.007   5.641
  383SOL    HW2 2049   4.812   3.126   5.538
  384SOL     OW 2050   6.238   5.428   4.456
  384SOL    HW1 2051   6.163   5.400   4.517
  384SOL    HW2 2052   6.238   5.527   4.447
  385SOL     OW 2053   4.296   6.048   5.346
  385SOL    HW1 2054   4.317   6.143   5.324
  385SOL    HW2 2055   4.198   6.038   5.362
  386SOL     OW 2056   2.812   6.410   5.299
  386SOL    HW1 2057   2.894   6.446   5.254
  386SOL    HW2 2058   2.786   6.471   5.374
  387SOL     OW 2059   1.001   6.607   3.268
  387SOL    HW1 2060   0.997   6.576   3.362
  387SOL    HW2 2061   0.955   6.695   3.259
  388SOL     OW 2062   1.432   2.112   4.073
  388SOL    HW1 2063   1.381   2.162   4.003
  388SOL    HW2 2064   1.385   2.120   4.161
  389SOL     OW 2065   4.448   4.063   1.446
  389SOL    HW1 2066   4.484   4.100   1.532
  389SOL    HW2 2067   4.523   4.051   1.381
  390SOL     OW 2068   3.529   1.151   0.042
  390SOL    HW1 2069   3.595   1.139   6.991
  390SOL    HW2 2070   3.438   1.167   0.003
  391SOL     OW 2071   2.003   3.869   5.685
  391SOL    HW1 2072   1.931   3.938   5.696
  391SOL    HW2 2073   2.018   3.851   5.588
  392SOL     OW 2074   1.833   4.361   1.442
  392SOL    HW1 2075   1.789   4.355   1.531
  392SOL    HW2 2076   1.819   4.452   1.404
  393SOL     OW 2077   1.085   4.761   0.001
  393SOL    HW1 2078   0.989   4.788   7.009
  393SOL    HW2 2079   1.112   4.694   6.954
  394SOL     OW 2080   0.101   2.829   7.013
  394SOL    HW1 2081   0.159   2.900   0.031
  394SOL    HW2 2082   0.074   2.763   0.061
  395SOL     OW 2083   4.785   4.551   3.397
  395SOL    HW1 2084   4.747   4.460   3.414
  395SOL    HW2 2085   4.772   4.576   3.301
  396SOL     OW 2086   2.939   3.292   2.266
  396SOL    HW1 2087   3.021   3.314   2.319
  396SOL    HW2 2088   2.953   3.207   2.216
  397SOL     OW 2089   5.380   1.869   6.175
  397SOL    HW1 2090   5.326   1.796   6.134
  397SOL    HW2 2091   5.416   1.928   6.103
  398SOL     OW 2092   1.366   0.275   3.194
  398SOL    HW1 2093   1.409   0.347   3.249
  398SOL    HW2 2094   1.290   0.235   3.244
  399SOL     OW 2095   5.662   6.025   4.124
  399SOL    HW1 2096   5.667   6.113   4.172
  399SOL    HW2 2097   5.735   6.020   4.056
  400SOL     OW 2098   6.335   6.521   5.751
  400SOL    HW1 2099   6.280   6.531   5.668
  400SOL    HW2 2100   6.415   6.581   5.744
  401SOL     OW 2101   4.876   0.047   6.290
  401SOL    HW1 2102   4.869   6.973   6.264
  401SOL    HW2 2103   4.971   0.070   6.306
  402SOL     OW 2104   6.715   0.860   3.617
  402SOL    HW1 2105   6.705   0.771   3.571
  402SOL    HW2 2106   6.715   0.933   3.548
  403SOL     OW 2107   3.720   0.920   5.155
  403SOL    HW1 2108   3.621   0.913   5.143
  403SOL    HW2 2109   3.765   0.853   5.096
  404SOL     OW 2110   1.647   4.733   4.430
  404SOL    HW1 2111   1.594   4.803   4.384
  404SOL    HW2 2112   1.700   4.774   4.505
  405SOL     OW 2113   1.994   3.135   3.071
  405SOL    HW1 2114   1.993   3.037   3.052
  405SOL    HW2 2115   1.919   3.180   3.023
  406SOL     OW 2116   0.121   4.283   5.121
  406SOL    HW1 2117   0.164   4.256   5.207
  406SOL    HW2 2118   0.022   4.283   5.132
  407SOL     OW 2119   1.759   2.524   5.383
  407SOL    HW1 2120   1.789   2.617   5.406
  407SOL    HW2 2121   1.697   2.527   5.305
  408SOL     OW 2122   3.472   2.109   2.978
  408SOL    HW1 2123   3.513   2.130   2.889
  408SOL    HW2 2124   3.379   2.073   2.965
  409SOL     OW 2125   6.573   3.243   1.419
  409SOL    HW1 2126   6.551   3.182   1.495
  409SOL    HW2 2127   6.489   3.280   1.380
  410SOL     OW 2128   1.048   1.597   1.209
  410SOL    HW1 2129   1.133   1.636   1.174
  410SOL    HW2 2130   1.042   1.612   1.307
  411SOL     OW 2131   6.780   0.809   1.494
  411SOL    HW1 2132   6.716   0.872   1.450
  411SOL    HW2 2133   6.807   0.738   1.428
  412SOL     OW 2134   3.684   4.868   2.657
  412SOL    HW1 2135   3.726   4.955   2.685
  412SOL    HW2 2136   3.676   4.808   2.738
  413SOL     OW 2137   5.492   4.084   1.542
  413SOL    HW1 2138   5.397   4.114   1.534
  413SOL    HW2 2139   5.545   4.118   1.465
  414SOL     OW 2140   3.190   6.498   3.929
  414SOL    HW1 2141   3.245   6.423   3.966
  414SOL    HW2 2142   3.245   6.581   3.927
  415SOL     OW 2143   0.609   0.282   6.688
  415SOL    HW1 2144   0.552   0.213   6.732
  415SOL    HW2 2145   0.671   0.323   6.755
  416SOL     OW 2146   4.837   5.237   5.169
  416SOL    HW1 2147   4.881   5.313   5.121
  416SOL    HW2 2148   4.738   5.251   5.169
  417SOL     OW 2149   2.262   0.082   5.952
  417SOL    HW1 2150   2.193   0.123   5.892
  417SOL    HW2 2151   2.340   0.053   5.898
  418SOL     OW 2152   2.945   6.915   6.170
  418SOL    HW1 2153   2.870   6.863   6.212
  418SOL    HW2 2154   3.030   6.894   6.218
  419SOL     OW 2155   0.902   6.804   2.969
  419SOL    HW1 2156   0.994   6.843   2.974
  419SOL    HW2 2157   0.873   6.776   3.061
  420SOL     OW 2158   5.688   1.468   6.632
  420SOL    HW1 2159   5.700   1.535   6.560
  420SOL    HW2 2160   5.727   1.380   6.604
  421SOL     OW 2161   5.731   3.653   4.455
  421SOL    HW1 2162   5.668   3.589   4.498
  421SOL    HW2 2163   5.728   3.740   4.504
  422SOL     OW 2164   4.835   3.247   0.549
  422SOL    HW1 2165   4.788   3.181   0.490
  422SOL    HW2 2166   4.784   3.333   0.548
  423SOL     OW 2167   2.006   2.175   0.020
  423SOL    HW1 2168   1.955   2.212   0.098
  423SOL    HW2 2169   1.942   2.149   6.970
  424SOL     OW 2170   1.723   4.511   2.383
  424SOL    HW1 2171   1.817   4.542   2.364
  424SOL    HW2 2172   1.694   4.545   2.472
  425SOL     OW 2173   5.015   1.911   4.065
  425SOL    HW1 2174   4.921   1.894   4.096
  425SOL    HW2 2175   5.046   1.835   4.008
  426SOL     OW 2176   2.502   2.596   4.676
  426SOL    HW1 2177   2.414   2.641   4.660
  426SOL    HW2 2178   2.528   2.608   4.772
  427SOL     OW 2179   6.190   0.124   4.083
  427SOL    HW1 2180   6.159   0.082   3.998
  427SOL    HW2 2181   6.181   0.223   4.076
  428SOL     OW 2182   4.153   0.686   3.071
  428SOL    HW1 2183   4.061   0.655   3.096
  428SOL    HW2 2184   4.148   0.744   2.990
  429SOL     OW 2185   0.761   4.803   3.673
  429SOL    HW1 2186   0.673   4.840   3.643
  429SOL    HW2 2187   0.744   4.726   3.735
  430SOL     OW 2188   1.336   6.773   4.604
  430SOL    HW1 2189   1.239   6.767   4.630
  430SOL    HW2 2190   1.380   6.684   4.619
  431SOL     OW 2191   2.788   1.283   0.760
  431SOL    HW1 2192   2.865   1.321   0.710
  431SOL    HW2 2193   2.807   1.286   0.858
  432SOL     OW 2194   6.005   2.200   0.871
  432SOL    HW1 2195   5.997   2.183   0.772
  432SOL    HW2 2196   5.921   2.241   0.905
  433SOL     OW 2197   2.296   6.396   5.833
  433SOL    HW1 2198   2.367   6.414   5.901
  433SOL    HW2 2199   2.210   6.374   5.879
  434SOL     OW 2200   4.536   6.154   3.538
  434SOL    HW1 2201   4.533   6.189   3.444
  434SOL    HW2 2202   4.443   6.133   3.569
  435SOL     OW 2203   3.728   2.244   5.649
  435SOL    HW1 2204   3.803   2.239   5.714
  435SOL    HW2 2205   3.764   2.234   5.556
  436SOL     OW 2206   3.159   5.853   2.165
  436SOL    HW1 2207   3.244   5.888   2.207
  436SOL    HW2 2208   3.081   5.883   2.219
  437SOL     OW 2209   0.797   1.431   6.130
  437SOL    HW1 2210   0.739   1.512   6.128
  437SOL    HW2 2211   0.792   1.384   6.042
  438SOL     OW 2212   1.110   3.643   4.003
  438SOL    HW1 2213   1.045   3.568   3.994
  438SOL    HW2 2214   1.074   3.724   3.957
  439SOL     OW 2215   5.383   6.553   2.165
  439SOL    HW1 2216   5.340   6.504   2.089
  439SOL    HW2 2217   5.398   6.489   2.241
  440SOL     OW 2218   3.184   1.428   6.002
  440SOL    HW1 2219   3.247   1.399   6.073
  440SOL    HW2 2220   3.137   1.512   6.031
  441SOL     OW 2221   6.520   3.463   3.731
  441SOL    HW1 2222   6.531   3.400   3.808
  441SOL    HW2 2223   6.423   3.471   3.708
  442SOL     OW 2224   4.861   5.547   5.843
  442SOL    HW1 2225   4.787   5.573   5.782
  442SOL    HW2 2226   4.934   5.503   5.791
  443SOL     OW 2227   5.454   3.851   4.436
  443SOL    HW1 2228   5.369   3.851   4.489
  443SOL    HW2 2229   5.435   3.824   4.342
  444SOL     OW 2230   4.267   0.503   6.158
  444SOL    HW1 2231   4.279   0.404   6.150
  444SOL    HW2 2232   4.249   0.527   6.253
  445SOL     OW 2233   2.288   6.053   2.816
  445SOL    HW1 2234   2.360   6.021   2.753
  445SOL    HW2 2235   2.322   6.132   2.867
  446SOL     OW 2236   4.159   5.952   2.899
  446SOL    HW1 2237   4.194   6.040   2.865
  446SOL    HW2 2238   4.060   5.957   2.910
  447SOL     OW 2239   6.526   3.629   4.942
  447SOL    HW1 2240   6.558   3.542   4.903
  447SOL    HW2 2241   6.563   3.705   4.888
  448SOL     OW 2242   2.715   0.579   2.806
  448SOL    HW1 2243   2.709   0.555   2.903
  448SOL    HW2 2244   2.622   0.584   2.767
  449SOL     OW 2245   3.002   1.518   3.985
  449SOL    HW1 2246   2.945   1.481   4.058
  449SOL    HW2 2247   3.074   1.452   3.962
  450SOL     OW 2248   1.583   4.887   3.595
  450SOL    HW1 2249   1.547   4.820   3.530
  450SOL    HW2 2250   1.668   4.853   3.634
  451SOL     OW 2251   1.996   2.331   4.444
  451SOL    HW1 2252   1.974   2.258   4.508
  451SOL    HW2 2253   2.094   2.349   4.446
  452SOL     OW 2254   4.437   6.546   1.606
  452SOL    HW1 2255   4.392   6.457   1.601
  452SOL    HW2 2256   4.371   6.615   1.637
  453SOL     OW 2257   3.612   6.618   6.186
  453SOL    HW1 2258   3.516   6.626   6.158
  453SOL    HW2 2259   3.668   6.682   6.132
  454SOL     OW 2260   6.974   3.888   6.648
  454SOL    HW1 2261   6.909   3.904   6.722
  454SOL    HW2 2262   7.014   3.797   6.657
  455SOL     OW 2263   6.235   2.801   5.000
  455SOL    HW1 2264   6.316   2.763   5.046
  455SOL    HW2 2265   6.168   2.828   5.068
  456SOL     OW 2266   1.374   0.644   4.141
  456SOL    HW1 2267   1.403   0.549   4.148
  456SOL    HW2 2268   1.352   0.680   4.231
  457SOL     OW 2269   2.262   4.046   4.243
  457SOL    HW1 2270   2.347   4.042   4.190
  457SOL    HW2 2271   2.246   4.140   4.273
  458SOL     OW 2272   3.235   0.387   2.808
  458SOL    HW1 2273   3.232   0.310   2.871
  458SOL    HW2 2274   3.229   0.472   2.859
  459SOL     OW 2275   1.535   0.575   5.267
  459SOL    HW1 2276   1.615   0.520   5.243
  459SOL    HW2 2277   1.455   0.516   5.280
  460SOL     OW 2278   1.339   0.320   4.968
  460SOL    HW1 2279   1.367   0.297   4.875
  460SOL    HW2 2280   1.363   0.415   4.987
  461SOL     OW 2281   6.573   4.780   6.024
  461SOL    HW1 2282   6.523   4.864   6.006
  461SOL    HW2 2283   6.600   4.738   5.936
  462SOL     OW 2284   4.014   3.601   5.609
  462SOL    HW1 2285   3.957   3.593   5.527
  462SOL    HW2 2286   3.981   3.540   5.680
  463SOL     OW 2287   0.363   0.254   3.507
  463SOL    HW1 2288   0.352   0.352   3.518
  463SOL    HW2 2289   0.346   0.208   3.594
  464SOL     OW 2290   2.950   0.714   6.115
  464SOL    HW1 2291   3.039   0.728   6.071
  464SOL    HW2 2292   2.887   0.672   6.050
  465SOL     OW 2293   0.526   2.390   0.019
  465SOL    HW1 2294   0.431   2.420   0.027
  465SOL    HW2 2295   0.535   2.328   6.964
  466SOL     OW 2296   2.608   6.573   4.243
  466SOL    HW1 2297   2.553   6.654   4.220
  466SOL    HW2 2298   2.548   6.494   4.254
  467SOL     OW 2299   1.477   1.594   2.863
  467SOL    HW1 2300   1.390   1.567   2.824
  467SOL    HW2 2301   1.547   1.526   2.840
  468SOL     OW 2302   4.164   5.395   5.778
  468SOL    HW1 2303   4.090   5.433   5.723
  468SOL    HW2 2304   4.241   5.458   5.779
  469SOL     OW 2305   3.004   4.230   5.817
  469SOL    HW1 2306   2.978   4.318   5.777
  469SOL    HW2 2307   3.071   4.186   5.758
  470SOL     OW 2308   4.248   5.834   1.819
  470SOL    HW1 2309   4.317   5.801   1.883
  470SOL    HW2 2310   4.157   5.826   1.861
  471SOL     OW 2311   2.932   2.220   4.094
  471SOL    HW1 2312   2.884   2.274   4.025
  471SOL    HW2 2313   2.947   2.276   4.176
  472SOL     OW 2314   5.741   4.862   6.785
  472SOL    HW1 2315   5.725   4.792   6.714
  472SOL    HW2 2316   5.817   4.921   6.757
  473SOL     OW 2317   0.808   2.609   2.183
  473SOL    HW1 2318   0.861   2.523   2.182
  473SOL    HW2 2319   0.719   2.592   2.225
  474SOL     OW 2320   5.665   5.451   5.397
  474SOL    HW1 2321   5.763   5.436   5.409
  474SOL    HW2 2322   5.616   5.410   5.474
  475SOL     OW 2323   6.208   3.323   0.216
  475SOL    HW1 2324   6.243   3.348   0.125
  475SOL    HW2 2325   6.191   3.225   0.219
  476SOL     OW 2326   6.907   3.478   2.031
  476SOL    HW1 2327   6.900   3.576   2.051
  476SOL    HW2 2328   6.954   3.466   1.944
  477SOL     OW 2329   2.656   5.779   3.533
  477SOL    HW1 2330   2.655   5.839   3.452
  477SOL    HW2 2331   2.748   5.742   3.546
  478SOL     OW 2332   3.924   6.348   3.449
  478SOL    HW1 2333   3.934   6.316   3.543
  478SOL    HW2 2334   3.998   6.312   3.393
  479SOL     OW 2335   3.873   3.096   5.351
  479SOL    HW1 2336   3.855   3.173   5.289
  479SOL    HW2 2337   3.812   3.020   5.329
  480SOL     OW 2338   2.718   0.283   1.351
  480SOL    HW1 2339   2.688   0.225   1.426
  480SOL    HW2 2340   2.700   0.379   1.373
  481SOL     OW 2341   0.316   6.383   1.572
  481SOL    HW1 2342   0.349   6.314   1.636
  481SOL    HW2 2343   0.394   6.435   1.535
  482SOL     OW 2344   4.515   4.930   3.054
  482SOL    HW1 2345   4.448   4.988   3.101
  482SOL    HW2 2346   4.491   4.834   3.066
  483SOL     OW 2347   6.918   2.107   2.548
  483SOL    HW1 2348   6.929   2.191   2.495
  483SOL    HW2 2349   6.957   2.030   2.498
  484SOL     OW 2350   1.695   4.236   4.665
  484SOL    HW1 2351   1.745   4.320   4.642
  484SOL    HW2 2352   1.664   4.191   4.581
  485SOL     OW 2353   5.282   4.791   2.635
  485SOL    HW1 2354   5.250   4.761   2.725
  485SOL    HW2 2355   5.334   4.717   2.592
  486SOL     OW 2356   5.926   1.534   6.760
  486SOL    HW1 2357   5.946   1.572   6.669
  486SOL    HW2 2358   5.828   1.523   6.771
  487SOL     OW 2359   0.907   0.702   2.971
  487SOL    HW1 2360   0.995   0.701   2.923
  487SOL    HW2 2361   0.862   0.790   2.956
  488SOL     OW 2362   1.011   6.922   2.635
  488SOL    HW1 2363   0.959   6.987   2.579
  488SOL    HW2 2364   0.956   6.839   2.648
  489SOL     OW 2365   5.915   5.917   5.055
  489SOL    HW1 2366   5.937   5.910   5.152
  489SOL    HW2 2367   5.949   5.835   5.008
  490SOL     OW 2368   1.509   5.966   4.207
  490SOL    HW1 2369   1.446   6.044   4.210
  490SOL    HW2 2370   1.464   5.885   4.246
  491SOL     OW 2371   1.206   3.242   1.361
  491SOL    HW1 2372   1.189   3.248   1.459
  491SOL    HW2 2373   1.210   3.335   1.322
  492SOL     OW 2374   1.446   1.154   5.681
  492SOL    HW1 2375   1.402   1.122   5.764
  492SOL    HW2 2376   1.403   1.111   5.601
  493SOL     OW 2377   2.507   0.173   5.588
  493SOL    HW1 2378   2.543   0.140   5.501
  493SOL    HW2 2379   2.410   0.195   5.577
  494SOL     OW 2380   1.496   1.147   6.300
  494SOL    HW1 2381   1.533   1.087   6.370
  494SOL    HW2 2382   1.571   1.195   6.254
  495SOL     OW 2383   3.390   6.350   4.642
  495SOL    HW1 2384   3.320   6.286   4.610
  495SOL    HW2 2385   3.380   6.363   4.740
  496SOL     OW 2386   6.437   1.889   1.771
  496SOL    HW1 2387   6.489   1.805   1.788
  496SOL    HW2 2388   6.498   1.957   1.730
  497SOL     OW 2389   3.228   1.363   4.504
  497SOL    HW1 2390   3.160   1.309   4.554
  497SOL    HW2 2391   3.198   1.373   4.409
  498SOL     OW 2392   0.904   4.586   2.472
  498SOL    HW1 2393   0.956   4.511   2.432
  498SOL    HW2 2394   0.806   4.565   2.468
  499SOL     OW 2395   1.672   5.457   5.067
  499SOL    HW1 2396   1.589   5.454   5.122
  499SOL    HW2 2397   1.694   5.553   5.046
  500SOL     OW 2398   5.436   2.578   6.542
  500SOL    HW1 2399   5.444   2.657   6.481
  500SOL    HW2 2400   5.422   2.610   6.636
  501SOL     OW 2401   3.987   6.928   1.016
  501SOL    HW1 2402   4.070   6.955   0.967
  501SOL    HW2 2403   3.920   6.893   0.951
  502SOL     OW 2404   0.730   4.814   6.052
  502SOL    HW1 2405   0.649   4.831   6.106
  502SOL    HW2 2406   0.704   4.789   5.958
  503SOL     OW 2407   2.185   4.932   6.425
  503SOL    HW1 2408   2.107   4.975   6.380
  503SOL    HW2 2409   2.173   4.833   6.426
  504SOL     OW 2410   0.596   5.706   1.572
  504SOL    HW1 2411   0.577   5.749   1.484
  504SOL    HW2 2412   0.643   5.772   1.631
  505SOL     OW 2413   4.490   6.741   5.019
  505SOL    HW1 2414   4.571   6.714   4.966
  505SOL    HW2 2415   4.416   6.676   5.002
  506SOL     OW 2416   2.848   6.108   2.022
  506SOL    HW1 2417   2.900   6.159   1.953
  506SOL    HW2 2418   2.892   6.117   2.111
  507SOL     OW 2419   3.927   0.024   2.407
  507SOL    HW1 2420   3.882   0.062   2.488
  507SOL    HW2 2421   3.913   6.948   2.405
  508SOL     OW 2422   0.183   2.577   2.668
  508SOL    HW1 2423   0.139   2.490   2.649
  508SOL    HW2 2424   0.270   2.561   2.715
  509SOL     OW 2425   4.207   1.235   0.659
  509SOL    HW1 2426   4.147   1.176   0.712
  509SOL    HW2 2427   4.279   1.272   0.719
  510SOL     OW 2428   7.005   4.842   5.975
  510SOL    HW1 2429   6.931   4.892   6.021
  510SOL    HW2 2430   0.053   4.907   5.946
  511SOL     OW 2431   1.003   2.123   6.849
  511SOL    HW1 2432   0.974   2.214   6.820
  511SOL    HW2 2433   0.924   2.061   6.847
  512SOL     OW 2434   6.171   2.684   6.684
  512SOL    HW1 2435   6.086   2.734   6.705
  512SOL    HW2 2436   6.151   2.610   6.621
  513SOL     OW 2437   5.339   6.894   2.796
  513SOL    HW1 2438   5.243   6.914   2.811
  513SOL    HW2 2439   5.349   6.827   2.722
  514SOL     OW 2440   7.013   0.753   4.547
  514SOL    HW1 2441   0.041   0.720   4.627
  514SOL    HW2 2442   6.923   0.710   4.544
  515SOL     OW 2443   1.943   0.045   6.986
  515SOL    HW1 2444   1.862   0.018   0.016
  515SOL    HW2 2445   1.965   0.141   7.006
  516SOL     OW 2446   2.633   4.582   2.255
  516SOL    HW1 2447   2.666   4.491   2.230
  516SOL    HW2 2448   2.699   4.651   2.226
  517SOL     OW 2449   3.306   4.617   1.691
  517SOL    HW1 2450   3.387   4.637   1.746
  517SOL    HW2 2451   3.251   4.700   1.680
  518SOL     OW 2452   2.753   2.392   3.911
  518SOL    HW1 2453   2.677   2.375   3.848
  518SOL    HW2 2454   2.716   2.429   3.997
  519SOL     OW 2455   0.014   6.480   3.623
  519SOL    HW1 2456   6.940   6.497   3.642
  519SOL    HW2 2457   0.023   6.394   3.573
  520SOL     OW 2458   0.070   3.603   6.716
  520SOL    HW1 2459   0.156   3.564   6.749
  520SOL    HW2 2460   7.016   3.549   6.750
  521SOL     OW 2461   5.368   5.784   5.041
  521SOL    HW1 2462   5.445   5.822   4.989
  521SOL    HW2 2463   5.284   5.797   4.990
  522SOL     OW 2464   4.115   3.600   2.755
  522SOL    HW1 2465   4.073   3.686   2.725
  522SOL    HW2 2466   4.121   3.598   2.855
  523SOL     OW 2467   6.679   5.880   1.802
  523SOL    HW1 2468   6.667   5.794   1.753
  523SOL    HW2 2469   6.773   5.912   1.791
  524SOL     OW 2470   1.607   2.711   2.506
  524SOL    HW1 2471   1.521   2.749   2.541
  524SOL    HW2 2472   1.591   2.675   2.414
  525SOL     OW 2473   1.824   4.077   6.231
  525SOL    HW1 2474   1.727   4.071   6.255
  525SOL    HW2 2475   1.846   4.170   6.201
  526SOL     OW 2476   3.164   6.809   4.083
  526SOL    HW1 2477   3.127   6.718   4.103
  526SOL    HW2 2478   3.120   6.877   4.143
  527SOL     OW 2479   0.318   2.163   0.476
  527SOL    HW1 2480   0.299   2.170   0.378
  527SOL    HW2 2481   0.396   2.221   0.500
  528SOL     OW 2482   1.797   2.808   3.903
  528SOL    HW1 2483   1.890   2.843   3.893
  528SOL    HW2 2484   1.736   2.882   3.930
  529SOL     OW 2485   1.807   6.976   4.603
  529SOL    HW1 2486   1.863   0.030   4.634
  529SOL    HW2 2487   1.786   6.917   4.680
  530SOL     OW 2488   4.173   3.433   2.523
  530SOL    HW1 2489   4.130   3.420   2.612
  530SOL    HW2 2490   4.271   3.448   2.535
  531SOL     OW 2491   1.408   1.235   2.776
  531SOL    HW1 2492   1.369   1.306   2.836
  531SOL    HW2 2493   1.485   1.191   2.823
  532SOL     OW 2494   1.358   3.713   0.488
  532SOL    HW1 2495   1.371   3.773   0.567
  532SOL    HW2 2496   1.345   3.619   0.520
  533SOL     OW 2497   4.415   7.007   3.436
  533SOL    HW1 2498   4.337   6.945   3.439
  533SOL    HW2 2499   4.417   0.039   3.520
  534SOL     OW 2500   6.040   6.176   2.645
  534SOL    HW1 2501   6.074   6.161   2.553
  534SOL    HW2 2502   5.950   6.132   2.655
  535SOL     OW 2503   0.079   4.211   2.920
  535SOL    HW1 2504   0.107   4.210   3.016
  535SOL    HW2 2505   0.009   4.142   2.904
  536SOL     OW 2506   6.222   5.139   2.632
  536SOL    HW1 2507   6.262   5.124   2.541
  536SOL    HW2 2508   6.193   5.235   2.640
  537SOL     OW 2509   3.746   0.405   4.027
  537SOL    HW1 2510   3.738   0.360   4.116
  537SOL    HW2 2511   3.688   0.358   3.961
  538SOL     OW 2512   0.873   4.511   4.379
  538SOL    HW1 2513   0.847   4.433   4.436
  538SOL    HW2 2514   0.842   4.596   4.422
  539SOL     OW 2515   1.743   5.202   2.101
  539SOL    HW1 2516   1.760   5.188   2.198
  539SOL    HW2 2517   1.644   5.208   2.085
  540SOL     OW 2518   1.793   0.912   3.530
  540SOL    HW1 2519   1.838   0.871   3.450
  540SOL    HW2 2520   1.844   0.888   3.612
  541SOL     OW 2521   4.645   5.571   3.961
  541SOL    HW1 2522   4.554   5.574   4.001
  541SOL    HW2 2523   4.711   5.538   4.029
  542SOL     OW 2524   4.146   6.407   0.167
  542SOL    HW1 2525   4.174   6.327   0.220
  542SOL    HW2 2526   4.222   6.471   0.159
  543SOL     OW 2527   5.906   3.721   3.412
  543SOL    HW1 2528   5.957   3.662   3.475
  543SOL    HW2 2529   5.922   3.693   3.318
  544SOL     OW 2530   0.343   5.222   6.875
  544SOL    HW1 2531   0.403   5.302   6.882
  544SOL    HW2 2532   0.355   5.164   6.956
  545SOL     OW 2533   3.910   1.126   1.232
  545SOL    HW1 2534   3.933   1.037   1.192
  545SOL    HW2 2535   3.859   1.112   1.317
  546SOL     OW 2536   1.464   3.888   1.641
  546SOL    HW1 2537   1.517   3.872   1.724
  546SOL    HW2 2538   1.367   3.895   1.663
  547SOL     OW 2539   3.386   2.492   0.907
  547SOL    HW1 2540   3.458   2.531   0.850
  547SOL    HW2 2541   3.418   2.405   0.946
  548SOL     OW 2542   3.321   3.611   1.824
  548SOL    HW1 2543   3.264   3.531   1.804
  548SOL    HW2 2544   3.415   3.581   1.842
  549SOL     OW 2545   5.394   2.510   1.825
  549SOL    HW1 2546   5.471   2.456   1.791
  549SOL    HW2 2547   5.425   2.573   1.895
  550SOL     OW 2548   0.994   5.660   3.424
  550SOL    HW1 2549   0.950   5.601   3.356
  550SOL    HW2 2550   0.951   5.750   3.422
  551SOL     OW 2551   0.106   6.978   1.836
  551SOL    HW1 2552   0.105   7.019   1.927
  551SOL    HW2 2553   0.200   6.967   1.805
  552SOL     OW 2554   6.045   4.138   5.995
  552SOL    HW1 2555   6.106   4.064   5.967
  552SOL    HW2 2556   5.962   4.099   6.035
  553SOL     OW 2557   2.683   6.955   3.821
  553SOL    HW1 2558   2.617   0.001   3.789
  553SOL    HW2 2559   2.693   6.963   3.920
  554SOL     OW 2560   5.998   6.806   0.311
  554SOL    HW1 2561   6.060   6.771   0.242
  554SOL    HW2 2562   5.939   6.733   0.344
  555SOL     OW 2563   3.229   4.888   5.001
  555SOL    HW1 2564   3.195   4.850   5.087
  555SOL    HW2 2565   3.153   4.896   4.937
  556SOL     OW 2566   4.529   1.839   4.140
  556SOL    HW1 2567   4.432   1.821   4.157
  556SOL    HW2 2568   4.539   1.916   4.077
  557SOL     OW 2569   6.862   5.345   6.714
  557SOL    HW1 2570   6.959   5.362   6.730
  557SOL    HW2 2571   6.815   5.430   6.691
  558SOL     OW 2572   3.048   3.179   3.824
  558SOL    HW1 2573   3.117   3.109   3.842
  558SOL    HW2 2574   3.003   3.204   3.910
  559SOL     OW 2575   6.914   5.328   5.389
  559SOL    HW1 2576   6.865   5.322   5.477
  559SOL    HW2 2577   6.884   5.253   5.329
  560SOL     OW 2578   6.223   4.058   3.681
  560SOL    HW1 2579   6.259   4.137   3.632
  560SOL    HW2 2580   6.257   3.974   3.638
  561SOL     OW 2581   0.196   1.945   0.604
  561SOL    HW1 2582   0.243   2.030   0.582
  561SOL    HW2 2583   0.098   1.956   0.588
  562SOL     OW 2584   3.887   0.323   6.205
  562SOL    HW1 2585   3.856   0.357   6.116
  562SOL    HW2 2586   3.893   0.400   6.269
  563SOL     OW 2587   2.598   1.330   3.953
  563SOL    HW1 2588   2.504   1.307   3.981
  563SOL    HW2 2589   2.652   1.246   3.945
  564SOL     OW 2590   0.834   3.512   0.163
  564SOL    HW1 2591   0.831   3.510   0.263
  564SOL    HW2 2592   0.843   3.419   0.128
  565SOL     OW 2593   3.358   3.511   4.155
  565SOL    HW1 2594   3.324   3.565   4.078
  565SOL    HW2 2595   3.388   3.573   4.228
  566SOL     OW 2596   0.969   3.395   3.609
  566SOL    HW1 2597   0.914   3.451   3.671
  566SOL    HW2 2598   1.066   3.417   3.620
  567SOL     OW 2599   3.382   2.646   1.321
  567SOL    HW1 2600   3.404   2.675   1.415
  567SOL    HW2 2601   3.423   2.557   1.303
  568SOL     OW 2602   4.445   0.262   0.294
  568SOL    HW1 2603   4.394   0.323   0.233
  568SOL    HW2 2604   4.381   0.217   0.357
  569SOL     OW 2605   0.878   3.287   0.656
  569SOL    HW1 2606   0.922   3.220   0.597
  569SOL    HW2 2607   0.806   3.334   0.605
  570SOL     OW 2608   3.439   0.547   6.653
  570SOL    HW1 2609   3.365   0.568   6.588
  570SOL    HW2 2610   3.408   0.476   6.716
  571SOL     OW 2611   3.306   5.123   3.719
  571SOL    HW1 2612   3.208   5.101   3.724
  571SOL    HW2 2613   3.345   5.081   3.637
  572SOL     OW 2614   2.604   5.189   5.342
  572SOL    HW1 2615   2.598   5.116   5.275
  572SOL    HW2 2616   2.670   5.163   5.413
  573SOL     OW 2617   5.741   1.259   6.046
  573SOL    HW1 2618   5.697   1.223   6.129
  573SOL    HW2 2619   5.702   1.348   6.024
  574SOL     OW 2620   3.393   1.060   4.252
  574SOL    HW1 2621   3.419   0.975   4.207
  574SOL    HW2 2622   3.453   1.076   4.330
  575SOL     OW 2623   4.433   3.144   1.721
  575SOL    HW1 2624   4.517   3.119   1.770
  575SOL    HW2 2625   4.438   3.110   1.627
  576SOL     OW 2626   1.218   2.858   3.147
  576SOL    HW1 2627   1.221   2.837   3.245
  576SOL    HW2 2628   1.125   2.887   3.123
  577SOL     OW 2629   1.444   1.038   2.378
  577SOL    HW1 2630   1.345   1.027   2.376
  577SOL    HW2 2631   1.480   1.029   2.285
  578SOL     OW 2632   0.203   5.280   4.084
  578SOL    HW1 2633   0.105   5.272   4.105
  578SOL    HW2 2634   0.246   5.340   4.151
  579SOL     OW 2635   1.617   3.350   3.865
  579SOL    HW1 2636   1.716   3.366   3.871
  579SOL    HW2 2637   1.577   3.359   3.956
  580SOL     OW 2638   4.402   5.038   5.567
  580SOL    HW1 2639   4.373   5.080   5.653
  580SOL    HW2 2640   4.329   4.979   5.533
  581SOL     OW 2641   1.539   2.768   1.912
  581SOL    HW1 2642   1.530   2.788   2.009
  581SOL    HW2 2643   1.635   2.772   1.885
  582SOL     OW 2644   4.754   5.434   2.526
  582SOL    HW1 2645   4.675   5.439   2.466
  582SOL    HW2 2646   4.787   5.526   2.546
  583SOL     OW 2647   2.584   6.307   5.115
  583SOL    HW1 2648   2.603   6.285   5.210
  583SOL    HW2 2649   2.660   6.359   5.077
  584SOL     OW 2650   2.941   6.320   6.254
  584SOL    HW1 2651   2.863   6.314   6.192
  584SOL    HW2 2652   3.015   6.370   6.209
  585SOL     OW 2653   4.406   0.986   6.992
  585SOL    HW1 2654   4.313   0.992   0.007
  585SOL    HW2 2655   4.472   0.993   0.044
  586SOL     OW 2656   3.185   0.346   6.666
  586SOL    HW1 2657   3.263   0.289   6.690
  586SOL    HW2 2658   3.102   0.291   6.668
  587SOL     OW 2659   4.911   2.360   3.916
  587SOL    HW1 2660   4.850   2.311   3.854
  587SOL    HW2 2661   4.901   2.459   3.901
  588SOL     OW 2662   2.379   4.704   1.830
  588SOL    HW1 2663   2.447   4.630   1.836
  588SOL    HW2 2664   2.396   4.770   1.903
  589SOL     OW 2665   3.491   5.438   1.722
  589SOL    HW1 2666   3.465   5.432   1.626
  589SOL    HW2 2667   3.580   5.481   1.731
  590SOL     OW 2668   5.469   2.199   1.944
  590SOL    HW1 2669   5.397   2.248   1.894
  590SOL    HW2 2670   5.554   2.202   1.892
  591SOL     OW 2671   3.691   5.867   3.537
  591SOL    HW1 2672   3.659   5.907   3.451
  591SOL    HW2 2673   3.767   5.921   3.573
  592SOL     OW 2674   4.525   0.677   1.474
  592SOL    HW1 2675   4.560   0.711   1.562
  592SOL    HW2 2676   4.552   0.582   1.463
  593SOL     OW 2677   4.596   2.599   4.084
  593SOL    HW1 2678   4.659   2.676   4.079
  593SOL    HW2 2679   4.646   2.516   4.109
  594SOL     OW 2680   5.596   0.714   0.551
  594SOL    HW1 2681   5.535   0.642   0.584
  594SOL    HW2 2682   5.623   0.772   0.627
  595SOL     OW 2683   5.595   0.143   3.372
  595SOL    HW1 2684   5.694   0.156   3.364
  595SOL    HW2 2685   5.566   0.074   3.305
  596SOL     OW 2686   0.248   4.887   3.231
  596SOL    HW1 2687   0.257   4.984   3.206
  596SOL    HW2 2688   0.258   4.877   3.330
  597SOL     OW 2689   2.315   0.080   6.773
  597SOL    HW1 2690   2.294   0.113   6.681
  597SOL    HW2 2691   2.281   0.145   6.841
  598SOL     OW 2692   3.701   3.826   4.801
  598SOL    HW1 2693   3.608   3.848   4.771
  598SOL    HW2 2694   3.765   3.893   4.764
  599SOL     OW 2695   2.867   5.672   2.901
  599SOL    HW1 2696   2.773   5.695   2.880
  599SOL    HW2 2697   2.875   5.649   2.999
  600SOL     OW 2698   5.835   1.835   6.771
  600SOL    HW1 2699   5.891   1.779   6.710
  600SOL    HW2 2700   5.885   1.918   6.796
  601SOL     OW 2701   1.570   0.921   3.865
  601SOL    HW1 2702   1.479   0.917   3.907
  601SOL    HW2 2703   1.594   1.016   3.847
  602SOL     OW 2704   1.386   0.838   6.453
  602SOL    HW1 2705   1.469   0.793   6.422
  602SOL    HW2 2706   1.402   0.878   6.543
  603SOL     OW 2707   2.918   2.808   5.520
  603SOL    HW1 2708   2.970   2.741   5.468
  603SOL    HW2 2709   2.846   2.847   5.463
  604SOL     OW 2710   0.717   1.557   1.586
  604SOL    HW1 2711   0.647   1.608   1.635
  604SOL    HW2 2712   0.677   1.474   1.546
  605SOL     OW 2713   6.746   5.386   0.162
  605SOL    HW1 2714   6.673   5.391   0.094
  605SOL    HW2 2715   6.707   5.395   0.253
  606SOL     OW 2716   4.946   6.243   5.598
  606SOL    HW1 2717   4.892   6.280   5.522
  606SOL    HW2 2718   4.923   6.292   5.682
  607SOL     OW 2719   6.240   4.553   5.290
  607SOL    HW1 2720   6.337   4.574   5.277
  607SOL    HW2 2721   6.213   4.480   5.228
  608SOL     OW 2722   4.340   6.228   6.625
  608SOL    HW1 2723   4.245   6.257   6.617
  608SOL    HW2 2724   4.401   6.298   6.588
  609SOL     OW 2725   3.990   3.027   2.641
  609SOL    HW1 2726   4.013   3.121   2.666
  609SOL    HW2 2727   3.930   2.988   2.711
  610SOL     OW 2728   5.859   3.447   0.544
  610SOL    HW1 2729   5.876   3.413   0.452
  610SOL    HW2 2730   5.928   3.516   0.567
  611SOL     OW 2731   4.665   6.942   2.019
  611SOL    HW1 2732   4.615   6.865   2.059
  611SOL    HW2 2733   4.616   0.005   2.040
  612SOL     OW 2734   3.970   5.496   4.234
  612SOL    HW1 2735   3.891   5.558   4.241
  612SOL    HW2 2736   3.937   5.401   4.234
  613SOL     OW 2737   4.398   5.469   5.087
  613SOL    HW1 2738   4.464   5.484   5.013
  613SOL    HW2 2739   4.325   5.408   5.054
  614SOL     OW 2740   4.984   5.341   6.478
  614SOL    HW1 2741   4.943   5.252   6.458
  614SOL    HW2 2742   5.039   5.335   6.561
  615SOL     OW 2743   6.687   1.870   1.410
  615SOL    HW1 2744   6.674   1.847   1.313
  615SOL    HW2 2745   6.660   1.965   1.425
  616SOL     OW 2746   0.162   3.168   2.258
  616SOL    HW1 2747   0.194   3.161   2.353
  616SOL    HW2 2748   0.150   3.076   2.221
  617SOL     OW 2749   0.115   4.473   6.248
  617SOL    HW1 2750   0.191   4.408   6.247
  617SOL    HW2 2751   0.123   4.534   6.169
  618SOL     OW 2752   0.352   2.542   0.686
  618SOL    HW1 2753   0.415   2.617   0.707
  618SOL    HW2 2754   0.311   2.557   0.596
  619SOL     OW 2755   3.712   1.648   0.476
  619SOL    HW1 2756   3.686   1.732   0.428
  619SOL    HW2 2757   3.636   1.584   0.475
  620SOL     OW 2758   4.258   2.617   1.544
  620SOL    HW1 2759   4.278   2.540   1.604
  620SOL    HW2 2760   4.194   2.588   1.473
  621SOL     OW 2761   2.733   6.422   6.589
  621SOL    HW1 2762   2.823   6.421   6.633
  621SOL    HW2 2763   2.694   6.330   6.590
  622SOL     OW 2764   1.192   0.863   6.234
  622SOL    HW1 2765   1.219   0.920   6.156
  622SOL    HW2 2766   1.258   0.876   6.309
  623SOL     OW 2767   0.631   5.429   5.829
  623SOL    HW1 2768   0.615   5.480   5.914
  623SOL    HW2 2769   0.554   5.442   5.768
  624SOL     OW 2770   0.099   2.242   0.595
  624SOL    HW1 2771   0.186   2.222   0.549
  624SOL    HW2 2772   0.117   2.261   0.691
  625SOL     OW 2773   2.403   1.215   0.973
  625SOL    HW1 2774   2.448   1.304   0.983
  625SOL    HW2 2775   2.309   1.227   0.941
  626SOL     OW 2776   2.531   5.553   3.565
  626SOL    HW1 2777   2.527   5.540   3.664
  626SOL    HW2 2778   2.578   5.639   3.544
  627SOL     OW 2779   5.053   0.164   0.460
  627SOL    HW1 2780   4.992   0.190   0.384
  627SOL    HW2 2781   5.044   0.231   0.534
  628SOL     OW 2782   5.934   5.528   5.751
  628SOL    HW1 2783   6.000   5.505   5.679
  628SOL    HW2 2784   5.868   5.594   5.715
  629SOL     OW 2785   7.022   0.055   0.112
  629SOL    HW1 2786   6.952   0.115   0.153
  629SOL    HW2 2787   7.017   0.063   0.013
  630SOL     OW 2788   6.620   1.687   2.206
  630SOL    HW1 2789   6.669   1.616   2.154
  630SOL    HW2 2790   6.646   1.777   2.172
  631SOL     OW 2791   3.170   6.499   4.892
  631SOL    HW1 2792   3.199   6.499   4.988
  631SOL    HW2 2793   3.140   6.407   4.866
  632SOL     OW 2794   2.877   1.527   0.351
  632SOL    HW1 2795   2.932   1.609   0.359
  632SOL    HW2 2796   2.789   1.549   0.311
  633SOL     OW 2797   5.114   4.466   0.416
  633SOL    HW1 2798   5.203   4.434   0.447
  633SOL    HW2 2799   5.055   4.482   0.496
  634SOL     OW 2800   4.796   4.231   1.946
  634SOL    HW1 2801   4.700   4.251   1.964
  634SOL    HW2 2802   4.854   4.298   1.992
  635SOL     OW 2803   4.677   4.726   0.932
  635SOL    HW1 2804   4.770   4.740   0.899
  635SOL    HW2 2805   4.616   4.715   0.853
  636SOL     OW 2806   4.245   5.792   6.716
  636SOL    HW1 2807   4.334   5.832   6.736
  636SOL    HW2 2808   4.173   5.858   6.736
  637SOL     OW 2809   6.493   3.638   2.043
  637SOL    HW1 2810   6.548   3.587   2.109
  637SOL    HW2 2811   6.539   3.638   1.954
  638SOL     OW 2812   5.259   2.644   2.443
  638SOL    HW1 2813   5.194   2.585   2.396
  638SOL    HW2 2814   5.278   2.608   2.535
  639SOL     OW 2815   5.201   4.245   2.581
  639SOL    HW1 2816   5.282   4.295   2.548
  639SOL    HW2 2817   5.171   4.285   2.668
  640SOL     OW 2818   0.636   4.835   4.272
  640SOL    HW1 2819   0.696   4.881   4.337
  640SOL    HW2 2820   0.582   4.903   4.222
  641SOL     OW 2821   0.512   5.599   4.248
  641SOL    HW1 2822   0.537   5.683   4.201
  641SOL    HW2 2823   0.527   5.610   4.347
  642SOL     OW 2824   0.275   3.502   4.831
  642SOL    HW1 2825   0.375   3.502   4.839
  642SOL    HW2 2826   0.246   3.418   4.785
  643SOL     OW 2827   5.375   5.492   4.945
  643SOL    HW1 2828   5.374   5.588   4.974
  643SOL    HW2 2829   5.382   5.488   4.845
  644SOL     OW 2830   1.247   6.313   4.312
  644SOL    HW1 2831   1.339   6.312   4.351
  644SOL    HW2 2832   1.201   6.398   4.337
  645SOL     OW 2833   5.467   2.131   4.467
  645SOL    HW1 2834   5.533   2.093   4.402
  645SOL    HW2 2835   5.479   2.230   4.473
  646SOL     OW 2836   3.179   1.324   3.926
  646SOL    HW1 2837   3.222   1.275   3.850
  646SOL    HW2 2838   3.228   1.304   4.010
  647SOL     OW 2839   5.553   2.232   5.456
  647SOL    HW1 2840   5.473   2.179   5.481
  647SOL    HW2 2841   5.557   2.315   5.511
  648SOL     OW 2842   6.744   3.969   3.246
  648SOL    HW1 2843   6.828   4.019   3.220
  648SOL    HW2 2844   6.697   4.020   3.318
  649SOL     OW 2845   3.676   4.111   0.188
  649SOL    HW1 2846   3.699   4.157   0.103
  649SOL    HW2 2847   3.720   4.158   0.265
  650SOL     OW 2848   5.906   4.630   0.927
  650SOL    HW1 2849   5.992   4.579   0.935
  650SOL    HW2 2850   5.897   4.666   0.834
  651SOL     OW 2851   6.812   6.378   6.577
  651SOL    HW1 2852   6.879   6.345   6.644
  651SOL    HW2 2853   6.857   6.394   6.490
  652SOL     OW 2854   5.663   6.202   3.692
  652SOL    HW1 2855   5.728   6.138   3.651
  652SOL    HW2 2856   5.573   6.190   3.648
  653SOL     OW 2857   3.559   0.105   5.046
  653SOL    HW1 2858   3.604   0.111   5.135
  653SOL    HW2 2859   3.569   0.013   5.009
  654SOL     OW 2860   7.014   3.965   5.472
  654SOL    HW1 2861   7.010   3.880   5.419
  654SOL    HW2 2862   6.994   3.946   5.568
  655SOL     OW 2863   0.743   6.997   1.966
  655SOL    HW1 2864   0.774   0.002   2.057
  655SOL    HW2 2865   0.698   6.908   1.971
  656SOL     OW 2866   1.696   5.764   1.651
  656SOL    HW1 2867   1.736   5.674   1.629
  656SOL    HW2 2868   1.770   5.828   1.673
  657SOL     OW 2869   1.727   2.014   1.805
  657SOL    HW1 2870   1.803   2.023   1.740
  657SOL    HW2 2871   1.733   2.086   1.873
  658SOL     OW 2872   3.000   3.726   6.807
  658SOL    HW1 2873   2.904   3.704   6.827
  658SOL    HW2 2874   3.011   3.744   6.709
  659SOL     OW 2875   2.239   6.088   5.578
  659SOL    HW1 2876   2.200   6.035   5.503
  659SOL    HW2 2877   2.292   6.028   5.637
  660SOL     OW 2878   4.978   4.402   2.118
  660SOL    HW1 2879   5.057   4.460   2.097
  660SOL    HW2 2880   4.960   4.403   2.216
  661SOL     OW 2881   3.992   6.275   3.699
  661SOL    HW1 2882   4.085   6.308   3.714
  661SOL    HW2 2883   3.936   6.296   3.780
  662SOL     OW 2884   4.054   0.711   5.324
  662SOL    HW1 2885   3.995   0.650   5.271
  662SOL    HW2 2886   4.147   0.707   5.289
  663SOL     OW 2887   2.572   4.095   6.232
  663SOL    HW1 2888   2.523   4.138   6.157
  663SOL    HW2 2889   2.670   4.110   6.221
  664SOL     OW 2890   0.368   5.751   6.077
  664SOL    HW1 2891   0.367   5.776   5.980
  664SOL    HW2 2892   0.367   5.834   6.133
  665SOL     OW 2893   4.718   5.262   1.823
  665SOL    HW1 2894   4.767   5.198   1.883
  665SOL    HW2 2895   4.621   5.239   1.821
  666SOL     OW 2896   5.540   2.135   2.226
  666SOL    HW1 2897   5.500   2.115   2.136
  666SOL    HW2 2898   5.492   2.083   2.296
  667SOL     OW 2899   1.488   4.658   3.011
  667SOL    HW1 2900   1.486   4.593   2.935
  667SOL    HW2 2901   1.454   4.614   3.093
  668SOL     OW 2902   4.910   5.990   5.684
  668SOL    HW1 2903   4.894   5.948   5.595
  668SOL    HW2 2904   4.943   6.083   5.671
  669SOL     OW 2905   4.788   0.124   2.771
  669SOL    HW1 2906   4.798   0.024   2.777
  669SOL    HW2 2907   4.738   0.157   2.851
  670SOL     OW 2908   3.103   2.786   1.869
  670SOL    HW1 2909   3.101   2.720   1.944
  670SOL    HW2 2910   3.196   2.794   1.833
  671SOL     OW 2911   2.555   6.549   0.717
  671SOL    HW1 2912   2.627   6.566   0.649
  671SOL    HW2 2913   2.491   6.481   0.682
  672SOL     OW 2914   0.171   5.370   1.732
  672SOL    HW1 2915   0.197   5.356   1.828
  672SOL    HW2 2916   0.212   5.300   1.675
  673SOL     OW 2917   6.787   0.384   1.893
  673SOL    HW1 2918   6.708   0.328   1.919
  673SOL    HW2 2919   6.805   0.452   1.965
  674SOL     OW 2920   0.793   1.495   5.240
  674SOL    HW1 2921   0.882   1.481   5.197
  674SOL    HW2 2922   0.724   1.513   5.169
  675SOL     OW 2923   0.406   1.151   2.473
  675SOL    HW1 2924   0.387   1.240   2.432
  675SOL    HW2 2925   0.493   1.117   2.439
  676SOL     OW 2926   3.502   5.542   2.697
  676SOL    HW1 2927   3.417   5.490   2.703
  676SOL    HW2 2928   3.548   5.542   2.785
  677SOL     OW 2929   5.718   1.484   0.791
  677SOL    HW1 2930   5.684   1.415   0.855
  677SOL    HW2 2931   5.693   1.458   0.698
  678SOL     OW 2932   2.537   0.161   5.276
  678SOL    HW1 2933   2.458   0.154   5.215
  678SOL    HW2 2934   2.597   0.234   5.244
  679SOL     OW 2935   4.382   2.407   3.400
  679SOL    HW1 2936   4.307   2.371   3.454
  679SOL    HW2 2937   4.364   2.391   3.303
  680SOL     OW 2938   5.394   5.456   5.232
  680SOL    HW1 2939   5.477   5.504   5.259
  680SOL    HW2 2940   5.377   5.470   5.135
  681SOL     OW 2941   4.946   4.901   1.891
  681SOL    HW1 2942   4.847   4.896   1.874
  681SOL    HW2 2943   4.994   4.841   1.826
  682SOL     OW 2944   6.580   0.953   1.377
  682SOL    HW1 2945   6.549   1.009   1.454
  682SOL    HW2 2946   6.575   1.007   1.293
  683SOL     OW 2947   5.195   2.939   0.415
  683SOL    HW1 2948   5.183   2.910   0.510
  683SOL    HW2 2949   5.168   2.865   0.353
  684SOL     OW 2950   6.583   1.026   0.224
  684SOL    HW1 2951   6.558   1.071   0.139
  684SOL    HW2 2952   6.648   0.952   0.205
  685SOL     OW 2953   4.029   1.733   3.757
  685SOL    HW1 2954   3.972   1.651   3.764
  685SOL    HW2 2955   3.977   1.813   3.784
  686SOL     OW 2956   4.822   2.629   3.877
  686SOL    HW1 2957   4.890   2.679   3.931
  686SOL    HW2 2958   4.741   2.685   3.866
  687SOL     OW 2959   0.305   2.663   4.423
  687SOL    HW1 2960   0.295   2.636   4.519
  687SOL    HW2 2961   0.279   2.586   4.364
  688SOL     OW 2962   0.184   1.859   0.142
  688SOL    HW1 2963   0.225   1.772   0.168
  688SOL    HW2 2964   0.126   1.892   0.217
  689SOL     OW 2965   0.892   4.768   6.476
  689SOL    HW1 2966   0.877   4.672   6.450
  689SOL    HW2 2967   0.927   4.818   6.397
  690SOL     OW 2968   0.041   3.151   2.811
  690SOL    HW1 2969   7.021   3.106   2.890
  690SOL    HW2 2970   6.993   3.193   2.754
  691SOL     OW 2971   2.568   0.950   0.447
  691SOL    HW1 2972   2.490   0.898   0.412
  691SOL    HW2 2973   2.560   1.045   0.417
  692SOL     OW 2974   3.874   0.787   3.613
  692SOL    HW1 2975   3.955   0.745   3.652
  692SOL    HW2 2976   3.795   0.770   3.672
  693SOL     OW 2977   5.639   0.492   4.368
  693SOL    HW1 2978   5.601   0.551   4.440
  693SOL    HW2 2979   5.739   0.502   4.367
  694SOL     OW 2980   4.454   0.193   4.195
  694SOL    HW1 2981   4.372   0.173   4.143
  694SOL    HW2 2982   4.534   0.152   4.150
  695SOL     OW 2983   4.830   6.725   3.976
  695SOL    HW1 2984   4.814   6.627   3.989
  695SOL    HW2 2985   4.794   6.753   3.887
  696SOL     OW 2986   4.592   4.898   3.357
  696SOL    HW1 2987   4.662   4.963   3.329
  696SOL    HW2 2988   4.598   4.815   3.301
  697SOL     OW 2989   1.341   4.045   3.049
  697SOL    HW1 2990   1.271   4.021   2.980
  697SOL    HW2 2991   1.347   3.971   3.116
  698SOL     OW 2992   4.403   6.175   1.044
  698SOL    HW1 2993   4.460   6.105   1.087
  698SOL    HW2 2994   4.390   6.153   0.948
  699SOL     OW 2995   1.945   3.845   6.839
  699SOL    HW1 2996   1.951   3.823   6.741
  699SOL    HW2 2997   1.907   3.936   6.851
  700SOL     OW 2998   2.595   0.614   2.010
  700SOL    HW1 2999   2.535   0.536   2.028
  700SOL    HW2 3000   2.616   0.660   2.096
  701SOL     OW 3001   6.484   4.097   6.798
  701SOL    HW1 3002   6.430   4.177   6.770
  701SOL    HW2 3003   6.467   4.078   6.895
  702SOL     OW 3004   1.547   6.506   5.264
  702SOL    HW1 3005   1.545   6.579   5.332
  702SOL    HW2 3006   1.633   6.511   5.213
  703SOL     OW 3007   3.651   2.978   6.711
  703SOL    HW1 3008   3.615   2.901   6.763
  703SOL    HW2 3009   3.589   2.999   6.636
  704SOL     OW 3010   1.532   2.716   6.974
  704SOL    HW1 3011   1.533   2.653   6.896
  704SOL    HW2 3012   1.570   2.804   6.946
  705SOL     OW 3013   6.255   5.091   2.916
  705SOL    HW1 3014   6.227   5.117   2.824
  705SOL    HW2 3015   6.352   5.112   2.928
  706SOL     OW 3016   4.397   2.057   5.147
  706SOL    HW1 3017   4.417   2.017   5.058
  706SOL    HW2 3018   4.442   2.003   5.219
  707SOL     OW 3019   4.304   4.616   3.328
  707SOL    HW1 3020   4.356   4.598   3.244
  707SOL    HW2 3021   4.360   4.593   3.407
  708SOL     OW 3022   2.894   0.627   2.214
  708SOL    HW1 3023   2.812   0.684   2.222
  708SOL    HW2 3024   2.951   0.661   2.139
  709SOL     OW 3025   0.495   5.884   0.461
  709SOL    HW1 3026   0.423   5.944   0.495
  709SOL    HW2 3027   0.541   5.928   0.383
  710SOL     OW 3028   3.490   2.289   1.051
  710SOL    HW1 3029   3.448   2.199   1.067
  710SOL    HW2 3030   3.523   2.325   1.138
  711SOL     OW 3031   6.842   3.294   5.784
  711SOL    HW1 3032   6.891   3.362   5.730
  711SOL    HW2 3033   6.907   3.236   5.833
  712SOL     OW 3034   3.802   2.088   1.189
  712SOL    HW1 3035   3.766   2.002   1.153
  712SOL    HW2 3036   3.901   2.080   1.203
  713SOL     OW 3037   4.071   3.064   6.198
  713SOL    HW1 3038   3.977   3.068   6.233
  713SOL    HW2 3039   4.089   3.147   6.144
  714SOL     OW 3040   0.535   4.577   3.460
  714SOL    HW1 3041   0.509   4.481   3.449
  714SOL    HW2 3042   0.454   4.630   3.485
  715SOL     OW 3043   4.955   6.272   6.914
  715SOL    HW1 3044   4.864   6.314   6.913
  715SOL    HW2 3045   5.024   6.342   6.899
  716SOL     OW 3046   0.403   0.970   2.106
  716SOL    HW1 3047   0.442   0.932   2.022
  716SOL    HW2 3048   0.400   1.070   2.100
  717SOL     OW 3049   6.400   4.248   3.535
  717SOL    HW1 3050   6.335   4.297   3.477
  717SOL    HW2 3051   6.478   4.309   3.556
  718SOL     OW 3052   4.327   3.660   6.139
  718SOL    HW1 3053   4.396   3.595   6.168
  718SOL    HW2 3054   4.269   3.619   6.068
  719SOL     OW 3055   6.996   0.524   2.986
  719SOL    HW1 3056   0.012   0.612   3.015
  719SOL    HW2 3057   0.024   0.449   3.030
  720SOL     OW 3058   2.453   6.950   6.115
  720SOL    HW1 3059   2.376   6.957   6.052
  720SOL    HW2 3060   2.508   6.870   6.092
  721SOL     OW 3061   3.016   1.412   2.392
  721SOL    HW1 3062   2.937   1.407   2.332
  721SOL    HW2 3063   2.988   1.440   2.483
  722SOL     OW 3064   2.527   0.738   5.426
  722SOL    HW1 3065   2.562   0.755   5.334
  722SOL    HW2 3066   2.588   0.674   5.473
  723SOL     OW 3067   1.630   4.445   3.401
  723SOL    HW1 3068   1.668   4.371   3.345
  723SOL    HW2 3069   1.563   4.496   3.348
  724SOL     OW 3070   0.991   1.469   4.162
  724SOL    HW1 3071   1.009   1.441   4.257
  724SOL    HW2 3072   1.053   1.420   4.101
  725SOL     OW 3073   1.598   5.543   2.190
  725SOL    HW1 3074   1.597   5.642   2.177
  725SOL    HW2 3075   1.545   5.500   2.117
  726SOL     OW 3076   3.524   4.557   1.340
  726SOL    HW1 3077   3.440   4.548   1.286
  726SOL    HW2 3078   3.600   4.518   1.288
  727SOL     OW 3079   5.953   4.554   5.257
  727SOL    HW1 3080   5.954   4.483   5.186
  727SOL    HW2 3081   6.044   4.563   5.296
  728SOL     OW 3082   6.077   2.710   3.470
  728SOL    HW1 3083   5.988   2.666   3.461
  728SOL    HW2 3084   6.074   2.800   3.428
  729SOL     OW 3085   0.507   1.693   1.264
  729SOL    HW1 3086   0.518   1.792   1.267
  729SOL    HW2 3087   0.596   1.649   1.257
  730SOL     OW 3088   6.628   0.155   4.356
  730SOL    HW1 3089   6.676   0.119   4.276
  730SOL    HW2 3090   6.556   0.090   4.383
  731SOL     OW 3091   4.538   5.098   6.908
  731SOL    HW1 3092   4.453   5.113   6.958
  731SOL    HW2 3093   4.615   5.132   6.962
  732SOL     OW 3094   5.717   2.547   1.552
  732SOL    HW1 3095   5.686   2.624   1.607
  732SOL    HW2 3096   5.785   2.578   1.486
  733SOL     OW 3097   5.280   0.264   4.256
  733SOL    HW1 3098   5.319   0.263   4.348
  733SOL    HW2 3099   5.225   0.348   4.244
  734SOL     OW 3100   6.043   4.759   3.101
  734SOL    HW1 3101   5.981   4.702   3.155
  734SOL    HW2 3102   6.056   4.718   3.010
  735SOL     OW 3103   4.272   1.796   0.612
  735SOL    HW1 3104   4.272   1.715   0.553
  735SOL    HW2 3105   4.180   1.832   0.620
  736SOL     OW 3106   0.508   2.064   3.481
  736SOL    HW1 3107   0.458   1.986   3.444
  736SOL    HW2 3108   0.473   2.085   3.573
  737SOL     OW 3109   5.792   2.103   5.992
  737SOL    HW1 3110   5.769   2.137   5.901
  737SOL    HW2 3111   5.822   2.180   6.049
  738SOL     OW 3112   2.426   3.414   1.272
  738SOL    HW1 3113   2.373   3.426   1.188
  738SOL    HW2 3114   2.463   3.503   1.301
  739SOL     OW 3115   5.219   1.298   4.602
  739SOL    HW1 3116   5.140   1.343   4.643
  739SOL    HW2 3117   5.215   1.309   4.503
  740SOL     OW 3118   5.654   1.314   1.834
  740SOL    HW1 3119   5.570   1.276   1.795
  740SOL    HW2 3120   5.720   1.240   1.850
  741SOL     OW 3121   1.922   0.032   3.028
  741SOL    HW1 3122   1.926   0.010   3.125
  741SOL    HW2 3123   2.001   0.088   3.003
  742SOL     OW 3124   2.461   6.668   2.302
  742SOL    HW1 3125   2.493   6.733   2.233
  742SOL    HW2 3126   2.446   6.579   2.259
  743SOL     OW 3127   1.139   5.277   3.631
  743SOL    HW1 3128   1.078   5.250   3.556
  743SOL    HW2 3129   1.174   5.369   3.614
  744SOL     OW 3130   5.461   0.565   1.060
  744SOL    HW1 3131   5.549   0.560   1.107
  744SOL    HW2 3132   5.474   0.603   0.969
  745SOL     OW 3133   1.445   5.456   5.251
  745SOL    HW1 3134   1.392   5.539   5.270
  745SOL    HW2 3135   1.384   5.385   5.217
  746SOL     OW 3136   6.239   4.351   6.014
  746SOL    HW1 3137   6.206   4.445   6.013
  746SOL    HW2 3138   6.162   4.288   6.022
  747SOL     OW 3139   3.694   6.255   4.911
  747SOL    HW1 3140   3.715   6.228   4.817
  747SOL    HW2 3141   3.777   6.249   4.967
  748SOL     OW 3142   3.990   5.271   2.400
  748SOL    HW1 3143   3.939   5.193   2.363
  748SOL    HW2 3144   4.080   5.240   2.430
  749SOL     OW 3145   6.265   3.767   3.872
  749SOL    HW1 3146   6.335   3.724   3.929
  749SOL    HW2 3147   6.177   3.763   3.919
  750SOL     OW 3148   2.459   1.155   1.284
  750SOL    HW1 3149   2.472   1.237   1.339
  750SOL    HW2 3150   2.400   1.175   1.206
  751SOL     OW 3151   4.426   1.158   6.741
  751SOL    HW1 3152   4.338   1.200   6.721
  751SOL    HW2 3153   4.413   1.084   6.808
  752SOL     OW 3154   2.696   2.406   0.957
  752SOL    HW1 3155   2.789   2.402   0.994
  752SOL    HW2 3156   2.687   2.340   0.882
  753SOL     OW 3157   0.704   3.712   6.504
  753SOL    HW1 3158   0.761   3.789   6.531
  753SOL    HW2 3159   0.756   3.627   6.512
  754SOL     OW 3160   4.853   1.803   5.973
  754SOL    HW1 3161   4.814   1.712   5.990
  754SOL    HW2 3162   4.947   1.793   5.939
  755SOL     OW 3163   1.555   4.378   5.085
  755SOL    HW1 3164   1.495   4.398   5.007
  755SOL    HW2 3165   1.537   4.445   5.158
  756SOL     OW 3166   2.621   6.168   6.562
  756SOL    HW1 3167   2.675   6.158   6.478
  756SOL    HW2 3168   2.569   6.083   6.578
  757SOL     OW 3169   0.098   6.929   4.200
  757SOL    HW1 3170   0.185   6.978   4.192
  757SOL    HW2 3171   0.064   6.938   4.294
  758SOL     OW 3172   4.014   0.768   3.330
  758SOL    HW1 3173   3.973   0.827   3.399
  758SOL    HW2 3174   4.095   0.723   3.368
  759SOL     OW 3175   0.474   2.681   2.031
  759SOL    HW1 3176   0.468   2.602   1.970
  759SOL    HW2 3177   0.543   2.745   1.997
  760SOL     OW 3178   6.068   0.057   3.869
  760SOL    HW1 3179   5.981   0.106   3.870
  760SOL    HW2 3180   6.078   0.008   3.782
  761SOL     OW 3181   5.412   3.603   6.638
  761SOL    HW1 3182   5.476   3.599   6.561
  761SOL    HW2 3183   5.321   3.576   6.607
  762SOL     OW 3184   2.696   0.365   5.186
  762SOL    HW1 3185   2.729   0.423   5.261
  762SOL    HW2 3186   2.764   0.361   5.114
  763SOL     OW 3187   3.915   5.555   6.454
  763SOL    HW1 3188   3.863   5.636   6.478
  763SOL    HW2 3189   4.013   5.576   6.454
  764SOL     OW 3190   5.340   1.167   5.584
  764SOL    HW1 3191   5.406   1.187   5.656
  764SOL    HW2 3192   5.261   1.120   5.623
  765SOL     OW 3193   1.619   5.602   1.030
  765SOL    HW1 3194   1.671   5.517   1.027
  765SOL    HW2 3195   1.675   5.674   1.071
  766SOL     OW 3196   2.394   1.931   5.860
  766SOL    HW1 3197   2.466   1.947   5.793
  766SOL    HW2 3198   2.383   1.832   5.874
  767SOL     OW 3199   6.521   5.908   3.422
  767SOL    HW1 3200   6.500   5.875   3.515
  767SOL    HW2 3201   6.619   5.928   3.415
  768SOL     OW 3202   1.981   5.090   2.791
  768SOL    HW1 3203   1.992   5.006   2.844
  768SOL    HW2 3204   1.933   5.159   2.845
  769SOL     OW 3205   2.378   1.290   5.398
  769SOL    HW1 3206   2.389   1.377   5.351
  769SOL    HW2 3207   2.446   1.225   5.364
  770SOL     OW 3208   1.433   5.404   3.699
  770SOL    HW1 3209   1.401   5.309   3.699
  770SOL    HW2 3210   1.383   5.456   3.630
  771SOL     OW 3211   1.364   5.399   2.900
  771SOL    HW1 3212   1.308   5.455   2.962
  771SOL    HW2 3213   1.315   5.315   2.878
  772SOL     OW 3214   5.541   4.741   6.320
  772SOL    HW1 3215   5.535   4.642   6.322
  772SOL    HW2 3216   5.457   4.779   6.280
  773SOL     OW 3217   0.355   4.353   3.278
  773SOL    HW1 3218   0.356   4.290   3.356
  773SOL    HW2 3219   0.446   4.358   3.238
  774SOL     OW 3220   1.869   0.986   1.427
  774SOL    HW1 3221   1.851   1.061   1.363
  774SOL    HW2 3222   1.814   0.999   1.509
  775SOL     OW 3223   2.451   2.161   4.330
  775SOL    HW1 3224   2.490   2.076   4.294
  775SOL    HW2 3225   2.382   2.195   4.266
  776SOL     OW 3226   0.214   0.526   5.657
  776SOL    HW1 3227   0.193   0.565   5.747
  776SOL    HW2 3228   0.134   0.477   5.622
  777SOL     OW 3229   1.403   4.824   0.654
  777SOL    HW1 3230   1.387   4.916   0.620
  777SOL    HW2 3231   1.497   4.816   0.686
  778SOL     OW 3232   2.220   0.875   1.749
  778SOL    HW1 3233   2.139   0.857   1.693
  778SOL    HW2 3234   2.293   0.811   1.722
  779SOL     OW 3235   6.928   2.379   2.349
  779SOL    HW1 3236   6.918   2.455   2.285
  779SOL    HW2 3237   7.009   2.325   2.324
  780SOL     OW 3238   0.941   2.853   4.501
  780SOL    HW1 3239   0.924   2.758   4.528
  780SOL    HW2 3240   0.855   2.897   4.476
  781SOL     OW 3241   5.804   6.236   0.765
  781SOL    HW1 3242   5.724   6.279   0.724
  781SOL    HW2 3243   5.821   6.147   0.722
  782SOL     OW 3244   1.186   3.248   6.460
  782SOL    HW1 3245   1.188   3.219   6.364
  782SOL    HW2 3246   1.274   3.288   6.485
  783SOL     OW 3247   5.136   4.607   2.045
  783SOL    HW1 3248   5.080   4.689   2.033
  783SOL    HW2 3249   5.232   4.632   2.051
  784SOL     OW 3250   4.027   4.662   0.639
  784SOL    HW1 3251   4.092   4.723   0.594
  784SOL    HW2 3252   3.966   4.716   0.698
  785SOL     OW 3253   0.399   1.874   3.307
  785SOL    HW1 3254   0.324   1.808   3.311
  785SOL    HW2 3255   0.407   1.909   3.213
  786SOL     OW 3256   0.632   0.384   2.746
  786SOL    HW1 3257   0.661   0.480   2.742
  786SOL    HW2 3258   0.535   0.378   2.723
  787SOL     OW 3259   1.379   1.408   6.612
  787SOL    HW1 3260   1.323   1.490   6.624
  787SOL    HW2 3261   1.415   1.380   6.700
  788SOL     OW 3262   4.029   1.426   0.969
  788SOL    HW1 3263   3.966   1.408   1.045
  788SOL    HW2 3264   4.123   1.414   1.000
  789SOL     OW 3265   4.261   4.276   1.618
  789SOL    HW1 3266   4.317   4.339   1.564
  789SOL    HW2 3267   4.303   4.263   1.708
  790SOL     OW 3268   2.182   1.572   2.961
  790SOL    HW1 3269   2.173   1.649   2.898
  790SOL    HW2 3270   2.274   1.570   2.999
  791SOL     OW 3271   1.640   6.060   4.895
  791SOL    HW1 3272   1.639   6.057   4.995
  791SOL    HW2 3273   1.547   6.049   4.861
  792SOL     OW 3274   0.961   1.052   2.026
  792SOL    HW1 3275   1.005   1.125   2.078
  792SOL    HW2 3276   0.964   1.073   1.928
  793SOL     OW 3277   4.938   5.235   4.149
  793SOL    HW1 3278   4.874   5.309   4.171
  793SOL    HW2 3279   4.973   5.194   4.233
  794SOL     OW 3280   3.010   3.914   5.793
  794SOL    HW1 3281   3.085   3.869   5.841
  794SOL    HW2 3282   3.027   4.013   5.791
  795SOL     OW 3283   4.092   0.516   4.917
  795SOL    HW1 3284   4.046   0.519   4.828
  795SOL    HW2 3285   4.190   0.528   4.905
  796SOL     OW 3286   1.212   2.477   6.379
  796SOL    HW1 3287   1.205   2.472   6.279
  796SOL    HW2 3288   1.124   2.455   6.420
  797SOL     OW 3289   5.054   0.650   1.208
  797SOL    HW1 3290   5.018   0.696   1.126
  797SOL    HW2 3291   4.992   0.576   1.234
  798SOL     OW 3292   3.916   6.371   1.854
  798SOL    HW1 3293   3.952   6.430   1.782
  798SOL    HW2 3294   3.938   6.409   1.943
  799SOL     OW 3295   0.230   6.824   6.335
  799SOL    HW1 3296   0.318   6.869   6.350
  799SOL    HW2 3297   0.202   6.777   6.418
  800SOL     OW 3298   5.902   0.830   2.546
  800SOL    HW1 3299   5.878   0.890   2.470
  800SOL    HW2 3300   6.000   0.814   2.547
  801SOL     OW 3301   2.498   4.643   4.284
  801SOL    HW1 3302   2.427   4.603   4.343
  801SOL    HW2 3303   2.582   4.654   4.337
  802SOL     OW 3304   2.868   1.981   0.888
  802SOL    HW1 3305   2.935   1.943   0.824
  802SOL    HW2 3306   2.915   2.014   0.970
  803SOL     OW 3307   1.684   0.409   5.967
  803SOL    HW1 3308   1.767   0.448   5.928
  803SOL    HW2 3309   1.708   0.351   6.045
  804SOL     OW 3310   5.842   6.513   0.836
  804SOL    HW1 3311   5.855   6.414   0.834
  804SOL    HW2 3312   5.930   6.558   0.851
  805SOL     OW 3313   2.328   1.067   4.380
  805SOL    HW1 3314   2.427   1.079   4.376
  805SOL    HW2 3315   2.297   1.077   4.474
  806SOL     OW 3316   5.638   1.055   4.477
  806SOL    HW1 3317   5.658   1.058   4.379
  806SOL    HW2 3318   5.659   1.143   4.518
  807SOL     OW 3319   0.538   0.658   5.222
  807SOL    HW1 3320   0.509   0.721   5.294
  807SOL    HW2 3321   0.489   0.680   5.138
  808SOL     OW 3322   4.049   4.105   6.641
  808SOL    HW1 3323   4.079   4.114   6.546
  808SOL    HW2 3324   3.963   4.055   6.645
  809SOL     OW 3325   0.668   4.925   1.056
  809SOL    HW1 3326   0.698   4.900   0.964
  809SOL    HW2 3327   0.603   5.000   1.051
  810SOL     OW 3328   3.348   4.589   0.702
  810SOL    HW1 3329   3.272   4.583   0.767
  810SOL    HW2 3330   3.316   4.625   0.615
  811SOL     OW 3331   5.624   5.913   5.191
  811SOL    HW1 3332   5.607   5.815   5.191
  811SOL    HW2 3333   5.710   5.933   5.237
  812SOL     OW 3334   7.010   0.999   3.144
  812SOL    HW1 3335   0.064   1.052   3.180
  812SOL    HW2 3336   0.021   0.920   3.094
  813SOL     OW 3337   3.591   6.804   4.063
  813SOL    HW1 3338   3.636   6.726   4.107
  813SOL    HW2 3339   3.653   6.844   3.995
  814SOL     OW 3340   6.449   5.912   2.772
  814SOL    HW1 3341   6.443   5.998   2.722
  814SOL    HW2 3342   6.390   5.914   2.852
  815SOL     OW 3343   6.775   3.178   3.344
  815SOL    HW1 3344   6.823   3.263   3.364
  815SOL    HW2 3345   6.744   3.179   3.250
  816SOL     OW 3346   5.880   5.453   0.879
  816SOL    HW1 3347   5.864   5.383   0.948
  816SOL    HW2 3348   5.817   5.441   0.803
  817SOL     OW 3349   1.093   5.487   1.329
  817SOL    HW1 3350   1.169   5.475   1.265
  817SOL    HW2 3351   1.038   5.404   1.333
  818SOL     OW 3352   6.308   2.969   3.668
  818SOL    HW1 3353   6.383   2.944   3.608
  818SOL    HW2 3354   6.264   2.887   3.704
  819SOL     OW 3355   6.167   3.236   1.470
  819SOL    HW1 3356   6.206   3.232   1.562
  819SOL    HW2 3357   6.140   3.330   1.449
  820SOL     OW 3358   2.782   2.218   4.971
  820SOL    HW1 3359   2.751   2.123   4.977
  820SOL    HW2 3360   2.798   2.254   5.063
  821SOL     OW 3361   6.654   4.546   6.678
  821SOL    HW1 3362   6.579   4.549   6.744
  821SOL    HW2 3363   6.621   4.512   6.590
  822SOL     OW 3364   0.252   3.180   3.287
  822SOL    HW1 3365   0.172   3.201   3.230
  822SOL    HW2 3366   0.271   3.258   3.347
  823SOL     OW 3367   6.085   4.305   5.720
  823SOL    HW1 3368   6.053   4.234   5.783
  823SOL    HW2 3369   6.040   4.392   5.741
  824SOL     OW 3370   3.755   0.414   5.967
  824SOL    HW1 3371   3.809   0.472   5.907
  824SOL    HW2 3372   3.676   0.466   6.001
  825SOL     OW 3373   6.747   5.651   1.560
  825SOL    HW1 3374   6.832   5.601   1.580
  825SOL    HW2 3375   6.680   5.631   1.632
  826SOL     OW 3376   4.181   2.063   5.852
  826SOL    HW1 3377   4.159   1.970   5.822
  826SOL    HW2 3378   4.192   2.123   5.773
  827SOL     OW 3379   2.392   4.394   5.164
  827SOL    HW1 3380   2.465   4.434   5.108
  827SOL    HW2 3381   2.307   4.394   5.111
  828SOL     OW 3382   5.544   6.486   6.552
  828SOL    HW1 3383   5.641   6.487   6.577
  828SOL    HW2 3384   5.522   6.570   6.503
  829SOL     OW 3385   4.167   3.545   2.187
  829SOL    HW1 3386   4.266   3.534   2.202
  829SOL    HW2 3387   4.123   3.567   2.274
  830SOL     OW 3388   5.475   4.943   6.768
  830SOL    HW1 3389   5.462   4.890   6.685
  830SOL    HW2 3390   5.564   4.989   6.766
  831SOL     OW 3391   6.185   6.785   0.104
  831SOL    HW1 3392   6.240   6.713   0.060
  831SOL    HW2 3393   6.216   6.874   0.072
  832SOL     OW 3394   3.997   1.708   3.217
  832SOL    HW1 3395   3.988   1.678   3.312
  832SOL    HW2 3396   4.025   1.804   3.215
  833SOL     OW 3397   1.541   3.637   6.414
  833SOL    HW1 3398   1.600   3.653   6.334
  833SOL    HW2 3399   1.466   3.704   6.414
  834SOL     OW 3400   4.968   3.808   1.083
  834SOL    HW1 3401   4.958   3.752   1.166
  834SOL    HW2 3402   4.963   3.749   1.002
  835SOL     OW 3403   3.611   0.319   5.703
  835SOL    HW1 3404   3.619   0.416   5.723
  835SOL    HW2 3405   3.702   0.278   5.699
  836SOL     OW 3406   4.004   6.931   4.715
  836SOL    HW1 3407   4.013   6.914   4.617
  836SOL    HW2 3408   4.011   0.007   4.732
  837SOL     OW 3409   0.107   0.766   1.311
  837SOL    HW1 3410   0.116   0.776   1.410
  837SOL    HW2 3411   0.191   0.726   1.274
  838SOL     OW 3412   2.346   6.783   4.499
  838SOL    HW1 3413   2.348   6.699   4.445
  838SOL    HW2 3414   2.364   6.861   4.440
  839SOL     OW 3415   1.999   1.484   1.696
  839SOL    HW1 3416   1.985   1.389   1.668
  839SOL    HW2 3417   2.022   1.487   1.793
  840SOL     OW 3418   6.506   6.070   0.101
  840SOL    HW1 3419   6.480   6.120   0.018
  840SOL    HW2 3420   6.439   5.997   0.118
  841SOL     OW 3421   3.498   5.542   6.063
  841SOL    HW1 3422   3.496   5.450   6.102
  841SOL    HW2 3423   3.591   5.579   6.069
  842SOL     OW 3424   3.635   0.092   5.309
  842SOL    HW1 3425   3.716   0.086   5.366
  842SOL    HW2 3426   3.562   0.139   5.359
  843SOL     OW 3427   1.094   1.791   1.660
  843SOL    HW1 3428   1.174   1.798   1.600
  843SOL    HW2 3429   1.043   1.707   1.638
  844SOL     OW 3430   6.479   0.214   0.244
  844SOL    HW1 3431   6.384   0.244   0.234
  844SOL    HW2 3432   6.503   0.213   0.341
  845SOL     OW 3433   4.994   3.976   3.769
  845SOL    HW1 3434   5.006   3.882   3.735
  845SOL    HW2 3435   5.072   4.032   3.740
  846SOL     OW 3436   2.174   1.003   5.930
  846SOL    HW1 3437   2.225   1.033   5.850
  846SOL    HW2 3438   2.086   0.964   5.901
  847SOL     OW 3439   1.242   3.525   1.250
  847SOL    HW1 3440   1.164   3.583   1.227
  847SOL    HW2 3441   1.321   3.552   1.195
  848SOL     OW 3442   6.965   0.045   6.034
  848SOL    HW1 3443   7.005   6.977   6.050
  848SOL    HW2 3444   6.888   0.058   6.097
  849SOL     OW 3445   6.052   4.049   6.468
  849SOL    HW1 3446   6.026   4.137   6.508
  849SOL    HW2 3447   6.127   4.062   6.403
  850SOL     OW 3448   5.735   1.602   4.813
  850SOL    HW1 3449   5.726   1.546   4.730
  850SOL    HW2 3450   5.825   1.586   4.854
  851SOL     OW 3451   0.062   2.599   0.935
  851SOL    HW1 3452   7.002   2.636   0.891
  851SOL    HW2 3453   0.081   2.507   0.899
  852SOL     OW 3454   0.602   4.194   0.881
  852SOL    HW1 3455   0.672   4.262   0.859
  852SOL    HW2 3456   0.635   4.134   0.954
  853SOL     OW 3457   0.663   4.704   0.789
  853SOL    HW1 3458   0.722   4.629   0.760
  853SOL    HW2 3459   0.709   4.791   0.770
  854SOL     OW 3460   5.060   5.713   0.626
  854SOL    HW1 3461   5.148   5.746   0.592
  854SOL    HW2 3462   5.059   5.613   0.625
  855SOL     OW 3463   6.619   0.221   1.622
  855SOL    HW1 3464   6.695   0.286   1.616
  855SOL    HW2 3465   6.555   0.250   1.694
  856SOL     OW 3466   1.412   2.066   6.940
  856SOL    HW1 3467   1.395   2.154   6.983
  856SOL    HW2 3468   1.337   2.004   6.960
  857SOL     OW 3469   6.180   4.826   2.094
  857SOL    HW1 3470   6.195   4.737   2.138
  857SOL    HW2 3471   6.115   4.815   2.018
  858SOL     OW 3472   3.017   3.784   1.196
  858SOL    HW1 3473   3.062   3.855   1.250
  858SOL    HW2 3474   2.977   3.715   1.257
  859SOL     OW 3475   5.771   0.137   5.029
  859SOL    HW1 3476   5.845   0.107   4.969
  859SOL    HW2 3477   5.753   0.234   5.015
  860SOL     OW 3478   6.347   2.818   0.085
  860SOL    HW1 3479   6.432   2.842   0.132
  860SOL    HW2 3480   6.299   2.748   0.136
  861SOL     OW 3481   2.870   5.152   4.047
  861SOL    HW1 3482   2.804   5.114   3.982
  861SOL    HW2 3483   2.934   5.081   4.075
  862SOL     OW 3484   1.454   4.102   3.415
  862SOL    HW1 3485   1.452   4.099   3.515
  862SOL    HW2 3486   1.414   4.018   3.378
  863SOL     OW 3487   6.090   0.614   6.588
  863SOL    HW1 3488   5.992   0.621   6.603
  863SOL    HW2 3489   6.109   0.611   6.490
  864SOL     OW 3490   3.738   5.722   4.077
  864SOL    HW1 3491   3.701   5.663   4.005
  864SOL    HW2 3492   3.814   5.775   4.039
  865SOL     OW 3493   1.533   0.045   6.106
  865SOL    HW1 3494   1.519   6.995   6.173
  865SOL    HW2 3495   1.612   0.023   6.048
  866SOL     OW 3496   2.310   1.251   0.525
  866SOL    HW1 3497   2.282   1.282   0.434
  866SOL    HW2 3498   2.262   1.165   0.547
  867SOL     OW 3499   5.102   4.123   0.255
  867SOL    HW1 3500   5.154   4.092   0.176
  867SOL    HW2 3501   5.009   4.085   0.252
  868SOL     OW 3502   6.324   1.217   1.257
  868SOL    HW1 3503   6.375   1.153   1.201
  868SOL    HW2 3504   6.260   1.269   1.200
  869SOL     OW 3505   0.446   4.491   2.922
  869SOL    HW1 3506   0.358   4.517   2.961
  869SOL    HW2 3507   0.463   4.544   2.839
  870SOL     OW 3508   3.822   3.897   0.504
  870SOL    HW1 3509   3.823   3.801   0.533
  870SOL    HW2 3510   3.752   3.947   0.555
  871SOL     OW 3511   5.280   2.619   2.749
  871SOL    HW1 3512   5.309   2.603   2.843
  871SOL    HW2 3513   5.185   2.588   2.738
  872SOL     OW 3514   5.701   3.449   4.068
  872SOL    HW1 3515   5.763   3.528   4.072
  872SOL    HW2 3516   5.752   3.369   4.037
  873SOL     OW 3517   5.501   6.213   5.473
  873SOL    HW1 3518   5.440   6.141   5.505
  873SOL    HW2 3519   5.475   6.300   5.515
  874SOL     OW 3520   6.893   3.965   6.393
  874SOL    HW1 3521   6.961   3.921   6.334
  874SOL    HW2 3522   6.895   3.924   6.484
  875SOL     OW 3523   5.599   4.707   0.699
  875SOL    HW1 3524   5.516   4.695   0.644
  875SOL    HW2 3525   5.622   4.620   0.743
  876SOL     OW 3526   1.003   5.016   2.878
  876SOL    HW1 3527   0.999   4.963   2.963
  876SOL    HW2 3528   1.097   5.045   2.861
  877SOL     OW 3529   3.685   5.106   5.499
  877SOL    HW1 3530   3.778   5.111   5.533
  877SOL    HW2 3531   3.664   5.011   5.473
  878SOL     OW 3532   4.282   6.273   5.003
  878SOL    HW1 3533   4.365   6.297   5.053
  878SOL    HW2 3534   4.245   6.187   5.039
  879SOL     OW 3535   4.517   1.451   1.265
  879SOL    HW1 3536   4.491   1.355   1.257
  879SOL    HW2 3537   4.440   1.503   1.302
  880SOL     OW 3538   3.319   3.795   4.549
  880SOL    HW1 3539   3.227   3.775   4.582
  880SOL    HW2 3540   3.377   3.820   4.627
  881SOL     OW 3541   5.603   3.617   5.402
  881SOL    HW1 3542   5.636   3.706   5.434
  881SOL    HW2 3543   5.646   3.595   5.314
  882SOL     OW 3544   0.945   2.655   3.987
  882SOL    HW1 3545   1.003   2.663   4.067
  882SOL    HW2 3546   0.876   2.584   4.003
  883SOL     OW 3547   3.985   0.614   0.749
  883SOL    HW1 3548   3.932   0.532   0.770
  883SOL    HW2 3549   4.054   0.591   0.679
  884SOL     OW 3550   0.000   4.996   0.087
  884SOL    HW1 3551   6.986   5.069   0.146
  884SOL    HW2 3552   0.034   4.921   0.144
  885SOL     OW 3553   4.635   6.888   5.379
  885SOL    HW1 3554   4.599   6.937   5.300
  885SOL    HW2 3555   4.610   6.791   5.372
  886SOL     OW 3556   4.197   0.927   0.560
  886SOL    HW1 3557   4.190   0.835   0.521
  886SOL    HW2 3558   4.249   0.986   0.498
  887SOL     OW 3559   3.679   6.016   4.114
  887SOL    HW1 3560   3.625   5.944   4.071
  887SOL    HW2 3561   3.760   5.976   4.158
  888SOL     OW 3562   6.700   6.217   3.726
  888SOL    HW1 3563   6.720   6.301   3.676
  888SOL    HW2 3564   6.628   6.234   3.793
  889SOL     OW 3565   6.574   1.262   6.612
  889SOL    HW1 3566   6.580   1.168   6.646
  889SOL    HW2 3567   6.666   1.300   6.604
  890SOL     OW 3568   2.769   4.992   3.116
  890SOL    HW1 3569   2.673   5.016   3.096
  890SOL    HW2 3570   2.801   4.926   3.048
  891SOL     OW 3571   6.794   3.462   0.734
  891SOL    HW1 3572   6.871   3.426   0.787
  891SOL    HW2 3573   6.812   3.558   0.711
  892SOL     OW 3574   3.513   3.388   4.935
  892SOL    HW1 3575   3.423   3.371   4.896
  892SOL    HW2 3576   3.572   3.308   4.919
  893SOL     OW 3577   2.085   6.524   2.947
  893SOL    HW1 3578   2.120   6.603   2.997
  893SOL    HW2 3579   2.034   6.555   2.867
  894SOL     OW 3580   1.376   2.790   2.682
  894SOL    HW1 3581   1.296   2.783   2.741
  894SOL    HW2 3582   1.437   2.861   2.717
  895SOL     OW 3583   1.191   5.507   4.035
  895SOL    HW1 3584   1.275   5.560   4.030
  895SOL    HW2 3585   1.167   5.491   4.131
  896SOL     OW 3586   5.928   5.256   1.391
  896SOL    HW1 3587   5.962   5.350   1.383
  896SOL    HW2 3588   6.005   5.193   1.399
  897SOL     OW 3589   4.009   0.684   6.587
  897SOL    HW1 3590   4.021   0.781   6.567
  897SOL    HW2 3591   4.018   0.669   6.685
  898SOL     OW 3592   4.175   6.377   2.563
  898SOL    HW1 3593   4.227   6.305   2.518
  898SOL    HW2 3594   4.092   6.339   2.604
  899SOL     OW 3595   0.587   5.642   0.251
  899SOL    HW1 3596   0.565   5.704   0.326
  899SOL    HW2 3597   0.578   5.689   0.163
  900SOL     OW 3598   5.129   6.711   6.574
  900SOL    HW1 3599   5.161   6.619   6.550
  900SOL    HW2 3600   5.034   6.722   6.544
  901SOL     OW 3601   1.052   0.923   4.029
  901SOL    HW1 3602   1.125   0.861   4.002
  901SOL    HW2 3603   0.967   0.895   3.984
  902SOL     OW 3604   1.213   2.997   1.284
  902SOL    HW1 3605   1.232   3.090   1.315
  902SOL    HW2 3606   1.234   2.932   1.358
  903SOL     OW 3607   0.496   3.551   0.163
  903SOL    HW1 3608   0.489   3.454   0.141
  903SOL    HW2 3609   0.530   3.561   0.257
  904SOL     OW 3610   2.248   2.862   2.618
  904SOL    HW1 3611   2.333   2.841   2.667
  904SOL    HW2 3612   2.247   2.812   2.532
  905SOL     OW 3613   4.864   3.873   6.454
  905SOL    HW1 3614   4.824   3.933   6.523
  905SOL    HW2 3615   4.844   3.778   6.476
  906SOL     OW 3616   0.798   2.070   6.511
  906SOL    HW1 3617   0.885   2.086   6.463
  906SOL    HW2 3618   0.798   1.978   6.551
  907SOL     OW 3619   4.908   2.455   1.088
  907SOL    HW1 3620   4.975   2.385   1.112
  907SOL    HW2 3621   4.867   2.432   1.000
  908SOL     OW 3622   2.292   4.800   3.203
  908SOL    HW1 3623   2.301   4.735   3.278
  908SOL    HW2 3624   2.306   4.893   3.237
  909SOL     OW 3625   4.048   5.889   2.074
  909SOL    HW1 3626   4.039   5.988   2.060
  909SOL    HW2 3627   3.961   5.853   2.109
  910SOL     OW 3628   3.174   1.356   1.375
  910SOL    HW1 3629   3.134   1.271   1.342
  910SOL    HW2 3630   3.107   1.405   1.432
  911SOL     OW 3631   1.440   6.234   6.654
  911SOL    HW1 3632   1.458   6.158   6.716
  911SOL    HW2 3633   1.526   6.274   6.623
  912SOL     OW 3634   5.556   1.080   3.251
  912SOL    HW1 3635   5.590   1.023   3.177
  912SOL    HW2 3636   5.538   1.024   3.332
  913SOL     OW 3637   2.715   0.702   4.180
  913SOL    HW1 3638   2.616   0.699   4.166
  913SOL    HW2 3639   2.735   0.691   4.278
  914SOL     OW 3640   2.675   6.663   5.141
  914SOL    HW1 3641   2.593   6.607   5.139
  914SOL    HW2 3642   2.709   6.669   5.235
  915SOL     OW 3643   6.714   2.884   0.779
  915SOL    HW1 3644   6.768   2.966   0.794
  915SOL    HW2 3645   6.640   2.881   0.847
  916SOL     OW 3646   2.166   3.136   2.596
  916SOL    HW1 3647   2.188   3.040   2.611
  916SOL    HW2 3648   2.184   3.160   2.501
  917SOL     OW 3649   0.306   6.596   2.133
  917SOL    HW1 3650   0.213   6.628   2.151
  917SOL    HW2 3651   0.303   6.513   2.078
  918SOL     OW 3652   3.504   0.747   0.807
  918SOL    HW1 3653   3.538   0.670   0.861
  918SOL    HW2 3654   3.471   0.819   0.868
  919SOL     OW 3655   6.976   6.705   3.025
  919SOL    HW1 3656   6.931   6.774   3.082
  919SOL    HW2 3657   6.989   6.621   3.077
  920SOL     OW 3658   2.580   4.645   2.517
  920SOL    HW1 3659   2.548   4.739   2.529
  920SOL    HW2 3660   2.599   4.629   2.420
  921SOL     OW 3661   3.656   5.266   3.542
  921SOL    HW1 3662   3.577   5.304   3.495
  921SOL    HW2 3663   3.717   5.223   3.475
  922SOL     OW 3664   3.049   3.801   4.626
  922SOL    HW1 3665   2.997   3.738   4.684
  922SOL    HW2 3666   3.076   3.881   4.679
  923SOL     OW 3667   2.904   3.836   6.147
  923SOL    HW1 3668   2.949   3.772   6.209
  923SOL    HW2 3669   2.925   3.930   6.175
  924SOL     OW 3670   6.451   3.486   2.470
  924SOL    HW1 3671   6.352   3.493   2.470
  924SOL    HW2 3672   6.478   3.393   2.496
  925SOL     OW 3673   7.002   2.331   6.910
  925SOL    HW1 3674   6.959   2.241   6.904
  925SOL    HW2 3675   7.009   2.358   7.006
  926SOL     OW 3676   6.282   0.853   0.745
  926SOL    HW1 3677   6.342   0.839   0.824
  926SOL    HW2 3678   6.191   0.880   0.776
  927SOL     OW 3679   5.454   4.245   3.187
  927SOL    HW1 3680   5.417   4.172   3.131
  927SOL    HW2 3681   5.523   4.208   3.250
  928SOL     OW 3682   1.491   6.232   0.122
  928SOL    HW1 3683   1.451   6.159   0.177
  928SOL    HW2 3684   1.588   6.214   0.107
  929SOL     OW 3685   1.299   0.098   6.799
  929SOL    HW1 3686   1.264   0.110   6.706
  929SOL    HW2 3687   1.234   0.047   6.854
  930SOL     OW 3688   5.145   5.850   4.915
  930SOL    HW1 3689   5.154   5.857   4.815
  930SOL    HW2 3690   5.049   5.854   4.940
  931SOL     OW 3691   6.082   1.837   5.019
  931SOL    HW1 3692   6.158   1.796   5.069
  931SOL    HW2 3693   6.068   1.931   5.050
  932SOL     OW 3694   2.999   0.306   3.463
  932SOL    HW1 3695   2.947   0.294   3.378
  932SOL    HW2 3696   3.022   0.216   3.501
  933SOL     OW 3697   2.130   6.083   3.560
  933SOL    HW1 3698   2.198   6.154   3.543
  933SOL    HW2 3699   2.064   6.081   3.485
  934SOL     OW 3700   2.070   6.741   0.020
  934SOL    HW1 3701   2.015   6.750   6.960
  934SOL    HW2 3702   2.104   6.830   0.048
  935SOL     OW 3703   5.396   4.259   4.159
  935SOL    HW1 3704   5.319   4.196   4.163
  935SOL    HW2 3705   5.366   4.351   4.186
  936SOL     OW 3706   0.210   0.532   6.367
  936SOL    HW1 3707   0.280   0.506   6.299
  936SOL    HW2 3708   0.238   0.499   6.457
  937SOL     OW 3709   5.291   1.401   5.705
  937SOL    HW1 3710   5.310   1.322   5.646
  937SOL    HW2 3711   5.278   1.370   5.799
  938SOL     OW 3712   5.712   5.105   5.956
  938SOL    HW1 3713   5.795   5.069   5.998
  938SOL    HW2 3714   5.721   5.204   5.944
  939SOL     OW 3715   0.019   6.949   4.457
  939SOL    HW1 3716   6.978   6.894   4.511
  939SOL    HW2 3717   6.995   0.008   4.423
  940SOL     OW 3718   1.083   3.705   1.932
  940SOL    HW1 3719   1.157   3.681   1.994
  940SOL    HW2 3720   1.069   3.632   1.866
  941SOL     OW 3721   5.780   1.190   6.607
  941SOL    HW1 3722   5.862   1.133   6.609
  941SOL    HW2 3723   5.707   1.146   6.659
  942SOL     OW 3724   5.826   0.110   2.739
  942SOL    HW1 3725   5.735   0.143   2.714
  942SOL    HW2 3726   5.819   0.019   2.780
  943SOL     OW 3727   1.579   3.442   3.135
  943SOL    HW1 3728   1.678   3.438   3.147
  943SOL    HW2 3729   1.535   3.443   3.225
  944SOL     OW 3730   0.177   5.044   5.917
  944SOL    HW1 3731   0.198   5.121   5.857
  944SOL    HW2 3732   0.204   5.066   6.011
  945SOL     OW 3733   6.706   3.529   5.932
  945SOL    HW1 3734   6.763   3.454   5.899
  945SOL    HW2 3735   6.748   3.569   6.014
  946SOL     OW 3736   5.059   4.055   5.557
  946SOL    HW1 3737   5.152   4.092   5.563
  946SOL    HW2 3738   5.058   3.980   5.491
  947SOL     OW 3739   3.908   3.116   3.502
  947SOL    HW1 3740   3.850   3.083   3.577
  947SOL    HW2 3741   4.004   3.094   3.522
  948SOL     OW 3742   4.871   0.808   3.108
  948SOL    HW1 3743   4.849   0.736   3.042
  948SOL    HW2 3744   4.809   0.802   3.186
  949SOL     OW 3745   1.735   6.244   0.428
  949SOL    HW1 3746   1.637   6.237   0.412
  949SOL    HW2 3747   1.775   6.153   0.436
  950SOL     OW 3748   5.040   5.749   2.219
  950SOL    HW1 3749   5.081   5.757   2.128
  950SOL    HW2 3750   4.941   5.740   2.210
  951SOL     OW 3751   1.647   0.502   4.190
  951SOL    HW1 3752   1.654   0.596   4.223
  951SOL    HW2 3753   1.664   0.500   4.092
  952SOL     OW 3754   4.412   2.142   3.255
  952SOL    HW1 3755   4.491   2.103   3.207
  952SOL    HW2 3756   4.379   2.222   3.205
  953SOL     OW 3757   5.402   5.116   4.468
  953SOL    HW1 3758   5.345   5.073   4.538
  953SOL    HW2 3759   5.353   5.114   4.380
  954SOL     OW 3760   4.326   5.620   1.618
  954SOL    HW1 3761   4.359   5.659   1.704
  954SOL    HW2 3762   4.228   5.604   1.624
  955SOL     OW 3763   0.304   3.651   2.144
  955SOL    HW1 3764   0.369   3.721   2.175
  955SOL    HW2 3765   0.328   3.622   2.052
  956SOL     OW 3766   6.174   0.205   1.918
  956SOL    HW1 3767   6.154   0.190   1.821
  956SOL    HW2 3768   6.175   0.304   1.936
  957SOL     OW 3769   5.866   2.992   3.808
  957SOL    HW1 3770   5.925   2.914   3.826
  957SOL    HW2 3771   5.888   3.031   3.718
  958SOL     OW 3772   3.973   1.482   1.489
  958SOL    HW1 3773   3.937   1.551   1.551
  958SOL    HW2 3774   4.056   1.516   1.446
  959SOL     OW 3775   3.666   6.281   4.130
  959SOL    HW1 3776   3.737   6.284   4.201
  959SOL    HW2 3777   3.642   6.185   4.111
  960SOL     OW 3778   0.478   0.585   2.334
  960SOL    HW1 3779   0.516   0.655   2.273
  960SOL    HW2 3780   0.552   0.545   2.389
  961SOL     OW 3781   4.199   6.523   3.523
  961SOL    HW1 3782   4.115   6.486   3.484
  961SOL    HW2 3783   4.278   6.476   3.484
  962SOL     OW 3784   0.742   1.449   5.505
  962SOL    HW1 3785   0.765   1.454   5.408
  962SOL    HW2 3786   0.643   1.444   5.515
  963SOL     OW 3787   5.077   1.229   6.430
  963SOL    HW1 3788   5.066   1.271   6.520
  963SOL    HW2 3789   5.067   1.299   6.360
  964SOL     OW 3790   5.673   5.088   6.945
  964SOL    HW1 3791   5.749   5.120   7.002
  964SOL    HW2 3792   5.700   5.005   6.897
  965SOL     OW 3793   5.341   1.960   2.052
  965SOL    HW1 3794   5.361   2.044   2.002
  965SOL    HW2 3795   5.271   1.978   2.121
  966SOL     OW 3796   5.841   3.265   1.903
  966SOL    HW1 3797   5.889   3.271   1.991
  966SOL    HW2 3798   5.866   3.343   1.846
  967SOL     OW 3799   2.629   4.033   1.128
  967SOL    HW1 3800   2.658   3.941   1.157
  967SOL    HW2 3801   2.595   4.084   1.207
  968SOL     OW 3802   3.534   0.626   2.266
  968SOL    HW1 3803   3.538   0.553   2.334
  968SOL    HW2 3804   3.448   0.676   2.276
  969SOL     OW 3805   2.334   5.108   5.517
  969SOL    HW1 3806   2.431   5.085   5.507
  969SOL    HW2 3807   2.284   5.074   5.437
  970SOL     OW 3808   5.888   0.883   6.479
  970SOL    HW1 3809   5.879   0.807   6.543
  970SOL    HW2 3810   5.816   0.877   6.410
  971SOL     OW 3811   0.195   2.748   1.855
  971SOL    HW1 3812   0.242   2.663   1.832
  971SOL    HW2 3813   0.256   2.826   1.838
  972SOL     OW 3814   5.809   2.060   1.374
  972SOL    HW1 3815   5.757   1.976   1.391
  972SOL    HW2 3816   5.872   2.046   1.298
  973SOL     OW 3817   0.756   5.097   6.360
  973SOL    HW1 3818   0.843   5.050   6.346
  973SOL    HW2 3819   0.741   5.162   6.286
  974SOL     OW 3820   5.428   6.729   2.566
  974SOL    HW1 3821   5.458   6.649   2.618
  974SOL    HW2 3822   5.347   6.706   2.513
  975SOL     OW 3823   1.653   0.727   0.061
  975SOL    HW1 3824   1.684   0.682   0.144
  975SOL    HW2 3825   1.654   0.662   7.008
  976SOL     OW 3826   6.818   3.753   2.111
  976SOL    HW1 3827   6.904   3.757   2.161
  976SOL    HW2 3828   6.743   3.775   2.172
  977SOL     OW 3829   0.977   0.008   1.843
  977SOL    HW1 3830   1.051   6.979   1.887
  977SOL    HW2 3831   0.897   0.009   1.903
  978SOL     OW 3832   5.591   3.035   5.871
  978SOL    HW1 3833   5.648   2.983   5.808
  978SOL    HW2 3834   5.534   3.099   5.820
  979SOL     OW 3835   0.281   2.522   0.041
  979SOL    HW1 3836   0.232   2.503   6.978
  979SOL    HW2 3837   0.332   2.607   0.031
  980SOL     OW 3838   5.108   1.928   3.752
  980SOL    HW1 3839   5.201   1.950   3.723
  980SOL    HW2 3840   5.109   1.845   3.808
  981SOL     OW 3841   0.323   1.840   4.648
  981SOL    HW1 3842   0.246   1.800   4.598
  981SOL    HW2 3843   0.404   1.838   4.591
  982SOL     OW 3844   1.171   1.728   5.204
  982SOL    HW1 3845   1.163   1.640   5.158
  982SOL    HW2 3846   1.103   1.734   5.277
  983SOL     OW 3847   6.213   2.841   3.152
  983SOL    HW1 3848   6.173   2.832   3.061
  983SOL    HW2 3849   6.143   2.871   3.217
  984SOL     OW 3850   2.635   2.353   4.624
  984SOL    HW1 3851   2.577   2.428   4.655
  984SOL    HW2 3852   2.652   2.362   4.526
  985SOL     OW 3853   6.587   2.941   5.230
  985SOL    HW1 3854   6.602   3.036   5.206
  985SOL    HW2 3855   6.560   2.934   5.326
  986SOL     OW 3856   4.876   4.468   1.231
  986SOL    HW1 3857   4.929   4.492   1.149
  986SOL    HW2 3858   4.852   4.552   1.280
  987SOL     OW 3859   4.855   6.653   2.743
  987SOL    HW1 3860   4.766   6.655   2.696
  987SOL    HW2 3861   4.849   6.596   2.824
  988SOL     OW 3862   3.418   3.608   2.165
  988SOL    HW1 3863   3.432   3.510   2.153
  988SOL    HW2 3864   3.330   3.634   2.126
  989SOL     OW 3865   6.640   2.117   6.474
  989SOL    HW1 3866   6.656   2.216   6.470
  989SOL    HW2 3867   6.624   2.083   6.381
  990SOL     OW 3868   4.046   1.227   2.268
  990SOL    HW1 3869   4.136   1.200   2.233
  990SOL    HW2 3870   4.034   1.189   2.360
  991SOL     OW 3871   0.978   3.790   4.498
  991SOL    HW1 3872   1.028   3.859   4.551
  991SOL    HW2 3873   1.037   3.755   4.426
  992SOL     OW 3874   0.407   3.442   1.294
  992SOL    HW1 3875   0.331   3.377   1.294
  992SOL    HW2 3876   0.373   3.534   1.313
  993SOL     OW 3877   6.937   4.584   0.406
  993SOL    HW1 3878   6.980   4.641   0.476
  993SOL    HW2 3879   6.954   4.624   0.316
  994SOL     OW 3880   3.538   5.162   1.855
  994SOL    HW1 3881   3.620   5.121   1.815
  994SOL    HW2 3882   3.521   5.251   1.811
  995SOL     OW 3883   4.156   2.856   5.775
  995SOL    HW1 3884   4.105   2.873   5.691
  995SOL    HW2 3885   4.246   2.899   5.768
  996SOL     OW 3886   3.223   5.475   4.561
  996SOL    HW1 3887   3.233   5.390   4.508
  996SOL    HW2 3888   3.127   5.500   4.565
  997SOL     OW 3889   1.159   0.175   3.349
  997SOL    HW1 3890   1.194   0.083   3.363
  997SOL    HW2 3891   1.060   0.171   3.333
  998SOL     OW 3892   5.545   0.730   5.079
  998SOL    HW1 3893   5.501   0.661   5.137
  998SOL    HW2 3894   5.500   0.818   5.092
  999SOL     OW 3895   5.480   4.304   2.493
  999SOL    HW1 3896   5.489   4.205   2.490
  999SOL    HW2 3897   5.570   4.345   2.511
 1000SOL     OW 3898   3.546   1.682   1.750
 1000SOL    HW1 3899   3.465   1.737   1.770
 1000SOL    HW2 3900   3.613   1.738   1.701
 1001SOL     OW 3901   4.899   5.948   1.337
 1001SOL    HW1 3902   4.906   5.941   1.238
 1001SOL    HW2 3903   4.950   6.028   1.369
 1002SOL     OW 3904   5.674   1.810   1.397
 1002SOL    HW1 3905   5.615   1.767   1.465
 1002SOL    HW2 3906   5.705   1.741   1.331
 1003SOL     OW 3907   2.153   6.399   2.465
 1003SOL    HW1 3908   2.163   6.355   2.554
 1003SOL    HW2 3909   2.149   6.498   2.478
 1004SOL     OW 3910   0.563   0.908   1.893
 1004SOL    HW1 3911   0.518   0.934   1.807
 1004SOL    HW2 3912   0.596   0.814   1.886
 1005SOL     OW 3913   2.459   2.178   3.942
 1005SOL    HW1 3914   2.486   2.247   3.875
 1005SOL    HW2 3915   2.417   2.222   4.021
 1006SOL     OW 3916   1.317   4.615   0.112
 1006SOL    HW1 3917   1.403   4.655   0.080
 1006SOL    HW2 3918   1.336   4.528   0.159
 1007SOL     OW 3919   4.793   0.585   5.430
 1007SOL    HW1 3920   4.698   0.599   5.460
 1007SOL    HW2 3921   4.852   0.652   5.475
 1008SOL     OW 3922   0.620   2.913   6.040
 1008SOL    HW1 3923   0.581   2.929   6.130
 1008SOL    HW2 3924   0.679   2.990   6.015
 1009SOL     OW 3925   0.574   5.042   4.915
 1009SOL    HW1 3926   0.661   5.016   4.958
 1009SOL    HW2 3927   0.557   5.140   4.932
 1010SOL     OW 3928   2.994   1.841   0.049
 1010SOL    HW1 3929   2.973   1.911   7.003
 1010SOL    HW2 3930   3.060   1.877   0.114
 1011SOL     OW 3931   1.272   5.638   3.242
 1011SOL    HW1 3932   1.348   5.573   3.244
 1011SOL    HW2 3933   1.302   5.727   3.277
 1012SOL     OW 3934   0.269   6.602   2.504
 1012SOL    HW1 3935   0.256   6.700   2.493
 1012SOL    HW2 3936   0.357   6.575   2.465
 1013SOL     OW 3937   1.078   1.644   6.675
 1013SOL    HW1 3938   1.082   1.649   6.775
 1013SOL    HW2 3939   1.044   1.554   6.648
 1014SOL     OW 3940   6.905   4.600   5.491
 1014SOL    HW1 3941   7.004   4.588   5.484
 1014SOL    HW2 3942   6.883   4.648   5.576
 1015SOL     OW 3943   3.055   6.797   5.935
 1015SOL    HW1 3944   3.138   6.748   5.962
 1015SOL    HW2 3945   3.012   6.837   6.016
 1016SOL     OW 3946   4.460   3.790   0.192
 1016SOL    HW1 3947   4.520   3.839   0.255
 1016SOL    HW2 3948   4.514   3.751   0.117
 1017SOL     OW 3949   4.639   2.640   1.162
 1017SOL    HW1 3950   4.580   2.617   1.240
 1017SOL    HW2 3951   4.728   2.670   1.195
 1018SOL     OW 3952   1.011   4.331   4.227
 1018SOL    HW1 3953   1.005   4.424   4.263
 1018SOL    HW2 3954   0.923   4.284   4.242
 1019SOL     OW 3955   6.738   6.930   1.205
 1019SOL    HW1 3956   6.745   6.850   1.265
 1019SOL    HW2 3957   6.715   7.010   1.260
 1020SOL     OW 3958   6.471   1.047   1.103
 1020SOL    HW1 3959   6.444   0.965   1.053
 1020SOL    HW2 3960   6.549   1.090   1.059
 1021SOL     OW 3961   5.533   6.398   1.432
 1021SOL    HW1 3962   5.507   6.378   1.337
 1021SOL    HW2 3963   5.602   6.470   1.433
 1022SOL     OW 3964   2.718   4.799   5.200
 1022SOL    HW1 3965   2.725   4.771   5.295
 1022SOL    HW2 3966   2.759   4.729   5.141
 1023SOL     OW 3967   0.195   1.081   2.642
 1023SOL    HW1 3968   0.115   1.141   2.633
 1023SOL    HW2 3969   0.275   1.126   2.604
 1024SOL     OW 3970   0.492   2.835   4.324
 1024SOL    HW1 3971   0.406   2.794   4.355
 1024SOL    HW2 3972   0.500   2.824   4.225
 1025SOL     OW 3973   3.424   3.438   1.562
 1025SOL    HW1 3974   3.464   3.447   1.653
 1025SOL    HW2 3975   3.444   3.347   1.525
 1026SOL     OW 3976   2.700   2.728   1.526
 1026SOL    HW1 3977   2.783   2.684   1.561
 1026SOL    HW2 3978   2.648   2.768   1.601
 1027SOL     OW 3979   3.704   6.609   1.708
 1027SOL    HW1 3980   3.682   6.565   1.621
 1027SOL    HW2 3981   3.691   6.708   1.698
 1028SOL     OW 3982   1.796   0.100   2.600
 1028SOL    HW1 3983   1.828   0.078   2.508
 1028SOL    HW2 3984   1.841   0.041   2.666
 1029SOL     OW 3985   1.312   1.097   6.115
 1029SOL    HW1 3986   1.286   1.193   6.106
 1029SOL    HW2 3987   1.386   1.089   6.183
 1030SOL     OW 3988   3.378   3.171   1.966
 1030SOL    HW1 3989   3.320   3.241   1.924
 1030SOL    HW2 3990   3.397   3.195   2.061
 1031SOL     OW 3991   4.692   4.022   1.328
 1031SOL    HW1 3992   4.737   3.949   1.379
 1031SOL    HW2 3993   4.724   4.022   1.233
 1032SOL     OW 3994   1.175   1.939   5.795
 1032SOL    HW1 3995   1.273   1.955   5.780
 1032SOL    HW2 3996   1.158   1.841   5.799
 1033SOL     OW 3997   1.078   5.319   1.036
 1033SOL    HW1 3998   1.098   5.321   0.939
 1033SOL    HW2 3999   1.140   5.255   1.082
 1034SOL     OW 4000   1.272   5.261   4.568
 1034SOL    HW1 4001   1.214   5.341   4.550
 1034SOL    HW2 4002   1.309   5.268   4.661
 1035SOL     OW 4003   0.049   0.838   5.508
 1035SOL    HW1 4004   0.116   0.801   5.445
 1035SOL    HW2 4005   0.094   0.867   5.593
 1036SOL     OW 4006   3.695   0.660   2.015
 1036SOL    HW1 4007   3.619   0.659   2.080
 1036SOL    HW2 4008   3.720   0.566   1.992
 1037SOL     OW 4009   1.354   1.286   3.052
 1037SOL    HW1 4010   1.401   1.370   3.080
 1037SOL    HW2 4011   1.269   1.276   3.104
 1038SOL     OW 4012   1.890   0.810   5.535
 1038SOL    HW1 4013   1.989   0.800   5.529
 1038SOL    HW2 4014   1.868   0.898   5.577
 1039SOL     OW 4015   3.766   3.577   4.555
 1039SOL    HW1 4016   3.687   3.527   4.590
 1039SOL    HW2 4017   3.785   3.656   4.614
 1040SOL     OW 4018   4.776   1.108   2.286
 1040SOL    HW1 4019   4.794   1.154   2.373
 1040SOL    HW2 4020   4.772   1.176   2.213
 1041SOL     OW 4021   7.008   6.756   3.331
 1041SOL    HW1 4022   0.069   6.792   3.373
 1041SOL    HW2 4023   0.006   6.670   3.284
 1042SOL     OW 4024   3.926   5.492   2.539
 1042SOL    HW1 4025   3.965   5.405   2.508
 1042SOL    HW2 4026   3.998   5.561   2.541
 1043SOL     OW 4027   3.510   1.890   3.537
 1043SOL    HW1 4028   3.583   1.903   3.470
 1043SOL    HW2 4029   3.456   1.974   3.545
 1044SOL     OW 4030   5.640   4.904   2.136
 1044SOL    HW1 4031   5.707   4.843   2.094
 1044SOL    HW2 4032   5.677   4.940   2.221
 1045SOL     OW 4033   3.783   0.408   2.506
 1045SOL    HW1 4034   3.807   0.338   2.439
 1045SOL    HW2 4035   3.840   0.489   2.491
 1046SOL     OW 4036   1.669   1.325   0.109
 1046SOL    HW1 4037   1.634   1.318   0.016
 1046SOL    HW2 4038   1.607   1.278   0.172
 1047SOL     OW 4039   2.472   0.113   3.829
 1047SOL    HW1 4040   2.453   0.207   3.802
 1047SOL    HW2 4041   2.453   0.101   3.926
 1048SOL     OW 4042   3.853   6.567   3.257
 1048SOL    HW1 4043   3.882   6.508   3.332
 1048SOL    HW2 4044   3.797   6.514   3.193
 1049SOL     OW 4045   6.648   6.599   3.848
 1049SOL    HW1 4046   6.602   6.581   3.935
 1049SOL    HW2 4047   6.581   6.598   3.774
 1050SOL     OW 4048   3.180   5.189   1.973
 1050SOL    HW1 4049   3.209   5.102   2.014
 1050SOL    HW2 4050   3.164   5.257   2.044
 1051SOL     OW 4051   0.457   5.096   0.995
 1051SOL    HW1 4052   0.453   5.079   0.896
 1051SOL    HW2 4053   0.523   5.168   1.014
 1052SOL     OW 4054   4.551   0.637   5.506
 1052SOL    HW1 4055   4.534   0.603   5.599
 1052SOL    HW2 4056   4.511   0.728   5.496
 1053SOL     OW 4057   5.827   4.278   3.380
 1053SOL    HW1 4058   5.735   4.241   3.393
 1053SOL    HW2 4059   5.876   4.275   3.468
 1054SOL     OW 4060   2.865   3.473   0.666
 1054SOL    HW1 4061   2.816   3.439   0.747
 1054SOL    HW2 4062   2.919   3.399   0.626
 1055SOL     OW 4063   4.332   6.607   5.261
 1055SOL    HW1 4064   4.315   6.610   5.163
 1055SOL    HW2 4065   4.277   6.677   5.307
 1056SOL     OW 4066   1.891   3.779   0.417
 1056SOL    HW1 4067   1.949   3.860   0.423
 1056SOL    HW2 4068   1.804   3.804   0.372
 1057SOL     OW 4069   3.474   3.159   1.539
 1057SOL    HW1 4070   3.508   3.118   1.454
 1057SOL    HW2 4071   3.385   3.119   1.561
 1058SOL     OW 4072   5.355   2.505   3.534
 1058SOL    HW1 4073   5.372   2.436   3.604
 1058SOL    HW2 4074   5.351   2.460   3.444
 1059SOL     OW 4075   2.624   0.694   1.769
 1059SOL    HW1 4076   2.710   0.745   1.761
 1059SOL    HW2 4077   2.615   0.657   1.861
 1060SOL     OW 4078   0.330   4.816   3.891
 1060SOL    HW1 4079   0.310   4.890   3.955
 1060SOL    HW2 4080   0.394   4.751   3.933
 1061SOL     OW 4081   6.298   3.434   6.986
 1061SOL    HW1 4082   6.321   3.392   6.898
 1061SOL    HW2 4083   6.199   3.449   6.991
 1062SOL     OW 4084   5.551   5.546   5.803
 1062SOL    HW1 4085   5.459   5.569   5.835
 1062SOL    HW2 4086   5.619   5.580   5.869
 1063SOL     OW 4087   1.070   5.610   0.891
 1063SOL    HW1 4088   1.131   5.688   0.879
 1063SOL    HW2 4089   1.062   5.588   0.989
 1064SOL     OW 4090   1.780   4.672   2.996
 1064SOL    HW1 4091   1.725   4.718   2.926
 1064SOL    HW2 4092   1.757   4.575   2.999
 1065SOL     OW 4093   5.106   0.555   3.539
 1065SOL    HW1 4094   5.068   0.648   3.546
 1065SOL    HW2 4095   5.126   0.521   3.630
 1066SOL     OW 4096   5.029   6.850   2.858
 1066SOL    HW1 4097   4.968   6.859   2.937
 1066SOL    HW2 4098   4.998   6.774   2.801
 1067SOL     OW 4099   0.758   2.886   0.435
 1067SOL    HW1 4100   0.805   2.808   0.475
 1067SOL    HW2 4101   0.803   2.911   0.349
 1068SOL     OW 4102   6.358   5.076   2.396
 1068SOL    HW1 4103   6.433   5.011   2.396
 1068SOL    HW2 4104   6.323   5.086   2.303
 1069SOL     OW 4105   4.613   5.645   0.663
 1069SOL    HW1 4106   4.695   5.657   0.719
 1069SOL    HW2 4107   4.559   5.569   0.699
 1070SOL     OW 4108   0.840   0.178   1.644
 1070SOL    HW1 4109   0.825   0.137   1.734
 1070SOL    HW2 4110   0.929   0.223   1.642
 1071SOL     OW 4111   1.164   1.198   3.953
 1071SOL    HW1 4112   1.130   1.106   3.974
 1071SOL    HW2 4113   1.245   1.217   4.008
 1072SOL     OW 4114   1.828   0.797   0.952
 1072SOL    HW1 4115   1.787   0.714   0.913
 1072SOL    HW2 4116   1.872   0.775   1.039
 1073SOL     OW 4117   4.770   0.291   3.479
 1073SOL    HW1 4118   4.736   0.383   3.501
 1073SOL    HW2 4119   4.867   0.285   3.504
 1074SOL     OW 4120   2.244   5.746   1.644
 1074SOL    HW1 4121   2.332   5.788   1.621
 1074SOL    HW2 4122   2.251   5.700   1.732
 1075SOL     OW 4123   5.538   6.882   3.302
 1075SOL    HW1 4124   5.462   6.820   3.321
 1075SOL    HW2 4125   5.608   6.871   3.372
 1076SOL     OW 4126   0.463   2.783   5.527
 1076SOL    HW1 4127   0.465   2.804   5.429
 1076SOL    HW2 4128   0.556   2.791   5.564
 1077SOL     OW 4129   6.236   0.186   0.531
 1077SOL    HW1 4130   6.173   0.116   0.498
 1077SOL    HW2 4131   6.327   0.146   0.544
 1078SOL     OW 4132   0.332   0.666   2.531
 1078SOL    HW1 4133   0.257   0.731   2.514
 1078SOL    HW2 4134   0.369   0.634   2.444
 1079SOL     OW 4135   1.369   6.254   1.963
 1079SOL    HW1 4136   1.438   6.316   1.926
 1079SOL    HW2 4137   1.365   6.263   2.062
 1080SOL     OW 4138   2.233   5.433   3.385
 1080SOL    HW1 4139   2.135   5.437   3.366
 1080SOL    HW2 4140   2.259   5.513   3.439
 1081SOL     OW 4141   6.344   5.112   5.256
 1081SOL    HW1 4142   6.430   5.162   5.268
 1081SOL    HW2 4143   6.325   5.059   5.339
 1082SOL     OW 4144   5.407   2.555   5.256
 1082SOL    HW1 4145   5.316   2.590   5.232
 1082SOL    HW2 4146   5.446   2.611   5.329
 1083SOL     OW 4147   4.559   4.306   0.606
 1083SOL    HW1 4148   4.630   4.249   0.564
 1083SOL    HW2 4149   4.594   4.399   0.618
 1084SOL     OW 4150   6.243   5.806   6.447
 1084SOL    HW1 4151   6.266   5.900   6.420
 1084SOL    HW2 4152   6.291   5.783   6.531
 1085SOL     OW 4153   1.641   3.458   4.623
 1085SOL    HW1 4154   1.718   3.436   4.683
 1085SOL    HW2 4155   1.566   3.495   4.677
 1086SOL     OW 4156   0.135   4.788   0.191
 1086SOL    HW1 4157   0.128   4.782   0.291
 1086SOL    HW2 4158   0.217   4.740   0.160
 1087SOL     OW 4159   6.976   2.315   5.297
 1087SOL    HW1 4160   6.939   2.390   5.243
 1087SOL    HW2 4161   6.986   2.345   5.392
 1088SOL     OW 4162   0.324   3.759   2.617
 1088SOL    HW1 4163   0.267   3.792   2.541
 1088SOL    HW2 4164   0.302   3.810   2.700
 1089SOL     OW 4165   0.462   5.837   4.511
 1089SOL    HW1 4166   0.391   5.788   4.459
 1089SOL    HW2 4167   0.540   5.776   4.525
 1090SOL     OW 4168   2.888   1.934   3.324
 1090SOL    HW1 4169   2.931   1.853   3.364
 1090SOL    HW2 4170   2.958   2.002   3.303
 1091SOL     OW 4171   2.914   2.032   4.586
 1091SOL    HW1 4172   2.913   1.943   4.633
 1091SOL    HW2 4173   2.904   2.105   4.653
 1092SOL     OW 4174   0.778   4.339   0.713
 1092SOL    HW1 4175   0.823   4.318   0.627
 1092SOL    HW2 4176   0.832   4.407   0.764
 1093SOL     OW 4177   2.386   0.342   1.492
 1093SOL    HW1 4178   2.431   0.339   1.581
 1093SOL    HW2 4179   2.398   0.433   1.452
 1094SOL     OW 4180   1.161   6.898   2.852
 1094SOL    HW1 4181   1.222   6.976   2.863
 1094SOL    HW2 4182   1.096   6.915   2.778
 1095SOL     OW 4183   0.937   2.922   6.223
 1095SOL    HW1 4184   1.031   2.930   6.256
 1095SOL    HW2 4185   0.918   2.827   6.199
 1096SOL     OW 4186   3.367   4.161   1.774
 1096SOL    HW1 4187   3.303   4.125   1.842
 1096SOL    HW2 4188   3.440   4.212   1.820
 1097SOL     OW 4189   2.612   4.750   3.379
 1097SOL    HW1 4190   2.616   4.849   3.368
 1097SOL    HW2 4191   2.517   4.720   3.377
 1098SOL     OW 4192   4.474   3.519   6.675
 1098SOL    HW1 4193   4.403   3.546   6.740
 1098SOL    HW2 4194   4.501   3.424   6.693
 1099SOL     OW 4195   3.411   0.886   5.893
 1099SOL    HW1 4196   3.393   0.835   5.809
 1099SOL    HW2 4197   3.453   0.974   5.871
 1100SOL     OW 4198   4.135   1.277   4.925
 1100SOL    HW1 4199   4.128   1.182   4.955
 1100SOL    HW2 4200   4.163   1.279   4.829
 1101SOL     OW 4201   5.182   2.980   5.863
 1101SOL    HW1 4202   5.105   2.946   5.808
 1101SOL    HW2 4203   5.253   2.910   5.867
 1102SOL     OW 4204   1.007   0.392   4.726
 1102SOL    HW1 4205   0.956   0.393   4.812
 1102SOL    HW2 4206   1.046   0.301   4.711
 1103SOL     OW 4207   4.018   1.114   0.191
 1103SOL    HW1 4208   4.023   1.124   0.290
 1103SOL    HW2 4209   3.945   1.049   0.168
 1104SOL     OW 4210   2.047   3.346   5.471
 1104SOL    HW1 4211   2.096   3.296   5.543
 1104SOL    HW2 4212   1.959   3.378   5.507
 1105SOL     OW 4213   5.749   3.363   4.784
 1105SOL    HW1 4214   5.831   3.393   4.834
 1105SOL    HW2 4215   5.700   3.295   4.838
 1106SOL     OW 4216   0.200   2.351   0.829
 1106SOL    HW1 4217   0.253   2.407   0.765
 1106SOL    HW2 4218   0.236   2.364   0.921
 1107SOL     OW 4219   0.927   0.541   6.703
 1107SOL    HW1 4220   0.835   0.521   6.737
 1107SOL    HW2 4221   0.983   0.576   6.778
 1108SOL     OW 4222   3.403   6.785   5.426
 1108SOL    HW1 4223   3.496   6.813   5.448
 1108SOL    HW2 4224   3.388   6.692   5.458
 1109SOL     OW 4225   5.376   0.554   3.483
 1109SOL    HW1 4226   5.277   0.547   3.489
 1109SOL    HW2 4227   5.413   0.468   3.445
 1110SOL     OW 4228   4.120   1.895   3.004
 1110SOL    HW1 4229   4.154   1.858   3.091
 1110SOL    HW2 4230   4.191   1.887   2.934
 1111SOL     OW 4231   4.506   5.446   0.005
 1111SOL    HW1 4232   4.471   5.411   0.092
 1111SOL    HW2 4233   4.432   5.448   6.961
 1112SOL     OW 4234   5.618   0.918   1.966
 1112SOL    HW1 4235   5.546   0.962   2.019
 1112SOL    HW2 4236   5.677   0.987   1.924
 1113SOL     OW 4237   5.928   4.205   1.532
 1113SOL    HW1 4238   6.005   4.259   1.565
 1113SOL    HW2 4239   5.853   4.211   1.597
 1114SOL     OW 4240   3.011   1.326   5.803
 1114SOL    HW1 4241   3.077   1.285   5.740
 1114SOL    HW2 4242   3.057   1.352   5.888
 1115SOL     OW 4243   3.675   3.484   6.037
 1115SOL    HW1 4244   3.695   3.388   6.018
 1115SOL    HW2 4245   3.748   3.523   6.094
 1116SOL     OW 4246   4.567   6.342   5.547
 1116SOL    HW1 4247   4.469   6.357   5.552
 1116SOL    HW2 4248   4.612   6.386   5.625
 1117SOL     OW 4249   1.967   2.276   1.827
 1117SOL    HW1 4250   1.943   2.246   1.735
 1117SOL    HW2 4251   1.942   2.372   1.838
 1118SOL     OW 4252   2.702   4.722   0.849
 1118SOL    HW1 4253   2.758   4.751   0.927
 1118SOL    HW2 4254   2.695   4.622   0.849
 1119SOL     OW 4255   4.088   4.529   1.650
 1119SOL    HW1 4256   4.163   4.487   1.599
 1119SOL    HW2 4257   4.004   4.522   1.596
 1120SOL     OW 4258   5.439   6.305   0.870
 1120SOL    HW1 4259   5.510   6.269   0.930
 1120SOL    HW2 4260   5.479   6.330   0.781
 1121SOL     OW 4261   6.360   4.513   4.816
 1121SOL    HW1 4262   6.278   4.543   4.766
 1121SOL    HW2 4263   6.359   4.552   4.908
 1122SOL     OW 4264   5.087   2.682   1.433
 1122SOL    HW1 4265   5.127   2.596   1.463
 1122SOL    HW2 4266   5.084   2.746   1.509
 1123SOL     OW 4267   4.874   2.162   2.895
 1123SOL    HW1 4268   4.914   2.191   2.981
 1123SOL    HW2 4269   4.839   2.242   2.845
 1124SOL     OW 4270   6.740   3.751   5.332
 1124SOL    HW1 4271   6.836   3.733   5.311
 1124SOL    HW2 4272   6.733   3.801   5.418
 1125SOL     OW 4273   3.025   1.807   3.726
 1125SOL    HW1 4274   3.036   1.795   3.825
 1125SOL    HW2 4275   2.937   1.851   3.708
 1126SOL     OW 4276   5.309   5.785   6.948
 1126SOL    HW1 4277   5.240   5.715   6.967
 1126SOL    HW2 4278   5.270   5.875   6.964
 1127SOL     OW 4279   5.316   6.049   4.344
 1127SOL    HW1 4280   5.405   6.019   4.376
 1127SOL    HW2 4281   5.280   5.985   4.276
 1128SOL     OW 4282   6.203   1.490   4.721
 1128SOL    HW1 4283   6.251   1.524   4.641
 1128SOL    HW2 4284   6.149   1.410   4.697
 1129SOL     OW 4285   1.673   0.058   0.555
 1129SOL    HW1 4286   1.756   0.097   0.594
 1129SOL    HW2 4287   1.696   0.013   0.468
 1130SOL     OW 4288   2.250   5.079   0.464
 1130SOL    HW1 4289   2.252   5.076   0.564
 1130SOL    HW2 4290   2.288   4.994   0.427
 1131SOL     OW 4291   1.124   6.192   5.797
 1131SOL    HW1 4292   1.198   6.180   5.862
 1131SOL    HW2 4293   1.036   6.185   5.845
 1132SOL     OW 4294   5.218   0.483   2.704
 1132SOL    HW1 4295   5.188   0.512   2.613
 1132SOL    HW2 4296   5.318   0.479   2.706
 1133SOL     OW 4297   0.846   0.893   0.199
 1133SOL    HW1 4298   0.875   0.824   0.133
 1133SOL    HW2 4299   0.766   0.860   0.249
 1134SOL     OW 4300   5.665   6.884   2.540
 1134SOL    HW1 4301   5.680   6.925   2.451
 1134SOL    HW2 4302   5.585   6.823   2.537
 1135SOL     OW 4303   2.837   6.502   3.595
 1135SOL    HW1 4304   2.819   6.584   3.649
 1135SOL    HW2 4305   2.833   6.525   3.498
 1136SOL     OW 4306   4.535   4.588   3.526
 1136SOL    HW1 4307   4.544   4.508   3.586
 1136SOL    HW2 4308   4.626   4.623   3.504
 1137SOL     OW 4309   1.520   6.500   0.188
 1137SOL    HW1 4310   1.433   6.550   0.189
 1137SOL    HW2 4311   1.502   6.402   0.188
 1138SOL     OW 4312   0.493   0.917   5.754
 1138SOL    HW1 4313   0.557   0.994   5.742
 1138SOL    HW2 4314   0.506   0.851   5.680
 1139SOL     OW 4315   3.383   4.926   2.644
 1139SOL    HW1 4316   3.482   4.915   2.632
 1139SOL    HW2 4317   3.335   4.875   2.572
 1140SOL     OW 4318   2.798   0.928   2.320
 1140SOL    HW1 4319   2.720   0.866   2.314
 1140SOL    HW2 4320   2.776   1.013   2.272
 1141SOL     OW 4321   1.221   6.185   6.784
 1141SOL    HW1 4322   1.315   6.209   6.758
 1141SOL    HW2 4323   1.222   6.106   6.844
 1142SOL     OW 4324   3.188   0.077   3.939
 1142SOL    HW1 4325   3.099   0.042   3.966
 1142SOL    HW2 4326   3.177   0.142   3.864
 1143SOL     OW 4327   2.611   2.379   3.441
 1143SOL    HW1 4328   2.634   2.393   3.344
 1143SOL    HW2 4329   2.515   2.404   3.456
 1144SOL     OW 4330   6.187   4.483   3.662
 1144SOL    HW1 4331   6.219   4.516   3.574
 1144SOL    HW2 4332   6.261   4.489   3.729
 1145SOL     OW 4333   6.310   3.794   1.065
 1145SOL    HW1 4334   6.389   3.823   1.119
 1145SOL    HW2 4335   6.331   3.800   0.968
 1146SOL     OW 4336   6.867   0.948   2.384
 1146SOL    HW1 4337   6.942   0.886   2.358
 1146SOL    HW2 4338   6.905   1.033   2.420
 1147SOL     OW 4339   2.904   5.833   1.910
 1147SOL    HW1 4340   2.875   5.923   1.944
 1147SOL    HW2 4341   2.998   5.839   1.877
 1148SOL     OW 4342   4.580   6.191   0.361
 1148SOL    HW1 4343   4.594   6.263   0.293
 1148SOL    HW2 4344   4.557   6.106   0.315
 1149SOL     OW 4345   6.489   2.940   2.674
 1149SOL    HW1 4346   6.482   2.954   2.575
 1149SOL    HW2 4347   6.557   2.869   2.693
 1150SOL     OW 4348   0.610   4.017   0.033
 1150SOL    HW1 4349   0.641   3.979   6.969
 1150SOL    HW2 4350   0.529   4.073   0.018
 1151SOL     OW 4351   5.634   4.185   5.742
 1151SOL    HW1 4352   5.623   4.106   5.681
 1151SOL    HW2 4353   5.562   4.184   5.811
 1152SOL     OW 4354   4.744   5.182   0.043
 1152SOL    HW1 4355   4.794   5.263   0.010
 1152SOL    HW2 4356   4.809   5.107   0.057
 1153SOL     OW 4357   0.092   0.108   2.063
 1153SOL    HW1 4358   0.164   0.177   2.063
 1153SOL    HW2 4359   0.028   0.127   2.138
 1154SOL     OW 4360   0.043   4.490   1.337
 1154SOL    HW1 4361   0.044   4.544   1.421
 1154SOL    HW2 4362   0.133   4.446   1.325
 1155SOL     OW 4363   2.471   5.011   6.268
 1155SOL    HW1 4364   2.381   4.980   6.301
 1155SOL    HW2 4365   2.517   4.936   6.221
 1156SOL     OW 4366   4.566   2.065   4.916
 1156SOL    HW1 4367   4.500   2.126   4.873
 1156SOL    HW2 4368   4.581   1.986   4.858
 1157SOL     OW 4369   5.098   1.025   6.229
 1157SOL    HW1 4370   5.040   0.949   6.257
 1157SOL    HW2 4371   5.122   1.080   6.309
 1158SOL     OW 4372   6.914   5.094   5.015
 1158SOL    HW1 4373   6.937   5.189   4.992
 1158SOL    HW2 4374   6.909   5.039   4.931
 1159SOL     OW 4375   6.479   0.194   3.590
 1159SOL    HW1 4376   6.380   0.206   3.593
 1159SOL    HW2 4377   6.506   0.133   3.665
 1160SOL     OW 4378   5.394   4.646   0.885
 1160SOL    HW1 4379   5.350   4.557   0.873
 1160SOL    HW2 4380   5.460   4.661   0.812
 1161SOL     OW 4381   6.525   5.346   5.735
 1161SOL    HW1 4382   6.617   5.333   5.698
 1161SOL    HW2 4383   6.528   5.336   5.835
 1162SOL     OW 4384   2.392   2.235   6.782
 1162SOL    HW1 4385   2.377   2.318   6.836
 1162SOL    HW2 4386   2.428   2.259   6.693
 1163SOL     OW 4387   6.827   3.978   1.435
 1163SOL    HW1 4388   6.770   3.931   1.502
 1163SOL    HW2 4389   6.851   4.069   1.470
 1164SOL     OW 4390   5.295   2.748   3.661
 1164SOL    HW1 4391   5.344   2.815   3.604
 1164SOL    HW2 4392   5.306   2.657   3.622
 1165SOL     OW 4393   3.783   5.497   3.624
 1165SOL    HW1 4394   3.843   5.532   3.552
 1165SOL    HW2 4395   3.748   5.407   3.597
 1166SOL     OW 4396   3.664   6.813   0.291
 1166SOL    HW1 4397   3.595   6.820   0.362
 1166SOL    HW2 4398   3.739   6.876   0.310
 1167SOL     OW 4399   3.967   6.529   0.583
 1167SOL    HW1 4400   4.002   6.479   0.662
 1167SOL    HW2 4401   3.941   6.465   0.511
 1168SOL     OW 4402   5.166   2.730   1.905
 1168SOL    HW1 4403   5.116   2.811   1.936
 1168SOL    HW2 4404   5.258   2.730   1.945
 1169SOL     OW 4405   4.525   2.350   5.951
 1169SOL    HW1 4406   4.613   2.370   5.907
 1169SOL    HW2 4407   4.501   2.254   5.935
 1170SOL     OW 4408   5.353   0.130   3.022
 1170SOL    HW1 4409   5.324   0.088   2.936
 1170SOL    HW2 4410   5.276   0.128   3.087
 1171SOL     OW 4411   3.002   6.581   0.091
 1171SOL    HW1 4412   3.036   6.507   0.150
 1171SOL    HW2 4413   3.067   6.598   0.018
 1172SOL     OW 4414   3.237   3.914   1.357
 1172SOL    HW1 4415   3.286   3.892   1.272
 1172SOL    HW2 4416   3.236   3.834   1.416
 1173SOL     OW 4417   3.404   1.351   0.899
 1173SOL    HW1 4418   3.471   1.398   0.956
 1173SOL    HW2 4419   3.422   1.372   0.802
 1174SOL     OW 4420   2.381   4.891   2.027
 1174SOL    HW1 4421   2.351   4.969   2.081
 1174SOL    HW2 4422   2.367   4.807   2.079
 1175SOL     OW 4423   4.108   4.788   6.800
 1175SOL    HW1 4424   4.123   4.887   6.800
 1175SOL    HW2 4425   4.059   4.762   6.717
 1176SOL     OW 4426   5.654   3.612   6.473
 1176SOL    HW1 4427   5.693   3.625   6.565
 1176SOL    HW2 4428   5.636   3.702   6.432
 1177SOL     OW 4429   0.144   3.793   4.864
 1177SOL    HW1 4430   0.090   3.842   4.796
 1177SOL    HW2 4431   0.146   3.695   4.841
 1178SOL     OW 4432   3.670   4.311   1.028
 1178SOL    HW1 4433   3.633   4.223   1.057
 1178SOL    HW2 4434   3.627   4.339   0.943
 1179SOL     OW 4435   2.441   5.892   0.982
 1179SOL    HW1 4436   2.381   5.883   1.062
 1179SOL    HW2 4437   2.478   5.802   0.958
 1180SOL     OW 4438   2.687   5.771   4.373
 1180SOL    HW1 4439   2.657   5.769   4.278
 1180SOL    HW2 4440   2.607   5.764   4.433
 1181SOL     OW 4441   0.382   4.957   5.277
 1181SOL    HW1 4442   0.376   4.924   5.182
 1181SOL    HW2 4443   0.436   4.892   5.331
 1182SOL     OW 4444   4.299   5.229   3.711
 1182SOL    HW1 4445   4.365   5.153   3.713
 1182SOL    HW2 4446   4.323   5.296   3.781
 1183SOL     OW 4447   2.898   4.056   1.386
 1183SOL    HW1 4448   2.876   3.993   1.312
 1183SOL    HW2 4449   2.922   4.003   1.468
 1184SOL     OW 4450   0.241   1.433   5.321
 1184SOL    HW1 4451   0.219   1.349   5.272
 1184SOL    HW2 4452   0.160   1.468   5.367
 1185SOL     OW 4453   1.269   0.868   0.576
 1185SOL    HW1 4454   1.207   0.923   0.633
 1185SOL    HW2 4455   1.333   0.819   0.634
 1186SOL     OW 4456   4.867   5.797   5.446
 1186SOL    HW1 4457   4.827   5.882   5.413
 1186SOL    HW2 4458   4.966   5.797   5.429
 1187SOL     OW 4459   5.198   0.681   5.259
 1187SOL    HW1 4460   5.294   0.653   5.252
 1187SOL    HW2 4461   5.167   0.668   5.353
 1188SOL     OW 4462   3.476   5.801   6.023
 1188SOL    HW1 4463   3.461   5.796   5.925
 1188SOL    HW2 4464   3.468   5.710   6.063
 1189SOL     OW 4465   6.178   1.913   1.660
 1189SOL    HW1 4466   6.264   1.906   1.711
 1189SOL    HW2 4467   6.170   2.005   1.622
 1190SOL     OW 4468   3.438   5.898   3.172
 1190SOL    HW1 4469   3.459   5.804   3.147
 1190SOL    HW2 4470   3.514   5.937   3.223
 1191SOL     OW 4471   4.711   5.282   4.704
 1191SOL    HW1 4472   4.777   5.223   4.750
 1191SOL    HW2 4473   4.618   5.252   4.725
 1192SOL     OW 4474   5.221   4.754   2.903
 1192SOL    HW1 4475   5.308   4.706   2.888
 1192SOL    HW2 4476   5.195   4.747   2.999
 1193SOL     OW 4477   0.293   2.417   5.590
 1193SOL    HW1 4478   0.235   2.341   5.622
 1193SOL    HW2 4479   0.347   2.386   5.511
 1194SOL     OW 4480   6.064   0.588   1.018
 1194SOL    HW1 4481   6.143   0.613   1.074
 1194SOL    HW2 4482   6.096   0.554   0.929
 1195SOL     OW 4483   0.119   4.002   0.736
 1195SOL    HW1 4484   0.092   4.051   0.819
 1195SOL    HW2 4485   0.208   4.034   0.705
 1196SOL     OW 4486   6.312   4.770   3.715
 1196SOL    HW1 4487   6.300   4.750   3.618
 1196SOL    HW2 4488   6.407   4.751   3.741
 1197SOL     OW 4489   4.667   0.047   4.642
 1197SOL    HW1 4490   4.577   0.039   4.598
 1197SOL    HW2 4491   4.717   6.984   4.631
 1198SOL     OW 4492   1.836   3.729   2.711
 1198SOL    HW1 4493   1.838   3.792   2.788
 1198SOL    HW2 4494   1.929   3.698   2.691
 1199SOL     OW 4495   3.821   3.538   2.396
 1199SOL    HW1 4496   3.786   3.456   2.350
 1199SOL    HW2 4497   3.746   3.603   2.411
 1200SOL     OW 4498   3.107   4.077   4.751
 1200SOL    HW1 4499   3.198   4.104   4.721
 1200SOL    HW2 4500   3.093   4.104   4.846
 1201SOL     OW 4501   1.305   1.399   4.351
 1201SOL    HW1 4502   1.360   1.350   4.284
 1201SOL    HW2 4503   1.208   1.389   4.329
 1202SOL     OW 4504   0.375   5.583   5.143
 1202SOL    HW1 4505   0.457   5.574   5.088
 1202SOL    HW2 4506   0.330   5.493   5.152
 1203SOL     OW 4507   0.612   5.376   0.142
 1203SOL    HW1 4508   0.711   5.365   0.139
 1203SOL    HW2 4509   0.589   5.457   0.196
 1204SOL     OW 4510   4.679   1.198   1.611
 1204SOL    HW1 4511   4.618   1.195   1.532
 1204SOL    HW2 4512   4.736   1.116   1.612
 1205SOL     OW 4513   3.744   3.705   0.923
 1205SOL    HW1 4514   3.691   3.622   0.940
 1205SOL    HW2 4515   3.838   3.692   0.954
 1206SOL     OW 4516   2.588   2.536   5.253
 1206SOL    HW1 4517   2.526   2.470   5.296
 1206SOL    HW2 4518   2.555   2.629   5.271
 1207SOL     OW 4519   1.676   6.737   1.154
 1207SOL    HW1 4520   1.750   6.705   1.213
 1207SOL    HW2 4521   1.626   6.659   1.117
 1208SOL     OW 4522   3.359   3.394   1.121
 1208SOL    HW1 4523   3.355   3.482   1.169
 1208SOL    HW2 4524   3.268   3.373   1.083
 1209SOL     OW 4525   5.040   0.157   3.792
 1209SOL    HW1 4526   5.083   0.156   3.882
 1209SOL    HW2 4527   5.101   0.114   3.725
 1210SOL     OW 4528   4.260   6.805   3.563
 1210SOL    HW1 4529   4.255   6.707   3.549
 1210SOL    HW2 4530   4.347   6.828   3.608
 1211SOL     OW 4531   1.171   3.041   2.712
 1211SOL    HW1 4532   1.195   2.957   2.760
 1211SOL    HW2 4533   1.170   3.025   2.614
 1212SOL     OW 4534   6.411   0.347   6.533
 1212SOL    HW1 4535   6.449   0.428   6.578
 1212SOL    HW2 4536   6.484   0.281   6.516
 1213SOL     OW 4537   5.828   2.829   0.915
 1213SOL    HW1 4538   5.767   2.907   0.896
 1213SOL    HW2 4539   5.808   2.756   0.850
 1214SOL     OW 4540   0.625   3.854   6.837
 1214SOL    HW1 4541   0.681   3.827   6.758
 1214SOL    HW2 4542   0.534   3.881   6.805
 1215SOL     OW 4543   0.849   4.476   3.376
 1215SOL    HW1 4544   0.893   4.564   3.397
 1215SOL    HW2 4545   0.807   4.439   3.459
 1216SOL     OW 4546   5.141   0.227   0.773
 1216SOL    HW1 4547   5.049   0.263   0.785
 1216SOL    HW2 4548   5.145   0.133   0.806
 1217SOL     OW 4549   2.451   4.366   0.787
 1217SOL    HW1 4550   2.355   4.384   0.766
 1217SOL    HW2 4551   2.474   4.272   0.761
 1218SOL     OW 4552   0.980   3.325   4.694
 1218SOL    HW1 4553   0.932   3.342   4.608
 1218SOL    HW2 4554   1.072   3.290   4.674
 1219SOL     OW 4555   5.318   6.051   1.794
 1219SOL    HW1 4556   5.340   5.958   1.766
 1219SOL    HW2 4557   5.390   6.085   1.855
 1220SOL     OW 4558   1.328   4.872   2.984
 1220SOL    HW1 4559   1.255   4.828   2.933
 1220SOL    HW2 4560   1.403   4.808   2.999
 1221SOL     OW 4561   4.163   4.549   6.127
 1221SOL    HW1 4562   4.242   4.543   6.066
 1221SOL    HW2 4563   4.085   4.588   6.078
 1222SOL     OW 4564   6.796   1.224   6.980
 1222SOL    HW1 4565   6.868   1.237   0.025
 1222SOL    HW2 4566   6.792   1.304   6.920
 1223SOL     OW 4567   4.157   2.177   0.202
 1223SOL    HW1 4568   4.092   2.240   0.243
 1223SOL    HW2 4569   4.140   2.084   0.236
 1224SOL     OW 4570   3.645   5.564   0.485
 1224SOL    HW1 4571   3.556   5.583   0.444
 1224SOL    HW2 4572   3.664   5.631   0.557
 1225SOL     OW 4573   3.080   3.333   6.725
 1225SOL    HW1 4574   3.084   3.245   6.678
 1225SOL    HW2 4575   3.115   3.405   6.664
 1226SOL     OW 4576   2.022   6.361   1.596
 1226SOL    HW1 4577   2.065   6.284   1.643
 1226SOL    HW2 4578   2.084   6.396   1.527
 1227SOL     OW 4579   5.814   4.384   5.881
 1227SOL    HW1 4580   5.736   4.327   5.858
 1227SOL    HW2 4581   5.833   4.447   5.805
 1228SOL     OW 4582   3.146   1.914   6.158
 1228SOL    HW1 4583   3.078   1.982   6.186
 1228SOL    HW2 4584   3.179   1.935   6.066
 1229SOL     OW 4585   3.872   5.133   6.336
 1229SOL    HW1 4586   3.864   5.055   6.273
 1229SOL    HW2 4587   3.850   5.217   6.287
 1230SOL     OW 4588   4.664   6.715   2.495
 1230SOL    HW1 4589   4.701   6.664   2.417
 1230SOL    HW2 4590   4.583   6.767   2.465
 1231SOL     OW 4591   2.137   2.411   4.768
 1231SOL    HW1 4592   2.049   2.376   4.735
 1231SOL    HW2 4593   2.146   2.507   4.742
 1232SOL     OW 4594   0.371   2.128   5.560
 1232SOL    HW1 4595   0.415   2.061   5.619
 1232SOL    HW2 4596   0.279   2.149   5.594
 1233SOL     OW 4597   0.909   5.233   4.927
 1233SOL    HW1 4598   0.864   5.185   5.002
 1233SOL    HW2 4599   0.988   5.284   4.963
 1234SOL     OW 4600   6.288   2.882   5.926
 1234SOL    HW1 4601   6.223   2.925   5.864
 1234SOL    HW2 4602   6.381   2.903   5.897
 1235SOL     OW 4603   6.971   5.444   2.989
 1235SOL    HW1 4604   7.019   5.371   2.940
 1235SOL    HW2 4605   6.903   5.485   2.929
 1236SOL     OW 4606   4.965   1.308   6.995
 1236SOL    HW1 4607   4.956   1.292   0.071
 1236SOL    HW2 4608   5.049   1.359   6.978
 1237SOL     OW 4609   2.331   4.779   6.753
 1237SOL    HW1 4610   2.296   4.694   6.712
 1237SOL    HW2 4611   2.397   4.821   6.691
 1238SOL     OW 4612   1.533   1.519   0.533
 1238SOL    HW1 4613   1.480   1.522   0.617
 1238SOL    HW2 4614   1.491   1.454   0.469
 1239SOL     OW 4615   7.007   6.846   6.192
 1239SOL    HW1 4616   0.055   6.889   6.248
 1239SOL    HW2 4617   6.941   6.800   6.252
 1240SOL     OW 4618   5.234   6.296   1.545
 1240SOL    HW1 4619   5.286   6.212   1.530
 1240SOL    HW2 4620   5.165   6.280   1.616
 1241SOL     OW 4621   5.320   3.187   4.137
 1241SOL    HW1 4622   5.388   3.124   4.101
 1241SOL    HW2 4623   5.333   3.197   4.236
 1242SOL     OW 4624   0.466   3.279   1.516
 1242SOL    HW1 4625   0.415   3.312   1.596
 1242SOL    HW2 4626   0.480   3.355   1.452
 1243SOL     OW 4627   7.019   6.292   4.688
 1243SOL    HW1 4628   0.017   6.196   4.705
 1243SOL    HW2 4629   0.022   6.346   4.768
 1244SOL     OW 4630   5.882   6.725   4.942
 1244SOL    HW1 4631   5.897   6.627   4.960
 1244SOL    HW2 4632   5.846   6.737   4.850
 1245SOL     OW 4633   5.620   5.161   0.567
 1245SOL    HW1 4634   5.677   5.084   0.540
 1245SOL    HW2 4635   5.566   5.193   0.489
 1246SOL     OW 4636   2.932   6.820   1.064
 1246SOL    HW1 4637   2.877   6.870   1.130
 1246SOL    HW2 4638   2.944   6.875   0.981
 1247SOL     OW 4639   1.464   6.696   6.682
 1247SOL    HW1 4640   1.540   6.656   6.630
 1247SOL    HW2 4641   1.389   6.630   6.689
 1248SOL     OW 4642   2.291   6.836   5.279
 1248SOL    HW1 4643   2.370   6.864   5.334
 1248SOL    HW2 4644   2.312   6.850   5.182
 1249SOL     OW 4645   6.280   1.586   2.679
 1249SOL    HW1 4646   6.295   1.683   2.698
 1249SOL    HW2 4647   6.217   1.548   2.747
 1250SOL     OW 4648   5.487   5.666   4.148
 1250SOL    HW1 4649   5.399   5.704   4.116
 1250SOL    HW2 4650   5.548   5.656   4.070
 1251SOL     OW 4651   2.802   0.657   3.928
 1251SOL    HW1 4652   2.806   0.557   3.935
 1251SOL    HW2 4653   2.775   0.696   4.016
 1252SOL     OW 4654   4.257   3.844   6.336
 1252SOL    HW1 4655   4.167   3.866   6.297
 1252SOL    HW2 4656   4.293   3.761   6.293
 1253SOL     OW 4657   3.081   5.689   2.713
 1253SOL    HW1 4658   2.996   5.672   2.762
 1253SOL    HW2 4659   3.099   5.788   2.711
 1254SOL     OW 4660   1.102   2.701   2.241
 1254SOL    HW1 4661   1.014   2.744   2.263
 1254SOL    HW2 4662   1.140   2.660   2.323
 1255SOL     OW 4663   6.354   2.164   5.441
 1255SOL    HW1 4664   6.442   2.117   5.451
 1255SOL    HW2 4665   6.281   2.097   5.428
 1256SOL     OW 4666   6.751   6.440   3.612
 1256SOL    HW1 4667   6.751   6.475   3.518
 1256SOL    HW2 4668   6.675   6.480   3.662
 1257SOL     OW 4669   0.078   6.098   5.405
 1257SOL    HW1 4670   0.151   6.130   5.345
 1257SOL    HW2 4671   7.013   6.135   5.374
 1258SOL     OW 4672   1.951   5.266   3.166
 1258SOL    HW1 4673   1.915   5.223   3.248
 1258SOL    HW2 4674   1.899   5.236   3.086
 1259SOL     OW 4675   4.272   0.714   4.154
 1259SOL    HW1 4676   4.299   0.732   4.249
 1259SOL    HW2 4677   4.239   0.799   4.112
 1260SOL     OW 4678   2.067   1.298   0.011
 1260SOL    HW1 4679   2.008   1.325   6.957
 1260SOL    HW2 4680   2.152   1.351   0.008
 1261SOL     OW 4681   0.416   5.830   6.547
 1261SOL    HW1 4682   0.360   5.876   6.479
 1261SOL    HW2 4683   0.461   5.751   6.505
 1262SOL     OW 4684   5.534   4.783   1.084
 1262SOL    HW1 4685   5.468   4.736   1.025
 1262SOL    HW2 4686   5.511   4.765   1.180
 1263SOL     OW 4687   0.512   2.345   1.622
 1263SOL    HW1 4688   0.603   2.311   1.597
 1263SOL    HW2 4689   0.450   2.268   1.637
 1264SOL     OW 4690   6.446   4.637   0.516
 1264SOL    HW1 4691   6.392   4.711   0.476
 1264SOL    HW2 4692   6.405   4.610   0.603
 1265SOL     OW 4693   5.704   5.480   4.589
 1265SOL    HW1 4694   5.660   5.392   4.607
 1265SOL    HW2 4695   5.644   5.536   4.532
 1266SOL     OW 4696   0.431   1.275   4.103
 1266SOL    HW1 4697   0.376   1.247   4.182
 1266SOL    HW2 4698   0.437   1.375   4.101
 1267SOL     OW 4699   5.117   1.056   1.050
 1267SOL    HW1 4700   5.163   1.076   0.963
 1267SOL    HW2 4701   5.185   1.028   1.118
 1268SOL     OW 4702   3.176   2.853   6.931
 1268SOL    HW1 4703   3.164   2.834   0.006
 1268SOL    HW2 4704   3.104   2.915   6.901
 1269SOL     OW 4705   6.044   3.698   4.071
 1269SOL    HW1 4706   5.958   3.704   4.020
 1269SOL    HW2 4707   6.023   3.680   4.168
 1270SOL     OW 4708   1.400   3.834   3.266
 1270SOL    HW1 4709   1.404   3.747   3.316
 1270SOL    HW2 4710   1.487   3.850   3.221
 1271SOL     OW 4711   3.184   1.612   2.489
 1271SOL    HW1 4712   3.124   1.564   2.426
 1271SOL    HW2 4713   3.218   1.696   2.446
 1272SOL     OW 4714   5.632   4.692   6.995
 1272SOL    HW1 4715   5.666   4.770   6.942
 1272SOL    HW2 4716   5.580   4.726   0.051
 1273SOL     OW 4717   0.348   3.581   6.824
 1273SOL    HW1 4718   0.365   3.640   6.745
 1273SOL    HW2 4719   0.327   3.638   6.904
 1274SOL     OW 4720   6.838   4.654   1.259
 1274SOL    HW1 4721   6.837   4.720   1.334
 1274SOL    HW2 4722   6.911   4.587   1.274
 1275SOL     OW 4723   4.096   1.430   4.161
 1275SOL    HW1 4724   4.152   1.358   4.201
 1275SOL    HW2 4725   4.064   1.401   4.071
 1276SOL     OW 4726   6.189   5.115   5.030
 1276SOL    HW1 4727   6.152   5.044   4.970
 1276SOL    HW2 4728   6.248   5.073   5.099
 1277SOL     OW 4729   1.734   5.635   5.783
 1277SOL    HW1 4730   1.745   5.673   5.875
 1277SOL    HW2 4731   1.727   5.709   5.716
 1278SOL     OW 4732   1.226   0.280   5.221
 1278SOL    HW1 4733   1.129   0.302   5.219
 1278SOL    HW2 4734   1.264   0.283   5.129
 1279SOL     OW 4735   1.977   4.777   0.287
 1279SOL    HW1 4736   1.973   4.864   0.239
 1279SOL    HW2 4737   2.033   4.712   0.234
 1280SOL     OW 4738   4.433   6.893   4.113
 1280SOL    HW1 4739   4.439   6.916   4.016
 1280SOL    HW2 4740   4.522   6.909   4.157
 1281SOL     OW 4741   2.798   6.216   3.067
 1281SOL    HW1 4742   2.876   6.193   3.125
 1281SOL    HW2 4743   2.729   6.144   3.073
 1282SOL     OW 4744   6.352   2.607   6.914
 1282SOL    HW1 4745   6.367   2.669   6.991
 1282SOL    HW2 4746   6.284   2.646   6.853
 1283SOL     OW 4747   6.485   3.700   5.234
 1283SOL    HW1 4748   6.481   3.656   5.144
 1283SOL    HW2 4749   6.580   3.708   5.263
 1284SOL     OW 4750   4.703   2.195   1.914
 1284SOL    HW1 4751   4.720   2.229   2.007
 1284SOL    HW2 4752   4.785   2.209   1.858
 1285SOL     OW 4753   4.375   1.866   6.192
 1285SOL    HW1 4754   4.418   1.939   6.246
 1285SOL    HW2 4755   4.282   1.894   6.167
 1286SOL     OW 4756   4.160   3.637   1.228
 1286SOL    HW1 4757   4.238   3.695   1.254
 1286SOL    HW2 4758   4.109   3.613   1.311
 1287SOL     OW 4759   5.235   4.558   5.216
 1287SOL    HW1 4760   5.316   4.595   5.171
 1287SOL    HW2 4761   5.244   4.569   5.315
 1288SOL     OW 4762   3.703   3.287   6.408
 1288SOL    HW1 4763   3.632   3.277   6.478
 1288SOL    HW2 4764   3.765   3.362   6.434
 1289SOL     OW 4765   0.220   6.880   1.035
 1289SOL    HW1 4766   0.240   6.936   0.954
 1289SOL    HW2 4767   0.228   6.783   1.011
 1290SOL     OW 4768   1.227   6.360   0.055
 1290SOL    HW1 4769   1.308   6.302   0.053
 1290SOL    HW2 4770   1.254   6.455   0.072
 1291SOL     OW 4771   0.996   4.152   3.659
 1291SOL    HW1 4772   0.934   4.194   3.726
 1291SOL    HW2 4773   0.945   4.085   3.605
 1292SOL     OW 4774   0.550   5.828   2.442
 1292SOL    HW1 4775   0.644   5.849   2.468
 1292SOL    HW2 4776   0.540   5.837   2.343
 1293SOL     OW 4777   2.148   2.445   0.058
 1293SOL    HW1 4778   2.083   2.373   0.037
 1293SOL    HW2 4779   2.241   2.412   0.042
 1294SOL     OW 4780   6.955   3.902   5.720
 1294SOL    HW1 4781   0.028   3.878   5.738
 1294SOL    HW2 4782   6.905   3.909   5.806
 1295SOL     OW 4783   6.978   3.566   1.348
 1295SOL    HW1 4784   6.881   3.544   1.335
 1295SOL    HW2 4785   6.995   3.659   1.318
 1296SOL     OW 4786   3.935   6.319   5.334
 1296SOL    HW1 4787   3.958   6.225   5.357
 1296SOL    HW2 4788   4.006   6.381   5.369
 1297SOL     OW 4789   0.458   6.814   1.396
 1297SOL    HW1 4790   0.556   6.797   1.384
 1297SOL    HW2 4791   0.425   6.763   1.475
 1298SOL     OW 4792   4.958   5.516   3.592
 1298SOL    HW1 4793   4.945   5.447   3.520
 1298SOL    HW2 4794   4.868   5.548   3.624
 1299SOL     OW 4795   2.326   2.554   3.763
 1299SOL    HW1 4796   2.233   2.566   3.729
 1299SOL    HW2 4797   2.332   2.590   3.856
 1300SOL     OW 4798   1.424   3.457   0.542
 1300SOL    HW1 4799   1.453   3.371   0.583
 1300SOL    HW2 4800   1.476   3.473   0.458
 1301SOL     OW 4801   0.286   5.979   1.570
 1301SOL    HW1 4802   0.200   6.028   1.579
 1301SOL    HW2 4803   0.318   5.985   1.475
 1302SOL     OW 4804   4.884   6.582   5.231
 1302SOL    HW1 4805   4.887   6.536   5.142
 1302SOL    HW2 4806   4.842   6.522   5.299
 1303SOL     OW 4807   3.840   1.653   1.650
 1303SOL    HW1 4808   3.869   1.639   1.745
 1303SOL    HW2 4809   3.810   1.748   1.638
 1304SOL     OW 4810   1.757   0.632   0.481
 1304SOL    HW1 4811   1.847   0.603   0.448
 1304SOL    HW2 4812   1.719   0.699   0.417
 1305SOL     OW 4813   5.509   3.890   0.428
 1305SOL    HW1 4814   5.537   3.802   0.468
 1305SOL    HW2 4815   5.538   3.964   0.488
 1306SOL     OW 4816   1.202   5.860   3.991
 1306SOL    HW1 4817   1.245   5.772   3.970
 1306SOL    HW2 4818   1.248   5.933   3.941
 1307SOL     OW 4819   2.014   4.016   3.526
 1307SOL    HW1 4820   1.938   4.049   3.471
 1307SOL    HW2 4821   2.024   3.917   3.515
 1308SOL     OW 4822   6.258   0.132   5.617
 1308SOL    HW1 4823   6.328   0.178   5.561
 1308SOL    HW2 4824   6.167   0.159   5.584
 1309SOL     OW 4825   5.767   5.332   5.125
 1309SOL    HW1 4826   5.865   5.317   5.139
 1309SOL    HW2 4827   5.717   5.303   5.206
 1310SOL     OW 4828   6.683   3.955   3.843
 1310SOL    HW1 4829   6.691   3.866   3.798
 1310SOL    HW2 4830   6.590   3.966   3.879
 1311SOL     OW 4831   6.470   5.681   5.825
 1311SOL    HW1 4832   6.545   5.628   5.785
 1311SOL    HW2 4833   6.412   5.717   5.753
 1312SOL     OW 4834   1.762   6.604   0.347
 1312SOL    HW1 4835   1.668   6.575   0.328
 1312SOL    HW2 4836   1.794   6.561   0.431
 1313SOL     OW 4837   0.071   4.666   2.630
 1313SOL    HW1 4838   0.058   4.611   2.713
 1313SOL    HW2 4839   0.082   4.762   2.656
 1314SOL     OW 4840   4.012   1.509   4.845
 1314SOL    HW1 4841   4.045   1.424   4.887
 1314SOL    HW2 4842   3.913   1.503   4.834
 1315SOL     OW 4843   0.266   2.000   2.483
 1315SOL    HW1 4844   0.302   1.977   2.393
 1315SOL    HW2 4845   0.341   2.003   2.549
 1316SOL     OW 4846   3.440   6.425   5.901
 1316SOL    HW1 4847   3.410   6.498   5.963
 1316SOL    HW2 4848   3.451   6.463   5.809
 1317SOL     OW 4849   2.179   4.199   6.173
 1317SOL    HW1 4850   2.140   4.136   6.240
 1317SOL    HW2 4851   2.106   4.236   6.116
 1318SOL     OW 4852   0.752   2.659   0.888
 1318SOL    HW1 4853   0.778   2.682   0.982
 1318SOL    HW2 4854   0.800   2.575   0.861
 1319SOL     OW 4855   6.558   6.271   1.049
 1319SOL    HW1 4856   6.635   6.218   1.083
 1319SOL    HW2 4857   6.480   6.261   1.111
 1320SOL     OW 4858   3.995   4.672   6.567
 1320SOL    HW1 4859   4.060   4.632   6.502
 1320SOL    HW2 4860   3.903   4.638   6.547
 1321SOL     OW 4861   4.981   3.182   6.483
 1321SOL    HW1 4862   5.023   3.157   6.396
 1321SOL    HW2 4863   5.017   3.124   6.556
 1322SOL     OW 4864   4.181   1.689   4.160
 1322SOL    HW1 4865   4.147   1.595   4.174
 1322SOL    HW2 4866   4.229   1.694   4.073
 1323SOL     OW 4867   4.012   6.728   6.176
 1323SOL    HW1 4868   3.986   6.787   6.099
 1323SOL    HW2 4869   4.100   6.758   6.212
 1324SOL     OW 4870   0.212   3.521   0.101
 1324SOL    HW1 4871   0.309   3.539   0.121
 1324SOL    HW2 4872   0.167   3.605   0.072
 1325SOL     OW 4873   2.418   6.392   4.740
 1325SOL    HW1 4874   2.452   6.485   4.754
 1325SOL    HW2 4875   2.489   6.326   4.763
 1326SOL     OW 4876   5.041   3.365   5.504
 1326SOL    HW1 4877   5.003   3.360   5.597
 1326SOL    HW2 4878   4.974   3.406   5.443
 1327SOL     OW 4879   1.360   6.463   1.222
 1327SOL    HW1 4880   1.364   6.366   1.246
 1327SOL    HW2 4881   1.428   6.483   1.152
 1328SOL     OW 4882   2.624   3.041   1.104
 1328SOL    HW1 4883   2.689   3.080   1.169
 1328SOL    HW2 4884   2.634   2.941   1.102
 1329SOL     OW 4885   0.920   2.372   2.199
 1329SOL    HW1 4886   0.917   2.298   2.266
 1329SOL    HW2 4887   0.938   2.335   2.108
 1330SOL     OW 4888   1.202   1.709   1.910
 1330SOL    HW1 4889   1.293   1.667   1.905
 1330SOL    HW2 4890   1.171   1.733   1.818
 1331SOL     OW 4891   4.913   3.116   2.896
 1331SOL    HW1 4892   4.915   3.072   2.806
 1331SOL    HW2 4893   4.926   3.215   2.885
 1332SOL     OW 4894   3.039   6.961   6.897
 1332SOL    HW1 4895   2.982   6.883   6.869
 1332SOL    HW2 4896   2.980   0.012   6.931
 1333SOL     OW 4897   3.043   3.600   3.649
 1333SOL    HW1 4898   3.034   3.539   3.571
 1333SOL    HW2 4899   2.984   3.568   3.723
 1334SOL     OW 4900   6.204   1.347   3.868
 1334SOL    HW1 4901   6.270   1.421   3.875
 1334SOL    HW2 4902   6.252   1.261   3.849
 1335SOL     OW 4903   2.609   2.254   1.654
 1335SOL    HW1 4904   2.676   2.219   1.589
 1335SOL    HW2 4905   2.655   2.284   1.737
 1336SOL     OW 4906   2.533   1.889   5.348
 1336SOL    HW1 4907   2.515   1.913   5.443
 1336SOL    HW2 4908   2.535   1.973   5.292
 1337SOL     OW 4909   1.457   1.310   3.446
 1337SOL    HW1 4910   1.547   1.274   3.420
 1337SOL    HW2 4911   1.462   1.410   3.452
 1338SOL     OW 4912   6.965   2.711   4.393
 1338SOL    HW1 4913   7.016   2.698   4.307
 1338SOL    HW2 4914   6.905   2.633   4.409
 1339SOL     OW 4915   6.403   1.963   6.882
 1339SOL    HW1 4916   6.355   2.049   6.900
 1339SOL    HW2 4917   6.346   1.887   6.912
 1340SOL     OW 4918   5.638   2.360   2.603
 1340SOL    HW1 4919   5.719   2.323   2.558
 1340SOL    HW2 4920   5.595   2.289   2.659
 1341SOL     OW 4921   4.100   6.431   6.615
 1341SOL    HW1 4922   4.150   6.513   6.588
 1341SOL    HW2 4923   4.127   6.404   6.707
 1342SOL     OW 4924   3.058   5.992   6.131
 1342SOL    HW1 4925   2.992   5.983   6.056
 1342SOL    HW2 4926   3.145   6.023   6.094
 1343SOL     OW 4927   5.254   5.331   2.634
 1343SOL    HW1 4928   5.171   5.384   2.651
 1343SOL    HW2 4929   5.230   5.236   2.615
 1344SOL     OW 4930   0.568   6.008   4.697
 1344SOL    HW1 4931   0.633   6.060   4.642
 1344SOL    HW2 4932   0.522   5.940   4.640
 1345SOL     OW 4933   0.740   6.140   2.788
 1345SOL    HW1 4934   0.737   6.239   2.771
 1345SOL    HW2 4935   0.826   6.118   2.834
 1346SOL     OW 4936   1.391   5.767   4.410
 1346SOL    HW1 4937   1.436   5.678   4.401
 1346SOL    HW2 4938   1.345   5.772   4.498
 1347SOL     OW 4939   0.124   6.705   5.746
 1347SOL    HW1 4940   0.163   6.793   5.718
 1347SOL    HW2 4941   0.032   6.695   5.706
 1348SOL     OW 4942   5.950   6.371   4.173
 1348SOL    HW1 4943   5.994   6.405   4.256
 1348SOL    HW2 4944   6.011   6.386   4.095
 1349SOL     OW 4945   5.033   2.837   5.591
 1349SOL    HW1 4946   5.001   2.743   5.604
 1349SOL    HW2 4947   4.954   2.897   5.579
 1350SOL     OW 4948   5.295   5.362   5.472
 1350SOL    HW1 4949   5.290   5.406   5.382
 1350SOL    HW2 4950   5.388   5.368   5.507
 1351SOL     OW 4951   5.892   1.732   2.627
 1351SOL    HW1 4952   5.876   1.784   2.710
 1351SOL    HW2 4953   5.973   1.767   2.580
 1352SOL     OW 4954   6.619   5.915   3.965
 1352SOL    HW1 4955   6.698   5.950   4.014
 1352SOL    HW2 4956   6.565   5.857   4.027
 1353SOL     OW 4957   0.461   2.678   0.305
 1353SOL    HW1 4958   0.535   2.611   0.317
 1353SOL    HW2 4959   0.490   2.765   0.345
 1354SOL     OW 4960   0.564   3.764   1.894
 1354SOL    HW1 4961   0.653   3.750   1.939
 1354SOL    HW2 4962   0.541   3.861   1.898
 1355SOL     OW 4963   5.616   3.011   4.384
 1355SOL    HW1 4964   5.675   2.954   4.441
 1355SOL    HW2 4965   5.648   3.106   4.388
 1356SOL     OW 4966   3.179   3.281   2.373
 1356SOL    HW1 4967   3.166   3.210   2.442
 1356SOL    HW2 4968   3.243   3.248   2.303
 1357SOL     OW 4969   0.564   4.273   6.694
 1357SOL    HW1 4970   0.581   4.363   6.734
 1357SOL    HW2 4971   0.645   4.216   6.704
 1358SOL     OW 4972   4.882   6.671   6.466
 1358SOL    HW1 4973   4.804   6.709   6.417
 1358SOL    HW2 4974   4.912   6.587   6.420
 1359SOL     OW 4975   5.828   5.012   2.849
 1359SOL    HW1 4976   5.893   5.069   2.899
 1359SOL    HW2 4977   5.783   5.067   2.778
 1360SOL     OW 4978   2.524   3.571   0.024
 1360SOL    HW1 4979   2.555   3.608   0.112
 1360SOL    HW2 4980   2.481   3.482   0.039
 1361SOL     OW 4981   5.805   4.279   5.106
 1361SOL    HW1 4982   5.828   4.223   5.186
 1361SOL    HW2 4983   5.832   4.231   5.023
 1362SOL     OW 4984   3.692   3.722   3.792
 1362SOL    HW1 4985   3.645   3.792   3.846
 1362SOL    HW2 4986   3.760   3.676   3.848
 1363SOL     OW 4987   6.465   5.270   3.449
 1363SOL    HW1 4988   6.482   5.188   3.393
 1363SOL    HW2 4989   6.391   5.252   3.513
 1364SOL     OW 4990   5.669   4.373   1.333
 1364SOL    HW1 4991   5.734   4.414   1.270
 1364SOL    HW2 4992   5.649   4.437   1.408
 1365SOL     OW 4993   0.418   4.215   6.253
 1365SOL    HW1 4994   0.419   4.117   6.276
 1365SOL    HW2 4995   0.404   4.269   6.336
 1366SOL     OW 4996   1.500   5.866   0.318
 1366SOL    HW1 4997   1.530   5.861   0.223
 1366SOL    HW2 4998   1.579   5.887   0.376
 1367SOL     OW 4999   2.495   0.329   3.335
 1367SOL    HW1 5000   2.574   0.272   3.311
 1367SOL    HW2 5001   2.508   0.422   3.301
 1368SOL     OW 5002   5.992   0.302   4.435
 1368SOL    HW1 5003   5.956   0.396   4.438
 1368SOL    HW2 5004   6.066   0.293   4.501
 1369SOL     OW 5005   2.487   6.165   1.913
 1369SOL    HW1 5006   2.397   6.169   1.957
 1369SOL    HW2 5007   2.497   6.078   1.865
 1370SOL     OW 5008   3.609   1.005   1.008
 1370SOL    HW1 5009   3.573   0.963   1.092
 1370SOL    HW2 5010   3.534   1.022   0.945
 1371SOL     OW 5011   5.713   1.863   4.042
 1371SOL    HW1 5012   5.707   1.788   4.108
 1371SOL    HW2 5013   5.810   1.885   4.026
 1372SOL     OW 5014   1.120   2.888   0.413
 1372SOL    HW1 5015   1.130   2.870   0.315
 1372SOL    HW2 5016   1.147   2.806   0.465
 1373SOL     OW 5017   5.733   3.848   0.021
 1373SOL    HW1 5018   5.728   3.805   0.112
 1373SOL    HW2 5019   5.641   3.854   7.006
 1374SOL     OW 5020   4.592   2.295   0.253
 1374SOL    HW1 5021   4.589   2.321   0.157
 1374SOL    HW2 5022   4.532   2.216   0.267
 1375SOL     OW 5023   6.794   4.147   6.190
 1375SOL    HW1 5024   6.832   4.096   6.267
 1375SOL    HW2 5025   6.753   4.084   6.125
 1376SOL     OW 5026   5.032   3.380   3.908
 1376SOL    HW1 5027   4.978   3.446   3.960
 1376SOL    HW2 5028   4.973   3.306   3.875
 1377SOL     OW 5029   6.535   3.997   5.241
 1377SOL    HW1 5030   6.580   4.001   5.151
 1377SOL    HW2 5031   6.547   3.906   5.281
 1378SOL     OW 5032   6.487   1.174   5.061
 1378SOL    HW1 5033   6.518   1.144   4.971
 1378SOL    HW2 5034   6.537   1.124   5.132
 1379SOL     OW 5035   3.555   6.843   2.045
 1379SOL    HW1 5036   3.590   6.908   1.978
 1379SOL    HW2 5037   3.607   6.852   2.130
 1380SOL     OW 5038   0.573   0.105   2.218
 1380SOL    HW1 5039   0.644   0.036   2.231
 1380SOL    HW2 5040   0.531   0.126   2.306
 1381SOL     OW 5041   5.186   2.975   6.572
 1381SOL    HW1 5042   5.261   3.041   6.573
 1381SOL    HW2 5043   5.192   2.917   6.654
 1382SOL     OW 5044   4.676   4.543   0.625
 1382SOL    HW1 5045   4.735   4.512   0.700
 1382SOL    HW2 5046   4.734   4.567   0.546
 1383SOL     OW 5047   0.845   0.389   0.593
 1383SOL    HW1 5048   0.945   0.388   0.591
 1383SOL    HW2 5049   0.810   0.384   0.500
 1384SOL     OW 5050   3.756   0.963   2.617
 1384SOL    HW1 5051   3.664   1.003   2.618
 1384SOL    HW2 5052   3.799   0.978   2.706
 1385SOL     OW 5053   0.841   3.059   2.763
 1385SOL    HW1 5054   0.876   3.057   2.669
 1385SOL    HW2 5055   0.913   3.094   2.824
 1386SOL     OW 5056   2.222   1.162   4.654
 1386SOL    HW1 5057   2.208   1.116   4.742
 1386SOL    HW2 5058   2.154   1.234   4.642
 1387SOL     OW 5059   4.040   0.025   3.259
 1387SOL    HW1 5060   4.051   6.948   3.258
 1387SOL    HW2 5061   3.946   0.049   3.235
 1388SOL     OW 5062   0.647   6.339   3.816
 1388SOL    HW1 5063   0.631   6.270   3.887
 1388SOL    HW2 5064   0.601   6.424   3.841
 1389SOL     OW 5065   0.252   1.003   3.862
 1389SOL    HW1 5066   0.163   0.991   3.819
 1389SOL    HW2 5067   0.298   1.083   3.823
 1390SOL     OW 5068   4.479   2.085   6.331
 1390SOL    HW1 5069   4.571   2.065   6.364
 1390SOL    HW2 5070   4.457   2.181   6.348
 1391SOL     OW 5071   6.321   0.731   5.665
 1391SOL    HW1 5072   6.342   0.651   5.721
 1391SOL    HW2 5073   6.244   0.781   5.706
 1392SOL     OW 5074   5.269   5.102   5.844
 1392SOL    HW1 5075   5.355   5.153   5.851
 1392SOL    HW2 5076   5.283   5.018   5.792
 1393SOL     OW 5077   5.875   3.138   6.901
 1393SOL    HW1 5078   5.838   3.183   6.820
 1393SOL    HW2 5079   5.801   3.114   6.964
 1394SOL     OW 5080   3.751   0.412   3.715
 1394SOL    HW1 5081   3.772   0.314   3.704
 1394SOL    HW2 5082   3.834   0.465   3.695
 1395SOL     OW 5083   1.112   3.957   2.933
 1395SOL    HW1 5084   1.113   3.858   2.916
 1395SOL    HW2 5085   1.070   3.975   3.022
 1396SOL     OW 5086   1.813   7.007   3.295
 1396SOL    HW1 5087   1.848   0.078   3.301
 1396SOL    HW2 5088   1.714   7.007   3.306
 1397SOL     OW 5089   0.482   6.492   4.887
 1397SOL    HW1 5090   0.513   6.489   4.982
 1397SOL    HW2 5091   0.561   6.496   4.826
 1398SOL     OW 5092   0.984   1.840   0.229
 1398SOL    HW1 5093   0.984   1.935   0.199
 1398SOL    HW2 5094   1.070   1.819   0.276
 1399SOL     OW 5095   4.524   0.505   0.479
 1399SOL    HW1 5096   4.515   0.557   0.394
 1399SOL    HW2 5097   4.457   0.431   0.480
 1400SOL     OW 5098   6.134   1.057   4.525
 1400SOL    HW1 5099   6.119   1.014   4.614
 1400SOL    HW2 5100   6.199   1.132   4.536
 1401SOL     OW 5101   6.052   6.591   4.654
 1401SOL    HW1 5102   6.074   6.511   4.709
 1401SOL    HW2 5103   5.956   6.614   4.667
 1402SOL     OW 5104   5.660   4.416   6.976
 1402SOL    HW1 5105   5.581   4.355   6.982
 1402SOL    HW2 5106   5.631   4.510   6.994
 1403SOL     OW 5107   2.196   3.027   0.122
 1403SOL    HW1 5108   2.158   3.042   0.031
 1403SOL    HW2 5109   2.135   3.067   0.190
 1404SOL     OW 5110   4.525   6.929   0.810
 1404SOL    HW1 5111   4.483   6.865   0.875
 1404SOL    HW2 5112   4.530   6.887   0.720
 1405SOL     OW 5113   2.139   3.522   0.734
 1405SOL    HW1 5114   2.127   3.425   0.713
 1405SOL    HW2 5115   2.231   3.537   0.769
 1406SOL     OW 5116   2.116   4.399   1.005
 1406SOL    HW1 5117   2.216   4.399   1.004
 1406SOL    HW2 5118   2.084   4.418   1.098
 1407SOL     OW 5119   1.151   3.657   2.903
 1407SOL    HW1 5120   1.118   3.577   2.953
 1407SOL    HW2 5121   1.169   3.633   2.808
 1408SOL     OW 5122   5.635   6.094   6.675
 1408SOL    HW1 5123   5.637   6.166   6.605
 1408SOL    HW2 5124   5.540   6.068   6.694
 1409SOL     OW 5125   6.982   0.441   5.598
 1409SOL    HW1 5126   6.943   0.518   5.547
 1409SOL    HW2 5127   6.912   0.402   5.658
 1410SOL     OW 5128   2.727   3.641   6.838
 1410SOL    HW1 5129   2.677   3.625   6.924
 1410SOL    HW2 5130   2.756   3.554   6.800
 1411SOL     OW 5131   3.674   6.135   6.297
 1411SOL    HW1 5132   3.633   6.194   6.228
 1411SOL    HW2 5133   3.646   6.164   6.388
 1412SOL     OW 5134   0.351   3.985   1.626
 1412SOL    HW1 5135   0.429   3.983   1.688
 1412SOL    HW2 5136   0.311   4.077   1.625
 1413SOL     OW 5137   1.709   1.948   4.382
 1413SOL    HW1 5138   1.632   2.004   4.412
 1413SOL    HW2 5139   1.712   1.864   4.435
 1414SOL     OW 5140   1.563   2.807   1.455
 1414SOL    HW1 5141   1.651   2.767   1.480
 1414SOL    HW2 5142   1.490   2.740   1.474
 1415SOL     OW 5143   2.885   2.264   4.733
 1415SOL    HW1 5144   2.867   2.246   4.829
 1415SOL    HW2 5145   2.804   2.306   4.691
 1416SOL     OW 5146   4.310   0.549   4.707
 1416SOL    HW1 5147   4.332   0.484   4.634
 1416SOL    HW2 5148   4.391   0.564   4.764
 1417SOL     OW 5149   3.621   2.929   5.908
 1417SOL    HW1 5150   3.664   2.943   5.997
 1417SOL    HW2 5151   3.543   2.990   5.898
 1418SOL     OW 5152   2.786   3.758   0.761
 1418SOL    HW1 5153   2.849   3.834   0.745
 1418SOL    HW2 5154   2.837   3.673   0.769
 1419SOL     OW 5155   1.760   5.255   3.883
 1419SOL    HW1 5156   1.754   5.354   3.865
 1419SOL    HW2 5157   1.699   5.206   3.821
 1420SOL     OW 5158   4.310   5.623   3.138
 1420SOL    HW1 5159   4.217   5.605   3.106
 1420SOL    HW2 5160   4.320   5.592   3.232
 1421SOL     OW 5161   1.294   4.515   4.231
 1421SOL    HW1 5162   1.253   4.531   4.141
 1421SOL    HW2 5163   1.390   4.545   4.229
 1422SOL     OW 5164   2.297   4.824   5.919
 1422SOL    HW1 5165   2.337   4.909   5.883
 1422SOL    HW2 5166   2.216   4.801   5.866
 1423SOL     OW 5167   4.082   1.880   4.890
 1423SOL    HW1 5168   3.986   1.857   4.873
 1423SOL    HW2 5169   4.114   1.944   4.820
 1424SOL     OW 5170   5.847   3.668   6.663
 1424SOL    HW1 5171   5.865   3.766   6.655
 1424SOL    HW2 5172   5.908   3.617   6.602
 1425SOL     OW 5173   2.618   6.212   4.795
 1425SOL    HW1 5174   2.626   6.234   4.892
 1425SOL    HW2 5175   2.699   6.162   4.765
 1426SOL     OW 5176   1.642   2.326   6.256
 1426SOL    HW1 5177   1.646   2.299   6.160
 1426SOL    HW2 5178   1.660   2.246   6.313
 1427SOL     OW 5179   0.504   0.804   3.703
 1427SOL    HW1 5180   0.500   0.834   3.608
 1427SOL    HW2 5181   0.417   0.824   3.748
 1428SOL     OW 5182   0.321   2.152   1.146
 1428SOL    HW1 5183   0.261   2.076   1.121
 1428SOL    HW2 5184   0.268   2.236   1.152
 1429SOL     OW 5185   5.683   1.564   0.028
 1429SOL    HW1 5186   5.645   1.590   6.962
 1429SOL    HW2 5187   5.620   1.502   0.075
 1430SOL     OW 5188   2.201   3.980   4.574
 1430SOL    HW1 5189   2.129   3.995   4.506
 1430SOL    HW2 5190   2.210   3.882   4.592
 1431SOL     OW 5191   2.687   2.581   5.990
 1431SOL    HW1 5192   2.684   2.494   5.941
 1431SOL    HW2 5193   2.760   2.579   6.057
 1432SOL     OW 5194   2.136   1.215   0.884
 1432SOL    HW1 5195   2.068   1.151   0.919
 1432SOL    HW2 5196   2.102   1.259   0.801
 1433SOL     OW 5197   3.261   6.983   3.605
 1433SOL    HW1 5198   3.221   0.051   3.617
 1433SOL    HW2 5199   3.359   6.988   3.623
 1434SOL     OW 5200   6.236   1.658   6.439
 1434SOL    HW1 5201   6.308   1.638   6.505
 1434SOL    HW2 5202   6.230   1.585   6.372
 1435SOL     OW 5203   0.003   0.700   3.880
 1435SOL    HW1 5204   6.949   0.756   3.913
 1435SOL    HW2 5205   0.077   0.704   3.947
 1436SOL     OW 5206   5.749   3.644   0.234
 1436SOL    HW1 5207   5.783   3.551   0.239
 1436SOL    HW2 5208   5.820   3.708   0.264
 1437SOL     OW 5209   3.473   1.123   5.282
 1437SOL    HW1 5210   3.455   1.037   5.235
 1437SOL    HW2 5211   3.459   1.199   5.220
 1438SOL     OW 5212   2.989   1.254   1.611
 1438SOL    HW1 5213   3.002   1.353   1.604
 1438SOL    HW2 5214   3.033   1.221   1.695
 1439SOL     OW 5215   0.759   5.272   0.703
 1439SOL    HW1 5216   0.809   5.216   0.636
 1439SOL    HW2 5217   0.696   5.333   0.655
 1440SOL     OW 5218   3.409   3.234   4.440
 1440SOL    HW1 5219   3.443   3.203   4.351
 1440SOL    HW2 5220   3.454   3.182   4.513
 1441SOL     OW 5221   6.443   3.308   3.474
 1441SOL    HW1 5222   6.349   3.283   3.495
 1441SOL    HW2 5223   6.477   3.371   3.544
 1442SOL     OW 5224   6.008   4.680   0.434
 1442SOL    HW1 5225   5.947   4.745   0.388
 1442SOL    HW2 5226   6.100   4.687   0.395
 1443SOL     OW 5227   0.829   1.325   3.944
 1443SOL    HW1 5228   0.843   1.397   4.012
 1443SOL    HW2 5229   0.909   1.320   3.884
 1444SOL     OW 5230   4.356   5.707   2.439
 1444SOL    HW1 5231   4.318   5.757   2.361
 1444SOL    HW2 5232   4.373   5.612   2.412
 1445SOL     OW 5233   0.658   2.876   1.977
 1445SOL    HW1 5234   0.751   2.914   1.982
 1445SOL    HW2 5235   0.604   2.929   1.913
 1446SOL     OW 5236   5.167   2.963   0.047
 1446SOL    HW1 5237   5.069   2.964   0.029
 1446SOL    HW2 5238   5.188   2.892   0.114
 1447SOL     OW 5239   6.623   0.155   5.108
 1447SOL    HW1 5240   6.607   0.242   5.061
 1447SOL    HW2 5241   6.538   0.125   5.152
 1448SOL     OW 5242   5.985   1.416   0.557
 1448SOL    HW1 5243   5.894   1.459   0.560
 1448SOL    HW2 5244   6.033   1.434   0.642
 1449SOL     OW 5245   5.972   6.519   0.112
 1449SOL    HW1 5246   6.045   6.516   0.044
 1449SOL    HW2 5247   6.004   6.481   0.198
 1450SOL     OW 5248   0.328   1.969   2.210
 1450SOL    HW1 5249   0.318   1.986   2.112
 1450SOL    HW2 5250   0.408   2.018   2.245
 1451SOL     OW 5251   3.016   0.684   2.916
 1451SOL    HW1 5252   3.088   0.750   2.942
 1451SOL    HW2 5253   2.975   0.712   2.830
 1452SOL     OW 5254   4.959   1.872   4.723
 1452SOL    HW1 5255   5.041   1.890   4.776
 1452SOL    HW2 5256   4.984   1.840   4.631
 1453SOL     OW 5257   5.934   3.474   4.958
 1453SOL    HW1 5258   5.883   3.556   4.984
 1453SOL    HW2 5259   6.001   3.452   5.029
 1454SOL     OW 5260   6.272   3.425   2.207
 1454SOL    HW1 5261   6.228   3.454   2.291
 1454SOL    HW2 5262   6.317   3.503   2.163
 1455SOL     OW 5263   1.269   0.524   1.890
 1455SOL    HW1 5264   1.245   0.450   1.952
 1455SOL    HW2 5265   1.310   0.599   1.941
 1456SOL     OW 5266   6.686   6.575   5.197
 1456SOL    HW1 5267   6.758   6.629   5.154
 1456SOL    HW2 5268   6.678   6.487   5.151
 1457SOL     OW 5269   1.679   0.401   1.759
 1457SOL    HW1 5270   1.768   0.445   1.743
 1457SOL    HW2 5271   1.690   0.329   1.827
 1458SOL     OW 5272   5.403   6.525   4.509
 1458SOL    HW1 5273   5.436   6.435   4.537
 1458SOL    HW2 5274   5.420   6.538   4.411
 1459SOL     OW 5275   2.893   4.234   6.634
 1459SOL    HW1 5276   2.858   4.313   6.583
 1459SOL    HW2 5277   2.822   4.163   6.637
 1460SOL     OW 5278   6.666   5.608   5.658
 1460SOL    HW1 5279   6.634   5.549   5.583
 1460SOL    HW2 5280   6.752   5.572   5.694
 1461SOL     OW 5281   6.887   4.556   3.413
 1461SOL    HW1 5282   6.931   4.599   3.334
 1461SOL    HW2 5283   6.935   4.582   3.497
 1462SOL     OW 5284   5.953   1.709   6.541
 1462SOL    HW1 5285   6.044   1.691   6.502
 1462SOL    HW2 5286   5.884   1.697   6.470
 1463SOL     OW 5287   0.177   6.418   6.113
 1463SOL    HW1 5288   0.135   6.383   6.029
 1463SOL    HW2 5289   0.207   6.512   6.098
 1464SOL     OW 5290   7.009   0.406   0.997
 1464SOL    HW1 5291   0.082   0.381   0.980
 1464SOL    HW2 5292   6.965   0.428   0.909
 1465SOL     OW 5293   1.638   1.258   3.111
 1465SOL    HW1 5294   1.665   1.338   3.057
 1465SOL    HW2 5295   1.543   1.234   3.091
 1466SOL     OW 5296   0.694   0.029   3.156
 1466SOL    HW1 5297   0.671   7.021   3.063
 1466SOL    HW2 5298   0.664   0.123   3.168
 1467SOL     OW 5299   2.038   0.113   1.926
 1467SOL    HW1 5300   2.070   0.046   1.859
 1467SOL    HW2 5301   2.020   0.068   2.013
 1468SOL     OW 5302   5.580   5.920   2.973
 1468SOL    HW1 5303   5.634   5.838   2.952
 1468SOL    HW2 5304   5.641   5.996   2.992
 1469SOL     OW 5305   0.322   0.755   3.280
 1469SOL    HW1 5306   0.295   0.841   3.323
 1469SOL    HW2 5307   0.346   0.772   3.184
 1470SOL     OW 5308   0.942   0.755   2.551
 1470SOL    HW1 5309   1.035   0.718   2.562
 1470SOL    HW2 5310   0.948   0.850   2.521
 1471SOL     OW 5311   0.918   0.687   0.022
 1471SOL    HW1 5312   0.988   0.673   6.975
 1471SOL    HW2 5313   0.838   0.732   7.004
 1472SOL     OW 5314   4.114   5.478   4.773
 1472SOL    HW1 5315   4.162   5.410   4.829
 1472SOL    HW2 5316   4.088   5.556   4.830
 1473SOL     OW 5317   6.048   6.207   3.879
 1473SOL    HW1 5318   6.049   6.307   3.887
 1473SOL    HW2 5319   6.041   6.182   3.782
 1474SOL     OW 5320   6.864   6.030   3.580
 1474SOL    HW1 5321   6.840   5.943   3.623
 1474SOL    HW2 5322   6.792   6.097   3.598
 1475SOL     OW 5323   0.253   0.154   1.536
 1475SOL    HW1 5324   0.169   0.204   1.557
 1475SOL    HW2 5325   0.303   0.200   1.463
 1476SOL     OW 5326   1.338   1.223   1.262
 1476SOL    HW1 5327   1.423   1.246   1.308
 1476SOL    HW2 5328   1.333   1.271   1.174
 1477SOL     OW 5329   2.414   0.382   6.440
 1477SOL    HW1 5330   2.484   0.433   6.490
 1477SOL    HW2 5331   2.454   0.343   6.357
 1478SOL     OW 5332   5.358   4.372   0.526
 1478SOL    HW1 5333   5.403   4.323   0.452
 1478SOL    HW2 5334   5.301   4.309   0.578
 1479SOL     OW 5335   1.277   3.964   0.018
 1479SOL    HW1 5336   1.276   4.064   0.014
 1479SOL    HW2 5337   1.293   3.935   0.113
 1480SOL     OW 5338   2.833   0.568   0.140
 1480SOL    HW1 5339   2.831   0.482   0.192
 1480SOL    HW2 5340   2.823   0.644   0.204
 1481SOL     OW 5341   6.203   2.065   4.434
 1481SOL    HW1 5342   6.129   2.001   4.417
 1481SOL    HW2 5343   6.256   2.035   4.513
 1482SOL     OW 5344   5.423   1.615   0.954
 1482SOL    HW1 5345   5.436   1.655   1.044
 1482SOL    HW2 5346   5.472   1.670   0.885
 1483SOL     OW 5347   0.219   2.869   6.229
 1483SOL    HW1 5348   0.263   2.827   6.150
 1483SOL    HW2 5349   0.181   2.797   6.288
 1484SOL     OW 5350   6.112   4.181   3.894
 1484SOL    HW1 5351   6.158   4.122   3.829
 1484SOL    HW2 5352   6.168   4.261   3.914
 1485SOL     OW 5353   4.419   2.376   2.836
 1485SOL    HW1 5354   4.357   2.317   2.888
 1485SOL    HW2 5355   4.471   2.433   2.900
 1486SOL     OW 5356   4.588   2.629   3.288
 1486SOL    HW1 5357   4.604   2.725   3.265
 1486SOL    HW2 5358   4.558   2.622   3.383
 1487SOL     OW 5359   5.559   1.904   6.722
 1487SOL    HW1 5360   5.538   1.993   6.681
 1487SOL    HW2 5361   5.657   1.886   6.712
 1488SOL     OW 5362   6.065   2.090   2.643
 1488SOL    HW1 5363   6.042   2.116   2.550
 1488SOL    HW2 5364   6.053   2.169   2.704
 1489SOL     OW 5365   4.052   4.851   4.719
 1489SOL    HW1 5366   4.011   4.940   4.698
 1489SOL    HW2 5367   4.064   4.843   4.818
 1490SOL     OW 5368   1.243   2.613   1.116
 1490SOL    HW1 5369   1.277   2.604   1.022
 1490SOL    HW2 5370   1.182   2.692   1.121
 1491SOL     OW 5371   6.831   3.509   3.117
 1491SOL    HW1 5372   6.781   3.595   3.132
 1491SOL    HW2 5373   6.807   3.471   3.028
 1492SOL     OW 5374   5.940   1.814   1.603
 1492SOL    HW1 5375   5.936   1.781   1.509
 1492SOL    HW2 5376   6.020   1.874   1.614
 1493SOL     OW 5377   4.989   0.859   4.603
 1493SOL    HW1 5378   5.071   0.906   4.569
 1493SOL    HW2 5379   4.979   0.878   4.701
 1494SOL     OW 5380   4.428   2.470   6.182
 1494SOL    HW1 5381   4.339   2.509   6.159
 1494SOL    HW2 5382   4.463   2.419   6.104
 1495SOL     OW 5383   1.051   3.010   3.357
 1495SOL    HW1 5384   1.019   2.916   3.353
 1495SOL    HW2 5385   1.030   3.049   3.447
 1496SOL     OW 5386   0.900   0.848   2.203
 1496SOL    HW1 5387   0.931   0.910   2.131
 1496SOL    HW2 5388   0.800   0.839   2.199
 1497SOL     OW 5389   0.128   4.219   3.217
 1497SOL    HW1 5390   0.034   4.244   3.240
 1497SOL    HW2 5391   0.191   4.286   3.254
 1498SOL     OW 5392   1.540   4.976   6.557
 1498SOL    HW1 5393   1.491   4.931   6.632
 1498SOL    HW2 5394   1.474   5.023   6.498
 1499SOL     OW 5395   1.186   3.726   5.200
 1499SOL    HW1 5396   1.155   3.706   5.293
 1499SOL    HW2 5397   1.268   3.672   5.180
 1500SOL     OW 5398   5.704   6.425   0.193
 1500SOL    HW1 5399   5.681   6.336   0.152
 1500SOL    HW2 5400   5.791   6.457   0.155
 1501SOL     OW 5401   3.830   0.794   6.296
 1501SOL    HW1 5402   3.778   0.789   6.382
 1501SOL    HW2 5403   3.928   0.794   6.317
 1502SOL     OW 5404   6.077   6.587   0.922
 1502SOL    HW1 5405   6.149   6.526   0.954
 1502SOL    HW2 5406   6.117   6.669   0.883
 1503SOL     OW 5407   2.633   2.342   1.312
 1503SOL    HW1 5408   2.628   2.345   1.212
 1503SOL    HW2 5409   2.541   2.336   1.350
 1504SOL     OW 5410   2.027   0.207   5.002
 1504SOL    HW1 5411   1.940   0.256   4.996
 1504SOL    HW2 5412   2.101   0.266   4.969
 1505SOL     OW 5413   5.561   0.386   6.662
 1505SOL    HW1 5414   5.505   0.469   6.660
 1505SOL    HW2 5415   5.625   0.391   6.738
 1506SOL     OW 5416   1.457   5.368   2.635
 1506SOL    HW1 5417   1.521   5.419   2.692
 1506SOL    HW2 5418   1.364   5.398   2.655
 1507SOL     OW 5419   1.503   2.072   5.039
 1507SOL    HW1 5420   1.492   1.974   5.054
 1507SOL    HW2 5421   1.594   2.100   5.069
 1508SOL     OW 5422   5.233   6.959   0.790
 1508SOL    HW1 5423   5.172   6.924   0.860
 1508SOL    HW2 5424   5.188   6.955   0.701
 1509SOL     OW 5425   3.923   2.745   6.146
 1509SOL    HW1 5426   3.845   2.700   6.102
 1509SOL    HW2 5427   3.948   2.827   6.094
 1510SOL     OW 5428   5.905   1.841   3.732
 1510SOL    HW1 5429   5.883   1.754   3.777
 1510SOL    HW2 5430   5.881   1.835   3.635
 1511SOL     OW 5431   2.325   2.788   0.192
 1511SOL    HW1 5432   2.277   2.740   0.265
 1511SOL    HW2 5433   2.265   2.856   0.150
 1512SOL     OW 5434   7.000   6.582   1.922
 1512SOL    HW1 5435   6.927   6.540   1.976
 1512SOL    HW2 5436   6.965   6.666   1.880
 1513SOL     OW 5437   4.725   0.550   3.602
 1513SOL    HW1 5438   4.670   0.599   3.670
 1513SOL    HW2 5439   4.793   0.493   3.648
 1514SOL     OW 5440   5.408   2.066   4.717
 1514SOL    HW1 5441   5.494   2.040   4.760
 1514SOL    HW2 5442   5.423   2.088   4.620
 1515SOL     OW 5443   6.732   3.324   6.350
 1515SOL    HW1 5444   6.811   3.263   6.354
 1515SOL    HW2 5445   6.752   3.408   6.401
 1516SOL     OW 5446   0.691   0.418   0.825
 1516SOL    HW1 5447   0.745   0.425   0.741
 1516SOL    HW2 5448   0.594   0.413   0.802
 1517SOL     OW 5449   4.697   5.889   3.580
 1517SOL    HW1 5450   4.674   5.981   3.548
 1517SOL    HW2 5451   4.795   5.874   3.571
 1518SOL     OW 5452   6.813   2.964   0.081
 1518SOL    HW1 5453   6.817   3.034   0.152
 1518SOL    HW2 5454   6.889   2.900   0.092
 1519SOL     OW 5455   0.048   4.687   2.075
 1519SOL    HW1 5456   0.129   4.653   2.123
 1519SOL    HW2 5457   0.077   4.757   2.009
 1520SOL     OW 5458   1.550   3.088   2.400
 1520SOL    HW1 5459   1.523   3.073   2.495
 1520SOL    HW2 5460   1.637   3.043   2.383
 1521SOL     OW 5461   2.020   3.434   6.672
 1521SOL    HW1 5462   1.942   3.471   6.621
 1521SOL    HW2 5463   2.093   3.410   6.608
 1522SOL     OW 5464   6.801   1.613   5.423
 1522SOL    HW1 5465   6.841   1.680   5.360
 1522SOL    HW2 5466   6.733   1.659   5.481
 1523SOL     OW 5467   5.105   3.952   6.875
 1523SOL    HW1 5468   5.076   4.011   6.799
 1523SOL    HW2 5469   5.193   3.910   6.853
 1524SOL     OW 5470   0.909   1.942   1.816
 1524SOL    HW1 5471   0.953   1.855   1.792
 1524SOL    HW2 5472   0.819   1.946   1.773
 1525SOL     OW 5473   5.137   2.792   6.107
 1525SOL    HW1 5474   5.088   2.879   6.108
 1525SOL    HW2 5475   5.213   2.795   6.171
 1526SOL     OW 5476   1.198   1.196   0.895
 1526SOL    HW1 5477   1.107   1.164   0.922
 1526SOL    HW2 5478   1.198   1.217   0.798
 1527SOL     OW 5479   3.660   1.103   4.779
 1527SOL    HW1 5480   3.571   1.149   4.783
 1527SOL    HW2 5481   3.682   1.082   4.683
 1528SOL     OW 5482   5.208   6.084   2.757
 1528SOL    HW1 5483   5.279   6.084   2.827
 1528SOL    HW2 5484   5.127   6.038   2.792
 1529SOL     OW 5485   3.858   1.357   6.700
 1529SOL    HW1 5486   3.933   1.317   6.753
 1529SOL    HW2 5487   3.801   1.283   6.664
 1530SOL     OW 5488   3.553   0.454   1.186
 1530SOL    HW1 5489   3.563   0.380   1.252
 1530SOL    HW2 5490   3.635   0.512   1.188
 1531SOL     OW 5491   5.976   1.471   5.164
 1531SOL    HW1 5492   6.065   1.462   5.209
 1531SOL    HW2 5493   5.986   1.531   5.084
 1532SOL     OW 5494   2.528   2.291   5.002
 1532SOL    HW1 5495   2.501   2.387   4.993
 1532SOL    HW2 5496   2.622   2.280   4.972
 1533SOL     OW 5497   6.796   3.552   6.514
 1533SOL    HW1 5498   6.813   3.542   6.612
 1533SOL    HW2 5499   6.711   3.603   6.501
 1534SOL     OW 5500   1.742   5.163   0.128
 1534SOL    HW1 5501   1.770   5.213   0.046
 1534SOL    HW2 5502   1.818   5.108   0.162
 1535SOL     OW 5503   5.741   5.934   4.542
 1535SOL    HW1 5504   5.718   6.025   4.578
 1535SOL    HW2 5505   5.664   5.898   4.489
 1536SOL     OW 5506   3.752   4.872   5.221
 1536SOL    HW1 5507   3.763   4.893   5.124
 1536SOL    HW2 5508   3.667   4.912   5.255
 1537SOL     OW 5509   3.896   5.943   3.222
 1537SOL    HW1 5510   3.980   5.916   3.268
 1537SOL    HW2 5511   3.910   5.942   3.123
 1538SOL     OW 5512   3.309   5.649   5.205
 1538SOL    HW1 5513   3.343   5.568   5.158
 1538SOL    HW2 5514   3.210   5.654   5.195
 1539SOL     OW 5515   3.923   4.241   1.437
 1539SOL    HW1 5516   3.893   4.335   1.456
 1539SOL    HW2 5517   3.843   4.182   1.429
 1540SOL     OW 5518   0.601   6.967   5.335
 1540SOL    HW1 5519   0.613   6.944   5.431
 1540SOL    HW2 5520   0.543   0.026   5.328
 1541SOL     OW 5521   3.458   2.400   1.324
 1541SOL    HW1 5522   3.373   2.364   1.364
 1541SOL    HW2 5523   3.534   2.340   1.348
 1542SOL     OW 5524   6.223   5.805   1.639
 1542SOL    HW1 5525   6.205   5.903   1.652
 1542SOL    HW2 5526   6.291   5.775   1.706
 1543SOL     OW 5527   3.002   3.250   4.120
 1543SOL    HW1 5528   2.960   3.337   4.145
 1543SOL    HW2 5529   2.984   3.183   4.192
 1544SOL     OW 5530   3.117   4.018   2.401
 1544SOL    HW1 5531   3.149   4.064   2.484
 1544SOL    HW2 5532   3.180   4.038   2.326
 1545SOL     OW 5533   5.954   1.220   5.525
 1545SOL    HW1 5534   5.928   1.317   5.525
 1545SOL    HW2 5535   5.980   1.192   5.433
 1546SOL     OW 5536   4.731   0.249   6.178
 1546SOL    HW1 5537   4.780   0.166   6.207
 1546SOL    HW2 5538   4.783   0.330   6.204
 1547SOL     OW 5539   2.177   3.836   2.408
 1547SOL    HW1 5540   2.151   3.856   2.503
 1547SOL    HW2 5541   2.269   3.873   2.392
 1548SOL     OW 5542   4.443   3.784   5.631
 1548SOL    HW1 5543   4.344   3.775   5.645
 1548SOL    HW2 5544   4.471   3.727   5.554
 1549SOL     OW 5545   5.917   0.993   2.282
 1549SOL    HW1 5546   5.997   1.025   2.332
 1549SOL    HW2 5547   5.944   0.963   2.190
 1550SOL     OW 5548   2.910   6.613   5.765
 1550SOL    HW1 5549   2.942   6.651   5.852
 1550SOL    HW2 5550   2.975   6.635   5.693
 1551SOL     OW 5551   1.683   3.578   0.964
 1551SOL    HW1 5552   1.781   3.564   0.948
 1551SOL    HW2 5553   1.634   3.569   0.878
 1552SOL     OW 5554   0.745   6.887   1.322
 1552SOL    HW1 5555   0.691   6.858   1.244
 1552SOL    HW2 5556   0.792   6.808   1.361
 1553SOL     OW 5557   6.585   2.240   6.857
 1553SOL    HW1 5558   6.542   2.241   6.947
 1553SOL    HW2 5559   6.584   2.333   6.819
 1554SOL     OW 5560   3.571   2.153   2.734
 1554SOL    HW1 5561   3.670   2.160   2.739
 1554SOL    HW2 5562   3.539   2.180   2.644
 1555SOL     OW 5563   4.711   2.847   5.953
 1555SOL    HW1 5564   4.680   2.863   5.859
 1555SOL    HW2 5565   4.768   2.923   5.983
 1556SOL     OW 5566   4.331   1.032   0.335
 1556SOL    HW1 5567   4.345   1.129   0.312
 1556SOL    HW2 5568   4.408   0.978   0.301
 1557SOL     OW 5569   2.805   1.979   0.516
 1557SOL    HW1 5570   2.736   1.955   0.449
 1557SOL    HW2 5571   2.761   1.996   0.605
 1558SOL     OW 5572   5.888   1.997   4.361
 1558SOL    HW1 5573   5.912   2.058   4.436
 1558SOL    HW2 5574   5.939   2.022   4.279
 1559SOL     OW 5575   0.524   2.756   1.266
 1559SOL    HW1 5576   0.613   2.794   1.291
 1559SOL    HW2 5577   0.485   2.808   1.190
 1560SOL     OW 5578   3.057   1.203   6.773
 1560SOL    HW1 5579   2.992   1.137   6.809
 1560SOL    HW2 5580   3.149   1.181   6.806
 1561SOL     OW 5581   4.797   5.108   3.448
 1561SOL    HW1 5582   4.700   5.131   3.448
 1561SOL    HW2 5583   4.850   5.184   3.410
 1562SOL     OW 5584   3.695   6.316   2.473
 1562SOL    HW1 5585   3.693   6.242   2.405
 1562SOL    HW2 5586   3.603   6.353   2.485
 1563SOL     OW 5587   2.292   2.165   5.929
 1563SOL    HW1 5588   2.365   2.228   5.956
 1563SOL    HW2 5589   2.331   2.078   5.901
 1564SOL     OW 5590   1.596   2.022   2.370
 1564SOL    HW1 5591   1.665   2.070   2.425
 1564SOL    HW2 5592   1.508   2.025   2.417
 1565SOL     OW 5593   4.418   5.210   4.721
 1565SOL    HW1 5594   4.441   5.129   4.667
 1565SOL    HW2 5595   4.371   5.277   4.664
 1566SOL     OW 5596   6.193   5.258   4.233
 1566SOL    HW1 5597   6.278   5.264   4.181
 1566SOL    HW2 5598   6.204   5.304   4.321
 1567SOL     OW 5599   6.325   5.219   6.748
 1567SOL    HW1 5600   6.285   5.177   6.667
 1567SOL    HW2 5601   6.317   5.156   6.825
 1568SOL     OW 5602   2.631   6.411   2.962
 1568SOL    HW1 5603   2.675   6.494   2.927
 1568SOL    HW2 5604   2.700   6.353   3.005
 1569SOL     OW 5605   3.589   6.825   3.324
 1569SOL    HW1 5606   3.597   6.883   3.404
 1569SOL    HW2 5607   3.604   6.879   3.241
 1570SOL     OW 5608   1.979   6.754   6.797
 1570SOL    HW1 5609   2.065   6.763   6.746
 1570SOL    HW2 5610   1.912   6.818   6.761
 1571SOL     OW 5611   1.069   2.526   2.826
 1571SOL    HW1 5612   1.120   2.574   2.755
 1571SOL    HW2 5613   1.103   2.553   2.916
 1572SOL     OW 5614   1.987   5.319   2.638
 1572SOL    HW1 5615   1.912   5.327   2.572
 1572SOL    HW2 5616   1.994   5.224   2.669
 1573SOL     OW 5617   5.352   5.076   2.307
 1573SOL    HW1 5618   5.412   5.149   2.341
 1573SOL    HW2 5619   5.392   4.987   2.331
 1574SOL     OW 5620   6.388   2.971   2.413
 1574SOL    HW1 5621   6.336   2.886   2.410
 1574SOL    HW2 5622   6.342   3.041   2.359
 1575SOL     OW 5623   2.430   0.346   1.191
 1575SOL    HW1 5624   2.416   0.352   1.092
 1575SOL    HW2 5625   2.517   0.302   1.210
 1576SOL     OW 5626   1.031   6.399   3.079
 1576SOL    HW1 5627   1.068   6.436   2.994
 1576SOL    HW2 5628   0.997   6.474   3.136
 1577SOL     OW 5629   2.190   0.478   6.194
 1577SOL    HW1 5630   2.221   0.554   6.252
 1577SOL    HW2 5631   2.138   0.514   6.116
 1578SOL     OW 5632   4.705   1.168   6.202
 1578SOL    HW1 5633   4.611   1.196   6.182
 1578SOL    HW2 5634   4.707   1.109   6.282
 1579SOL     OW 5635   6.688   2.209   1.093
 1579SOL    HW1 5636   6.743   2.238   1.172
 1579SOL    HW2 5637   6.707   2.269   1.015
 1580SOL     OW 5638   3.331   4.104   3.203
 1580SOL    HW1 5639   3.399   4.161   3.250
 1580SOL    HW2 5640   3.360   4.009   3.207
 1581SOL     OW 5641   6.776   4.077   5.494
 1581SOL    HW1 5642   6.744   4.112   5.406
 1581SOL    HW2 5643   6.875   4.069   5.493
 1582SOL     OW 5644   3.103   6.228   4.782
 1582SOL    HW1 5645   3.053   6.304   4.740
 1582SOL    HW2 5646   3.146   6.173   4.711
 1583SOL     OW 5647   0.914   5.858   4.057
 1583SOL    HW1 5648   0.931   5.787   4.125
 1583SOL    HW2 5649   0.991   5.863   3.994
 1584SOL     OW 5650   1.355   4.863   6.758
 1584SOL    HW1 5651   1.299   4.927   6.812
 1584SOL    HW2 5652   1.422   4.819   6.818
 1585SOL     OW 5653   4.428   1.605   2.837
 1585SOL    HW1 5654   4.394   1.520   2.796
 1585SOL    HW2 5655   4.527   1.597   2.852
 1586SOL     OW 5656   3.364   4.920   3.210
 1586SOL    HW1 5657   3.350   4.906   3.112
 1586SOL    HW2 5658   3.462   4.921   3.230
 1587SOL     OW 5659   1.943   4.995   5.038
 1587SOL    HW1 5660   1.948   4.899   5.013
 1587SOL    HW2 5661   1.852   5.031   5.020
 1588SOL     OW 5662   4.582   0.865   2.698
 1588SOL    HW1 5663   4.528   0.785   2.673
 1588SOL    HW2 5664   4.679   0.841   2.698
 1589SOL     OW 5665   0.302   3.500   2.627
 1589SOL    HW1 5666   0.290   3.478   2.724
 1589SOL    HW2 5667   0.315   3.599   2.617
 1590SOL     OW 5668   5.207   0.638   3.791
 1590SOL    HW1 5669   5.157   0.657   3.875
 1590SOL    HW2 5670   5.230   0.541   3.787
 1591SOL     OW 5671   6.805   6.130   1.109
 1591SOL    HW1 5672   6.802   6.086   1.019
 1591SOL    HW2 5673   6.900   6.141   1.137
 1592SOL     OW 5674   1.933   3.470   0.030
 1592SOL    HW1 5675   1.939   3.473   0.130
 1592SOL    HW2 5676   2.024   3.486   7.014
 1593SOL     OW 5677   0.921   6.907   5.871
 1593SOL    HW1 5678   0.922   6.987   5.811
 1593SOL    HW2 5679   1.014   6.887   5.902
 1594SOL     OW 5680   0.149   5.918   2.173
 1594SOL    HW1 5681   0.189   5.980   2.242
 1594SOL    HW2 5682   0.182   5.944   2.082
 1595SOL     OW 5683   1.085   4.519   0.378
 1595SOL    HW1 5684   0.994   4.493   0.410
 1595SOL    HW2 5685   1.129   4.441   0.334
 1596SOL     OW 5686   6.530   3.233   2.473
 1596SOL    HW1 5687   6.479   3.150   2.451
 1596SOL    HW2 5688   6.586   3.217   2.554
 1597SOL     OW 5689   1.856   6.037   1.099
 1597SOL    HW1 5690   1.819   6.056   1.008
 1597SOL    HW2 5691   1.818   5.950   1.132
 1598SOL     OW 5692   1.283   4.840   6.367
 1598SOL    HW1 5693   1.246   4.791   6.446
 1598SOL    HW2 5694   1.282   4.939   6.386
 1599SOL     OW 5695   5.239   4.958   5.112
 1599SOL    HW1 5696   5.268   4.976   5.206
 1599SOL    HW2 5697   5.310   4.991   5.049
 1600SOL     OW 5698   3.227   1.266   2.281
 1600SOL    HW1 5699   3.299   1.283   2.348
 1600SOL    HW2 5700   3.149   1.327   2.298
 1601SOL     OW 5701   0.805   6.726   4.530
 1601SOL    HW1 5702   0.821   6.676   4.444
 1601SOL    HW2 5703   0.740   6.800   4.513
 1602SOL     OW 5704   4.378   5.213   4.350
 1602SOL    HW1 5705   4.333   5.272   4.417
 1602SOL    HW2 5706   4.316   5.197   4.273
 1603SOL     OW 5707   3.114   5.293   3.502
 1603SOL    HW1 5708   3.093   5.199   3.530
 1603SOL    HW2 5709   3.211   5.300   3.478
 1604SOL     OW 5710   4.041   4.907   1.261
 1604SOL    HW1 5711   4.023   4.972   1.335
 1604SOL    HW2 5712   3.980   4.829   1.270
 1605SOL     OW 5713   6.875   5.247   1.903
 1605SOL    HW1 5714   6.886   5.213   1.809
 1605SOL    HW2 5715   6.797   5.202   1.945
 1606SOL     OW 5716   3.989   5.537   5.434
 1606SOL    HW1 5717   3.917   5.598   5.399
 1606SOL    HW2 5718   3.985   5.450   5.385
 1607SOL     OW 5719   4.358   0.539   0.729
 1607SOL    HW1 5720   4.352   0.570   0.634
 1607SOL    HW2 5721   4.444   0.570   0.769
 1608SOL     OW 5722   6.798   0.600   2.809
 1608SOL    HW1 5723   6.827   0.606   2.714
 1608SOL    HW2 5724   6.877   0.575   2.866
 1609SOL     OW 5725   3.543   6.891   0.532
 1609SOL    HW1 5726   3.443   6.893   0.530
 1609SOL    HW2 5727   3.575   6.933   0.617
 1610SOL     OW 5728   4.724   5.989   0.651
 1610SOL    HW1 5729   4.663   5.961   0.577
 1610SOL    HW2 5730   4.762   5.908   0.695
 1611SOL     OW 5731   1.972   3.630   0.960
 1611SOL    HW1 5732   2.023   3.604   0.878
 1611SOL    HW2 5733   1.935   3.722   0.948
 1612SOL     OW 5734   3.684   6.974   1.412
 1612SOL    HW1 5735   3.659   0.042   1.378
 1612SOL    HW2 5736   3.765   6.941   1.363
 1613SOL     OW 5737   1.018   5.836   1.755
 1613SOL    HW1 5738   1.055   5.925   1.782
 1613SOL    HW2 5739   0.941   5.849   1.692
 1614SOL     OW 5740   5.692   1.677   6.423
 1614SOL    HW1 5741   5.682   1.775   6.443
 1614SOL    HW2 5742   5.735   1.666   6.334
 1615SOL     OW 5743   6.787   5.999   0.080
 1615SOL    HW1 5744   6.803   5.901   0.093
 1615SOL    HW2 5745   6.695   6.022   0.109
 1616SOL     OW 5746   4.274   0.266   3.606
 1616SOL    HW1 5747   4.244   0.340   3.666
 1616SOL    HW2 5748   4.212   0.260   3.527
 1617SOL     OW 5749   5.256   6.202   3.038
 1617SOL    HW1 5750   5.265   6.301   3.031
 1617SOL    HW2 5751   5.326   6.166   3.099
 1618SOL     OW 5752   1.760   6.394   3.227
 1618SOL    HW1 5753   1.717   6.401   3.137
 1618SOL    HW2 5754   1.852   6.356   3.218
 1619SOL     OW 5755   0.272   4.898   6.897
 1619SOL    HW1 5756   0.228   4.932   6.981
 1619SOL    HW2 5757   0.211   4.913   6.819
 1620SOL     OW 5758   3.549   4.443   1.587
 1620SOL    HW1 5759   3.543   4.504   1.666
 1620SOL    HW2 5760   3.538   4.496   1.503
 1621SOL     OW 5761   5.799   0.171   0.975
 1621SOL    HW1 5762   5.705   0.183   1.007
 1621SOL    HW2 5763   5.828   0.077   0.991
 1622SOL     OW 5764   0.693   3.701   5.503
 1622SOL    HW1 5765   0.596   3.727   5.507
 1622SOL    HW2 5766   0.749   3.780   5.528
 1623SOL     OW 5767   0.335   2.487   5.091
 1623SOL    HW1 5768   0.319   2.397   5.049
 1623SOL    HW2 5769   0.250   2.540   5.088
 1624SOL     OW 5770   4.213   1.224   5.642
 1624SOL    HW1 5771   4.261   1.197   5.558
 1624SOL    HW2 5772   4.275   1.275   5.701
 1625SOL     OW 5773   1.729   5.299   6.830
 1625SOL    HW1 5774   1.789   5.233   6.785
 1625SOL    HW2 5775   1.645   5.254   6.860
 1626SOL     OW 5776   3.176   1.242   1.017
 1626SOL    HW1 5777   3.203   1.208   1.108
 1626SOL    HW2 5778   3.250   1.298   0.980
 1627SOL     OW 5779   5.577   2.712   3.458
 1627SOL    HW1 5780   5.515   2.640   3.427
 1627SOL    HW2 5781   5.527   2.797   3.469
 1628SOL     OW 5782   4.300   5.153   6.999
 1628SOL    HW1 5783   4.276   5.111   0.063
 1628SOL    HW2 5784   4.229   5.218   6.972
 1629SOL     OW 5785   2.812   1.174   4.117
 1629SOL    HW1 5786   2.833   1.270   4.133
 1629SOL    HW2 5787   2.897   1.123   4.101
 1630SOL     OW 5788   7.021   4.212   5.701
 1630SOL    HW1 5789   0.095   4.186   5.710
 1630SOL    HW2 5790   6.965   4.130   5.697
 1631SOL     OW 5791   0.608   3.111   0.481
 1631SOL    HW1 5792   0.628   3.018   0.450
 1631SOL    HW2 5793   0.562   3.107   0.570
 1632SOL     OW 5794   5.038   3.579   2.662
 1632SOL    HW1 5795   5.046   3.583   2.563
 1632SOL    HW2 5796   5.054   3.669   2.701
 1633SOL     OW 5797   4.894   3.984   4.595
 1633SOL    HW1 5798   4.879   4.019   4.503
 1633SOL    HW2 5799   4.858   3.891   4.601
 1634SOL     OW 5800   4.708   0.180   4.107
 1634SOL    HW1 5801   4.716   0.135   4.196
 1634SOL    HW2 5802   4.776   0.254   4.101
 1635SOL     OW 5803   0.913   5.005   6.605
 1635SOL    HW1 5804   0.886   4.920   6.559
 1635SOL    HW2 5805   0.842   5.031   6.671
 1636SOL     OW 5806   3.260   5.079   1.720
 1636SOL    HW1 5807   3.258   5.089   1.820
 1636SOL    HW2 5808   3.212   4.996   1.693
 1637SOL     OW 5809   0.118   6.771   3.973
 1637SOL    HW1 5810   0.116   6.841   4.045
 1637SOL    HW2 5811   0.027   6.732   3.962
 1638SOL     OW 5812   0.658   3.345   2.352
 1638SOL    HW1 5813   0.669   3.323   2.449
 1638SOL    HW2 5814   0.585   3.411   2.340
 1639SOL     OW 5815   5.572   5.108   1.670
 1639SOL    HW1 5816   5.489   5.096   1.615
 1639SOL    HW2 5817   5.601   5.020   1.705
 1640SOL     OW 5818   6.226   0.366   0.182
 1640SOL    HW1 5819   6.213   0.277   0.137
 1640SOL    HW2 5820   6.141   0.419   0.177
 1641SOL     OW 5821   6.352   1.885   2.989
 1641SOL    HW1 5822   6.365   1.983   2.973
 1641SOL    HW2 5823   6.438   1.837   2.973
 1642SOL     OW 5824   6.602   3.384   6.834
 1642SOL    HW1 5825   6.543   3.395   6.754
 1642SOL    HW2 5826   6.570   3.308   6.890
 1643SOL     OW 5827   2.965   4.833   3.491
 1643SOL    HW1 5828   3.012   4.773   3.427
 1643SOL    HW2 5829   2.879   4.792   3.520
 1644SOL     OW 5830   5.299   3.778   6.826
 1644SOL    HW1 5831   5.265   3.733   6.910
 1644SOL    HW2 5832   5.330   3.708   6.762
 1645SOL     OW 5833   2.955   5.978   5.848
 1645SOL    HW1 5834   2.885   5.907   5.846
 1645SOL    HW2 5835   2.912   6.068   5.835
 1646SOL     OW 5836   2.602   6.887   0.366
 1646SOL    HW1 5837   2.532   6.871   0.297
 1646SOL    HW2 5838   2.559   6.897   0.456
 1647SOL     OW 5839   6.478   2.402   4.161
 1647SOL    HW1 5840   6.397   2.461   4.161
 1647SOL    HW2 5841   6.458   2.318   4.211
 1648SOL     OW 5842   5.694   6.174   0.091
 1648SOL    HW1 5843   5.599   6.149   0.071
 1648SOL    HW2 5844   5.735   6.104   0.150
 1649SOL     OW 5845   3.472   1.843   4.835
 1649SOL    HW1 5846   3.380   1.880   4.825
 1649SOL    HW2 5847   3.535   1.894   4.777
 1650SOL     OW 5848   0.640   5.287   4.697
 1650SOL    HW1 5849   0.604   5.292   4.790
 1650SOL    HW2 5850   0.733   5.251   4.699
 1651SOL     OW 5851   0.618   2.250   1.878
 1651SOL    HW1 5852   0.562   2.270   1.797
 1651SOL    HW2 5853   0.563   2.201   1.945
 1652SOL     OW 5854   1.386   3.453   2.548
 1652SOL    HW1 5855   1.311   3.508   2.586
 1652SOL    HW2 5856   1.472   3.504   2.556
 1653SOL     OW 5857   0.336   6.409   0.760
 1653SOL    HW1 5858   0.243   6.394   0.728
 1653SOL    HW2 5859   0.349   6.365   0.849
 1654SOL     OW 5860   6.759   3.431   1.252
 1654SOL    HW1 5861   6.673   3.388   1.279
 1654SOL    HW2 5862   6.752   3.463   1.157
 1655SOL     OW 5863   0.237   1.987   4.341
 1655SOL    HW1 5864   0.247   1.891   4.367
 1655SOL    HW2 5865   0.176   1.995   4.262
 1656SOL     OW 5866   1.797   5.499   3.234
 1656SOL    HW1 5867   1.890   5.534   3.242
 1656SOL    HW2 5868   1.800   5.405   3.199
 1657SOL     OW 5869   5.927   0.727   4.569
 1657SOL    HW1 5870   5.993   0.687   4.632
 1657SOL    HW2 5871   5.878   0.802   4.614
 1658SOL     OW 5872   5.893   0.810   1.028
 1658SOL    HW1 5873   5.966   0.744   1.046
 1658SOL    HW2 5874   5.880   0.868   1.108
 1659SOL     OW 5875   3.604   0.313   0.094
 1659SOL    HW1 5876   3.646   0.222   0.094
 1659SOL    HW2 5877   3.533   0.317   0.165
 1660SOL     OW 5878   1.580   6.039   2.259
 1660SOL    HW1 5879   1.480   6.038   2.249
 1660SOL    HW2 5880   1.603   6.046   2.357
 1661SOL     OW 5881   1.733   6.086   1.433
 1661SOL    HW1 5882   1.659   6.043   1.380
 1661SOL    HW2 5883   1.706   6.179   1.458
 1662SOL     OW 5884   0.008   0.882   4.297
 1662SOL    HW1 5885   0.101   0.919   4.291
 1662SOL    HW2 5886   7.022   0.825   4.378
 1663SOL     OW 5887   4.478   5.546   3.684
 1663SOL    HW1 5888   4.473   5.503   3.594
 1663SOL    HW2 5889   4.566   5.525   3.726
 1664SOL     OW 5890   2.131   5.897   5.424
 1664SOL    HW1 5891   2.190   5.826   5.461
 1664SOL    HW2 5892   2.141   5.900   5.324
 1665SOL     OW 5893   6.672   3.835   1.647
 1665SOL    HW1 5894   6.589   3.890   1.651
 1665SOL    HW2 5895   6.669   3.763   1.716
 1666SOL     OW 5896   5.920   0.452   0.124
 1666SOL    HW1 5897   5.957   0.463   0.216
 1666SOL    HW2 5898   5.945   0.530   0.067
 1667SOL     OW 5899   6.583   5.705   1.362
 1667SOL    HW1 5900   6.649   5.689   1.435
 1667SOL    HW2 5901   6.594   5.798   1.327
 1668SOL     OW 5902   4.787   4.859   3.616
 1668SOL    HW1 5903   4.707   4.889   3.564
 1668SOL    HW2 5904   4.855   4.932   3.617
 1669SOL     OW 5905   6.678   4.632   5.808
 1669SOL    HW1 5906   6.764   4.682   5.804
 1669SOL    HW2 5907   6.694   4.540   5.845
 1670SOL     OW 5908   0.476   4.711   5.328
 1670SOL    HW1 5909   0.543   4.732   5.257
 1670SOL    HW2 5910   0.387   4.692   5.286
 1671SOL     OW 5911   5.584   1.551   3.455
 1671SOL    HW1 5912   5.485   1.545   3.448
 1671SOL    HW2 5913   5.626   1.483   3.395
 1672SOL     OW 5914   2.545   3.420   0.580
 1672SOL    HW1 5915   2.562   3.339   0.524
 1672SOL    HW2 5916   2.631   3.453   0.619
 1673SOL     OW 5917   1.139   2.220   4.641
 1673SOL    HW1 5918   1.209   2.152   4.617
 1673SOL    HW2 5919   1.149   2.245   4.737
 1674SOL     OW 5920   0.096   3.136   1.863
 1674SOL    HW1 5921   0.089   3.225   1.908
 1674SOL    HW2 5922   0.027   3.074   1.900
 1675SOL     OW 5923   4.563   0.082   0.055
 1675SOL    HW1 5924   4.520   0.131   0.131
 1675SOL    HW2 5925   4.659   0.063   0.078
 1676SOL     OW 5926   2.330   2.665   1.973
 1676SOL    HW1 5927   2.388   2.640   2.050
 1676SOL    HW2 5928   2.269   2.739   1.999
 1677SOL     OW 5929   3.911   3.922   3.671
 1677SOL    HW1 5930   3.849   3.900   3.746
 1677SOL    HW2 5931   3.993   3.865   3.678
 1678SOL     OW 5932   0.310   5.182   2.276
 1678SOL    HW1 5933   0.252   5.251   2.232
 1678SOL    HW2 5934   0.253   5.106   2.307
 1679SOL     OW 5935   1.718   1.624   4.828
 1679SOL    HW1 5936   1.787   1.673   4.776
 1679SOL    HW2 5937   1.726   1.526   4.810
 1680SOL     OW 5938   5.921   3.885   5.786
 1680SOL    HW1 5939   6.000   3.945   5.783
 1680SOL    HW2 5940   5.899   3.853   5.693
 1681SOL     OW 5941   1.168   5.815   6.182
 1681SOL    HW1 5942   1.267   5.812   6.192
 1681SOL    HW2 5943   1.143   5.790   6.088
 1682SOL     OW 5944   1.638   0.420   5.611
 1682SOL    HW1 5945   1.731   0.454   5.597
 1682SOL    HW2 5946   1.621   0.344   5.548
 1683SOL     OW 5947   5.717   5.396   2.593
 1683SOL    HW1 5948   5.680   5.320   2.645
 1683SOL    HW2 5949   5.809   5.372   2.560
 1684SOL     OW 5950   0.005   5.677   1.951
 1684SOL    HW1 5951   0.012   5.729   1.866
 1684SOL    HW2 5952   0.093   5.680   1.999
 1685SOL     OW 5953   1.852   1.443   5.927
 1685SOL    HW1 5954   1.810   1.515   5.872
 1685SOL    HW2 5955   1.918   1.483   5.991
 1686SOL     OW 5956   2.527   6.076   4.231
 1686SOL    HW1 5957   2.464   5.999   4.230
 1686SOL    HW2 5958   2.538   6.110   4.325
 1687SOL     OW 5959   1.426   2.508   1.789
 1687SOL    HW1 5960   1.328   2.523   1.803
 1687SOL    HW2 5961   1.478   2.584   1.828
 1688SOL     OW 5962   1.882   1.425   3.778
 1688SOL    HW1 5963   1.825   1.402   3.699
 1688SOL    HW2 5964   1.905   1.522   3.775
 1689SOL     OW 5965   6.706   0.775   3.026
 1689SOL    HW1 5966   6.761   0.735   2.953
 1689SOL    HW2 5967   6.609   0.771   3.000
 1690SOL     OW 5968   1.567   2.694   4.813
 1690SOL    HW1 5969   1.564   2.615   4.752
 1690SOL    HW2 5970   1.582   2.777   4.759
 1691SOL     OW 5971   5.863   3.253   3.906
 1691SOL    HW1 5972   5.938   3.319   3.896
 1691SOL    HW2 5973   5.892   3.164   3.870
 1692SOL     OW 5974   4.181   5.940   1.539
 1692SOL    HW1 5975   4.270   5.959   1.498
 1692SOL    HW2 5976   4.193   5.908   1.633
 1693SOL     OW 5977   6.681   1.914   3.111
 1693SOL    HW1 5978   6.650   1.878   3.023
 1693SOL    HW2 5979   6.757   1.859   3.145
 1694SOL     OW 5980   6.655   1.579   3.788
 1694SOL    HW1 5981   6.722   1.592   3.715
 1694SOL    HW2 5982   6.636   1.482   3.799
 1695SOL     OW 5983   3.388   0.654   6.242
 1695SOL    HW1 5984   3.456   0.726   6.228
 1695SOL    HW2 5985   3.330   0.648   6.162
 1696SOL     OW 5986   3.319   6.067   1.341
 1696SOL    HW1 5987   3.333   5.999   1.268
 1696SOL    HW2 5988   3.248   6.035   1.403
 1697SOL     OW 5989   6.770   1.336   0.734
 1697SOL    HW1 5990   6.809   1.323   0.825
 1697SOL    HW2 5991   6.738   1.248   0.698
 1698SOL     OW 5992   3.895   0.144   1.478
 1698SOL    HW1 5993   3.914   0.197   1.395
 1698SOL    HW2 5994   3.829   0.072   1.457
 1699SOL     OW 5995   1.697   1.679   6.015
 1699SOL    HW1 5996   1.602   1.660   6.040
 1699SOL    HW2 5997   1.698   1.747   5.942
 1700SOL     OW 5998   6.507   4.418   2.879
 1700SOL    HW1 5999   6.584   4.445   2.822
 1700SOL    HW2 6000   6.454   4.347   2.833
 1701SOL     OW 6001   5.702   5.974   5.735
 1701SOL    HW1 6002   5.634   6.042   5.763
 1701SOL    HW2 6003   5.735   5.996   5.644
 1702SOL     OW 6004   6.707   1.323   1.362
 1702SOL    HW1 6005   6.730   1.237   1.317
 1702SOL    HW2 6006   6.788   1.381   1.367
 1703SOL     OW 6007   3.604   1.228   6.637
 1703SOL    HW1 6008   3.525   1.289   6.622
 1703SOL    HW2 6009   3.574   1.146   6.686
 1704SOL     OW 6010   1.006   2.499   0.163
 1704SOL    HW1 6011   1.025   2.460   0.253
 1704SOL    HW2 6012   0.909   2.491   0.143
 1705SOL     OW 6013   3.463   2.271   1.724
 1705SOL    HW1 6014   3.405   2.232   1.796
 1705SOL    HW2 6015   3.546   2.309   1.765
 1706SOL     OW 6016   4.057   1.902   2.191
 1706SOL    HW1 6017   4.106   1.856   2.266
 1706SOL    HW2 6018   4.093   1.871   2.103
 1707SOL     OW 6019   4.655   2.676   2.828
 1707SOL    HW1 6020   4.612   2.688   2.738
 1707SOL    HW2 6021   4.688   2.764   2.861
 1708SOL     OW 6022   4.416   5.340   1.891
 1708SOL    HW1 6023   4.477   5.418   1.878
 1708SOL    HW2 6024   4.344   5.342   1.823
 1709SOL     OW 6025   3.506   6.473   2.860
 1709SOL    HW1 6026   3.423   6.508   2.817
 1709SOL    HW2 6027   3.586   6.505   2.808
 1710SOL     OW 6028   4.275   4.874   3.503
 1710SOL    HW1 6029   4.330   4.835   3.577
 1710SOL    HW2 6030   4.267   4.808   3.429
 1711SOL     OW 6031   1.836   5.279   4.667
 1711SOL    HW1 6032   1.812   5.219   4.590
 1711SOL    HW2 6033   1.924   5.322   4.649
 1712SOL     OW 6034   6.790   2.322   4.991
 1712SOL    HW1 6035   6.821   2.393   5.055
 1712SOL    HW2 6036   6.848   2.241   5.001
 1713SOL     OW 6037   4.226   1.541   2.359
 1713SOL    HW1 6038   4.234   1.470   2.428
 1713SOL    HW2 6039   4.180   1.505   2.278
 1714SOL     OW 6040   3.924   1.685   5.956
 1714SOL    HW1 6041   3.883   1.596   5.941
 1714SOL    HW2 6042   3.866   1.740   6.016
 1715SOL     OW 6043   2.209   6.326   3.247
 1715SOL    HW1 6044   2.201   6.412   3.297
 1715SOL    HW2 6045   2.139   6.322   3.175
 1716SOL     OW 6046   3.880   0.132   3.966
 1716SOL    HW1 6047   3.825   0.205   4.007
 1716SOL    HW2 6048   3.927   0.167   3.885
 1717SOL     OW 6049   3.276   5.778   4.593
 1717SOL    HW1 6050   3.217   5.802   4.670
 1717SOL    HW2 6051   3.293   5.680   4.593
 1718SOL     OW 6052   2.663   1.191   2.280
 1718SOL    HW1 6053   2.581   1.213   2.333
 1718SOL    HW2 6054   2.730   1.264   2.293
 1719SOL     OW 6055   2.115   3.174   0.973
 1719SOL    HW1 6056   2.120   3.188   0.874
 1719SOL    HW2 6057   2.208   3.168   1.011
 1720SOL     OW 6058   0.071   3.101   6.196
 1720SOL    HW1 6059   0.010   3.101   6.276
 1720SOL    HW2 6060   0.119   3.014   6.190
 1721SOL     OW 6061   1.777   6.875   1.909
 1721SOL    HW1 6062   1.701   6.812   1.890
 1721SOL    HW2 6063   1.755   6.965   1.872
 1722SOL     OW 6064   4.057   1.319   3.916
 1722SOL    HW1 6065   4.028   1.224   3.910
 1722SOL    HW2 6066   4.009   1.374   3.848
 1723SOL     OW 6067   5.211   2.564   7.004
 1723SOL    HW1 6068   5.299   2.528   6.977
 1723SOL    HW2 6069   5.138   2.501   6.975
 1724SOL     OW 6070   0.123   2.946   2.108
 1724SOL    HW1 6071   0.038   2.950   2.057
 1724SOL    HW2 6072   0.196   2.912   2.049
 1725SOL     OW 6073   1.908   4.810   6.720
 1725SOL    HW1 6074   1.862   4.874   6.659
 1725SOL    HW2 6075   1.984   4.856   6.766
 1726SOL     OW 6076   5.160   3.758   4.538
 1726SOL    HW1 6077   5.166   3.854   4.566
 1726SOL    HW2 6078   5.219   3.703   4.596
 1727SOL     OW 6079   4.138   3.404   3.419
 1727SOL    HW1 6080   4.100   3.336   3.356
 1727SOL    HW2 6081   4.107   3.495   3.391
 1728SOL     OW 6082   5.706   4.724   5.797
 1728SOL    HW1 6083   5.696   4.752   5.892
 1728SOL    HW2 6084   5.644   4.648   5.778
 1729SOL     OW 6085   1.974   3.559   2.941
 1729SOL    HW1 6086   1.969   3.490   2.868
 1729SOL    HW2 6087   1.918   3.530   3.018
 1730SOL     OW 6088   2.463   0.054   4.845
 1730SOL    HW1 6089   2.475   6.985   4.807
 1730SOL    HW2 6090   2.504   0.121   4.783
 1731SOL     OW 6091   0.289   4.105   3.448
 1731SOL    HW1 6092   0.323   4.128   3.539
 1731SOL    HW2 6093   0.189   4.101   3.449
 1732SOL     OW 6094   2.281   4.556   6.587
 1732SOL    HW1 6095   2.291   4.568   6.488
 1732SOL    HW2 6096   2.338   4.480   6.618
 1733SOL     OW 6097   1.947   4.094   1.665
 1733SOL    HW1 6098   1.922   4.177   1.616
 1733SOL    HW2 6099   1.957   4.114   1.763
 1734SOL     OW 6100   5.388   3.104   1.813
 1734SOL    HW1 6101   5.477   3.143   1.789
 1734SOL    HW2 6102   5.373   3.112   1.911
 1735SOL     OW 6103   4.941   5.618   6.405
 1735SOL    HW1 6104   5.015   5.666   6.357
 1735SOL    HW2 6105   4.976   5.532   6.442
 1736SOL     OW 6106   4.096   3.746   0.827
 1736SOL    HW1 6107   4.104   3.846   0.832
 1736SOL    HW2 6108   4.063   3.711   0.914
 1737SOL     OW 6109   5.188   6.827   4.870
 1737SOL    HW1 6110   5.233   6.869   4.949
 1737SOL    HW2 6111   5.208   6.880   4.788
 1738SOL     OW 6112   2.383   2.685   4.002
 1738SOL    HW1 6113   2.322   2.651   4.074
 1738SOL    HW2 6114   2.373   2.784   3.994
 1739SOL     OW 6115   6.835   1.792   4.699
 1739SOL    HW1 6116   6.835   1.831   4.791
 1739SOL    HW2 6117   6.895   1.847   4.640
 1740SOL     OW 6118   0.108   1.931   5.169
 1740SOL    HW1 6119   0.111   1.922   5.069
 1740SOL    HW2 6120   0.144   2.020   5.196
 1741SOL     OW 6121   2.499   0.883   4.904
 1741SOL    HW1 6122   2.496   0.798   4.850
 1741SOL    HW2 6123   2.548   0.953   4.852
 1742SOL     OW 6124   5.439   0.740   5.451
 1742SOL    HW1 6125   5.345   0.730   5.483
 1742SOL    HW2 6126   5.500   0.753   5.530
 1743SOL     OW 6127   0.664   0.985   2.422
 1743SOL    HW1 6128   0.620   0.939   2.499
 1743SOL    HW2 6129   0.762   0.995   2.441
 1744SOL     OW 6130   5.670   3.426   3.187
 1744SOL    HW1 6131   5.608   3.358   3.227
 1744SOL    HW2 6132   5.763   3.410   3.223
 1745SOL     OW 6133   5.491   6.527   2.718
 1745SOL    HW1 6134   5.475   6.429   2.735
 1745SOL    HW2 6135   5.588   6.548   2.734
 1746SOL     OW 6136   1.637   4.428   4.296
 1746SOL    HW1 6137   1.675   4.475   4.376
 1746SOL    HW2 6138   1.552   4.383   4.321
 1747SOL     OW 6139   3.467   1.209   2.449
 1747SOL    HW1 6140   3.474   1.301   2.486
 1747SOL    HW2 6141   3.520   1.202   2.364
 1748SOL     OW 6142   6.828   1.890   4.288
 1748SOL    HW1 6143   6.822   1.948   4.369
 1748SOL    HW2 6144   6.924   1.872   4.267
 1749SOL     OW 6145   1.931   0.098   6.309
 1749SOL    HW1 6146   2.004   0.133   6.250
 1749SOL    HW2 6147   1.940   0.136   6.401
 1750SOL     OW 6148   5.947   0.327   4.134
 1750SOL    HW1 6149   5.926   0.424   4.122
 1750SOL    HW2 6150   5.937   0.302   4.230
 1751SOL     OW 6151   5.263   1.710   4.822
 1751SOL    HW1 6152   5.332   1.652   4.781
 1751SOL    HW2 6153   5.290   1.806   4.813
 1752SOL     OW 6154   5.684   0.545   1.188
 1752SOL    HW1 6155   5.690   0.592   1.276
 1752SOL    HW2 6156   5.759   0.479   1.180
 1753SOL     OW 6157   6.879   0.261   1.507
 1753SOL    HW1 6158   6.910   0.244   1.601
 1753SOL    HW2 6159   6.955   0.298   1.453
 1754SOL     OW 6160   2.077   5.366   6.310
 1754SOL    HW1 6161   2.171   5.389   6.284
 1754SOL    HW2 6162   2.030   5.324   6.233
 1755SOL     OW 6163   0.339   6.180   6.748
 1755SOL    HW1 6164   0.408   6.169   6.676
 1755SOL    HW2 6165   0.311   6.276   6.753
 1756SOL     OW 6166   4.182   5.594   6.516
 1756SOL    HW1 6167   4.194   5.496   6.529
 1756SOL    HW2 6168   4.237   5.644   6.583
 1757SOL     OW 6169   3.458   5.867   5.285
 1757SOL    HW1 6170   3.421   5.940   5.226
 1757SOL    HW2 6171   3.422   5.779   5.256
 1758SOL     OW 6172   1.537   1.266   4.582
 1758SOL    HW1 6173   1.572   1.283   4.490
 1758SOL    HW2 6174   1.452   1.214   4.576
 1759SOL     OW 6175   2.744   6.659   5.390
 1759SOL    HW1 6176   2.756   6.756   5.412
 1759SOL    HW2 6177   2.731   6.608   5.475
 1760SOL     OW 6178   6.238   0.998   4.038
 1760SOL    HW1 6179   6.298   1.030   3.965
 1760SOL    HW2 6180   6.259   0.902   4.059
 1761SOL     OW 6181   0.166   1.023   1.741
 1761SOL    HW1 6182   0.260   1.057   1.750
 1761SOL    HW2 6183   0.106   1.097   1.710
 1762SOL     OW 6184   0.136   1.688   4.450
 1762SOL    HW1 6185   0.038   1.687   4.430
 1762SOL    HW2 6186   0.169   1.594   4.458
 1763SOL     OW 6187   1.281   4.891   4.500
 1763SOL    HW1 6188   1.352   4.947   4.542
 1763SOL    HW2 6189   1.196   4.900   4.554
 1764SOL     OW 6190   1.241   3.233   2.022
 1764SOL    HW1 6191   1.274   3.154   1.970
 1764SOL    HW2 6192   1.313   3.265   2.083
 1765SOL     OW 6193   3.394   1.488   1.502
 1765SOL    HW1 6194   3.329   1.422   1.466
 1765SOL    HW2 6195   3.487   1.450   1.499
 1766SOL     OW 6196   5.673   4.623   3.864
 1766SOL    HW1 6197   5.754   4.617   3.806
 1766SOL    HW2 6198   5.621   4.538   3.857
 1767SOL     OW 6199   0.913   4.756   3.459
 1767SOL    HW1 6200   0.996   4.813   3.457
 1767SOL    HW2 6201   0.869   4.765   3.548
 1768SOL     OW 6202   3.713   1.080   6.893
 1768SOL    HW1 6203   3.683   1.018   6.821
 1768SOL    HW2 6204   3.807   1.058   6.919
 1769SOL     OW 6205   6.030   0.891   6.888
 1769SOL    HW1 6206   5.994   0.808   6.930
 1769SOL    HW2 6207   6.127   0.879   6.867
 1770SOL     OW 6208   0.625   4.654   5.114
 1770SOL    HW1 6209   0.647   4.558   5.133
 1770SOL    HW2 6210   0.707   4.710   5.126
 1771SOL     OW 6211   1.529   5.276   0.558
 1771SOL    HW1 6212   1.572   5.335   0.490
 1771SOL    HW2 6213   1.553   5.180   0.539
 1772SOL     OW 6214   3.509   5.852   3.950
 1772SOL    HW1 6215   3.494   5.892   3.860
 1772SOL    HW2 6216   3.530   5.755   3.941
 1773SOL     OW 6217   2.059   2.266   6.080
 1773SOL    HW1 6218   2.038   2.351   6.030
 1773SOL    HW2 6219   2.151   2.234   6.054
 1774SOL     OW 6220   5.484   6.342   1.808
 1774SOL    HW1 6221   5.583   6.349   1.820
 1774SOL    HW2 6222   5.463   6.271   1.741
 1775SOL     OW 6223   2.158   5.564   5.910
 1775SOL    HW1 6224   2.247   5.519   5.906
 1775SOL    HW2 6225   2.137   5.606   5.822
 1776SOL     OW 6226   4.839   0.673   6.113
 1776SOL    HW1 6227   4.769   0.616   6.156
 1776SOL    HW2 6228   4.888   0.724   6.184
 1777SOL     OW 6229   3.356   6.767   6.516
 1777SOL    HW1 6230   3.436   6.776   6.576
 1777SOL    HW2 6231   3.306   6.854   6.516
 1778SOL     OW 6232   4.747   2.128   4.434
 1778SOL    HW1 6233   4.690   2.053   4.400
 1778SOL    HW2 6234   4.827   2.090   4.480
 1779SOL     OW 6235   4.693   0.511   5.895
 1779SOL    HW1 6236   4.736   0.477   5.812
 1779SOL    HW2 6237   4.763   0.547   5.957
 1780SOL     OW 6238   1.877   3.743   5.300
 1780SOL    HW1 6239   1.967   3.739   5.345
 1780SOL    HW2 6240   1.865   3.833   5.258
 1781SOL     OW 6241   5.255   6.877   5.463
 1781SOL    HW1 6242   5.309   6.944   5.412
 1781SOL    HW2 6243   5.224   6.804   5.401
 1782SOL     OW 6244   2.694   1.124   3.056
 1782SOL    HW1 6245   2.601   1.103   3.085
 1782SOL    HW2 6246   2.699   1.125   2.956
 1783SOL     OW 6247   2.574   3.789   6.381
 1783SOL    HW1 6248   2.496   3.848   6.398
 1783SOL    HW2 6249   2.606   3.803   6.287
 1784SOL     OW 6250   2.290   1.386   1.275
 1784SOL    HW1 6251   2.196   1.362   1.253
 1784SOL    HW2 6252   2.305   1.375   1.374
 1785SOL     OW 6253   6.731   6.817   4.334
 1785SOL    HW1 6254   6.633   6.831   4.352
 1785SOL    HW2 6255   6.759   6.873   4.256
 1786SOL     OW 6256   1.983   5.352   0.130
 1786SOL    HW1 6257   1.929   5.336   0.213
 1786SOL    HW2 6258   2.080   5.347   0.153
 1787SOL     OW 6259   1.870   2.342   5.725
 1787SOL    HW1 6260   1.816   2.270   5.681
 1787SOL    HW2 6261   1.967   2.327   5.704
 1788SOL     OW 6262   4.767   4.035   6.654
 1788SOL    HW1 6263   4.825   4.111   6.684
 1788SOL    HW2 6264   4.675   4.070   6.633
 1789SOL     OW 6265   5.932   3.012   1.382
 1789SOL    HW1 6266   5.963   3.108   1.381
 1789SOL    HW2 6267   5.917   2.983   1.476
 1790SOL     OW 6268   2.818   1.424   4.184
 1790SOL    HW1 6269   2.846   1.518   4.202
 1790SOL    HW2 6270   2.737   1.402   4.238
 1791SOL     OW 6271   0.113   1.298   3.652
 1791SOL    HW1 6272   0.202   1.341   3.670
 1791SOL    HW2 6273   0.042   1.368   3.650
 1792SOL     OW 6274   0.088   2.125   4.533
 1792SOL    HW1 6275   0.139   2.181   4.598
 1792SOL    HW2 6276   0.151   2.064   4.485
 1793SOL     OW 6277   6.620   1.709   4.376
 1793SOL    HW1 6278   6.568   1.740   4.455
 1793SOL    HW2 6279   6.646   1.788   4.320
 1794SOL     OW 6280   5.610   6.883   5.582
 1794SOL    HW1 6281   5.689   6.891   5.643
 1794SOL    HW2 6282   5.572   6.791   5.589
 1795SOL     OW 6283   6.377   4.943   1.297
 1795SOL    HW1 6284   6.414   4.861   1.253
 1795SOL    HW2 6285   6.402   4.943   1.394
 1796SOL     OW 6286   2.036   1.413   5.722
 1796SOL    HW1 6287   1.967   1.405   5.794
 1796SOL    HW2 6288   2.009   1.485   5.658
 1797SOL     OW 6289   1.268   6.943   5.655
 1797SOL    HW1 6290   1.204   6.961   5.580
 1797SOL    HW2 6291   1.361   6.961   5.624
 1798SOL     OW 6292   3.504   3.011   5.092
 1798SOL    HW1 6293   3.424   2.966   5.131
 1798SOL    HW2 6294   3.487   3.109   5.085
 1799SOL     OW 6295   3.792   2.653   6.569
 1799SOL    HW1 6296   3.837   2.636   6.657
 1799SOL    HW2 6297   3.861   2.683   6.503
 1800SOL     OW 6298   5.073   4.831   3.778
 1800SOL    HW1 6299   5.029   4.914   3.813
 1800SOL    HW2 6300   5.058   4.826   3.679
 1801SOL     OW 6301   0.992   2.127   1.994
 1801SOL    HW1 6302   1.013   2.044   2.045
 1801SOL    HW2 6303   0.952   2.103   1.905
 1802SOL     OW 6304   6.366   5.993   3.198
 1802SOL    HW1 6305   6.416   5.967   3.280
 1802SOL    HW2 6306   6.412   6.071   3.155
 1803SOL     OW 6307   0.013   6.485   2.434
 1803SOL    HW1 6308   0.097   6.515   2.479
 1803SOL    HW2 6309   0.034   6.455   2.341
 1804SOL     OW 6310   3.779   3.302   5.196
 1804SOL    HW1 6311   3.756   3.284   5.100
 1804SOL    HW2 6312   3.850   3.373   5.200
 1805SOL     OW 6313   0.907   5.445   5.987
 1805SOL    HW1 6314   0.903   5.476   5.892
 1805SOL    HW2 6315   1.001   5.416   6.008
 1806SOL     OW 6316   0.394   2.510   1.824
 1806SOL    HW1 6317   0.312   2.466   1.860
 1806SOL    HW2 6318   0.429   2.457   1.747
 1807SOL     OW 6319   6.026   3.474   0.010
 1807SOL    HW1 6320   5.989   3.549   6.979
 1807SOL    HW2 6321   5.959   3.445   0.078
 1808SOL     OW 6322   5.972   3.601   4.338
 1808SOL    HW1 6323   6.061   3.618   4.380
 1808SOL    HW2 6324   5.900   3.631   4.400
 1809SOL     OW 6325   3.096   1.136   4.852
 1809SOL    HW1 6326   3.069   1.175   4.764
 1809SOL    HW2 6327   3.092   1.206   4.923
 1810SOL     OW 6328   0.208   0.743   5.310
 1810SOL    HW1 6329   0.185   0.651   5.279
 1810SOL    HW2 6330   0.208   0.806   5.232
 1811SOL     OW 6331   5.264   4.495   1.743
 1811SOL    HW1 6332   5.213   4.418   1.781
 1811SOL    HW2 6333   5.217   4.580   1.764
 1812SOL     OW 6334   4.198   6.706   6.546
 1812SOL    HW1 6335   4.202   6.805   6.565
 1812SOL    HW2 6336   4.187   6.691   6.448
 1813SOL     OW 6337   4.878   4.069   2.187
 1813SOL    HW1 6338   4.828   4.146   2.146
 1813SOL    HW2 6339   4.824   4.032   2.263
 1814SOL     OW 6340   6.157   6.744   0.700
 1814SOL    HW1 6341   6.103   6.827   0.713
 1814SOL    HW2 6342   6.248   6.756   0.740
 1815SOL     OW 6343   6.035   6.821   2.638
 1815SOL    HW1 6344   6.029   6.827   2.738
 1815SOL    HW2 6345   6.038   6.913   2.599
 1816SOL     OW 6346   3.610   5.386   6.363
 1816SOL    HW1 6347   3.649   5.394   6.272
 1816SOL    HW2 6348   3.595   5.290   6.385
 1817SOL     OW 6349   3.475   1.329   3.142
 1817SOL    HW1 6350   3.472   1.398   3.215
 1817SOL    HW2 6351   3.557   1.343   3.086
 1818SOL     OW 6352   2.033   6.352   0.615
 1818SOL    HW1 6353   2.089   6.365   0.532
 1818SOL    HW2 6354   1.950   6.406   0.607
 1819SOL     OW 6355   1.499   5.182   2.460
 1819SOL    HW1 6356   1.453   5.215   2.542
 1819SOL    HW2 6357   1.441   5.199   2.380
 1820SOL     OW 6358   3.852   0.341   2.753
 1820SOL    HW1 6359   3.942   0.355   2.795
 1820SOL    HW2 6360   3.849   0.388   2.665
 1821SOL     OW 6361   3.485   1.360   2.039
 1821SOL    HW1 6362   3.451   1.266   2.032
 1821SOL    HW2 6363   3.520   1.376   2.131
 1822SOL     OW 6364   1.413   3.456   1.737
 1822SOL    HW1 6365   1.495   3.513   1.747
 1822SOL    HW2 6366   1.440   3.360   1.733
 1823SOL     OW 6367   3.261   6.050   3.303
 1823SOL    HW1 6368   3.320   6.003   3.238
 1823SOL    HW2 6369   3.316   6.109   3.362
 1824SOL     OW 6370   3.957   3.891   0.259
 1824SOL    HW1 6371   3.890   3.905   0.331
 1824SOL    HW2 6372   3.917   3.913   0.170
 1825SOL     OW 6373   0.275   3.115   5.037
 1825SOL    HW1 6374   0.295   3.206   5.072
 1825SOL    HW2 6375   0.336   3.094   4.961
 1826SOL     OW 6376   3.913   1.458   0.508
 1826SOL    HW1 6377   3.891   1.436   0.603
 1826SOL    HW2 6378   3.842   1.518   0.470
 1827SOL     OW 6379   4.965   5.662   1.104
 1827SOL    HW1 6380   4.944   5.760   1.100
 1827SOL    HW2 6381   4.925   5.622   1.186
 1828SOL     OW 6382   1.756   3.520   6.553
 1828SOL    HW1 6383   1.668   3.536   6.509
 1828SOL    HW2 6384   1.742   3.464   6.635
 1829SOL     OW 6385   3.593   0.235   3.442
 1829SOL    HW1 6386   3.508   0.189   3.469
 1829SOL    HW2 6387   3.574   0.299   3.368
 1830SOL     OW 6388   5.712   6.872   5.095
 1830SOL    HW1 6389   5.770   6.806   5.047
 1830SOL    HW2 6390   5.722   6.962   5.053
 1831SOL     OW 6391   4.847   5.986   2.656
 1831SOL    HW1 6392   4.801   5.975   2.568
 1831SOL    HW2 6393   4.880   6.080   2.665
 1832SOL     OW 6394   2.849   3.425   0.030
 1832SOL    HW1 6395   2.799   3.386   0.107
 1832SOL    HW2 6396   2.941   3.451   0.059
 1833SOL     OW 6397   5.211   0.208   1.141
 1833SOL    HW1 6398   5.191   0.297   1.100
 1833SOL    HW2 6399   5.210   0.217   1.241
 1834SOL     OW 6400   2.321   2.702   1.203
 1834SOL    HW1 6401   2.288   2.758   1.127
 1834SOL    HW2 6402   2.400   2.745   1.245
 1835SOL     OW 6403   0.984   4.787   2.039
 1835SOL    HW1 6404   0.964   4.869   1.986
 1835SOL    HW2 6405   0.916   4.717   2.021
 1836SOL     OW 6406   5.765   2.474   2.073
 1836SOL    HW1 6407   5.706   2.426   2.138
 1836SOL    HW2 6408   5.848   2.420   2.057
 1837SOL     OW 6409   2.146   0.461   5.679
 1837SOL    HW1 6410   2.236   0.498   5.702
 1837SOL    HW2 6411   2.155   0.364   5.656
 1838SOL     OW 6412   6.521   0.526   6.735
 1838SOL    HW1 6413   6.424   0.540   6.752
 1838SOL    HW2 6414   6.558   0.604   6.684
 1839SOL     OW 6415   6.400   1.863   6.633
 1839SOL    HW1 6416   6.419   1.901   6.723
 1839SOL    HW2 6417   6.486   1.849   6.584
 1840SOL     OW 6418   3.981   0.602   2.640
 1840SOL    HW1 6419   4.026   0.663   2.706
 1840SOL    HW2 6420   3.909   0.652   2.593
 1841SOL     OW 6421   2.222   0.706   2.962
 1841SOL    HW1 6422   2.302   0.650   2.982
 1841SOL    HW2 6423   2.185   0.681   2.873
 1842SOL     OW 6424   1.281   5.086   0.646
 1842SOL    HW1 6425   1.278   5.114   0.550
 1842SOL    HW2 6426   1.321   5.159   0.701
 1843SOL     OW 6427   4.910   0.432   4.101
 1843SOL    HW1 6428   4.858   0.494   4.042
 1843SOL    HW2 6429   5.001   0.469   4.116
 1844SOL     OW 6430   5.001   1.672   5.212
 1844SOL    HW1 6431   4.995   1.584   5.260
 1844SOL    HW2 6432   4.911   1.716   5.212
 1845SOL     OW 6433   3.017   0.101   3.646
 1845SOL    HW1 6434   2.988   0.154   3.725
 1845SOL    HW2 6435   2.976   0.010   3.650
 1846SOL     OW 6436   5.334   1.514   3.365
 1846SOL    HW1 6437   5.346   1.420   3.397
 1846SOL    HW2 6438   5.320   1.514   3.266
 1847SOL     OW 6439   1.622   0.141   4.882
 1847SOL    HW1 6440   1.544   0.155   4.821
 1847SOL    HW2 6441   1.662   0.229   4.906
 1848SOL     OW 6442   1.828   6.415   3.902
 1848SOL    HW1 6443   1.882   6.472   3.964
 1848SOL    HW2 6444   1.733   6.413   3.933
 1849SOL     OW 6445   4.896   2.987   1.757
 1849SOL    HW1 6446   4.879   3.027   1.667
 1849SOL    HW2 6447   4.821   3.008   1.818
 1850SOL     OW 6448   5.367   1.432   2.256
 1850SOL    HW1 6449   5.282   1.483   2.246
 1850SOL    HW2 6450   5.427   1.452   2.178
 1851SOL     OW 6451   0.811   3.253   0.052
 1851SOL    HW1 6452   0.712   3.241   0.053
 1851SOL    HW2 6453   0.840   3.283   6.983
 1852SOL     OW 6454   0.056   4.941   1.242
 1852SOL    HW1 6455   0.106   5.027   1.233
 1852SOL    HW2 6456   0.120   4.865   1.235
 1853SOL     OW 6457   0.058   2.100   3.360
 1853SOL    HW1 6458   0.083   2.054   3.275
 1853SOL    HW2 6459   0.132   2.161   3.388
 1854SOL     OW 6460   1.401   5.385   3.207
 1854SOL    HW1 6461   1.454   5.425   3.281
 1854SOL    HW2 6462   1.462   5.352   3.135
 1855SOL     OW 6463   5.184   3.035   4.878
 1855SOL    HW1 6464   5.194   2.935   4.876
 1855SOL    HW2 6465   5.274   3.077   4.886
 1856SOL     OW 6466   4.022   3.704   6.763
 1856SOL    HW1 6467   3.935   3.747   6.737
 1856SOL    HW2 6468   4.030   3.615   6.719
 1857SOL     OW 6469   5.198   1.009   0.513
 1857SOL    HW1 6470   5.234   0.959   0.592
 1857SOL    HW2 6471   5.151   1.092   0.545
 1858SOL     OW 6472   5.331   2.857   3.222
 1858SOL    HW1 6473   5.272   2.777   3.208
 1858SOL    HW2 6474   5.398   2.862   3.149
 1859SOL     OW 6475   4.842   2.018   3.838
 1859SOL    HW1 6476   4.781   1.940   3.825
 1859SOL    HW2 6477   4.935   1.993   3.808
 1860SOL     OW 6478   1.022   2.068   5.276
 1860SOL    HW1 6479   0.982   2.131   5.208
 1860SOL    HW2 6480   0.950   2.012   5.316
 1861SOL     OW 6481   5.298   0.420   3.192
 1861SOL    HW1 6482   5.258   0.510   3.174
 1861SOL    HW2 6483   5.388   0.431   3.233
 1862SOL     OW 6484   1.123   7.016   0.273
 1862SOL    HW1 6485   1.134   6.916   0.272
 1862SOL    HW2 6486   1.213   0.037   0.275
 1863SOL     OW 6487   6.756   2.974   1.699
 1863SOL    HW1 6488   6.782   2.886   1.658
 1863SOL    HW2 6489   6.816   3.046   1.666
 1864SOL     OW 6490   3.254   5.911   4.054
 1864SOL    HW1 6491   3.234   5.909   4.152
 1864SOL    HW2 6492   3.348   5.881   4.038
 1865SOL     OW 6493   3.481   1.252   1.300
 1865SOL    HW1 6494   3.499   1.326   1.235
 1865SOL    HW2 6495   3.410   1.191   1.263
 1866SOL     OW 6496   6.408   4.515   3.859
 1866SOL    HW1 6497   6.453   4.427   3.852
 1866SOL    HW2 6498   6.476   4.587   3.870
 1867SOL     OW 6499   2.440   2.972   1.666
 1867SOL    HW1 6500   2.347   2.947   1.640
 1867SOL    HW2 6501   2.444   3.071   1.684
 1868SOL     OW 6502   4.718   3.521   5.572
 1868SOL    HW1 6503   4.742   3.522   5.669
 1868SOL    HW2 6504   4.729   3.612   5.533
 1869SOL     OW 6505   5.313   2.791   3.933
 1869SOL    HW1 6506   5.395   2.817   3.983
 1869SOL    HW2 6507   5.338   2.761   3.841
 1870SOL     OW 6508   0.594   3.334   4.753
 1870SOL    HW1 6509   0.595   3.420   4.804
 1870SOL    HW2 6510   0.682   3.289   4.762
 1871SOL     OW 6511   7.022   6.830   0.214
 1871SOL    HW1 6512   0.015   6.921   0.177
 1871SOL    HW2 6513   0.071   6.809   0.281
 1872SOL     OW 6514   3.145   2.541   0.555
 1872SOL    HW1 6515   3.149   2.554   0.654
 1872SOL    HW2 6516   3.086   2.462   0.534
 1873SOL     OW 6517   6.099   0.849   5.809
 1873SOL    HW1 6518   6.121   0.947   5.811
 1873SOL    HW2 6519   6.004   0.835   5.837
 1874SOL     OW 6520   1.231   1.086   6.849
 1874SOL    HW1 6521   1.150   1.117   6.900
 1874SOL    HW2 6522   1.205   1.014   6.785
 1875SOL     OW 6523   6.482   6.500   0.720
 1875SOL    HW1 6524   6.537   6.578   0.752
 1875SOL    HW2 6525   6.424   6.529   0.644
 1876SOL     OW 6526   5.126   0.009   6.140
 1876SOL    HW1 6527   5.200   0.041   6.081
 1876SOL    HW2 6528   5.121   0.067   6.222
 1877SOL     OW 6529   6.869   1.712   3.072
 1877SOL    HW1 6530   6.803   1.663   3.015
 1877SOL    HW2 6531   6.872   1.670   3.163
 1878SOL     OW 6532   6.861   4.268   3.579
 1878SOL    HW1 6533   6.777   4.264   3.525
 1878SOL    HW2 6534   6.936   4.227   3.528
 1879SOL     OW 6535   2.711   5.401   4.024
 1879SOL    HW1 6536   2.764   5.465   4.080
 1879SOL    HW2 6537   2.760   5.314   4.018
 1880SOL     OW 6538   0.943   2.437   3.180
 1880SOL    HW1 6539   0.895   2.491   3.110
 1880SOL    HW2 6540   0.954   2.343   3.148
 1881SOL     OW 6541   0.955   2.392   3.676
 1881SOL    HW1 6542   0.955   2.378   3.577
 1881SOL    HW2 6543   1.048   2.409   3.707
 1882SOL     OW 6544   1.132   6.110   6.532
 1882SOL    HW1 6545   1.172   6.159   6.609
 1882SOL    HW2 6546   1.189   6.123   6.451
 1883SOL     OW 6547   1.527   3.564   3.702
 1883SOL    HW1 6548   1.428   3.563   3.716
 1883SOL    HW2 6549   1.568   3.487   3.750
 1884SOL     OW 6550   5.057   1.030   1.794
 1884SOL    HW1 6551   5.133   1.094   1.811
 1884SOL    HW2 6552   5.045   1.018   1.695
 1885SOL     OW 6553   6.350   1.899   0.677
 1885SOL    HW1 6554   6.253   1.915   0.693
 1885SOL    HW2 6555   6.396   1.987   0.665
 1886SOL     OW 6556   2.110   2.213   6.762
 1886SOL    HW1 6557   2.210   2.201   6.756
 1886SOL    HW2 6558   2.066   2.124   6.755
 1887SOL     OW 6559   0.006   4.048   6.040
 1887SOL    HW1 6560   6.940   4.004   6.025
 1887SOL    HW2 6561   7.017   4.147   6.042
 1888SOL     OW 6562   2.283   1.587   6.101
 1888SOL    HW1 6563   2.287   1.624   6.009
 1888SOL    HW2 6564   2.348   1.636   6.160
 1889SOL     OW 6565   4.499   4.101   6.579
 1889SOL    HW1 6566   4.420   4.093   6.640
 1889SOL    HW2 6567   4.487   4.180   6.520
 1890SOL     OW 6568   1.885   5.613   6.068
 1890SOL    HW1 6569   1.868   5.709   6.045
 1890SOL    HW2 6570   1.964   5.580   6.016
 1891SOL     OW 6571   5.130   2.573   4.697
 1891SOL    HW1 6572   5.136   2.473   4.702
 1891SOL    HW2 6573   5.221   2.611   4.684
 1892SOL     OW 6574   3.588   5.855   1.344
 1892SOL    HW1 6575   3.599   5.953   1.359
 1892SOL    HW2 6576   3.492   5.835   1.324
 1893SOL     OW 6577   3.565   2.120   4.736
 1893SOL    HW1 6578   3.659   2.096   4.762
 1893SOL    HW2 6579   3.543   2.211   4.771
 1894SOL     OW 6580   4.138   3.420   1.627
 1894SOL    HW1 6581   4.054   3.402   1.679
 1894SOL    HW2 6582   4.114   3.451   1.535
 1895SOL     OW 6583   6.271   0.411   2.593
 1895SOL    HW1 6584   6.185   0.430   2.544
 1895SOL    HW2 6585   6.330   0.354   2.536
 1896SOL     OW 6586   6.756   0.939   3.241
 1896SOL    HW1 6587   6.713   0.888   3.166
 1896SOL    HW2 6588   6.855   0.942   3.227
 1897SOL     OW 6589   6.455   5.365   3.157
 1897SOL    HW1 6590   6.406   5.380   3.243
 1897SOL    HW2 6591   6.466   5.452   3.109
 1898SOL     OW 6592   3.733   6.191   1.330
 1898SOL    HW1 6593   3.780   6.278   1.313
 1898SOL    HW2 6594   3.700   6.188   1.424
 1899SOL     OW 6595   1.144   3.272   2.836
 1899SOL    HW1 6596   1.141   3.181   2.794
 1899SOL    HW2 6597   1.226   3.279   2.893
 1900SOL     OW 6598   1.214   0.118   6.025
 1900SOL    HW1 6599   1.274   0.185   5.981
 1900SOL    HW2 6600   1.228   0.028   5.983
 1901SOL     OW 6601   1.991   1.316   0.653
 1901SOL    HW1 6602   1.994   1.408   0.615
 1901SOL    HW2 6603   2.015   1.250   0.582
 1902SOL     OW 6604   1.694   2.525   5.045
 1902SOL    HW1 6605   1.630   2.481   5.108
 1902SOL    HW2 6606   1.643   2.579   4.978
 1903SOL     OW 6607   6.944   3.863   3.684
 1903SOL    HW1 6608   6.890   3.855   3.768
 1903SOL    HW2 6609   6.922   3.787   3.623
 1904SOL     OW 6610   6.945   0.182   4.398
 1904SOL    HW1 6611   6.850   0.213   4.406
 1904SOL    HW2 6612   6.991   0.234   4.326
 1905SOL     OW 6613   0.541   2.417   3.801
 1905SOL    HW1 6614   0.511   2.487   3.867
 1905SOL    HW2 6615   0.499   2.435   3.712
 1906SOL     OW 6616   2.875   0.317   5.388
 1906SOL    HW1 6617   2.968   0.323   5.423
 1906SOL    HW2 6618   2.859   0.225   5.352
 1907SOL     OW 6619   3.546   7.016   3.632
 1907SOL    HW1 6620   3.642   6.990   3.630
 1907SOL    HW2 6621   3.510   7.006   3.725
 1908SOL     OW 6622   4.544   0.854   4.964
 1908SOL    HW1 6623   4.594   0.796   5.027
 1908SOL    HW2 6624   4.603   0.928   4.933
 1909SOL     OW 6625   2.249   3.974   3.727
 1909SOL    HW1 6626   2.270   4.037   3.802
 1909SOL    HW2 6627   2.166   4.006   3.680
 1910SOL     OW 6628   5.535   2.612   6.295
 1910SOL    HW1 6629   5.498   2.694   6.252
 1910SOL    HW2 6630   5.466   2.540   6.294
 1911SOL     OW 6631   6.571   1.997   5.524
 1911SOL    HW1 6632   6.621   1.911   5.513
 1911SOL    HW2 6633   6.542   2.006   5.620
 1912SOL     OW 6634   3.711   6.581   2.676
 1912SOL    HW1 6635   3.698   6.537   2.587
 1912SOL    HW2 6636   3.808   6.584   2.698
 1913SOL     OW 6637   1.648   6.256   5.352
 1913SOL    HW1 6638   1.636   6.349   5.318
 1913SOL    HW2 6639   1.698   6.259   5.439
 1914SOL     OW 6640   2.648   2.518   6.713
 1914SOL    HW1 6641   2.594   2.447   6.668
 1914SOL    HW2 6642   2.645   2.602   6.660
 1915SOL     OW 6643   3.607   1.309   5.516
 1915SOL    HW1 6644   3.513   1.332   5.544
 1915SOL    HW2 6645   3.651   1.390   5.478
 1916SOL     OW 6646   3.660   5.475   0.872
 1916SOL    HW1 6647   3.566   5.509   0.880
 1916SOL    HW2 6648   3.723   5.553   0.874
 1917SOL     OW 6649   3.923   3.465   4.749
 1917SOL    HW1 6650   3.863   3.486   4.672
 1917SOL    HW2 6651   4.016   3.451   4.716
 1918SOL     OW 6652   6.645   6.260   6.222
 1918SOL    HW1 6653   6.567   6.207   6.187
 1918SOL    HW2 6654   6.614   6.351   6.248
 1919SOL     OW 6655   1.095   6.840   2.303
 1919SOL    HW1 6656   1.170   6.811   2.243
 1919SOL    HW2 6657   1.132   6.860   2.394
 1920SOL     OW 6658   0.603   4.748   3.074
 1920SOL    HW1 6659   0.659   4.794   3.143
 1920SOL    HW2 6660   0.642   4.763   2.984
 1921SOL     OW 6661   0.613   5.002   0.094
 1921SOL    HW1 6662   0.610   4.959   0.003
 1921SOL    HW2 6663   0.521   5.033   0.118
 1922SOL     OW 6664   3.635   3.490   1.223
 1922SOL    HW1 6665   3.557   3.528   1.272
 1922SOL    HW2 6666   3.710   3.473   1.287
 1923SOL     OW 6667   2.907   1.015   6.905
 1923SOL    HW1 6668   2.881   0.996   6.999
 1923SOL    HW2 6669   2.828   1.002   6.845
 1924SOL     OW 6670   5.630   5.651   2.710
 1924SOL    HW1 6671   5.689   5.669   2.788
 1924SOL    HW2 6672   5.663   5.570   2.661
 1925SOL     OW 6673   2.929   3.762   1.894
 1925SOL    HW1 6674   2.946   3.854   1.858
 1925SOL    HW2 6675   2.945   3.762   1.993
 1926SOL     OW 6676   1.177   0.071   3.726
 1926SOL    HW1 6677   1.267   0.031   3.741
 1926SOL    HW2 6678   1.184   0.170   3.723
 1927SOL     OW 6679   3.495   5.058   6.760
 1927SOL    HW1 6680   3.406   5.018   6.785
 1927SOL    HW2 6681   3.566   4.989   6.771
 1928SOL     OW 6682   6.490   3.653   6.058
 1928SOL    HW1 6683   6.495   3.570   6.114
 1928SOL    HW2 6684   6.571   3.658   6.000
 1929SOL     OW 6685   0.618   5.822   1.298
 1929SOL    HW1 6686   0.684   5.808   1.224
 1929SOL    HW2 6687   0.560   5.740   1.307
 1930SOL     OW 6688   4.966   4.382   0.186
 1930SOL    HW1 6689   5.039   4.366   0.253
 1930SOL    HW2 6690   4.983   4.468   0.138
 1931SOL     OW 6691   7.014   3.295   3.538
 1931SOL    HW1 6692   0.013   3.198   3.526
 1931SOL    HW2 6693   6.925   3.304   3.582
 1932SOL     OW 6694   4.842   4.048   2.826
 1932SOL    HW1 6695   4.778   4.124   2.818
 1932SOL    HW2 6696   4.830   3.985   2.750
 1933SOL     OW 6697   2.690   4.465   0.881
 1933SOL    HW1 6698   2.609   4.426   0.838
 1933SOL    HW2 6699   2.725   4.402   0.951
 1934SOL     OW 6700   0.401   0.331   5.705
 1934SOL    HW1 6701   0.386   0.332   5.804
 1934SOL    HW2 6702   0.332   0.388   5.661
 1935SOL     OW 6703   3.292   0.431   5.092
 1935SOL    HW1 6704   3.297   0.387   5.003
 1935SOL    HW2 6705   3.232   0.511   5.087
 1936SOL     OW 6706   5.729   4.472   4.133
 1936SOL    HW1 6707   5.761   4.408   4.202
 1936SOL    HW2 6708   5.788   4.467   4.053
 1937SOL     OW 6709   4.258   6.265   1.638
 1937SOL    HW1 6710   4.272   6.238   1.542
 1937SOL    HW2 6711   4.268   6.185   1.697
 1938SOL     OW 6712   4.471   1.403   3.084
 1938SOL    HW1 6713   4.547   1.348   3.117
 1938SOL    HW2 6714   4.448   1.472   3.153
 1939SOL     OW 6715   0.485   6.615   4.302
 1939SOL    HW1 6716   0.434   6.541   4.259
 1939SOL    HW2 6717   0.422   6.680   4.344
 1940SOL     OW 6718   4.957   5.199   5.610
 1940SOL    HW1 6719   4.924   5.292   5.590
 1940SOL    HW2 6720   4.956   5.145   5.526
 1941SOL     OW 6721   0.007   4.018   3.410
 1941SOL    HW1 6722   0.035   3.998   3.316
 1941SOL    HW2 6723   6.984   3.938   3.449
 1942SOL     OW 6724   6.695   0.276   3.065
 1942SOL    HW1 6725   6.615   0.277   3.124
 1942SOL    HW2 6726   6.723   0.371   3.046
 1943SOL     OW 6727   3.089   6.139   2.306
 1943SOL    HW1 6728   2.994   6.109   2.302
 1943SOL    HW2 6729   3.127   6.117   2.396
 1944SOL     OW 6730   4.466   2.339   6.419
 1944SOL    HW1 6731   4.544   2.373   6.471
 1944SOL    HW2 6732   4.457   2.390   6.334
 1945SOL     OW 6733   4.266   5.944   2.592
 1945SOL    HW1 6734   4.217   5.937   2.679
 1945SOL    HW2 6735   4.305   5.855   2.568
 1946SOL     OW 6736   0.169   0.767   0.334
 1946SOL    HW1 6737   0.149   0.745   0.429
 1946SOL    HW2 6738   0.105   0.719   0.274
 1947SOL     OW 6739   5.266   6.701   3.447
 1947SOL    HW1 6740   5.228   6.735   3.361
 1947SOL    HW2 6741   5.279   6.777   3.510
 1948SOL     OW 6742   6.210   5.978   3.413
 1948SOL    HW1 6743   6.271   6.026   3.350
 1948SOL    HW2 6744   6.244   5.885   3.428
 1949SOL     OW 6745   4.429   5.177   6.249
 1949SOL    HW1 6746   4.368   5.255   6.261
 1949SOL    HW2 6747   4.449   5.136   6.338
 1950SOL     OW 6748   3.614   3.813   1.173
 1950SOL    HW1 6749   3.626   3.763   1.259
 1950SOL    HW2 6750   3.683   3.783   1.107
 1951SOL     OW 6751   6.477   4.001   0.329
 1951SOL    HW1 6752   6.559   3.945   0.318
 1951SOL    HW2 6753   6.478   4.044   0.419
 1952SOL     OW 6754   3.550   2.191   6.763
 1952SOL    HW1 6755   3.527   2.234   6.676
 1952SOL    HW2 6756   3.597   2.257   6.822
 1953SOL     OW 6757   6.058   2.613   6.982
 1953SOL    HW1 6758   6.119   2.547   0.004
 1953SOL    HW2 6759   6.055   2.593   6.884
 1954SOL     OW 6760   5.913   1.163   4.020
 1954SOL    HW1 6761   5.870   1.171   4.110
 1954SOL    HW2 6762   6.010   1.142   4.032
 1955SOL     OW 6763   1.395   0.565   2.306
 1955SOL    HW1 6764   1.322   0.497   2.305
 1955SOL    HW2 6765   1.483   0.519   2.290
 1956SOL     OW 6766   6.224   0.444   2.269
 1956SOL    HW1 6767   6.225   0.542   2.292
 1956SOL    HW2 6768   6.295   0.425   2.200
 1957SOL     OW 6769   6.553   5.263   4.748
 1957SOL    HW1 6770   6.520   5.274   4.654
 1957SOL    HW2 6771   6.651   5.281   4.751
 1958SOL     OW 6772   5.784   2.676   3.927
 1958SOL    HW1 6773   5.740   2.629   4.004
 1958SOL    HW2 6774   5.715   2.699   3.859
 1959SOL     OW 6775   6.984   1.943   6.084
 1959SOL    HW1 6776   6.950   1.929   5.991
 1959SOL    HW2 6777   6.979   2.040   6.107
 1960SOL     OW 6778   6.647   4.894   0.457
 1960SOL    HW1 6779   6.698   4.870   0.540
 1960SOL    HW2 6780   6.573   4.829   0.443
 1961SOL     OW 6781   5.833   4.635   4.411
 1961SOL    HW1 6782   5.915   4.580   4.391
 1961SOL    HW2 6783   5.801   4.678   4.327
 1962SOL     OW 6784   3.059   6.381   2.991
 1962SOL    HW1 6785   3.061   6.363   3.089
 1962SOL    HW2 6786   3.067   6.479   2.975
 1963SOL     OW 6787   0.748   0.924   1.212
 1963SOL    HW1 6788   0.831   0.882   1.248
 1963SOL    HW2 6789   0.735   1.014   1.254
 1964SOL     OW 6790   4.227   2.733   1.065
 1964SOL    HW1 6791   4.145   2.699   1.020
 1964SOL    HW2 6792   4.206   2.817   1.115
 1965SOL     OW 6793   1.231   3.396   3.456
 1965SOL    HW1 6794   1.244   3.334   3.533
 1965SOL    HW2 6795   1.236   3.344   3.370
 1966SOL     OW 6796   0.001   5.633   4.976
 1966SOL    HW1 6797   0.029   5.610   5.069
 1966SOL    HW2 6798   6.934   5.678   4.978
 1967SOL     OW 6799   5.197   2.295   4.964
 1967SOL    HW1 6800   5.288   2.335   4.967
 1967SOL    HW2 6801   5.169   2.283   4.869
 1968SOL     OW 6802   2.699   6.036   0.947
 1968SOL    HW1 6803   2.753   6.050   1.030
 1968SOL    HW2 6804   2.609   6.002   0.971
 1969SOL     OW 6805   0.552   1.342   1.393
 1969SOL    HW1 6806   0.467   1.394   1.388
 1969SOL    HW2 6807   0.532   1.248   1.420
 1970SOL     OW 6808   2.217   0.211   6.550
 1970SOL    HW1 6809   2.277   0.267   6.493
 1970SOL    HW2 6810   2.121   0.229   6.525
 1971SOL     OW 6811   6.286   6.867   6.287
 1971SOL    HW1 6812   6.231   6.928   6.343
 1971SOL    HW2 6813   6.233   6.838   6.207
 1972SOL     OW 6814   6.404   2.649   3.072
 1972SOL    HW1 6815   6.320   2.675   3.120
 1972SOL    HW2 6816   6.391   2.561   3.026
 1973SOL     OW 6817   2.278   3.434   1.032
 1973SOL    HW1 6818   2.212   3.359   1.036
 1973SOL    HW2 6819   2.336   3.423   0.950
 1974SOL     OW 6820   6.366   6.112   3.907
 1974SOL    HW1 6821   6.401   6.080   3.995
 1974SOL    HW2 6822   6.268   6.097   3.902
 1975SOL     OW 6823   2.766   1.181   3.363
 1975SOL    HW1 6824   2.754   1.160   3.266
 1975SOL    HW2 6825   2.854   1.226   3.377
 1976SOL     OW 6826   0.760   5.596   6.860
 1976SOL    HW1 6827   0.749   5.670   6.927
 1976SOL    HW2 6828   0.858   5.581   6.843
 1977SOL     OW 6829   1.412   2.902   3.537
 1977SOL    HW1 6830   1.457   2.981   3.494
 1977SOL    HW2 6831   1.355   2.932   3.612
 1978SOL     OW 6832   0.809   0.916   3.825
 1978SOL    HW1 6833   0.835   0.986   3.759
 1978SOL    HW2 6834   0.774   0.836   3.777
 1979SOL     OW 6835   6.814   4.272   4.878
 1979SOL    HW1 6836   6.864   4.186   4.884
 1979SOL    HW2 6837   6.879   4.346   4.859
 1980SOL     OW 6838   2.539   0.716   6.355
 1980SOL    HW1 6839   2.621   0.770   6.335
 1980SOL    HW2 6840   2.522   0.653   6.280
 1981SOL     OW 6841   6.155   1.676   2.430
 1981SOL    HW1 6842   6.166   1.656   2.528
 1981SOL    HW2 6843   6.236   1.725   2.397
 1982SOL     OW 6844   0.155   4.221   5.420
 1982SOL    HW1 6845   0.088   4.155   5.454
 1982SOL    HW2 6846   0.126   4.314   5.446
 1983SOL     OW 6847   0.973   1.946   3.035
 1983SOL    HW1 6848   1.001   1.965   2.941
 1983SOL    HW2 6849   1.033   1.878   3.075
 1984SOL     OW 6850   5.649   1.504   4.545
 1984SOL    HW1 6851   5.714   1.428   4.531
 1984SOL    HW2 6852   5.601   1.522   4.459
 1985SOL     OW 6853   1.055   0.383   2.802
 1985SOL    HW1 6854   1.002   0.337   2.731
 1985SOL    HW2 6855   1.084   0.473   2.768
 1986SOL     OW 6856   1.574   0.423   0.563
 1986SOL    HW1 6857   1.621   0.354   0.508
 1986SOL    HW2 6858   1.634   0.503   0.572
 1987SOL     OW 6859   1.676   2.971   1.072
 1987SOL    HW1 6860   1.773   2.995   1.075
 1987SOL    HW2 6861   1.662   2.885   1.122
 1988SOL     OW 6862   5.023   4.520   0.991
 1988SOL    HW1 6863   5.062   4.609   1.015
 1988SOL    HW2 6864   4.997   4.520   0.894
 1989SOL     OW 6865   2.392   6.496   5.122
 1989SOL    HW1 6866   2.459   6.422   5.115
 1989SOL    HW2 6867   2.329   6.477   5.197
 1990SOL     OW 6868   3.191   6.528   0.901
 1990SOL    HW1 6869   3.091   6.537   0.894
 1990SOL    HW2 6870   3.219   6.438   0.867
 1991SOL     OW 6871   4.453   4.756   6.488
 1991SOL    HW1 6872   4.461   4.752   6.388
 1991SOL    HW2 6873   4.359   4.779   6.513
 1992SOL     OW 6874   0.900   6.788   6.962
 1992SOL    HW1 6875   0.899   6.694   6.996
 1992SOL    HW2 6876   0.975   6.799   6.896
 1993SOL     OW 6877   4.104   3.498   5.219
 1993SOL    HW1 6878   4.052   3.509   5.135
 1993SOL    HW2 6879   4.198   3.470   5.197
 1994SOL     OW 6880   1.118   1.936   0.596
 1994SOL    HW1 6881   1.063   2.015   0.569
 1994SOL    HW2 6882   1.127   1.874   0.518
 1995SOL     OW 6883   6.196   2.176   1.590
 1995SOL    HW1 6884   6.184   2.151   1.494
 1995SOL    HW2 6885   6.256   2.256   1.595
 1996SOL     OW 6886   2.722   3.628   1.025
 1996SOL    HW1 6887   2.699   3.534   1.000
 1996SOL    HW2 6888   2.687   3.690   0.956
 1997SOL     OW 6889   4.744   0.202   5.168
 1997SOL    HW1 6890   4.652   0.169   5.191
 1997SOL    HW2 6891   4.770   0.164   5.078
 1998SOL     OW 6892   3.132   3.539   6.527
 1998SOL    HW1 6893   3.125   3.627   6.574
 1998SOL    HW2 6894   3.209   3.541   6.464
 1999SOL     OW 6895   3.214   6.549   1.600
 1999SOL    HW1 6896   3.146   6.621   1.590
 1999SOL    HW2 6897   3.274   6.570   1.678
 2000SOL     OW 6898   3.866   2.238   5.392
 2000SOL    HW1 6899   3.897   2.326   5.358
 2000SOL    HW2 6900   3.793   2.204   5.333
 2001SOL     OW 6901   3.230   2.132   1.796
 2001SOL    HW1 6902   3.166   2.115   1.871
 2001SOL    HW2 6903   3.284   2.049   1.779
 2002SOL     OW 6904   1.170   5.415   5.965
 2002SOL    HW1 6905   1.202   5.470   5.888
 2002SOL    HW2 6906   1.213   5.324   5.960
 2003SOL     OW 6907   6.068   0.020   3.516
 2003SOL    HW1 6908   6.125   7.019   3.438
 2003SOL    HW2 6909   5.987   6.983   3.518
 2004SOL     OW 6910   5.144   1.310   5.125
 2004SOL    HW1 6911   5.135   1.312   5.225
 2004SOL    HW2 6912   5.132   1.402   5.089
 2005SOL     OW 6913   1.040   5.229   6.504
 2005SOL    HW1 6914   1.013   5.139   6.537
 2005SOL    HW2 6915   0.960   5.276   6.466
 2006SOL     OW 6916   5.263   4.496   4.671
 2006SOL    HW1 6917   5.286   4.419   4.730
 2006SOL    HW2 6918   5.298   4.479   4.579
 2007SOL     OW 6919   3.614   5.149   0.988
 2007SOL    HW1 6920   3.633   5.066   1.041
 2007SOL    HW2 6921   3.690   5.212   0.996
 2008SOL     OW 6922   0.831   6.195   3.173
 2008SOL    HW1 6923   0.869   6.150   3.253
 2008SOL    HW2 6924   0.878   6.281   3.157
 2009SOL     OW 6925   6.223   0.210   1.401
 2009SOL    HW1 6926   6.156   0.230   1.472
 2009SOL    HW2 6927   6.287   0.140   1.434
 2010SOL     OW 6928   1.434   1.414   1.633
 2010SOL    HW1 6929   1.504   1.425   1.704
 2010SOL    HW2 6930   1.429   1.497   1.578
 2011SOL     OW 6931   6.918   1.797   5.259
 2011SOL    HW1 6932   6.994   1.857   5.232
 2011SOL    HW2 6933   6.848   1.796   5.188
 2012SOL     OW 6934   0.984   2.967   1.540
 2012SOL    HW1 6935   1.023   3.052   1.575
 2012SOL    HW2 6936   1.056   2.900   1.524
 2013SOL     OW 6937   5.988   0.477   3.503
 2013SOL    HW1 6938   6.071   0.452   3.554
 2013SOL    HW2 6939   5.989   0.434   3.413
 2014SOL     OW 6940   1.841   5.303   2.904
 2014SOL    HW1 6941   1.753   5.350   2.896
 2014SOL    HW2 6942   1.915   5.370   2.905
 2015SOL     OW 6943   2.308   1.964   6.762
 2015SOL    HW1 6944   2.246   1.948   6.839
 2015SOL    HW2 6945   2.342   2.058   6.766
 2016SOL     OW 6946   1.333   5.236   5.120
 2016SOL    HW1 6947   1.281   5.162   5.161
 2016SOL    HW2 6948   1.412   5.198   5.070
 2017SOL     OW 6949   2.786   6.523   4.466
 2017SOL    HW1 6950   2.704   6.533   4.410
 2017SOL    HW2 6951   2.861   6.575   4.426
 2018SOL     OW 6952   5.839   6.842   6.126
 2018SOL    HW1 6953   5.823   6.745   6.146
 2018SOL    HW2 6954   5.933   6.854   6.094
 2019SOL     OW 6955   4.868   2.305   2.134
 2019SOL    HW1 6956   4.892   2.208   2.144
 2019SOL    HW2 6957   4.951   2.359   2.126
 2020SOL     OW 6958   1.233   5.315   5.582
 2020SOL    HW1 6959   1.251   5.218   5.569
 2020SOL    HW2 6960   1.162   5.327   5.652
 2021SOL     OW 6961   2.275   5.448   4.016
 2021SOL    HW1 6962   2.289   5.547   4.012
 2021SOL    HW2 6963   2.184   5.426   3.981
 2022SOL     OW 6964   1.677   3.302   2.586
 2022SOL    HW1 6965   1.609   3.254   2.531
 2022SOL    HW2 6966   1.755   3.242   2.604
 2023SOL     OW 6967   6.089   1.373   6.910
 2023SOL    HW1 6968   6.096   1.423   6.996
 2023SOL    HW2 6969   6.021   1.418   6.852
 2024SOL     OW 6970   0.160   0.327   2.707
 2024SOL    HW1 6971   0.086   0.288   2.762
 2024SOL    HW2 6972   0.131   0.331   2.612
 2025SOL     OW 6973   2.234   2.903   2.058
 2025SOL    HW1 6974   2.284   2.866   2.136
 2025SOL    HW2 6975   2.224   3.002   2.068
 2026SOL     OW 6976   1.168   2.477   6.098
 2026SOL    HW1 6977   1.196   2.424   6.018
 2026SOL    HW2 6978   1.144   2.570   6.069
 2027SOL     OW 6979   0.940   1.361   1.152
 2027SOL    HW1 6980   0.926   1.374   1.054
 2027SOL    HW2 6981   0.999   1.434   1.188
 2028SOL     OW 6982   3.114   1.128   6.030
 2028SOL    HW1 6983   3.167   1.191   5.973
 2028SOL    HW2 6984   3.121   1.035   5.993
 2029SOL     OW 6985   0.090   0.804   0.662
 2029SOL    HW1 6986   0.082   0.814   0.761
 2029SOL    HW2 6987   0.081   0.893   0.618
 2030SOL     OW 6988   2.729   0.890   3.782
 2030SOL    HW1 6989   2.774   0.828   3.845
 2030SOL    HW2 6990   2.787   0.903   3.701
 2031SOL     OW 6991   5.389   6.344   2.381
 2031SOL    HW1 6992   5.446   6.326   2.461
 2031SOL    HW2 6993   5.293   6.327   2.403
 2032SOL     OW 6994   3.727   6.849   2.259
 2032SOL    HW1 6995   3.783   6.904   2.196
 2032SOL    HW2 6996   3.779   6.833   2.343
 2033SOL     OW 6997   3.694   4.226   6.812
 2033SOL    HW1 6998   3.739   4.137   6.810
 2033SOL    HW2 6999   3.760   4.296   6.842
 2034SOL     OW 7000   3.493   0.114   4.623
 2034SOL    HW1 7001   3.415   0.116   4.686
 2034SOL    HW2 7002   3.485   0.033   4.564
 2035SOL     OW 7003   6.864   0.833   2.025
 2035SOL    HW1 7004   6.958   0.855   1.999
 2035SOL    HW2 7005   6.801   0.860   1.952
 2036SOL     OW 7006   0.807   5.572   3.199
 2036SOL    HW1 7007   0.772   5.482   3.222
 2036SOL    HW2 7008   0.811   5.582   3.099
 2037SOL     OW 7009   0.745   3.097   5.889
 2037SOL    HW1 7010   0.795   3.179   5.919
 2037SOL    HW2 7011   0.679   3.123   5.819
 2038SOL     OW 7012   1.404   2.071   6.420
 2038SOL    HW1 7013   1.444   2.081   6.511
 2038SOL    HW2 7014   1.390   2.161   6.379
 2039SOL     OW 7015   0.282   5.414   2.515
 2039SOL    HW1 7016   0.263   5.429   2.418
 2039SOL    HW2 7017   0.275   5.500   2.565
 2040SOL     OW 7018   3.521   3.599   5.113
 2040SOL    HW1 7019   3.524   3.526   5.045
 2040SOL    HW2 7020   3.613   3.632   5.132
 2041SOL     OW 7021   6.815   5.866   5.403
 2041SOL    HW1 7022   6.768   5.868   5.491
 2041SOL    HW2 7023   6.911   5.893   5.416
 2042SOL     OW 7024   5.345   5.040   7.014
 2042SOL    HW1 7025   5.437   5.074   0.012
 2042SOL    HW2 7026   5.350   4.971   6.943
 2043SOL     OW 7027   6.445   4.360   2.455
 2043SOL    HW1 7028   6.454   4.454   2.489
 2043SOL    HW2 7029   6.507   4.347   2.377
 2044SOL     OW 7030   4.904   0.146   1.919
 2044SOL    HW1 7031   4.931   0.062   1.871
 2044SOL    HW2 7032   4.968   0.219   1.897
 2045SOL     OW 7033   2.226   4.692   4.394
 2045SOL    HW1 7034   2.140   4.728   4.358
 2045SOL    HW2 7035   2.289   4.672   4.319
 2046SOL     OW 7036   0.371   0.999   4.623
 2046SOL    HW1 7037   0.465   1.025   4.602
 2046SOL    HW2 7038   0.327   0.963   4.541
 2047SOL     OW 7039   4.772   1.952   0.103
 2047SOL    HW1 7040   4.700   2.018   0.080
 2047SOL    HW2 7041   4.834   1.992   0.170
 2048SOL     OW 7042   2.293   5.806   0.626
 2048SOL    HW1 7043   2.295   5.841   0.720
 2048SOL    HW2 7044   2.205   5.762   0.608
 2049SOL     OW 7045   4.652   1.504   6.518
 2049SOL    HW1 7046   4.731   1.546   6.473
 2049SOL    HW2 7047   4.593   1.462   6.450
 2050SOL     OW 7048   0.397   2.863   2.480
 2050SOL    HW1 7049   0.477   2.885   2.425
 2050SOL    HW2 7050   0.426   2.829   2.569
 2051SOL     OW 7051   0.680   5.865   1.011
 2051SOL    HW1 7052   0.586   5.859   1.044
 2051SOL    HW2 7053   0.696   5.795   0.942
 2052SOL     OW 7054   0.348   4.351   0.363
 2052SOL    HW1 7055   0.407   4.273   0.385
 2052SOL    HW2 7056   0.271   4.320   0.307
 2053SOL     OW 7057   5.782   0.633   5.473
 2053SOL    HW1 7058   5.748   0.692   5.546
 2053SOL    HW2 7059   5.778   0.681   5.386
 2054SOL     OW 7060   4.040   2.724   1.711
 2054SOL    HW1 7061   4.103   2.758   1.641
 2054SOL    HW2 7062   4.047   2.624   1.717
 2055SOL     OW 7063   6.143   3.295   3.123
 2055SOL    HW1 7064   6.142   3.374   3.062
 2055SOL    HW2 7065   6.236   3.280   3.156
 2056SOL     OW 7066   2.430   0.553   3.042
 2056SOL    HW1 7067   2.524   0.533   3.015
 2056SOL    HW2 7068   2.430   0.596   3.133
 2057SOL     OW 7069   5.402   2.923   3.464
 2057SOL    HW1 7070   5.382   2.919   3.366
 2057SOL    HW2 7071   5.353   3.000   3.505
 2058SOL     OW 7072   1.410   1.871   3.260
 2058SOL    HW1 7073   1.381   1.838   3.170
 2058SOL    HW2 7074   1.488   1.816   3.291
 2059SOL     OW 7075   2.362   6.017   6.049
 2059SOL    HW1 7076   2.367   5.958   6.130
 2059SOL    HW2 7077   2.272   6.060   6.045
 2060SOL     OW 7078   5.747   4.417   0.232
 2060SOL    HW1 7079   5.773   4.409   0.135
 2060SOL    HW2 7080   5.829   4.410   0.289
 2061SOL     OW 7081   0.724   1.558   3.059
 2061SOL    HW1 7082   0.731   1.657   3.074
 2061SOL    HW2 7083   0.703   1.513   3.146
 2062SOL     OW 7084   5.835   0.214   3.894
 2062SOL    HW1 7085   5.892   0.231   3.975
 2062SOL    HW2 7086   5.838   0.293   3.834
 2063SOL     OW 7087   1.731   0.514   6.289
 2063SOL    HW1 7088   1.782   0.500   6.374
 2063SOL    HW2 7089   1.756   0.443   6.223
 2064SOL     OW 7090   0.801   2.350   6.016
 2064SOL    HW1 7091   0.738   2.417   5.978
 2064SOL    HW2 7092   0.848   2.303   5.941
 2065SOL     OW 7093   6.992   2.999   3.766
 2065SOL    HW1 7094   6.971   2.954   3.853
 2065SOL    HW2 7095   0.021   3.083   3.784
 2066SOL     OW 7096   0.424   5.553   3.635
 2066SOL    HW1 7097   0.482   5.495   3.578
 2066SOL    HW2 7098   0.426   5.520   3.729
 2067SOL     OW 7099   6.948   5.873   1.022
 2067SOL    HW1 7100   6.888   5.914   0.954
 2067SOL    HW2 7101   6.915   5.780   1.043
 2068SOL     OW 7102   1.420   1.982   5.712
 2068SOL    HW1 7103   1.498   2.040   5.687
 2068SOL    HW2 7104   1.373   1.952   5.629
 2069SOL     OW 7105   1.182   2.694   3.371
 2069SOL    HW1 7106   1.104   2.722   3.427
 2069SOL    HW2 7107   1.264   2.689   3.428
 2070SOL     OW 7108   1.249   0.889   2.649
 2070SOL    HW1 7109   1.248   0.972   2.593
 2070SOL    HW2 7110   1.298   0.817   2.601
 2071SOL     OW 7111   6.071   5.951   5.366
 2071SOL    HW1 7112   5.980   5.948   5.406
 2071SOL    HW2 7113   6.139   5.954   5.438
 2072SOL     OW 7114   4.219   6.667   2.300
 2072SOL    HW1 7115   4.193   6.678   2.204
 2072SOL    HW2 7116   4.220   6.756   2.346
 2073SOL     OW 7117   3.974   6.917   4.447
 2073SOL    HW1 7118   4.049   6.870   4.399
 2073SOL    HW2 7119   3.900   6.935   4.383
 2074SOL     OW 7120   1.450   3.318   0.206
 2074SOL    HW1 7121   1.394   3.337   0.125
 2074SOL    HW2 7122   1.494   3.229   0.197
 2075SOL     OW 7123   5.480   2.841   1.391
 2075SOL    HW1 7124   5.432   2.779   1.329
 2075SOL    HW2 7125   5.418   2.870   1.464
 2076SOL     OW 7126   5.745   6.613   6.303
 2076SOL    HW1 7127   5.756   6.667   6.387
 2076SOL    HW2 7128   5.816   6.543   6.299
 2077SOL     OW 7129   5.738   2.680   2.635
 2077SOL    HW1 7130   5.640   2.664   2.646
 2077SOL    HW2 7131   5.761   2.680   2.538
 2078SOL     OW 7132   1.737   5.942   6.241
 2078SOL    HW1 7133   1.808   5.879   6.273
 2078SOL    HW2 7134   1.653   5.891   6.225
 2079SOL     OW 7135   5.766   1.308   3.405
 2079SOL    HW1 7136   5.733   1.231   3.460
 2079SOL    HW2 7137   5.865   1.316   3.414
 2080SOL     OW 7138   1.531   0.798   4.605
 2080SOL    HW1 7139   1.588   0.839   4.535
 2080SOL    HW2 7140   1.466   0.866   4.639
 2081SOL     OW 7141   1.808   5.447   4.361
 2081SOL    HW1 7142   1.856   5.535   4.355
 2081SOL    HW2 7143   1.856   5.380   4.305
 2082SOL     OW 7144   0.050   6.938   2.906
 2082SOL    HW1 7145   0.023   6.842   2.917
 2082SOL    HW2 7146   0.141   6.951   2.943
 2083SOL     OW 7147   5.257   5.073   6.122
 2083SOL    HW1 7148   5.282   5.063   6.026
 2083SOL    HW2 7149   5.160   5.097   6.129
 2084SOL     OW 7150   0.845   3.610   4.162
 2084SOL    HW1 7151   0.792   3.540   4.114
 2084SOL    HW2 7152   0.820   3.610   4.259
 2085SOL     OW 7153   4.478   0.556   6.823
 2085SOL    HW1 7154   4.529   0.594   6.746
 2085SOL    HW2 7155   4.423   0.629   6.865
 2086SOL     OW 7156   4.134   6.549   5.911
 2086SOL    HW1 7157   4.067   6.478   5.933
 2086SOL    HW2 7158   4.169   6.589   5.996
 2087SOL     OW 7159   5.045   0.180   1.599
 2087SOL    HW1 7160   5.079   0.223   1.682
 2087SOL    HW2 7161   4.983   0.105   1.622
 2088SOL     OW 7162   2.909   6.434   0.636
 2088SOL    HW1 7163   2.946   6.464   0.548
 2088SOL    HW2 7164   2.882   6.513   0.690
 2089SOL     OW 7165   5.208   2.152   6.344
 2089SOL    HW1 7166   5.122   2.103   6.331
 2089SOL    HW2 7167   5.284   2.088   6.339
 2090SOL     OW 7168   3.662   2.931   5.625
 2090SOL    HW1 7169   3.637   2.937   5.722
 2090SOL    HW2 7170   3.758   2.903   5.618
 2091SOL     OW 7171   0.033   5.464   0.591
 2091SOL    HW1 7172   7.007   5.454   0.678
 2091SOL    HW2 7173   0.094   5.543   0.596
 2092SOL     OW 7174   5.127   4.378   6.799
 2092SOL    HW1 7175   5.176   4.442   6.858
 2092SOL    HW2 7176   5.029   4.381   6.820
 2093SOL     OW 7177   2.255   2.403   1.019
 2093SOL    HW1 7178   2.318   2.328   1.040
 2093SOL    HW2 7179   2.261   2.472   1.091
 2094SOL     OW 7180   5.773   1.483   1.137
 2094SOL    HW1 7181   5.683   1.487   1.179
 2094SOL    HW2 7182   5.794   1.571   1.094
 2095SOL     OW 7183   5.647   0.651   4.847
 2095SOL    HW1 7184   5.681   0.719   4.782
 2095SOL    HW2 7185   5.597   0.698   4.920
 2096SOL     OW 7186   5.143   3.917   3.429
 2096SOL    HW1 7187   5.055   3.872   3.412
 2096SOL    HW2 7188   5.182   3.883   3.514
 2097SOL     OW 7189   2.365   2.981   6.646
 2097SOL    HW1 7190   2.422   3.031   6.581
 2097SOL    HW2 7191   2.323   3.044   6.711
 2098SOL     OW 7192   4.422   5.853   2.994
 2098SOL    HW1 7193   4.338   5.900   2.966
 2098SOL    HW2 7194   4.401   5.760   3.024
 2099SOL     OW 7195   2.836   3.468   5.633
 2099SOL    HW1 7196   2.871   3.391   5.687
 2099SOL    HW2 7197   2.885   3.472   5.546
 2100SOL     OW 7198   4.662   3.289   5.801
 2100SOL    HW1 7199   4.580   3.234   5.781
 2100SOL    HW2 7200   4.634   3.375   5.845
 2101SOL     OW 7201   1.407   6.471   2.400
 2101SOL    HW1 7202   1.475   6.437   2.336
 2101SOL    HW2 7203   1.452   6.521   2.474
 2102SOL     OW 7204   6.148   5.054   1.716
 2102SOL    HW1 7205   6.190   5.145   1.723
 2102SOL    HW2 7206   6.060   5.054   1.764
 2103SOL     OW 7207   3.671   4.495   5.888
 2103SOL    HW1 7208   3.599   4.461   5.827
 2103SOL    HW2 7209   3.678   4.595   5.879
 2104SOL     OW 7210   1.242   3.129   0.793
 2104SOL    HW1 7211   1.175   3.203   0.791
 2104SOL    HW2 7212   1.280   3.121   0.885
 2105SOL     OW 7213   5.568   6.187   5.188
 2105SOL    HW1 7214   5.548   6.224   5.279
 2105SOL    HW2 7215   5.557   6.088   5.189
 2106SOL     OW 7216   4.832   4.241   1.471
 2106SOL    HW1 7217   4.837   4.150   1.512
 2106SOL    HW2 7218   4.830   4.233   1.372
 2107SOL     OW 7219   5.165   2.604   5.202
 2107SOL    HW1 7220   5.134   2.598   5.107
 2107SOL    HW2 7221   5.088   2.586   5.263
 2108SOL     OW 7222   6.665   6.320   5.111
 2108SOL    HW1 7223   6.624   6.239   5.153
 2108SOL    HW2 7224   6.763   6.304   5.096
 2109SOL     OW 7225   4.359   6.189   2.440
 2109SOL    HW1 7226   4.341   6.107   2.494
 2109SOL    HW2 7227   4.432   6.170   2.375
 2110SOL     OW 7228   2.882   1.525   6.854
 2110SOL    HW1 7229   2.974   1.503   6.887
 2110SOL    HW2 7230   2.818   1.457   6.891
 2111SOL     OW 7231   1.107   2.971   6.932
 2111SOL    HW1 7232   1.100   3.027   7.015
 2111SOL    HW2 7233   1.051   3.011   6.860
 2112SOL     OW 7234   4.972   3.090   6.871
 2112SOL    HW1 7235   4.917   3.172   6.867
 2112SOL    HW2 7236   4.915   3.010   6.852
 2113SOL     OW 7237   1.416   1.818   5.089
 2113SOL    HW1 7238   1.326   1.788   5.120
 2113SOL    HW2 7239   1.440   1.770   5.004
 2114SOL     OW 7240   1.363   2.883   0.119
 2114SOL    HW1 7241   1.309   2.886   0.035
 2114SOL    HW2 7242   1.437   2.817   0.109
 2115SOL     OW 7243   2.065   3.636   2.622
 2115SOL    HW1 7244   2.080   3.537   2.627
 2115SOL    HW2 7245   2.039   3.660   2.528
 2116SOL     OW 7246   6.739   4.847   2.961
 2116SOL    HW1 7247   6.716   4.906   2.884
 2116SOL    HW2 7248   6.739   4.901   3.045
 2117SOL     OW 7249   6.442   4.922   1.946
 2117SOL    HW1 7250   6.430   4.869   1.862
 2117SOL    HW2 7251   6.358   4.917   2.001
 2118SOL     OW 7252   5.919   3.732   1.798
 2118SOL    HW1 7253   5.891   3.741   1.702
 2118SOL    HW2 7254   5.874   3.803   1.852
 2119SOL     OW 7255   2.144   6.128   1.086
 2119SOL    HW1 7256   2.053   6.087   1.088
 2119SOL    HW2 7257   2.164   6.170   1.174
 2120SOL     OW 7258   7.020   5.304   3.684
 2120SOL    HW1 7259   6.924   5.319   3.706
 2120SOL    HW2 7260   0.014   5.206   3.670
 2121SOL     OW 7261   1.043   3.610   5.938
 2121SOL    HW1 7262   0.977   3.678   5.971
 2121SOL    HW2 7263   1.078   3.638   5.849
 2122SOL     OW 7264   5.674   4.217   6.129
 2122SOL    HW1 7265   5.720   4.148   6.073
 2122SOL    HW2 7266   5.596   4.254   6.078
 2123SOL     OW 7267   6.228   6.071   2.167
 2123SOL    HW1 7268   6.162   6.143   2.146
 2123SOL    HW2 7269   6.317   6.096   2.129
 2124SOL     OW 7270   2.559   1.831   1.698
 2124SOL    HW1 7271   2.629   1.903   1.701
 2124SOL    HW2 7272   2.471   1.871   1.675
 2125SOL     OW 7273   2.042   0.963   1.951
 2125SOL    HW1 7274   2.092   0.890   1.904
 2125SOL    HW2 7275   2.000   0.926   2.034
 2126SOL     OW 7276   3.563   1.406   6.380
 2126SOL    HW1 7277   3.617   1.322   6.389
 2126SOL    HW2 7278   3.484   1.401   6.442
 2127SOL     OW 7279   0.103   3.148   4.116
 2127SOL    HW1 7280   0.047   3.205   4.176
 2127SOL    HW2 7281   0.130   3.065   4.164
 2128SOL     OW 7282   6.866   2.928   3.378
 2128SOL    HW1 7283   6.958   2.942   3.413
 2128SOL    HW2 7284   6.815   3.014   3.382
 2129SOL     OW 7285   4.120   3.845   5.637
 2129SOL    HW1 7286   4.123   3.857   5.537
 2129SOL    HW2 7287   4.066   3.764   5.659
 2130SOL     OW 7288   3.427   0.874   1.399
 2130SOL    HW1 7289   3.328   0.865   1.411
 2130SOL    HW2 7290   3.459   0.953   1.451
 2131SOL     OW 7291   6.419   0.421   0.686
 2131SOL    HW1 7292   6.482   0.402   0.761
 2131SOL    HW2 7293   6.354   0.345   0.677
 2132SOL     OW 7294   3.295   1.481   1.779
 2132SOL    HW1 7295   3.290   1.382   1.791
 2132SOL    HW2 7296   3.351   1.503   1.699
 2133SOL     OW 7297   3.329   3.247   0.304
 2133SOL    HW1 7298   3.346   3.322   0.240
 2133SOL    HW2 7299   3.293   3.169   0.255
 2134SOL     OW 7300   0.078   2.163   6.650
 2134SOL    HW1 7301   0.029   2.117   6.723
 2134SOL    HW2 7302   0.037   2.253   6.634
 2135SOL     OW 7303   0.834   3.315   4.424
 2135SOL    HW1 7304   0.815   3.412   4.436
 2135SOL    HW2 7305   0.748   3.266   4.408
 2136SOL     OW 7306   1.499   3.825   2.772
 2136SOL    HW1 7307   1.528   3.756   2.706
 2136SOL    HW2 7308   1.488   3.783   2.862
 2137SOL     OW 7309   2.230   5.671   5.204
 2137SOL    HW1 7310   2.319   5.667   5.157
 2137SOL    HW2 7311   2.165   5.723   5.148
 2138SOL     OW 7312   6.545   6.874   3.018
 2138SOL    HW1 7313   6.563   6.810   2.943
 2138SOL    HW2 7314   6.631   6.911   3.053
 2139SOL     OW 7315   4.484   0.926   3.577
 2139SOL    HW1 7316   4.427   0.854   3.617
 2139SOL    HW2 7317   4.444   0.956   3.490
 2140SOL     OW 7318   3.363   6.700   3.933
 2140SOL    HW1 7319   3.306   6.746   4.002
 2140SOL    HW2 7320   3.458   6.728   3.944
 2141SOL     OW 7321   6.531   3.278   1.817
 2141SOL    HW1 7322   6.617   3.311   1.777
 2141SOL    HW2 7323   6.542   3.269   1.916
 2142SOL     OW 7324   1.901   1.337   3.216
 2142SOL    HW1 7325   1.874   1.262   3.155
 2142SOL    HW2 7326   1.822   1.394   3.235
 2143SOL     OW 7327   3.229   4.398   1.552
 2143SOL    HW1 7328   3.263   4.480   1.597
 2143SOL    HW2 7329   3.187   4.422   1.465
 2144SOL     OW 7330   0.900   5.470   4.040
 2144SOL    HW1 7331   0.927   5.546   4.099
 2144SOL    HW2 7332   0.981   5.421   4.010
 2145SOL     OW 7333   4.194   6.513   4.387
 2145SOL    HW1 7334   4.227   6.607   4.384
 2145SOL    HW2 7335   4.241   6.459   4.317
 2146SOL     OW 7336   2.216   3.707   1.423
 2146SOL    HW1 7337   2.269   3.668   1.498
 2146SOL    HW2 7338   2.277   3.729   1.347
 2147SOL     OW 7339   6.756   1.386   5.710
 2147SOL    HW1 7340   6.734   1.355   5.618
 2147SOL    HW2 7341   6.702   1.334   5.776
 2148SOL     OW 7342   6.261   3.236   5.898
 2148SOL    HW1 7343   6.290   3.166   5.833
 2148SOL    HW2 7344   6.203   3.303   5.851
 2149SOL     OW 7345   3.141   1.783   1.100
 2149SOL    HW1 7346   3.086   1.709   1.062
 2149SOL    HW2 7347   3.106   1.871   1.068
 2150SOL     OW 7348   2.459   2.561   2.180
 2150SOL    HW1 7349   2.543   2.533   2.226
 2150SOL    HW2 7350   2.387   2.495   2.199
 2151SOL     OW 7351   1.544   6.986   5.617
 2151SOL    HW1 7352   1.590   6.986   5.706
 2151SOL    HW2 7353   1.566   0.048   5.569
 2152SOL     OW 7354   3.114   5.422   2.120
 2152SOL    HW1 7355   3.177   5.489   2.159
 2152SOL    HW2 7356   3.048   5.468   2.061
 2153SOL     OW 7357   4.694   1.617   3.092
 2153SOL    HW1 7358   4.653   1.696   3.047
 2153SOL    HW2 7359   4.751   1.567   3.028
 2154SOL     OW 7360   5.441   1.534   4.748
 2154SOL    HW1 7361   5.436   1.490   4.837
 2154SOL    HW2 7362   5.521   1.500   4.699
 2155SOL     OW 7363   3.360   6.222   0.831
 2155SOL    HW1 7364   3.307   6.189   0.753
 2155SOL    HW2 7365   3.308   6.210   0.915
 2156SOL     OW 7366   1.186   2.264   4.906
 2156SOL    HW1 7367   1.173   2.168   4.929
 2156SOL    HW2 7368   1.182   2.319   4.990
 2157SOL     OW 7369   6.111   0.247   3.279
 2157SOL    HW1 7370   6.118   0.150   3.299
 2157SOL    HW2 7371   6.154   0.266   3.191
 2158SOL     OW 7372   3.613   5.813   0.627
 2158SOL    HW1 7373   3.680   5.879   0.593
 2158SOL    HW2 7374   3.653   5.762   0.703
 2159SOL     OW 7375   1.509   6.697   4.920
 2159SOL    HW1 7376   1.467   6.784   4.945
 2159SOL    HW2 7377   1.475   6.625   4.980
 2160SOL     OW 7378   4.578   4.017   7.014
 2160SOL    HW1 7379   4.646   3.956   6.974
 2160SOL    HW2 7380   4.498   3.964   0.018
 2161SOL     OW 7381   5.517   4.886   2.433
 2161SOL    HW1 7382   5.518   4.822   2.510
 2161SOL    HW2 7383   5.609   4.923   2.419
 2162SOL     OW 7384   3.361   0.040   2.227
 2162SOL    HW1 7385   3.402   6.983   2.183
 2162SOL    HW2 7386   3.291   0.078   2.167
 2163SOL     OW 7387   1.599   4.670   6.620
 2163SOL    HW1 7388   1.658   4.606   6.570
 2163SOL    HW2 7389   1.644   4.758   6.627
 2164SOL     OW 7390   1.712   2.627   6.203
 2164SOL    HW1 7391   1.737   2.539   6.242
 2164SOL    HW2 7392   1.794   2.677   6.178
 2165SOL     OW 7393   0.107   2.295   3.004
 2165SOL    HW1 7394   0.043   2.348   3.059
 2165SOL    HW2 7395   0.084   2.305   2.907
 2166SOL     OW 7396   1.373   2.676   5.076
 2166SOL    HW1 7397   1.407   2.630   4.994
 2166SOL    HW2 7398   1.429   2.650   5.155
 2167SOL     OW 7399   1.305   2.335   3.438
 2167SOL    HW1 7400   1.318   2.257   3.377
 2167SOL    HW2 7401   1.378   2.402   3.423
 2168SOL     OW 7402   0.742   2.236   3.744
 2168SOL    HW1 7403   0.658   2.283   3.770
 2168SOL    HW2 7404   0.812   2.303   3.720
 2169SOL     OW 7405   5.417   1.757   0.075
 2169SOL    HW1 7406   5.454   1.850   0.077
 2169SOL    HW2 7407   5.433   1.716   7.009
 2170SOL     OW 7408   6.628   4.037   4.984
 2170SOL    HW1 7409   6.619   3.980   4.902
 2170SOL    HW2 7410   6.712   4.092   4.977
 2171SOL     OW 7411   7.000   5.412   1.385
 2171SOL    HW1 7412   0.034   5.491   1.410
 2171SOL    HW2 7413   6.932   5.440   1.317
 2172SOL     OW 7414   1.759   2.096   6.395
 2172SOL    HW1 7415   1.691   2.027   6.417
 2172SOL    HW2 7416   1.824   2.105   6.470
 2173SOL     OW 7417   3.854   0.802   4.928
 2173SOL    HW1 7418   3.931   0.864   4.944
 2173SOL    HW2 7419   3.887   0.717   4.887
 2174SOL     OW 7420   6.070   5.998   4.849
 2174SOL    HW1 7421   5.995   5.976   4.911
 2174SOL    HW2 7422   6.117   6.081   4.881
 2175SOL     OW 7423   1.978   2.819   5.177
 2175SOL    HW1 7424   2.068   2.857   5.157
 2175SOL    HW2 7425   1.975   2.724   5.147
 2176SOL     OW 7426   5.932   1.707   0.394
 2176SOL    HW1 7427   5.953   1.624   0.343
 2176SOL    HW2 7428   5.853   1.752   0.352
 2177SOL     OW 7429   6.841   1.888   3.486
 2177SOL    HW1 7430   6.931   1.900   3.528
 2177SOL    HW2 7431   6.780   1.961   3.516
 2178SOL     OW 7432   2.394   2.065   1.685
 2178SOL    HW1 7433   2.478   2.120   1.684
 2178SOL    HW2 7434   2.349   2.075   1.773
 2179SOL     OW 7435   1.864   5.229   5.239
 2179SOL    HW1 7436   1.861   5.254   5.142
 2179SOL    HW2 7437   1.951   5.256   5.279
 2180SOL     OW 7438   2.075   1.999   2.274
 2180SOL    HW1 7439   2.154   1.979   2.216
 2180SOL    HW2 7440   2.099   1.981   2.370
 2181SOL     OW 7441   4.971   4.597   4.918
 2181SOL    HW1 7442   4.915   4.677   4.940
 2181SOL    HW2 7443   4.986   4.592   4.819
 2182SOL     OW 7444   2.003   4.104   4.047
 2182SOL    HW1 7445   2.078   4.106   4.113
 2182SOL    HW2 7446   1.925   4.156   4.083
 2183SOL     OW 7447   2.170   4.723   6.135
 2183SOL    HW1 7448   2.217   4.638   6.158
 2183SOL    HW2 7449   2.219   4.768   6.061
 2184SOL     OW 7450   3.696   1.040   6.023
 2184SOL    HW1 7451   3.649   1.126   6.003
 2184SOL    HW2 7452   3.794   1.051   6.007
 2185SOL     OW 7453   0.466   0.314   1.413
 2185SOL    HW1 7454   0.482   0.405   1.374
 2185SOL    HW2 7455   0.553   0.267   1.425
 2186SOL     OW 7456   0.074   5.940   1.258
 2186SOL    HW1 7457   0.039   5.865   1.315
 2186SOL    HW2 7458   0.034   5.933   1.167
 2187SOL     OW 7459   6.576   6.258   2.840
 2187SOL    HW1 7460   6.635   6.224   2.767
 2187SOL    HW2 7461   6.499   6.308   2.800
 2188SOL     OW 7462   6.935   5.674   4.103
 2188SOL    HW1 7463   0.010   5.667   4.122
 2188SOL    HW2 7464   6.911   5.615   4.025
 2189SOL     OW 7465   2.297   6.699   0.583
 2189SOL    HW1 7466   2.269   6.703   0.487
 2189SOL    HW2 7467   2.304   6.603   0.611
 2190SOL     OW 7468   0.593   3.308   2.003
 2190SOL    HW1 7469   0.565   3.238   2.069
 2190SOL    HW2 7470   0.643   3.265   1.928
 2191SOL     OW 7471   2.719   1.476   6.571
 2191SOL    HW1 7472   2.684   1.569   6.566
 2191SOL    HW2 7473   2.753   1.459   6.664
 2192SOL     OW 7474   4.964   0.923   2.492
 2192SOL    HW1 7475   5.017   1.001   2.460
 2192SOL    HW2 7476   5.011   0.838   2.468
 2193SOL     OW 7477   5.498   5.749   0.137
 2193SOL    HW1 7478   5.432   5.777   0.067
 2193SOL    HW2 7479   5.451   5.736   0.224
 2194SOL     OW 7480   2.148   4.728   5.654
 2194SOL    HW1 7481   2.116   4.819   5.677
 2194SOL    HW2 7482   2.242   4.733   5.619
 2195SOL     OW 7483   0.184   0.163   5.041
 2195SOL    HW1 7484   0.202   0.158   4.943
 2195SOL    HW2 7485   0.241   0.096   5.089
 2196SOL     OW 7486   3.914   0.176   4.777
 2196SOL    HW1 7487   3.817   0.201   4.775
 2196SOL    HW2 7488   3.956   0.210   4.861
 2197SOL     OW 7489   2.405   3.625   0.475
 2197SOL    HW1 7490   2.458   3.674   0.545
 2197SOL    HW2 7491   2.436   3.530   0.471
 2198SOL     OW 7492   5.354   0.374   0.381
 2198SOL    HW1 7493   5.370   0.354   0.478
 2198SOL    HW2 7494   5.441   0.389   0.336
 2199SOL     OW 7495   5.152   0.308   2.915
 2199SOL    HW1 7496   5.158   0.374   2.840
 2199SOL    HW2 7497   5.227   0.325   2.980
 2200SOL     OW 7498   2.662   2.060   4.747
 2200SOL    HW1 7499   2.634   2.156   4.748
 2200SOL    HW2 7500   2.727   2.045   4.672
 2201SOL     OW 7501   0.009   2.666   2.876
 2201SOL    HW1 7502   0.080   2.674   2.806
 2201SOL    HW2 7503   0.049   2.679   2.967
 2202SOL     OW 7504   2.955   5.502   2.356
 2202SOL    HW1 7505   2.969   5.525   2.260
 2202SOL    HW2 7506   2.868   5.454   2.366
 2203SOL     OW 7507   1.656   2.942   0.502
 2203SOL    HW1 7508   1.741   2.981   0.467
 2203SOL    HW2 7509   1.657   2.945   0.602
 2204SOL     OW 7510   4.527   1.825   1.183
 2204SOL    HW1 7511   4.596   1.755   1.198
 2204SOL    HW2 7512   4.560   1.913   1.218
 2205SOL     OW 7513   0.885   7.021   6.140
 2205SOL    HW1 7514   0.869   6.995   6.045
 2205SOL    HW2 7515   0.852   6.949   6.201
 2206SOL     OW 7516   3.546   5.135   6.420
 2206SOL    HW1 7517   3.456   5.091   6.418
 2206SOL    HW2 7518   3.600   5.096   6.495
 2207SOL     OW 7519   2.911   4.811   6.347
 2207SOL    HW1 7520   2.881   4.794   6.441
 2207SOL    HW2 7521   2.990   4.753   6.326
 2208SOL     OW 7522   1.542   5.835   3.049
 2208SOL    HW1 7523   1.443   5.845   3.047
 2208SOL    HW2 7524   1.584   5.924   3.066
 2209SOL     OW 7525   1.608   6.479   5.609
 2209SOL    HW1 7526   1.689   6.510   5.559
 2209SOL    HW2 7527   1.548   6.558   5.627
 2210SOL     OW 7528   0.035   5.002   4.460
 2210SOL    HW1 7529   0.043   4.921   4.519
 2210SOL    HW2 7530   0.126   5.038   4.440
 2211SOL     OW 7531   6.470   0.113   0.842
 2211SOL    HW1 7532   6.527   0.166   0.904
 2211SOL    HW2 7533   6.526   0.042   0.798
 2212SOL     OW 7534   2.319   5.785   6.884
 2212SOL    HW1 7535   2.376   5.806   6.963
 2212SOL    HW2 7536   2.306   5.868   6.830
 2213SOL     OW 7537   2.865   1.614   5.298
 2213SOL    HW1 7538   2.835   1.682   5.364
 2213SOL    HW2 7539   2.786   1.577   5.250
 2214SOL     OW 7540   3.775   3.499   5.470
 2214SOL    HW1 7541   3.781   3.526   5.374
 2214SOL    HW2 7542   3.695   3.440   5.483
 2215SOL     OW 7543   6.342   0.981   7.008
 2215SOL    HW1 7544   6.427   1.032   7.003
 2215SOL    HW2 7545   6.287   1.014   0.062
 2216SOL     OW 7546   2.002   1.080   6.126
 2216SOL    HW1 7547   2.063   1.062   6.049
 2216SOL    HW2 7548   2.053   1.126   6.198
 2217SOL     OW 7549   3.879   6.976   2.037
 2217SOL    HW1 7550   3.861   0.044   1.999
 2217SOL    HW2 7551   3.923   6.918   1.968
 2218SOL     OW 7552   6.765   5.609   6.624
 2218SOL    HW1 7553   6.779   5.689   6.682
 2218SOL    HW2 7554   6.667   5.594   6.612
 2219SOL     OW 7555   5.405   1.762   1.195
 2219SOL    HW1 7556   5.420   1.837   1.259
 2219SOL    HW2 7557   5.368   1.798   1.110
 2220SOL     OW 7558   2.001   6.912   4.893
 2220SOL    HW1 7559   2.045   6.845   4.833
 2220SOL    HW2 7560   2.070   6.973   4.932
 2221SOL     OW 7561   6.664   1.378   5.435
 2221SOL    HW1 7562   6.710   1.464   5.413
 2221SOL    HW2 7563   6.567   1.395   5.451
 2222SOL     OW 7564   5.103   0.919   0.287
 2222SOL    HW1 7565   5.140   0.950   0.374
 2222SOL    HW2 7566   5.016   0.872   0.302
 2223SOL     OW 7567   5.838   1.194   5.103
 2223SOL    HW1 7568   5.915   1.243   5.144
 2223SOL    HW2 7569   5.785   1.257   5.046
 2224SOL     OW 7570   0.274   3.510   0.915
 2224SOL    HW1 7571   0.211   3.566   0.969
 2224SOL    HW2 7572   0.356   3.492   0.968
 2225SOL     OW 7573   6.495   6.592   3.619
 2225SOL    HW1 7574   6.549   6.673   3.595
 2225SOL    HW2 7575   6.399   6.609   3.600
 2226SOL     OW 7576   2.949   5.318   1.107
 2226SOL    HW1 7577   3.027   5.366   1.067
 2226SOL    HW2 7578   2.980   5.262   1.184
 2227SOL     OW 7579   5.061   3.487   6.758
 2227SOL    HW1 7580   5.092   3.579   6.734
 2227SOL    HW2 7581   4.963   3.488   6.773
 2228SOL     OW 7582   3.628   4.926   1.159
 2228SOL    HW1 7583   3.720   4.890   1.142
 2228SOL    HW2 7584   3.560   4.862   1.123
 2229SOL     OW 7585   4.391   2.940   5.577
 2229SOL    HW1 7586   4.392   3.011   5.506
 2229SOL    HW2 7587   4.358   2.854   5.539
 2230SOL     OW 7588   5.399   6.462   0.072
 2230SOL    HW1 7589   5.423   6.395   0.001
 2230SOL    HW2 7590   5.467   6.459   0.145
 2231SOL     OW 7591   0.561   0.614   1.613
 2231SOL    HW1 7592   0.501   0.534   1.602
 2231SOL    HW2 7593   0.654   0.589   1.589
 2232SOL     OW 7594   0.860   2.747   5.052
 2232SOL    HW1 7595   0.934   2.683   5.031
 2232SOL    HW2 7596   0.815   2.776   4.968
 2233SOL     OW 7597   1.773   3.895   0.189
 2233SOL    HW1 7598   1.821   3.936   0.112
 2233SOL    HW2 7599   1.714   3.820   0.157
 2234SOL     OW 7600   4.381   1.886   1.551
 2234SOL    HW1 7601   4.322   1.933   1.617
 2234SOL    HW2 7602   4.467   1.862   1.595
 2235SOL     OW 7603   2.452   6.868   1.443
 2235SOL    HW1 7604   2.504   6.819   1.373
 2235SOL    HW2 7605   2.436   6.962   1.413
 2236SOL     OW 7606   1.724   4.268   6.616
 2236SOL    HW1 7607   1.706   4.289   6.712
 2236SOL    HW2 7608   1.704   4.171   6.599
 2237SOL     OW 7609   5.521   4.917   4.273
 2237SOL    HW1 7610   5.452   4.987   4.258
 2237SOL    HW2 7611   5.576   4.941   4.353
 2238SOL     OW 7612   4.620   4.517   1.872
 2238SOL    HW1 7613   4.685   4.490   1.801
 2238SOL    HW2 7614   4.579   4.435   1.912
 2239SOL     OW 7615   3.663   5.279   4.357
 2239SOL    HW1 7616   3.635   5.365   4.316
 2239SOL    HW2 7617   3.598   5.207   4.333
 2240SOL     OW 7618   4.154   5.997   3.457
 2240SOL    HW1 7619   4.195   6.034   3.540
 2240SOL    HW2 7620   4.207   6.026   3.378
 2241SOL     OW 7621   0.609   5.343   3.580
 2241SOL    HW1 7622   0.700   5.355   3.541
 2241SOL    HW2 7623   0.616   5.297   3.669
 2242SOL     OW 7624   5.610   3.090   2.770
 2242SOL    HW1 7625   5.654   3.161   2.825
 2242SOL    HW2 7626   5.514   3.116   2.753
 2243SOL     OW 7627   1.823   6.760   6.286
 2243SOL    HW1 7628   1.923   6.753   6.285
 2243SOL    HW2 7629   1.787   6.726   6.373
 2244SOL     OW 7630   1.556   6.431   1.857
 2244SOL    HW1 7631   1.558   6.531   1.866
 2244SOL    HW2 7632   1.647   6.398   1.833
 2245SOL     OW 7633   0.800   2.376   0.861
 2245SOL    HW1 7634   0.721   2.338   0.910
 2245SOL    HW2 7635   0.880   2.374   0.922
 2246SOL     OW 7636   0.906   1.314   4.598
 2246SOL    HW1 7637   0.827   1.277   4.645
 2246SOL    HW2 7638   0.878   1.392   4.542
 2247SOL     OW 7639   3.461   2.875   4.076
 2247SOL    HW1 7640   3.485   2.791   4.124
 2247SOL    HW2 7641   3.543   2.931   4.061
 2248SOL     OW 7642   5.873   3.456   5.481
 2248SOL    HW1 7643   5.905   3.424   5.392
 2248SOL    HW2 7644   5.831   3.547   5.470
 2249SOL     OW 7645   5.849   6.572   3.281
 2249SOL    HW1 7646   5.926   6.519   3.316
 2249SOL    HW2 7647   5.787   6.595   3.356
 2250SOL     OW 7648   4.030   3.878   6.165
 2250SOL    HW1 7649   3.957   3.945   6.179
 2250SOL    HW2 7650   4.063   3.884   6.070
 2251SOL     OW 7651   5.079   0.184   6.387
 2251SOL    HW1 7652   5.126   0.252   6.331
 2251SOL    HW2 7653   5.118   0.183   6.479
 2252SOL     OW 7654   4.771   2.771   2.020
 2252SOL    HW1 7655   4.807   2.741   1.932
 2252SOL    HW2 7656   4.757   2.870   2.018
 2253SOL     OW 7657   0.321   3.962   6.828
 2253SOL    HW1 7658   0.283   3.903   6.899
 2253SOL    HW2 7659   0.297   4.057   6.847
 2254SOL     OW 7660   3.573   2.508   5.359
 2254SOL    HW1 7661   3.547   2.524   5.454
 2254SOL    HW2 7662   3.554   2.413   5.335
 2255SOL     OW 7663   4.578   3.538   6.217
 2255SOL    HW1 7664   4.592   3.439   6.219
 2255SOL    HW2 7665   4.603   3.577   6.305
 2256SOL     OW 7666   5.226   6.047   2.477
 2256SOL    HW1 7667   5.195   6.134   2.439
 2256SOL    HW2 7668   5.203   6.043   2.575
 2257SOL     OW 7669   0.159   2.308   4.766
 2257SOL    HW1 7670   0.199   2.280   4.854
 2257SOL    HW2 7671   0.061   2.322   4.778
 2258SOL     OW 7672   1.246   5.626   4.947
 2258SOL    HW1 7673   1.191   5.706   4.972
 2258SOL    HW2 7674   1.186   5.548   4.932
 2259SOL     OW 7675   5.465   4.192   6.638
 2259SOL    HW1 7676   5.404   4.133   6.586
 2259SOL    HW2 7677   5.552   4.144   6.654
 2260SOL     OW 7678   6.451   4.311   1.914
 2260SOL    HW1 7679   6.387   4.235   1.899
 2260SOL    HW2 7680   6.537   4.291   1.868
 2261SOL     OW 7681   6.564   5.624   0.087
 2261SOL    HW1 7682   6.648   5.677   0.093
 2261SOL    HW2 7683   6.579   5.544   0.029
 2262SOL     OW 7684   6.402   1.030   3.144
 2262SOL    HW1 7685   6.472   0.973   3.101
 2262SOL    HW2 7686   6.323   1.036   3.083
 2263SOL     OW 7687   2.957   6.177   6.506
 2263SOL    HW1 7688   2.925   6.083   6.515
 2263SOL    HW2 7689   2.935   6.211   6.415
 2264SOL     OW 7690   2.506   4.431   0.278
 2264SOL    HW1 7691   2.504   4.438   0.179
 2264SOL    HW2 7692   2.488   4.337   0.306
 2265SOL     OW 7693   0.808   0.595   4.277
 2265SOL    HW1 7694   0.802   0.588   4.377
 2265SOL    HW2 7695   0.903   0.610   4.250
 2266SOL     OW 7696   5.179   1.662   0.063
 2266SOL    HW1 7697   5.269   1.705   0.051
 2266SOL    HW2 7698   5.107   1.730   0.051
 2267SOL     OW 7699   4.931   2.124   4.663
 2267SOL    HW1 7700   4.893   2.163   4.747
 2267SOL    HW2 7701   4.937   2.024   4.672
 2268SOL     OW 7702   6.218   3.591   0.220
 2268SOL    HW1 7703   6.189   3.654   0.148
 2268SOL    HW2 7704   6.190   3.498   0.196
 2269SOL     OW 7705   5.960   4.966   5.174
 2269SOL    HW1 7706   5.941   5.010   5.261
 2269SOL    HW2 7707   5.981   5.035   5.105
 2270SOL     OW 7708   3.247   2.531   6.365
 2270SOL    HW1 7709   3.320   2.467   6.340
 2270SOL    HW2 7710   3.158   2.489   6.346
 2271SOL     OW 7711   5.406   3.712   0.878
 2271SOL    HW1 7712   5.342   3.780   0.916
 2271SOL    HW2 7713   5.356   3.629   0.854
 2272SOL     OW 7714   5.635   3.002   6.604
 2272SOL    HW1 7715   5.678   3.074   6.658
 2272SOL    HW2 7716   5.694   2.978   6.527
 2273SOL     OW 7717   1.669   1.038   2.524
 2273SOL    HW1 7718   1.581   1.043   2.477
 2273SOL    HW2 7719   1.743   1.052   2.458
 2274SOL     OW 7720   0.023   2.435   6.562
 2274SOL    HW1 7721   0.057   2.495   6.490
 2274SOL    HW2 7722   7.022   2.489   6.643
 2275SOL     OW 7723   6.489   6.947   4.575
 2275SOL    HW1 7724   6.445   6.859   4.594
 2275SOL    HW2 7725   6.422   7.020   4.584
 2276SOL     OW 7726   2.184   5.516   0.812
 2276SOL    HW1 7727   2.143   5.541   0.724
 2276SOL    HW2 7728   2.284   5.518   0.804
 2277SOL     OW 7729   3.747   3.696   4.314
 2277SOL    HW1 7730   3.749   3.634   4.392
 2277SOL    HW2 7731   3.771   3.788   4.343
 2278SOL     OW 7732   6.383   4.719   4.591
 2278SOL    HW1 7733   6.307   4.724   4.655
 2278SOL    HW2 7734   6.425   4.809   4.582
 2279SOL     OW 7735   5.503   0.227   5.654
 2279SOL    HW1 7736   5.552   0.164   5.714
 2279SOL    HW2 7737   5.493   0.186   5.563
 2280SOL     OW 7738   6.399   6.602   4.795
 2280SOL    HW1 7739   6.496   6.621   4.812
 2280SOL    HW2 7740   6.391   6.522   4.736
 2281SOL     OW 7741   3.589   1.393   2.264
 2281SOL    HW1 7742   3.536   1.476   2.283
 2281SOL    HW2 7743   3.680   1.402   2.305
 2282SOL     OW 7744   5.244   0.968   4.236
 2282SOL    HW1 7745   5.285   0.931   4.319
 2282SOL    HW2 7746   5.145   0.952   4.237
 2283SOL     OW 7747   0.239   4.743   1.247
 2283SOL    HW1 7748   0.230   4.662   1.306
 2283SOL    HW2 7749   0.332   4.777   1.252
 2284SOL     OW 7750   0.780   2.671   6.519
 2284SOL    HW1 7751   0.856   2.688   6.582
 2284SOL    HW2 7752   0.804   2.704   6.428
 2285SOL     OW 7753   2.132   2.354   0.759
 2285SOL    HW1 7754   2.090   2.263   0.747
 2285SOL    HW2 7755   2.170   2.360   0.851
 2286SOL     OW 7756   0.010   0.115   4.019
 2286SOL    HW1 7757   0.052   0.040   4.069
 2286SOL    HW2 7758   0.023   0.101   3.921
 2287SOL     OW 7759   1.902   0.719   3.021
 2287SOL    HW1 7760   1.811   0.689   3.048
 2287SOL    HW2 7761   1.909   0.717   2.921
 2288SOL     OW 7762   6.187   5.023   4.624
 2288SOL    HW1 7763   6.108   4.998   4.679
 2288SOL    HW2 7764   6.169   5.003   4.528
 2289SOL     OW 7765   0.670   4.817   2.225
 2289SOL    HW1 7766   0.641   4.781   2.313
 2289SOL    HW2 7767   0.712   4.907   2.238
 2290SOL     OW 7768   0.741   4.052   1.088
 2290SOL    HW1 7769   0.812   4.011   1.031
 2290SOL    HW2 7770   0.782   4.091   1.170
 2291SOL     OW 7771   2.947   2.655   5.857
 2291SOL    HW1 7772   2.932   2.674   5.954
 2291SOL    HW2 7773   2.875   2.699   5.803
 2292SOL     OW 7774   6.376   2.307   5.202
 2292SOL    HW1 7775   6.475   2.297   5.213
 2292SOL    HW2 7776   6.329   2.243   5.263
 2293SOL     OW 7777   4.446   6.352   1.300
 2293SOL    HW1 7778   4.380   6.286   1.336
 2293SOL    HW2 7779   4.398   6.436   1.272
 2294SOL     OW 7780   3.126   0.815   6.627
 2294SOL    HW1 7781   3.106   0.906   6.592
 2294SOL    HW2 7782   3.171   0.760   6.557
 2295SOL     OW 7783   0.705   2.169   3.081
 2295SOL    HW1 7784   0.673   2.085   3.037
 2295SOL    HW2 7785   0.724   2.238   3.011
 2296SOL     OW 7786   3.989   5.365   0.973
 2296SOL    HW1 7787   4.000   5.276   1.019
 2296SOL    HW2 7788   3.961   5.350   0.878
 2297SOL     OW 7789   4.339   4.743   5.704
 2297SOL    HW1 7790   4.268   4.812   5.718
 2297SOL    HW2 7791   4.417   4.763   5.764
 2298SOL     OW 7792   3.997   2.968   1.822
 2298SOL    HW1 7793   4.029   2.873   1.822
 2298SOL    HW2 7794   4.066   3.027   1.863
 2299SOL     OW 7795   4.315   5.593   5.336
 2299SOL    HW1 7796   4.324   5.546   5.249
 2299SOL    HW2 7797   4.246   5.547   5.392
 2300SOL     OW 7798   2.324   5.683   1.919
 2300SOL    HW1 7799   2.419   5.710   1.904
 2300SOL    HW2 7800   2.309   5.668   2.016
 2301SOL     OW 7801   3.370   2.873   2.963
 2301SOL    HW1 7802   3.374   2.859   2.864
 2301SOL    HW2 7803   3.302   2.943   2.985
 2302SOL     OW 7804   4.129   0.544   1.115
 2302SOL    HW1 7805   4.084   0.518   1.200
 2302SOL    HW2 7806   4.079   0.618   1.071
 2303SOL     OW 7807   2.725   3.155   6.160
 2303SOL    HW1 7808   2.785   3.162   6.081
 2303SOL    HW2 7809   2.649   3.220   6.150
 2304SOL     OW 7810   4.446   6.593   3.653
 2304SOL    HW1 7811   4.417   6.629   3.742
 2304SOL    HW2 7812   4.526   6.643   3.620
 2305SOL     OW 7813   2.374   6.223   2.474
 2305SOL    HW1 7814   2.315   6.299   2.448
 2305SOL    HW2 7815   2.468   6.256   2.485
 2306SOL     OW 7816   2.851   4.786   2.202
 2306SOL    HW1 7817   2.837   4.881   2.176
 2306SOL    HW2 7818   2.844   4.728   2.120
 2307SOL     OW 7819   6.608   3.857   2.796
 2307SOL    HW1 7820   6.699   3.867   2.835
 2307SOL    HW2 7821   6.558   3.943   2.806
 2308SOL     OW 7822   0.708   5.450   1.344
 2308SOL    HW1 7823   0.704   5.522   1.275
 2308SOL    HW2 7824   0.615   5.427   1.374
 2309SOL     OW 7825   1.957   0.857   6.663
 2309SOL    HW1 7826   1.948   0.860   6.564
 2309SOL    HW2 7827   2.046   0.894   6.690
 2310SOL     OW 7828   4.911   6.359   0.900
 2310SOL    HW1 7829   5.005   6.336   0.875
 2310SOL    HW2 7830   4.874   6.424   0.833
 2311SOL     OW 7831   1.801   6.313   1.740
 2311SOL    HW1 7832   1.878   6.362   1.698
 2311SOL    HW2 7833   1.819   6.214   1.736
 2312SOL     OW 7834   3.777   6.563   3.599
 2312SOL    HW1 7835   3.829   6.479   3.586
 2312SOL    HW2 7836   3.715   6.577   3.523
 2313SOL     OW 7837   5.629   5.778   1.529
 2313SOL    HW1 7838   5.685   5.849   1.488
 2313SOL    HW2 7839   5.638   5.694   1.476
 2314SOL     OW 7840   5.631   0.107   4.699
 2314SOL    HW1 7841   5.600   0.053   4.777
 2314SOL    HW2 7842   5.715   0.067   4.663
 2315SOL     OW 7843   4.948   3.236   5.770
 2315SOL    HW1 7844   4.869   3.297   5.784
 2315SOL    HW2 7845   4.919   3.157   5.715
 2316SOL     OW 7846   3.663   0.815   4.300
 2316SOL    HW1 7847   3.645   0.717   4.304
 2316SOL    HW2 7848   3.623   0.853   4.216
 2317SOL     OW 7849   0.507   6.064   3.595
 2317SOL    HW1 7850   0.528   6.140   3.656
 2317SOL    HW2 7851   0.437   6.091   3.530
 2318SOL     OW 7852   2.139   3.077   4.760
 2318SOL    HW1 7853   2.192   3.059   4.677
 2318SOL    HW2 7854   2.200   3.082   4.839
 2319SOL     OW 7855   1.948   4.872   3.998
 2319SOL    HW1 7856   1.925   4.936   3.924
 2319SOL    HW2 7857   1.955   4.779   3.961
 2320SOL     OW 7858   0.727   2.893   4.842
 2320SOL    HW1 7859   0.697   2.841   4.761
 2320SOL    HW2 7860   0.793   2.963   4.814
 2321SOL     OW 7861   2.501   6.418   6.814
 2321SOL    HW1 7862   2.453   6.491   6.863
 2321SOL    HW2 7863   2.570   6.457   6.754
 2322SOL     OW 7864   2.275   1.998   3.869
 2322SOL    HW1 7865   2.332   2.077   3.890
 2322SOL    HW2 7866   2.333   1.920   3.846
 2323SOL     OW 7867   2.942   5.020   2.097
 2323SOL    HW1 7868   2.953   5.094   2.163
 2323SOL    HW2 7869   3.030   4.977   2.079
 2324SOL     OW 7870   6.564   6.804   1.035
 2324SOL    HW1 7871   6.605   6.874   1.093
 2324SOL    HW2 7872   6.519   6.735   1.092
 2325SOL     OW 7873   0.886   4.880   1.476
 2325SOL    HW1 7874   0.840   4.867   1.388
 2325SOL    HW2 7875   0.836   4.947   1.530
 2326SOL     OW 7876   3.912   5.304   6.576
 2326SOL    HW1 7877   3.907   5.401   6.553
 2326SOL    HW2 7878   3.890   5.249   6.496
 2327SOL     OW 7879   6.679   2.084   3.504
 2327SOL    HW1 7880   6.751   2.135   3.458
 2327SOL    HW2 7881   6.590   2.108   3.465
 2328SOL     OW 7882   2.881   1.799   2.554
 2328SOL    HW1 7883   2.845   1.843   2.472
 2328SOL    HW2 7884   2.906   1.704   2.533
 2329SOL     OW 7885   1.912   3.984   5.206
 2329SOL    HW1 7886   1.961   3.936   5.133
 2329SOL    HW2 7887   1.842   4.042   5.166
 2330SOL     OW 7888   0.882   3.895   1.384
 2330SOL    HW1 7889   0.824   3.817   1.359
 2330SOL    HW2 7890   0.828   3.979   1.378
 2331SOL     OW 7891   4.765   5.326   0.594
 2331SOL    HW1 7892   4.716   5.280   0.669
 2331SOL    HW2 7893   4.751   5.276   0.509
 2332SOL     OW 7894   4.692   1.826   5.228
 2332SOL    HW1 7895   4.661   1.829   5.323
 2332SOL    HW2 7896   4.750   1.905   5.209
 2333SOL     OW 7897   0.889   5.020   3.139
 2333SOL    HW1 7898   0.792   5.026   3.159
 2333SOL    HW2 7899   0.919   4.924   3.147
 2334SOL     OW 7900   2.367   0.555   6.950
 2334SOL    HW1 7901   2.316   0.593   6.873
 2334SOL    HW2 7902   2.382   0.626   7.018
 2335SOL     OW 7903   6.306   0.603   2.787
 2335SOL    HW1 7904   6.308   0.530   2.719
 2335SOL    HW2 7905   6.230   0.588   2.851
 2336SOL     OW 7906   4.322   2.355   4.821
 2336SOL    HW1 7907   4.324   2.258   4.798
 2336SOL    HW2 7908   4.284   2.367   4.912
 2337SOL     OW 7909   4.814   1.168   2.559
 2337SOL    HW1 7910   4.779   1.236   2.623
 2337SOL    HW2 7911   4.876   1.106   2.606
 2338SOL     OW 7912   1.493   2.212   5.443
 2338SOL    HW1 7913   1.430   2.288   5.460
 2338SOL    HW2 7914   1.452   2.148   5.378
 2339SOL     OW 7915   4.053   3.872   5.006
 2339SOL    HW1 7916   4.149   3.893   4.989
 2339SOL    HW2 7917   4.029   3.900   5.099
 2340SOL     OW 7918   5.688   4.837   0.413
 2340SOL    HW1 7919   5.733   4.901   0.351
 2340SOL    HW2 7920   5.621   4.784   0.362
 2341SOL     OW 7921   4.696   4.870   1.804
 2341SOL    HW1 7922   4.660   4.928   1.731
 2341SOL    HW2 7923   4.621   4.828   1.854
 2342SOL     OW 7924   0.392   7.015   5.081
 2342SOL    HW1 7925   0.466   0.004   5.015
 2342SOL    HW2 7926   0.414   0.040   5.166
 2343SOL     OW 7927   2.521   5.935   2.654
 2343SOL    HW1 7928   2.556   6.029   2.650
 2343SOL    HW2 7929   2.547   5.886   2.571
 2344SOL     OW 7930   1.679   0.026   0.972
 2344SOL    HW1 7931   1.715   0.018   0.879
 2344SOL    HW2 7932   1.584   7.019   0.974
 2345SOL     OW 7933   3.598   5.248   4.950
 2345SOL    HW1 7934   3.517   5.210   4.906
 2345SOL    HW2 7935   3.680   5.223   4.897
 2346SOL     OW 7936   4.872   2.606   4.645
 2346SOL    HW1 7937   4.817   2.525   4.624
 2346SOL    HW2 7938   4.966   2.591   4.614
 2347SOL     OW 7939   2.520   3.229   1.730
 2347SOL    HW1 7940   2.490   3.315   1.771
 2347SOL    HW2 7941   2.592   3.188   1.787
 2348SOL     OW 7942   3.626   6.325   3.385
 2348SOL    HW1 7943   3.711   6.336   3.332
 2348SOL    HW2 7944   3.585   6.414   3.402
 2349SOL     OW 7945   0.656   4.559   6.113
 2349SOL    HW1 7946   0.630   4.529   6.205
 2349SOL    HW2 7947   0.675   4.658   6.115
 2350SOL     OW 7948   4.483   6.915   6.225
 2350SOL    HW1 7949   4.460   6.924   6.128
 2350SOL    HW2 7950   4.484   7.006   6.267
 2351SOL     OW 7951   3.627   5.007   2.963
 2351SOL    HW1 7952   3.713   4.968   2.998
 2351SOL    HW2 7953   3.554   4.939   2.973
 2352SOL     OW 7954   0.758   4.639   2.011
 2352SOL    HW1 7955   0.735   4.712   2.077
 2352SOL    HW2 7956   0.688   4.568   2.015
 2353SOL     OW 7957   3.169   4.594   5.351
 2353SOL    HW1 7958   3.105   4.518   5.363
 2353SOL    HW2 7959   3.148   4.642   5.266
 2354SOL     OW 7960   2.269   1.656   5.845
 2354SOL    HW1 7961   2.182   1.608   5.836
 2354SOL    HW2 7962   2.336   1.615   5.783
 2355SOL     OW 7963   1.643   5.850   0.065
 2355SOL    HW1 7964   1.611   5.817   6.999
 2355SOL    HW2 7965   1.677   5.944   0.055
 2356SOL     OW 7966   1.793   4.001   0.567
 2356SOL    HW1 7967   1.742   3.999   0.481
 2356SOL    HW2 7968   1.801   4.096   0.598
 2357SOL     OW 7969   4.593   5.842   4.237
 2357SOL    HW1 7970   4.523   5.777   4.268
 2357SOL    HW2 7971   4.585   5.927   4.290
 2358SOL     OW 7972   3.403   5.421   5.064
 2358SOL    HW1 7973   3.477   5.377   5.013
 2358SOL    HW2 7974   3.392   5.377   5.153
 2359SOL     OW 7975   0.126   0.847   6.069
 2359SOL    HW1 7976   0.036   0.840   6.113
 2359SOL    HW2 7977   0.161   0.755   6.052
 2360SOL     OW 7978   5.447   5.986   6.395
 2360SOL    HW1 7979   5.359   6.002   6.351
 2360SOL    HW2 7980   5.492   6.074   6.414
 2361SOL     OW 7981   2.327   1.030   5.252
 2361SOL    HW1 7982   2.355   1.111   5.202
 2361SOL    HW2 7983   2.392   1.012   5.326
 2362SOL     OW 7984   2.885   0.808   5.419
 2362SOL    HW1 7985   2.922   0.843   5.333
 2362SOL    HW2 7986   2.832   0.881   5.464
 2363SOL     OW 7987   4.442   2.597   5.382
 2363SOL    HW1 7988   4.369   2.664   5.394
 2363SOL    HW2 7989   4.530   2.637   5.406
 2364SOL     OW 7990   0.999   2.045   2.776
 2364SOL    HW1 7991   1.005   2.041   2.676
 2364SOL    HW2 7992   1.070   2.106   2.811
 2365SOL     OW 7993   5.957   2.330   6.786
 2365SOL    HW1 7994   5.892   2.395   6.826
 2365SOL    HW2 7995   5.969   2.351   6.689
 2366SOL     OW 7996   1.661   4.355   6.058
 2366SOL    HW1 7997   1.693   4.441   6.097
 2366SOL    HW2 7998   1.713   4.334   5.976
 2367SOL     OW 7999   3.550   3.788   0.152
 2367SOL    HW1 8000   3.481   3.790   0.224
 2367SOL    HW2 8001   3.621   3.856   0.172
 2368SOL     OW 8002   4.827   6.996   3.015
 2368SOL    HW1 8003   4.852   0.054   3.069
 2368SOL    HW2 8004   4.739   7.013   2.971
 2369SOL     OW 8005   1.489   2.764   5.372
 2369SOL    HW1 8006   1.502   2.688   5.435
 2369SOL    HW2 8007   1.579   2.800   5.345
 2370SOL     OW 8008   4.892   4.161   6.371
 2370SOL    HW1 8009   4.803   4.117   6.380
 2370SOL    HW2 8010   4.886   4.255   6.403
 2371SOL     OW 8011   6.946   6.165   1.758
 2371SOL    HW1 8012   6.914   6.164   1.663
 2371SOL    HW2 8013   7.000   6.248   1.774
 2372SOL     OW 8014   6.987   2.105   1.033
 2372SOL    HW1 8015   6.961   2.172   1.102
 2372SOL    HW2 8016   6.944   2.128   0.946
 2373SOL     OW 8017   0.499   0.064   6.791
 2373SOL    HW1 8018   0.583   0.017   6.818
 2373SOL    HW2 8019   0.446   0.087   6.872
 2374SOL     OW 8020   6.153   0.691   4.226
 2374SOL    HW1 8021   6.186   0.721   4.316
 2374SOL    HW2 8022   6.222   0.710   4.157
 2375SOL     OW 8023   1.918   6.802   3.457
 2375SOL    HW1 8024   1.882   6.873   3.397
 2375SOL    HW2 8025   2.015   6.787   3.436
 2376SOL     OW 8026   6.004   2.438   4.311
 2376SOL    HW1 8027   6.083   2.428   4.370
 2376SOL    HW2 8028   5.923   2.398   4.355
 2377SOL     OW 8029   3.331   4.117   2.910
 2377SOL    HW1 8030   3.315   4.020   2.895
 2377SOL    HW2 8031   3.335   4.135   3.009
 2378SOL     OW 8032   4.831   2.451   0.204
 2378SOL    HW1 8033   4.825   2.354   0.230
 2378SOL    HW2 8034   4.770   2.505   0.263
 2379SOL     OW 8035   6.034   2.040   6.359
 2379SOL    HW1 8036   5.957   2.105   6.363
 2379SOL    HW2 8037   6.071   2.027   6.451
 2380SOL     OW 8038   0.065   0.163   5.828
 2380SOL    HW1 8039   0.060   0.261   5.848
 2380SOL    HW2 8040   0.046   0.112   5.912
 2381SOL     OW 8041   2.094   3.831   4.287
 2381SOL    HW1 8042   2.018   3.878   4.332
 2381SOL    HW2 8043   2.173   3.892   4.283
 2382SOL     OW 8044   2.465   4.901   3.693
 2382SOL    HW1 8045   2.513   4.937   3.613
 2382SOL    HW2 8046   2.483   4.803   3.701
 2383SOL     OW 8047   5.698   6.662   0.373
 2383SOL    HW1 8048   5.704   6.652   0.473
 2383SOL    HW2 8049   5.686   6.572   0.332
 2384SOL     OW 8050   6.626   6.192   2.299
 2384SOL    HW1 8051   6.561   6.149   2.236
 2384SOL    HW2 8052   6.586   6.276   2.337
 2385SOL     OW 8053   6.427   6.661   1.216
 2385SOL    HW1 8054   6.385   6.577   1.250
 2385SOL    HW2 8055   6.361   6.736   1.223
 2386SOL     OW 8056   5.465   5.540   4.390
 2386SOL    HW1 8057   5.394   5.471   4.377
 2386SOL    HW2 8058   5.483   5.586   4.303
 2387SOL     OW 8059   0.740   1.971   3.642
 2387SOL    HW1 8060   0.741   2.057   3.692
 2387SOL    HW2 8061   0.651   1.957   3.599
 2388SOL     OW 8062   1.224   2.091   3.660
 2388SOL    HW1 8063   1.252   2.187   3.657
 2388SOL    HW2 8064   1.140   2.079   3.607
 2389SOL     OW 8065   5.373   3.333   3.378
 2389SOL    HW1 8066   5.366   3.423   3.422
 2389SOL    HW2 8067   5.342   3.262   3.441
 2390SOL     OW 8068   3.530   3.885   3.931
 2390SOL    HW1 8069   3.502   3.975   3.965
 2390SOL    HW2 8070   3.450   3.839   3.891
 2391SOL     OW 8071   4.642   4.942   5.760
 2391SOL    HW1 8072   4.584   4.945   5.678
 2391SOL    HW2 8073   4.734   4.913   5.735
 2392SOL     OW 8074   4.078   0.266   5.029
 2392SOL    HW1 8075   4.172   0.244   5.056
 2392SOL    HW2 8076   4.075   0.360   4.995
 2393SOL     OW 8077   4.398   5.091   6.501
 2393SOL    HW1 8078   4.325   5.022   6.501
 2393SOL    HW2 8079   4.480   5.053   6.544
 2394SOL     OW 8080   2.123   3.302   4.314
 2394SOL    HW1 8081   2.188   3.360   4.362
 2394SOL    HW2 8082   2.029   3.333   4.332
 2395SOL     OW 8083   6.258   2.602   0.228
 2395SOL    HW1 8084   6.277   2.504   0.220
 2395SOL    HW2 8085   6.287   2.635   0.318
 2396SOL     OW 8086   3.782   5.262   1.247
 2396SOL    HW1 8087   3.851   5.231   1.181
 2396SOL    HW2 8088   3.755   5.185   1.305
 2397SOL     OW 8089   0.419   4.319   7.007
 2397SOL    HW1 8090   0.373   4.250   0.040
 2397SOL    HW2 8091   0.393   4.308   6.911
 2398SOL     OW 8092   3.080   3.823   6.547
 2398SOL    HW1 8093   2.999   3.794   6.497
 2398SOL    HW2 8094   3.104   3.917   6.521
 2399SOL     OW 8095   5.188   1.244   2.661
 2399SOL    HW1 8096   5.202   1.264   2.758
 2399SOL    HW2 8097   5.154   1.327   2.615
 2400SOL     OW 8098   3.670   5.330   0.347
 2400SOL    HW1 8099   3.678   5.405   0.413
 2400SOL    HW2 8100   3.721   5.250   0.381
 2401SOL     OW 8101   4.270   6.712   6.268
 2401SOL    HW1 8102   4.319   6.627   6.249
 2401SOL    HW2 8103   4.325   6.790   6.238
 2402SOL     OW 8104   0.613   1.083   4.547
 2402SOL    HW1 8105   0.638   1.163   4.601
 2402SOL    HW2 8106   0.618   1.105   4.450
 2403SOL     OW 8107   2.541   2.439   0.259
 2403SOL    HW1 8108   2.481   2.458   0.337
 2403SOL    HW2 8109   2.541   2.518   0.198
 2404SOL     OW 8110   5.692   0.898   1.262
 2404SOL    HW1 8111   5.621   0.856   1.318
 2404SOL    HW2 8112   5.775   0.910   1.317
 2405SOL     OW 8113   3.430   3.465   3.257
 2405SOL    HW1 8114   3.479   3.379   3.245
 2405SOL    HW2 8115   3.346   3.449   3.309
 2406SOL     OW 8116   2.437   0.701   3.291
 2406SOL    HW1 8117   2.369   0.760   3.249
 2406SOL    HW2 8118   2.488   0.752   3.361
 2407SOL     OW 8119   5.524   2.852   3.031
 2407SOL    HW1 8120   5.599   2.814   3.085
 2407SOL    HW2 8121   5.561   2.914   2.962
 2408SOL     OW 8122   3.776   4.879   4.052
 2408SOL    HW1 8123   3.686   4.923   4.053
 2408SOL    HW2 8124   3.811   4.878   3.958
 2409SOL     OW 8125   1.661   2.686   1.128
 2409SOL    HW1 8126   1.585   2.634   1.168
 2409SOL    HW2 8127   1.743   2.671   1.183
 2410SOL     OW 8128   4.769   2.335   6.414
 2410SOL    HW1 8129   4.784   2.434   6.413
 2410SOL    HW2 8130   4.754   2.302   6.321
 2411SOL     OW 8131   4.445   5.457   5.806
 2411SOL    HW1 8132   4.477   5.547   5.834
 2411SOL    HW2 8133   4.485   5.387   5.865
 2412SOL     OW 8134   3.770   4.665   0.325
 2412SOL    HW1 8135   3.826   4.747   0.309
 2412SOL    HW2 8136   3.799   4.593   0.262
 2413SOL     OW 8137   6.477   1.920   0.418
 2413SOL    HW1 8138   6.394   1.893   0.370
 2413SOL    HW2 8139   6.505   1.847   0.479
 2414SOL     OW 8140   4.958   3.963   1.905
 2414SOL    HW1 8141   4.885   4.017   1.949
 2414SOL    HW2 8142   5.047   4.000   1.932
 2415SOL     OW 8143   0.778   6.408   1.696
 2415SOL    HW1 8144   0.819   6.443   1.780
 2415SOL    HW2 8145   0.759   6.483   1.633
 2416SOL     OW 8146   3.339   2.095   5.214
 2416SOL    HW1 8147   3.341   2.123   5.310
 2416SOL    HW2 8148   3.292   2.164   5.159
 2417SOL     OW 8149   4.449   3.061   6.059
 2417SOL    HW1 8150   4.409   3.001   5.990
 2417SOL    HW2 8151   4.548   3.052   6.057
 2418SOL     OW 8152   3.047   3.980   3.922
 2418SOL    HW1 8153   3.091   4.010   4.006
 2418SOL    HW2 8154   3.081   4.035   3.845
 2419SOL     OW 8155   0.881   6.532   3.769
 2419SOL    HW1 8156   0.879   6.556   3.866
 2419SOL    HW2 8157   0.813   6.461   3.750
 2420SOL     OW 8158   3.831   1.802   1.309
 2420SOL    HW1 8159   3.875   1.859   1.378
 2420SOL    HW2 8160   3.766   1.740   1.354
 2421SOL     OW 8161   2.807   1.202   5.304
 2421SOL    HW1 8162   2.901   1.235   5.302
 2421SOL    HW2 8163   2.746   1.269   5.260
 2422SOL     OW 8164   6.409   0.313   1.791
 2422SOL    HW1 8165   6.403   0.379   1.865
 2422SOL    HW2 8166   6.351   0.234   1.812
 2423SOL     OW 8167   1.216   6.121   3.859
 2423SOL    HW1 8168   1.297   6.146   3.806
 2423SOL    HW2 8169   1.135   6.124   3.799
 2424SOL     OW 8170   6.194   6.315   6.139
 2424SOL    HW1 8171   6.262   6.369   6.089
 2424SOL    HW2 8172   6.117   6.294   6.079
 2425SOL     OW 8173   6.267   0.358   4.358
 2425SOL    HW1 8174   6.170   0.336   4.373
 2425SOL    HW2 8175   6.318   0.273   4.346
 2426SOL     OW 8176   0.890   5.386   4.438
 2426SOL    HW1 8177   0.897   5.308   4.500
 2426SOL    HW2 8178   0.817   5.369   4.372
 2427SOL     OW 8179   5.431   5.299   6.570
 2427SOL    HW1 8180   5.481   5.303   6.657
 2427SOL    HW2 8181   5.496   5.290   6.495
 2428SOL     OW 8182   6.663   6.789   3.579
 2428SOL    HW1 8183   6.685   6.857   3.509
 2428SOL    HW2 8184   6.693   6.823   3.669
 2429SOL     OW 8185   6.420   5.779   4.846
 2429SOL    HW1 8186   6.400   5.861   4.792
 2429SOL    HW2 8187   6.407   5.698   4.790
 2430SOL     OW 8188   6.594   1.403   1.119
 2430SOL    HW1 8189   6.638   1.406   1.209
 2430SOL    HW2 8190   6.536   1.484   1.108
 2431SOL     OW 8191   3.655   0.255   2.083
 2431SOL    HW1 8192   3.719   0.234   2.156
 2431SOL    HW2 8193   3.570   0.292   2.122
 2432SOL     OW 8194   3.602   6.843   2.965
 2432SOL    HW1 8195   3.664   6.765   2.969
 2432SOL    HW2 8196   3.511   6.815   2.998
 2433SOL     OW 8197   3.454   6.628   0.925
 2433SOL    HW1 8198   3.360   6.593   0.928
 2433SOL    HW2 8199   3.457   6.721   0.961
 2434SOL     OW 8200   4.813   1.253   3.816
 2434SOL    HW1 8201   4.848   1.173   3.767
 2434SOL    HW2 8202   4.742   1.298   3.760
 2435SOL     OW 8203   4.733   5.432   6.039
 2435SOL    HW1 8204   4.723   5.480   6.126
 2435SOL    HW2 8205   4.783   5.489   5.974
 2436SOL     OW 8206   2.213   6.203   1.336
 2436SOL    HW1 8207   2.188   6.298   1.355
 2436SOL    HW2 8208   2.247   6.160   1.419
 2437SOL     OW 8209   3.801   5.945   0.899
 2437SOL    HW1 8210   3.861   5.916   0.824
 2437SOL    HW2 8211   3.797   6.045   0.902
 2438SOL     OW 8212   3.604   1.610   5.627
 2438SOL    HW1 8213   3.646   1.581   5.541
 2438SOL    HW2 8214   3.524   1.666   5.608
 2439SOL     OW 8215   1.146   4.233   6.789
 2439SOL    HW1 8216   1.183   4.300   6.854
 2439SOL    HW2 8217   1.061   4.268   6.750
 2440SOL     OW 8218   4.873   6.466   4.952
 2440SOL    HW1 8219   4.776   6.483   4.934
 2440SOL    HW2 8220   4.928   6.512   4.883
 2441SOL     OW 8221   6.811   0.560   6.686
 2441SOL    HW1 8222   6.906   0.590   6.698
 2441SOL    HW2 8223   6.754   0.603   6.756
 2442SOL     OW 8224   6.474   5.725   4.060
 2442SOL    HW1 8225   6.528   5.682   4.132
 2442SOL    HW2 8226   6.378   5.730   4.088
 2443SOL     OW 8227   3.452   6.492   5.491
 2443SOL    HW1 8228   3.502   6.520   5.410
 2443SOL    HW2 8229   3.446   6.392   5.493
 2444SOL     OW 8230   3.712   4.781   5.836
 2444SOL    HW1 8231   3.807   4.800   5.810
 2444SOL    HW2 8232   3.650   4.821   5.768
 2445SOL     OW 8233   0.422   0.378   1.698
 2445SOL    HW1 8234   0.398   0.368   1.601
 2445SOL    HW2 8235   0.429   0.287   1.739
 2446SOL     OW 8236   0.046   3.657   3.946
 2446SOL    HW1 8237   0.038   3.651   3.846
 2446SOL    HW2 8238   7.014   3.584   3.988
 2447SOL     OW 8239   3.009   1.391   0.575
 2447SOL    HW1 8240   2.935   1.422   0.515
 2447SOL    HW2 8241   3.088   1.452   0.564
 2448SOL     OW 8242   0.875   0.474   5.479
 2448SOL    HW1 8243   0.805   0.516   5.536
 2448SOL    HW2 8244   0.839   0.389   5.439
 2449SOL     OW 8245   6.944   4.646   1.586
 2449SOL    HW1 8246   6.946   4.717   1.515
 2449SOL    HW2 8247   6.992   4.679   1.667
 2450SOL     OW 8248   2.956   4.831   4.545
 2450SOL    HW1 8249   3.052   4.849   4.565
 2450SOL    HW2 8250   2.908   4.809   4.630
 2451SOL     OW 8251   0.680   0.253   3.488
 2451SOL    HW1 8252   0.601   0.312   3.471
 2451SOL    HW2 8253   0.705   0.258   3.585
 2452SOL     OW 8254   2.295   2.271   3.044
 2452SOL    HW1 8255   2.287   2.338   2.970
 2452SOL    HW2 8256   2.359   2.305   3.112
 2453SOL     OW 8257   6.549   3.721   1.401
 2453SOL    HW1 8258   6.459   3.693   1.437
 2453SOL    HW2 8259   6.621   3.684   1.460
 2454SOL     OW 8260   3.592   1.381   0.373
 2454SOL    HW1 8261   3.656   1.307   0.397
 2454SOL    HW2 8262   3.588   1.390   0.273
 2455SOL     OW 8263   5.661   6.621   0.662
 2455SOL    HW1 8264   5.583   6.676   0.694
 2455SOL    HW2 8265   5.713   6.589   0.741
 2456SOL     OW 8266   6.052   0.030   0.402
 2456SOL    HW1 8267   6.025   6.957   0.389
 2456SOL    HW2 8268   6.076   0.069   0.314
 2457SOL     OW 8269   6.794   6.457   0.451
 2457SOL    HW1 8270   6.729   6.388   0.484
 2457SOL    HW2 8271   6.886   6.419   0.450
 2458SOL     OW 8272   2.807   5.678   4.050
 2458SOL    HW1 8273   2.846   5.680   3.958
 2458SOL    HW2 8274   2.716   5.719   4.049
 2459SOL     OW 8275   2.577   6.434   0.220
 2459SOL    HW1 8276   2.659   6.492   0.224
 2459SOL    HW2 8277   2.503   6.486   0.177
 2460SOL     OW 8278   2.188   0.483   0.982
 2460SOL    HW1 8279   2.156   0.569   0.943
 2460SOL    HW2 8280   2.165   0.479   1.079
 2461SOL     OW 8281   4.427   0.335   2.779
 2461SOL    HW1 8282   4.505   0.297   2.830
 2461SOL    HW2 8283   4.387   0.411   2.831
 2462SOL     OW 8284   2.419   5.493   0.131
 2462SOL    HW1 8285   2.514   5.509   0.157
 2462SOL    HW2 8286   2.409   5.498   0.032
 2463SOL     OW 8287   6.052   2.499   4.044
 2463SOL    HW1 8288   6.000   2.461   3.967
 2463SOL    HW2 8289   6.016   2.462   4.129
 2464SOL     OW 8290   1.696   4.402   1.676
 2464SOL    HW1 8291   1.629   4.329   1.687
 2464SOL    HW2 8292   1.656   4.476   1.621
 2465SOL     OW 8293   6.610   5.983   1.269
 2465SOL    HW1 8294   6.683   6.044   1.238
 2465SOL    HW2 8295   6.580   6.012   1.360
 2466SOL     OW 8296   3.408   1.181   1.770
 2466SOL    HW1 8297   3.479   1.207   1.835
 2466SOL    HW2 8298   3.348   1.113   1.811
 2467SOL     OW 8299   5.633   1.968   5.590
 2467SOL    HW1 8300   5.597   1.992   5.500
 2467SOL    HW2 8301   5.557   1.945   5.651
 2468SOL     OW 8302   5.796   6.508   2.359
 2468SOL    HW1 8303   5.793   6.527   2.261
 2468SOL    HW2 8304   5.715   6.456   2.386
 2469SOL     OW 8305   3.980   4.762   5.339
 2469SOL    HW1 8306   3.975   4.662   5.340
 2469SOL    HW2 8307   3.892   4.799   5.309
 2470SOL     OW 8308   3.098   4.312   6.048
 2470SOL    HW1 8309   3.054   4.273   5.966
 2470SOL    HW2 8310   3.158   4.387   6.021
 2471SOL     OW 8311   1.830   6.031   1.696
 2471SOL    HW1 8312   1.798   6.055   1.604
 2471SOL    HW2 8313   1.930   6.022   1.695
 2472SOL     OW 8314   4.843   1.525   4.201
 2472SOL    HW1 8315   4.858   1.531   4.300
 2472SOL    HW2 8316   4.763   1.468   4.183
 2473SOL     OW 8317   1.664   4.224   5.517
 2473SOL    HW1 8318   1.617   4.195   5.434
 2473SOL    HW2 8319   1.681   4.145   5.576
 2474SOL     OW 8320   0.359   5.316   0.446
 2474SOL    HW1 8321   0.292   5.373   0.398
 2474SOL    HW2 8322   0.339   5.220   0.429
 2475SOL     OW 8323   4.346   1.453   0.520
 2475SOL    HW1 8324   4.287   1.378   0.550
 2475SOL    HW2 8325   4.427   1.457   0.579
 2476SOL     OW 8326   0.607   2.798   3.777
 2476SOL    HW1 8327   0.689   2.748   3.804
 2476SOL    HW2 8328   0.587   2.781   3.681
 2477SOL     OW 8329   6.553   0.311   2.492
 2477SOL    HW1 8330   6.570   0.213   2.483
 2477SOL    HW2 8331   6.580   0.341   2.583
 2478SOL     OW 8332   5.622   6.991   2.270
 2478SOL    HW1 8333   5.627   6.910   2.213
 2478SOL    HW2 8334   5.627   0.050   2.213
 2479SOL     OW 8335   0.879   3.427   1.338
 2479SOL    HW1 8336   0.900   3.523   1.320
 2479SOL    HW2 8337   0.922   3.369   1.269
 2480SOL     OW 8338   5.794   4.226   0.778
 2480SOL    HW1 8339   5.725   4.154   0.786
 2480SOL    HW2 8340   5.809   4.247   0.681
 2481SOL     OW 8341   2.784   6.616   0.255
 2481SOL    HW1 8342   2.754   6.695   0.201
 2481SOL    HW2 8343   2.875   6.587   0.225
 2482SOL     OW 8344   5.251   2.959   5.486
 2482SOL    HW1 8345   5.167   2.912   5.516
 2482SOL    HW2 8346   5.255   3.049   5.528
 2483SOL     OW 8347   2.546   1.134   6.905
 2483SOL    HW1 8348   2.545   1.126   7.005
 2483SOL    HW2 8349   2.593   1.054   6.866
 2484SOL     OW 8350   2.034   0.612   0.405
 2484SOL    HW1 8351   2.121   0.575   0.372
 2484SOL    HW2 8352   2.051   0.695   0.458
 2485SOL     OW 8353   4.392   4.535   2.111
 2485SOL    HW1 8354   4.389   4.435   2.104
 2485SOL    HW2 8355   4.323   4.574   2.051
 2486SOL     OW 8356   3.401   5.806   2.874
 2486SOL    HW1 8357   3.301   5.807   2.870
 2486SOL    HW2 8358   3.431   5.759   2.957
 2487SOL     OW 8359   3.981   5.156   0.048
 2487SOL    HW1 8360   3.988   5.200   6.982
 2487SOL    HW2 8361   3.892   5.110   0.055
 2488SOL     OW 8362   2.382   3.975   1.489
 2488SOL    HW1 8363   2.284   3.985   1.504
 2488SOL    HW2 8364   2.399   3.943   1.395
 2489SOL     OW 8365   2.445   5.179   4.118
 2489SOL    HW1 8366   2.534   5.220   4.099
 2489SOL    HW2 8367   2.394   5.167   4.033
 2490SOL     OW 8368   6.657   5.296   0.805
 2490SOL    HW1 8369   6.644   5.265   0.711
 2490SOL    HW2 8370   6.594   5.247   0.865
 2491SOL     OW 8371   2.124   5.805   2.753
 2491SOL    HW1 8372   2.169   5.884   2.797
 2491SOL    HW2 8373   2.025   5.817   2.755
 2492SOL     OW 8374   3.862   2.940   6.906
 2492SOL    HW1 8375   3.768   2.952   6.939
 2492SOL    HW2 8376   3.870   2.974   6.813
 2493SOL     OW 8377   6.114   0.571   2.978
 2493SOL    HW1 8378   6.029   0.518   2.989
 2493SOL    HW2 8379   6.138   0.612   3.066
 2494SOL     OW 8380   5.888   3.544   2.514
 2494SOL    HW1 8381   5.831   3.589   2.446
 2494SOL    HW2 8382   5.932   3.464   2.474
 2495SOL     OW 8383   4.907   0.552   5.164
 2495SOL    HW1 8384   4.875   0.519   5.253
 2495SOL    HW2 8385   5.005   0.533   5.156
 2496SOL     OW 8386   1.096   5.077   6.816
 2496SOL    HW1 8387   1.038   5.024   6.754
 2496SOL    HW2 8388   1.040   5.113   6.891
 2497SOL     OW 8389   0.239   1.724   0.425
 2497SOL    HW1 8390   0.199   1.801   0.475
 2497SOL    HW2 8391   0.170   1.654   0.409
 2498SOL     OW 8392   3.155   2.045   3.357
 2498SOL    HW1 8393   3.175   2.046   3.455
 2498SOL    HW2 8394   3.233   2.006   3.308
 2499SOL     OW 8395   5.497   1.492   4.311
 2499SOL    HW1 8396   5.426   1.536   4.368
 2499SOL    HW2 8397   5.454   1.424   4.252
 2500SOL     OW 8398   4.485   3.538   5.872
 2500SOL    HW1 8399   4.563   3.586   5.912
 2500SOL    HW2 8400   4.401   3.588   5.892
 2501SOL     OW 8401   6.869   5.812   6.798
 2501SOL    HW1 8402   6.877   5.912   6.793
 2501SOL    HW2 8403   6.959   5.771   6.797
 2502SOL     OW 8404   2.616   6.142   3.327
 2502SOL    HW1 8405   2.592   6.146   3.424
 2502SOL    HW2 8406   2.655   6.053   3.306
 2503SOL     OW 8407   3.755   5.795   5.594
 2503SOL    HW1 8408   3.785   5.865   5.529
 2503SOL    HW2 8409   3.684   5.738   5.551
 2504SOL     OW 8410   2.745   5.524   4.914
 2504SOL    HW1 8411   2.676   5.498   4.982
 2504SOL    HW2 8412   2.756   5.450   4.848
 2505SOL     OW 8413   2.447   6.352   4.242
 2505SOL    HW1 8414   2.488   6.262   4.228
 2505SOL    HW2 8415   2.370   6.364   4.180
 2506SOL     OW 8416   6.995   3.134   5.922
 2506SOL    HW1 8417   0.069   3.131   5.897
 2506SOL    HW2 8418   6.986   3.141   6.021
 2507SOL     OW 8419   6.404   4.613   6.810
 2507SOL    HW1 8420   6.311   4.640   6.787
 2507SOL    HW2 8421   6.458   4.694   6.830
 2508SOL     OW 8422   2.473   1.824   2.219
 2508SOL    HW1 8423   2.430   1.767   2.149
 2508SOL    HW2 8424   2.561   1.856   2.186
 2509SOL     OW 8425   5.880   2.913   2.534
 2509SOL    HW1 8426   5.874   2.843   2.604
 2509SOL    HW2 8427   5.962   2.969   2.549
 2510SOL     OW 8428   2.865   4.372   0.666
 2510SOL    HW1 8429   2.825   4.427   0.739
 2510SOL    HW2 8430   2.848   4.275   0.684
 2511SOL     OW 8431   1.445   1.684   4.781
 2511SOL    HW1 8432   1.423   1.645   4.691
 2511SOL    HW2 8433   1.519   1.631   4.822
 2512SOL     OW 8434   5.439   4.668   5.097
 2512SOL    HW1 8435   5.411   4.681   5.002
 2512SOL    HW2 8436   5.536   4.645   5.101
 2513SOL     OW 8437   1.461   2.796   6.191
 2513SOL    HW1 8438   1.510   2.875   6.228
 2513SOL    HW2 8439   1.477   2.717   6.251
 2514SOL     OW 8440   0.592   3.096   3.778
 2514SOL    HW1 8441   0.544   3.124   3.861
 2514SOL    HW2 8442   0.597   2.996   3.774
 2515SOL     OW 8443   1.130   6.555   1.115
 2515SOL    HW1 8444   1.155   6.649   1.094
 2515SOL    HW2 8445   1.201   6.514   1.173
 2516SOL     OW 8446   6.360   5.593   2.423
 2516SOL    HW1 8447   6.316   5.680   2.444
 2516SOL    HW2 8448   6.456   5.608   2.399
 2517SOL     OW 8449   2.129   5.217   5.886
 2517SOL    HW1 8450   2.193   5.293   5.891
 2517SOL    HW2 8451   2.051   5.243   5.828
 2518SOL     OW 8452   1.907   3.391   0.309
 2518SOL    HW1 8453   1.940   3.463   0.371
 2518SOL    HW2 8454   1.810   3.406   0.289
 2519SOL     OW 8455   4.711   4.975   4.479
 2519SOL    HW1 8456   4.637   5.026   4.522
 2519SOL    HW2 8457   4.798   4.997   4.524
 2520SOL     OW 8458   1.076   2.879   1.090
 2520SOL    HW1 8459   1.142   2.926   1.149
 2520SOL    HW2 8460   1.038   2.944   1.024
 2521SOL     OW 8461   1.440   6.702   5.654
 2521SOL    HW1 8462   1.359   6.665   5.608
 2521SOL    HW2 8463   1.428   6.800   5.667
 2522SOL     OW 8464   0.778   3.087   5.474
 2522SOL    HW1 8465   0.837   3.149   5.526
 2522SOL    HW2 8466   0.779   3.113   5.378
 2523SOL     OW 8467   7.022   2.787   1.162
 2523SOL    HW1 8468   0.063   2.776   1.085
 2523SOL    HW2 8469   6.955   2.857   1.139
 2524SOL     OW 8470   0.772   6.147   4.520
 2524SOL    HW1 8471   0.814   6.080   4.458
 2524SOL    HW2 8472   0.831   6.227   4.527
 2525SOL     OW 8473   1.925   2.633   4.118
 2525SOL    HW1 8474   1.893   2.694   4.046
 2525SOL    HW2 8475   1.846   2.594   4.167
 2526SOL     OW 8476   0.301   3.494   5.786
 2526SOL    HW1 8477   0.320   3.441   5.704
 2526SOL    HW2 8478   0.319   3.437   5.867
 2527SOL     OW 8479   5.241   0.384   5.413
 2527SOL    HW1 8480   5.154   0.392   5.366
 2527SOL    HW2 8481   5.237   0.309   5.478
 2528SOL     OW 8482   6.148   4.620   1.526
 2528SOL    HW1 8483   6.161   4.673   1.442
 2528SOL    HW2 8484   6.106   4.532   1.503
 2529SOL     OW 8485   5.716   4.762   6.071
 2529SOL    HW1 8486   5.676   4.745   6.161
 2529SOL    HW2 8487   5.815   4.757   6.077
 2530SOL     OW 8488   1.379   6.479   5.058
 2530SOL    HW1 8489   1.400   6.491   5.155
 2530SOL    HW2 8490   1.337   6.389   5.044
 2531SOL     OW 8491   5.600   5.898   4.906
 2531SOL    HW1 8492   5.673   5.872   4.844
 2531SOL    HW2 8493   5.636   5.903   5.000
 2532SOL     OW 8494   0.755   5.868   0.570
 2532SOL    HW1 8495   0.664   5.858   0.530
 2532SOL    HW2 8496   0.759   5.819   0.656
 2533SOL     OW 8497   5.229   6.333   4.742
 2533SOL    HW1 8498   5.328   6.342   4.734
 2533SOL    HW2 8499   5.207   6.276   4.821
 2534SOL     OW 8500   2.654   0.790   3.073
 2534SOL    HW1 8501   2.619   0.733   3.148
 2534SOL    HW2 8502   2.597   0.871   3.064
 2535SOL     OW 8503   1.918   2.329   6.404
 2535SOL    HW1 8504   1.840   2.313   6.344
 2535SOL    HW2 8505   1.999   2.283   6.367
 2536SOL     OW 8506   0.761   2.086   3.360
 2536SOL    HW1 8507   0.771   2.153   3.287
 2536SOL    HW2 8508   0.667   2.086   3.394
 2537SOL     OW 8509   4.866   6.228   0.599
 2537SOL    HW1 8510   4.836   6.141   0.560
 2537SOL    HW2 8511   4.809   6.302   0.563
 2538SOL     OW 8512   1.905   4.327   5.398
 2538SOL    HW1 8513   1.892   4.354   5.303
 2538SOL    HW2 8514   1.821   4.288   5.434
 2539SOL     OW 8515   4.336   0.026   5.263
 2539SOL    HW1 8516   4.337   0.126   5.268
 2539SOL    HW2 8517   4.353   7.010   5.354
 2540SOL     OW 8518   5.090   0.581   1.736
 2540SOL    HW1 8519   5.035   0.654   1.777
 2540SOL    HW2 8520   5.185   0.612   1.728
 2541SOL     OW 8521   1.470   0.608   6.004
 2541SOL    HW1 8522   1.373   0.629   5.993
 2541SOL    HW2 8523   1.495   0.617   6.100
 2542SOL     OW 8524   3.825   2.042   4.768
 2542SOL    HW1 8525   3.860   1.955   4.733
 2542SOL    HW2 8526   3.891   2.115   4.746
 2543SOL     OW 8527   2.120   0.157   2.904
 2543SOL    HW1 8528   2.204   0.209   2.890
 2543SOL    HW2 8529   2.052   0.187   2.837
 2544SOL     OW 8530   0.501   5.196   2.494
 2544SOL    HW1 8531   0.421   5.226   2.443
 2544SOL    HW2 8532   0.552   5.277   2.526
 2545SOL     OW 8533   1.740   1.010   1.687
 2545SOL    HW1 8534   1.770   0.937   1.749
 2545SOL    HW2 8535   1.650   1.043   1.716
 2546SOL     OW 8536   6.409   3.160   1.042
 2546SOL    HW1 8537   6.496   3.209   1.040
 2546SOL    HW2 8538   6.417   3.076   0.988
 2547SOL     OW 8539   5.314   5.987   0.335
 2547SOL    HW1 8540   5.261   5.968   0.253
 2547SOL    HW2 8541   5.262   6.049   0.394
 2548SOL     OW 8542   2.262   0.440   4.699
 2548SOL    HW1 8543   2.286   0.537   4.700
 2548SOL    HW2 8544   2.294   0.398   4.614
 2549SOL     OW 8545   2.240   2.177   1.897
 2549SOL    HW1 8546   2.144   2.205   1.890
 2549SOL    HW2 8547   2.298   2.258   1.891
 2550SOL     OW 8548   5.843   0.631   6.650
 2550SOL    HW1 8549   5.797   0.660   6.735
 2550SOL    HW2 8550   5.795   0.552   6.612
 2551SOL     OW 8551   3.427   5.304   0.202
 2551SOL    HW1 8552   3.426   5.211   0.164
 2551SOL    HW2 8553   3.486   5.306   0.282
 2552SOL     OW 8554   1.908   5.145   6.711
 2552SOL    HW1 8555   1.994   5.104   6.739
 2552SOL    HW2 8556   1.861   5.084   6.648
 2553SOL     OW 8557   3.147   3.129   5.904
 2553SOL    HW1 8558   3.067   3.101   5.851
 2553SOL    HW2 8559   3.119   3.155   5.996
 2554SOL     OW 8560   2.016   6.007   6.630
 2554SOL    HW1 8561   2.030   5.911   6.656
 2554SOL    HW2 8562   2.041   6.019   6.534
 2555SOL     OW 8563   6.062   6.318   6.848
 2555SOL    HW1 8564   6.060   6.303   6.947
 2555SOL    HW2 8565   5.975   6.287   6.809
 2556SOL     OW 8566   4.066   6.122   0.773
 2556SOL    HW1 8567   4.067   6.078   0.863
 2556SOL    HW2 8568   4.062   6.221   0.785
 2557SOL     OW 8569   2.836   0.780   6.590
 2557SOL    HW1 8570   2.830   0.761   6.492
 2557SOL    HW2 8571   2.920   0.830   6.609
 2558SOL     OW 8572   4.440   4.056   5.362
 2558SOL    HW1 8573   4.530   4.088   5.391
 2558SOL    HW2 8574   4.443   3.958   5.346
 2559SOL     OW 8575   6.186   2.976   3.955
 2559SOL    HW1 8576   6.222   3.003   3.865
 2559SOL    HW2 8577   6.137   2.889   3.946
 2560SOL     OW 8578   5.128   3.627   3.913
 2560SOL    HW1 8579   5.220   3.646   3.947
 2560SOL    HW2 8580   5.100   3.536   3.943
 2561SOL     OW 8581   4.054   1.339   3.452
 2561SOL    HW1 8582   3.967   1.300   3.421
 2561SOL    HW2 8583   4.097   1.276   3.517
 2562SOL     OW 8584   2.965   5.413   3.705
 2562SOL    HW1 8585   3.024   5.372   3.636
 2562SOL    HW2 8586   2.883   5.357   3.716
 2563SOL     OW 8587   3.599   1.667   5.900
 2563SOL    HW1 8588   3.584   1.648   5.803
 2563SOL    HW2 8589   3.654   1.750   5.910
 2564SOL     OW 8590   1.905   6.546   0.118
 2564SOL    HW1 8591   1.865   6.579   0.204
 2564SOL    HW2 8592   1.994   6.590   0.104
 2565SOL     OW 8593   0.281   0.453   0.412
 2565SOL    HW1 8594   0.260   0.538   0.364
 2565SOL    HW2 8595   0.358   0.468   0.474
 2566SOL     OW 8596   2.246   6.573   1.140
 2566SOL    HW1 8597   2.165   6.614   1.097
 2566SOL    HW2 8598   2.263   6.483   1.100
 2567SOL     OW 8599   1.695   1.289   1.821
 2567SOL    HW1 8600   1.788   1.256   1.801
 2567SOL    HW2 8601   1.684   1.381   1.783
 2568SOL     OW 8602   3.194   0.113   0.732
 2568SOL    HW1 8603   3.213   0.049   0.806
 2568SOL    HW2 8604   3.115   0.169   0.756
 2569SOL     OW 8605   2.044   1.667   2.403
 2569SOL    HW1 8606   2.143   1.650   2.402
 2569SOL    HW2 8607   2.024   1.752   2.355
 2570SOL     OW 8608   4.453   6.473   6.623
 2570SOL    HW1 8609   4.525   6.526   6.667
 2570SOL    HW2 8610   4.365   6.491   6.668
 2571SOL     OW 8611   3.639   2.897   4.868
 2571SOL    HW1 8612   3.608   2.961   4.938
 2571SOL    HW2 8613   3.571   2.824   4.858
 2572SOL     OW 8614   2.273   6.438   0.727
 2572SOL    HW1 8615   2.185   6.407   0.693
 2572SOL    HW2 8616   2.316   6.364   0.780
 2573SOL     OW 8617   6.338   1.044   2.602
 2573SOL    HW1 8618   6.375   1.114   2.662
 2573SOL    HW2 8619   6.282   1.087   2.531
 2574SOL     OW 8620   5.803   3.764   0.525
 2574SOL    HW1 8621   5.746   3.692   0.486
 2574SOL    HW2 8622   5.828   3.829   0.454
 2575SOL     OW 8623   5.137   3.491   1.597
 2575SOL    HW1 8624   5.125   3.551   1.677
 2575SOL    HW2 8625   5.109   3.398   1.620
 2576SOL     OW 8626   3.788   6.927   3.877
 2576SOL    HW1 8627   3.818   6.926   3.782
 2576SOL    HW2 8628   3.802   7.018   3.916
 2577SOL     OW 8629   5.085   0.372   3.345
 2577SOL    HW1 8630   5.099   0.430   3.425
 2577SOL    HW2 8631   5.156   0.389   3.278
 2578SOL     OW 8632   4.699   2.716   5.474
 2578SOL    HW1 8633   4.775   2.655   5.495
 2578SOL    HW2 8634   4.705   2.744   5.378
 2579SOL     OW 8635   1.045   1.180   5.162
 2579SOL    HW1 8636   1.081   1.225   5.244
 2579SOL    HW2 8637   1.111   1.190   5.087
 2580SOL     OW 8638   1.614   2.999   6.309
 2580SOL    HW1 8639   1.699   2.993   6.257
 2580SOL    HW2 8640   1.630   2.966   6.402
 2581SOL     OW 8641   6.040   4.761   1.840
 2581SOL    HW1 8642   6.081   4.831   1.782
 2581SOL    HW2 8643   6.095   4.678   1.835
 2582SOL     OW 8644   2.242   4.674   2.949
 2582SOL    HW1 8645   2.263   4.728   3.030
 2582SOL    HW2 8646   2.254   4.577   2.970
 2583SOL     OW 8647   1.609   1.299   1.014
 2583SOL    HW1 8648   1.662   1.227   1.058
 2583SOL    HW2 8649   1.617   1.291   0.915
 2584SOL     OW 8650   4.260   5.639   0.092
 2584SOL    HW1 8651   4.317   5.603   0.019
 2584SOL    HW2 8652   4.164   5.618   0.072
 2585SOL     OW 8653   3.703   0.190   0.578
 2585SOL    HW1 8654   3.729   0.280   0.612
 2585SOL    HW2 8655   3.604   0.187   0.564
 2586SOL     OW 8656   4.895   1.494   4.889
 2586SOL    HW1 8657   4.841   1.577   4.880
 2586SOL    HW2 8658   4.981   1.514   4.936
 2587SOL     OW 8659   6.900   1.001   4.617
 2587SOL    HW1 8660   6.961   0.948   4.559
 2587SOL    HW2 8661   6.818   1.027   4.564
 2588SOL     OW 8662   4.640   0.116   0.409
 2588SOL    HW1 8663   4.563   0.175   0.384
 2588SOL    HW2 8664   4.619   0.021   0.386
 2589SOL     OW 8665   0.615   6.573   5.790
 2589SOL    HW1 8666   0.610   6.575   5.690
 2589SOL    HW2 8667   0.547   6.509   5.826
 2590SOL     OW 8668   3.967   6.565   2.792
 2590SOL    HW1 8669   4.066   6.559   2.802
 2590SOL    HW2 8670   3.931   6.475   2.767
 2591SOL     OW 8671   5.446   6.249   2.716
 2591SOL    HW1 8672   5.433   6.159   2.674
 2591SOL    HW2 8673   5.380   6.262   2.790
 2592SOL     OW 8674   2.451   6.574   1.591
 2592SOL    HW1 8675   2.508   6.494   1.573
 2592SOL    HW2 8676   2.508   6.657   1.586
 2593SOL     OW 8677   3.441   6.432   2.464
 2593SOL    HW1 8678   3.396   6.465   2.547
 2593SOL    HW2 8679   3.387   6.459   2.384
 2594SOL     OW 8680   6.793   6.241   5.750
 2594SOL    HW1 8681   6.763   6.332   5.778
 2594SOL    HW2 8682   6.874   6.215   5.804
 2595SOL     OW 8683   6.736   1.635   6.082
 2595SOL    HW1 8684   6.817   1.633   6.023
 2595SOL    HW2 8685   6.760   1.598   6.172
 2596SOL     OW 8686   3.948   2.159   2.019
 2596SOL    HW1 8687   3.954   2.155   2.119
 2596SOL    HW2 8688   3.857   2.189   1.992
 2597SOL     OW 8689   1.611   3.821   0.842
 2597SOL    HW1 8690   1.515   3.798   0.826
 2597SOL    HW2 8691   1.668   3.772   0.776
 2598SOL     OW 8692   6.006   1.791   4.479
 2598SOL    HW1 8693   5.926   1.845   4.450
 2598SOL    HW2 8694   6.005   1.703   4.432
 2599SOL     OW 8695   3.853   5.637   0.295
 2599SOL    HW1 8696   3.839   5.709   0.363
 2599SOL    HW2 8697   3.799   5.557   0.319
 2600SOL     OW 8698   4.857   3.715   4.632
 2600SOL    HW1 8699   4.779   3.665   4.670
 2600SOL    HW2 8700   4.926   3.728   4.704
 2601SOL     OW 8701   3.582   1.841   6.508
 2601SOL    HW1 8702   3.645   1.917   6.522
 2601SOL    HW2 8703   3.619   1.779   6.440
 2602SOL     OW 8704   7.017   4.903   4.162
 2602SOL    HW1 8705   6.964   4.830   4.119
 2602SOL    HW2 8706   7.003   4.901   4.261
 2603SOL     OW 8707   2.393   2.453   1.628
 2603SOL    HW1 8708   2.442   2.515   1.689
 2603SOL    HW2 8709   2.414   2.358   1.653
 2604SOL     OW 8710   5.095   1.498   2.552
 2604SOL    HW1 8711   5.009   1.549   2.558
 2604SOL    HW2 8712   5.171   1.563   2.552
 2605SOL     OW 8713   3.791   5.181   3.777
 2605SOL    HW1 8714   3.736   5.202   3.696
 2605SOL    HW2 8715   3.744   5.215   3.859
 2606SOL     OW 8716   6.248   4.525   0.314
 2606SOL    HW1 8717   6.269   4.554   0.221
 2606SOL    HW2 8718   6.317   4.563   0.376
 2607SOL     OW 8719   0.394   1.857   6.293
 2607SOL    HW1 8720   0.414   1.914   6.372
 2607SOL    HW2 8721   0.459   1.877   6.220
 2608SOL     OW 8722   4.031   6.107   2.577
 2608SOL    HW1 8723   4.105   6.045   2.549
 2608SOL    HW2 8724   3.946   6.079   2.532
 2609SOL     OW 8725   0.423   2.502   1.255
 2609SOL    HW1 8726   0.468   2.587   1.283
 2609SOL    HW2 8727   0.357   2.475   1.325
 2610SOL     OW 8728   6.599   5.476   3.965
 2610SOL    HW1 8729   6.680   5.481   3.906
 2610SOL    HW2 8730   6.569   5.569   3.988
 2611SOL     OW 8731   5.706   6.499   1.075
 2611SOL    HW1 8732   5.690   6.596   1.089
 2611SOL    HW2 8733   5.763   6.485   0.994
 2612SOL     OW 8734   6.921   6.681   5.589
 2612SOL    HW1 8735   6.831   6.638   5.595
 2612SOL    HW2 8736   6.964   6.657   5.502
 2613SOL     OW 8737   2.729   6.218   1.681
 2613SOL    HW1 8738   2.786   6.152   1.632
 2613SOL    HW2 8739   2.650   6.171   1.721
 2614SOL     OW 8740   6.699   6.588   6.221
 2614SOL    HW1 8741   6.773   6.584   6.288
 2614SOL    HW2 8742   6.729   6.641   6.141
 2615SOL     OW 8743   5.614   4.479   3.126
 2615SOL    HW1 8744   5.707   4.462   3.158
 2615SOL    HW2 8745   5.556   4.402   3.150
 2616SOL     OW 8746   3.812   3.493   4.144
 2616SOL    HW1 8747   3.780   3.571   4.198
 2616SOL    HW2 8748   3.760   3.488   4.058
 2617SOL     OW 8749   3.183   6.534   1.330
 2617SOL    HW1 8750   3.206   6.461   1.266
 2617SOL    HW2 8751   3.212   6.509   1.422
 2618SOL     OW 8752   0.579   6.795   3.754
 2618SOL    HW1 8753   0.517   6.775   3.678
 2618SOL    HW2 8754   0.582   6.716   3.816
 2619SOL     OW 8755   2.984   1.699   3.462
 2619SOL    HW1 8756   3.072   1.674   3.424
 2619SOL    HW2 8757   2.998   1.746   3.550
 2620SOL     OW 8758   0.727   5.814   3.347
 2620SOL    HW1 8759   0.664   5.792   3.422
 2620SOL    HW2 8760   0.741   5.734   3.290
 2621SOL     OW 8761   1.995   6.304   3.072
 2621SOL    HW1 8762   1.965   6.252   2.992
 2621SOL    HW2 8763   2.025   6.395   3.044
 2622SOL     OW 8764   2.368   2.113   6.397
 2622SOL    HW1 8765   2.407   2.037   6.450
 2622SOL    HW2 8766   2.279   2.085   6.360
 2623SOL     OW 8767   3.416   1.851   5.108
 2623SOL    HW1 8768   3.367   1.934   5.135
 2623SOL    HW2 8769   3.436   1.855   5.010
 2624SOL     OW 8770   6.693   3.295   4.370
 2624SOL    HW1 8771   6.620   3.302   4.438
 2624SOL    HW2 8772   6.707   3.200   4.345
 2625SOL     OW 8773   2.411   2.930   5.528
 2625SOL    HW1 8774   2.405   2.998   5.454
 2625SOL    HW2 8775   2.324   2.927   5.578
 2626SOL     OW 8776   0.609   6.895   4.446
 2626SOL    HW1 8777   0.600   6.866   4.351
 2626SOL    HW2 8778   0.521   6.883   4.493
 2627SOL     OW 8779   0.432   0.626   4.973
 2627SOL    HW1 8780   0.445   0.681   4.890
 2627SOL    HW2 8781   0.476   0.537   4.962
 2628SOL     OW 8782   3.150   5.909   6.655
 2628SOL    HW1 8783   3.059   5.880   6.625
 2628SOL    HW2 8784   3.176   5.858   6.737
 2629SOL     OW 8785   3.296   4.134   2.232
 2629SOL    HW1 8786   3.264   4.215   2.282
 2629SOL    HW2 8787   3.393   4.118   2.254
 2630SOL     OW 8788   3.152   1.694   3.233
 2630SOL    HW1 8789   3.198   1.716   3.146
 2630SOL    HW2 8790   3.216   1.709   3.308
 2631SOL     OW 8791   4.811   0.389   4.375
 2631SOL    HW1 8792   4.874   0.385   4.453
 2631SOL    HW2 8793   4.860   0.426   4.295
 2632SOL     OW 8794   2.539   2.095   6.150
 2632SOL    HW1 8795   2.614   2.102   6.216
 2632SOL    HW2 8796   2.455   2.128   6.192
 2633SOL     OW 8797   6.501   2.300   6.209
 2633SOL    HW1 8798   6.418   2.277   6.260
 2633SOL    HW2 8799   6.527   2.395   6.228
 2634SOL     OW 8800   2.136   4.149   2.593
 2634SOL    HW1 8801   2.052   4.177   2.640
 2634SOL    HW2 8802   2.182   4.078   2.646
 2635SOL     OW 8803   5.980   6.249   4.550
 2635SOL    HW1 8804   5.996   6.329   4.492
 2635SOL    HW2 8805   6.062   6.191   4.550
 2636SOL     OW 8806   4.481   0.658   6.034
 2636SOL    HW1 8807   4.535   0.590   5.985
 2636SOL    HW2 8808   4.404   0.613   6.080
 2637SOL     OW 8809   6.333   1.325   4.132
 2637SOL    HW1 8810   6.281   1.351   4.050
 2637SOL    HW2 8811   6.411   1.387   4.142
 2638SOL     OW 8812   0.155   6.626   2.792
 2638SOL    HW1 8813   0.212   6.613   2.711
 2638SOL    HW2 8814   0.059   6.622   2.766
 2639SOL     OW 8815   0.350   0.225   2.060
 2639SOL    HW1 8816   0.415   0.186   2.125
 2639SOL    HW2 8817   0.351   0.325   2.067
 2640SOL     OW 8818   6.745   6.024   5.153
 2640SOL    HW1 8819   6.653   5.986   5.153
 2640SOL    HW2 8820   6.803   5.971   5.216
 2641SOL     OW 8821   5.262   2.943   2.318
 2641SOL    HW1 8822   5.336   2.876   2.305
 2641SOL    HW2 8823   5.175   2.903   2.288
 2642SOL     OW 8824   5.481   6.750   4.616
 2642SOL    HW1 8825   5.512   6.808   4.540
 2642SOL    HW2 8826   5.456   6.660   4.581
 2643SOL     OW 8827   1.683   4.737   3.249
 2643SOL    HW1 8828   1.590   4.702   3.244
 2643SOL    HW2 8829   1.737   4.697   3.175
 2644SOL     OW 8830   6.518   4.663   5.578
 2644SOL    HW1 8831   6.500   4.757   5.607
 2644SOL    HW2 8832   6.556   4.611   5.655
 2645SOL     OW 8833   4.337   6.359   4.207
 2645SOL    HW1 8834   4.425   6.397   4.176
 2645SOL    HW2 8835   4.321   6.271   4.161
 2646SOL     OW 8836   6.065   6.621   6.330
 2646SOL    HW1 8837   6.072   6.695   6.396
 2646SOL    HW2 8838   6.146   6.561   6.338
 2647SOL     OW 8839   5.908   0.391   1.113
 2647SOL    HW1 8840   5.954   0.458   1.054
 2647SOL    HW2 8841   5.874   0.316   1.056
 2648SOL     OW 8842   0.098   0.464   3.742
 2648SOL    HW1 8843   0.143   0.405   3.808
 2648SOL    HW2 8844   0.051   0.538   3.790
 2649SOL     OW 8845   4.698   2.538   5.773
 2649SOL    HW1 8846   4.769   2.560   5.706
 2649SOL    HW2 8847   4.609   2.568   5.738
 2650SOL     OW 8848   0.643   3.435   3.781
 2650SOL    HW1 8849   0.619   3.388   3.696
 2650SOL    HW2 8850   0.719   3.498   3.764
 2651SOL     OW 8851   0.465   1.938   0.169
 2651SOL    HW1 8852   0.543   1.880   0.192
 2651SOL    HW2 8853   0.381   1.884   0.170
 2652SOL     OW 8854   2.934   3.489   3.889
 2652SOL    HW1 8855   2.925   3.573   3.942
 2652SOL    HW2 8856   2.850   3.436   3.896
 2653SOL     OW 8857   5.073   6.778   5.250
 2653SOL    HW1 8858   5.020   6.695   5.265
 2653SOL    HW2 8859   5.012   6.857   5.244
 2654SOL     OW 8860   4.359   3.531   1.047
 2654SOL    HW1 8861   4.390   3.617   1.006
 2654SOL    HW2 8862   4.271   3.545   1.093
 2655SOL     OW 8863   5.382   4.706   4.808
 2655SOL    HW1 8864   5.288   4.740   4.816
 2655SOL    HW2 8865   5.384   4.630   4.743
 2656SOL     OW 8866   4.395   4.992   4.540
 2656SOL    HW1 8867   4.350   4.903   4.543
 2656SOL    HW2 8868   4.361   5.044   4.462
 2657SOL     OW 8869   2.474   4.562   6.279
 2657SOL    HW1 8870   2.525   4.486   6.240
 2657SOL    HW2 8871   2.376   4.546   6.267
 2658SOL     OW 8872   4.964   3.869   0.354
 2658SOL    HW1 8873   4.933   3.863   0.259
 2658SOL    HW2 8874   5.064   3.858   0.358
 2659SOL     OW 8875   6.441   2.741   4.349
 2659SOL    HW1 8876   6.413   2.699   4.263
 2659SOL    HW2 8877   6.365   2.740   4.414
 2660SOL     OW 8878   0.466   1.074   1.454
 2660SOL    HW1 8879   0.425   1.079   1.363
 2660SOL    HW2 8880   0.436   0.991   1.500
 2661SOL     OW 8881   2.329   6.691   1.891
 2661SOL    HW1 8882   2.420   6.671   1.854
 2661SOL    HW2 8883   2.269   6.720   1.817
 2662SOL     OW 8884   4.486   0.388   5.698
 2662SOL    HW1 8885   4.543   0.332   5.638
 2662SOL    HW2 8886   4.523   0.385   5.791
 2663SOL     OW 8887   2.909   3.530   1.285
 2663SOL    HW1 8888   2.840   3.475   1.237
 2663SOL    HW2 8889   2.902   3.513   1.383
 2664SOL     OW 8890   3.936   3.923   4.450
 2664SOL    HW1 8891   3.933   3.959   4.543
 2664SOL    HW2 8892   3.868   3.969   4.394
 2665SOL     OW 8893   2.723   1.914   5.134
 2665SOL    HW1 8894   2.821   1.895   5.131
 2665SOL    HW2 8895   2.690   1.903   5.228
 2666SOL     OW 8896   4.605   3.797   1.587
 2666SOL    HW1 8897   4.619   3.888   1.625
 2666SOL    HW2 8898   4.511   3.767   1.607
 2667SOL     OW 8899   1.809   6.010   4.654
 2667SOL    HW1 8900   1.756   6.054   4.581
 2667SOL    HW2 8901   1.765   6.028   4.742
 2668SOL     OW 8902   6.721   3.114   2.832
 2668SOL    HW1 8903   6.711   3.126   2.733
 2668SOL    HW2 8904   6.763   3.025   2.851
 2669SOL     OW 8905   3.071   4.816   5.219
 2669SOL    HW1 8906   3.034   4.895   5.268
 2669SOL    HW2 8907   2.997   4.755   5.192
 2670SOL     OW 8908   5.416   1.457   6.363
 2670SOL    HW1 8909   5.423   1.374   6.418
 2670SOL    HW2 8910   5.413   1.537   6.423
 2671SOL     OW 8911   3.173   5.264   0.138
 2671SOL    HW1 8912   3.267   5.296   0.146
 2671SOL    HW2 8913   3.111   5.335   0.170
 2672SOL     OW 8914   0.242   5.303   0.129
 2672SOL    HW1 8915   0.317   5.370   0.130
 2672SOL    HW2 8916   0.155   5.351   0.114
 2673SOL     OW 8917   6.020   1.628   3.500
 2673SOL    HW1 8918   6.019   1.556   3.569
 2673SOL    HW2 8919   6.082   1.701   3.529
 2674SOL     OW 8920   2.159   3.716   4.553
 2674SOL    HW1 8921   2.118   3.739   4.465
 2674SOL    HW2 8922   2.159   3.616   4.564
 2675SOL     OW 8923   0.258   5.249   4.556
 2675SOL    HW1 8924   0.196   5.220   4.629
 2675SOL    HW2 8925   0.348   5.209   4.570
 2676SOL     OW 8926   4.320   1.341   1.949
 2676SOL    HW1 8927   4.415   1.318   1.929
 2676SOL    HW2 8928   4.290   1.294   2.032
 2677SOL     OW 8929   3.268   4.649   0.419
 2677SOL    HW1 8930   3.234   4.742   0.434
 2677SOL    HW2 8931   3.192   4.584   0.429
 2678SOL     OW 8932   0.252   4.343   0.897
 2678SOL    HW1 8933   0.254   4.355   0.798
 2678SOL    HW2 8934   0.168   4.296   0.924
 2679SOL     OW 8935   3.429   5.089   0.732
 2679SOL    HW1 8936   3.369   5.165   0.708
 2679SOL    HW2 8937   3.477   5.110   0.817
 2680SOL     OW 8938   1.321   1.645   1.053
 2680SOL    HW1 8939   1.407   1.691   1.032
 2680SOL    HW2 8940   1.335   1.546   1.050
 2681SOL     OW 8941   1.627   2.489   4.566
 2681SOL    HW1 8942   1.635   2.423   4.641
 2681SOL    HW2 8943   1.717   2.522   4.541
 2682SOL     OW 8944   5.347   3.669   2.303
 2682SOL    HW1 8945   5.253   3.695   2.281
 2682SOL    HW2 8946   5.359   3.571   2.285
 2683SOL     OW 8947   1.031   4.067   0.266
 2683SOL    HW1 8948   1.047   3.978   0.223
 2683SOL    HW2 8949   1.015   4.054   0.364
 2684SOL     OW 8950   4.413   5.447   2.346
 2684SOL    HW1 8951   4.368   5.418   2.431
 2684SOL    HW2 8952   4.348   5.441   2.271
 2685SOL     OW 8953   6.734   5.982   6.220
 2685SOL    HW1 8954   6.678   5.949   6.143
 2685SOL    HW2 8955   6.746   6.081   6.212
 2686SOL     OW 8956   1.692   1.844   5.789
 2686SOL    HW1 8957   1.594   1.868   5.789
 2686SOL    HW2 8958   1.714   1.794   5.706
 2687SOL     OW 8959   4.482   4.651   3.072
 2687SOL    HW1 8960   4.496   4.642   2.973
 2687SOL    HW2 8961   4.566   4.624   3.119
 2688SOL     OW 8962   4.718   5.442   6.823
 2688SOL    HW1 8963   4.658   5.449   6.902
 2688SOL    HW2 8964   4.678   5.494   6.747
 2689SOL     OW 8965   2.334   1.811   3.209
 2689SOL    HW1 8966   2.363   1.738   3.146
 2689SOL    HW2 8967   2.413   1.842   3.262
 2690SOL     OW 8968   2.960   3.734   4.009
 2690SOL    HW1 8969   2.946   3.757   4.105
 2690SOL    HW2 8970   2.971   3.818   3.956
 2691SOL     OW 8971   1.160   5.806   2.095
 2691SOL    HW1 8972   1.190   5.744   2.168
 2691SOL    HW2 8973   1.082   5.766   2.047
 2692SOL     OW 8974   4.487   5.022   3.733
 2692SOL    HW1 8975   4.543   5.055   3.809
 2692SOL    HW2 8976   4.459   4.927   3.752
 2693SOL     OW 8977   2.017   4.274   2.924
 2693SOL    HW1 8978   1.978   4.325   3.001
 2693SOL    HW2 8979   1.948   4.213   2.886
 2694SOL     OW 8980   3.754   0.143   2.583
 2694SOL    HW1 8981   3.717   0.207   2.516
 2694SOL    HW2 8982   3.779   0.192   2.666
 2695SOL     OW 8983   5.570   0.924   2.793
 2695SOL    HW1 8984   5.615   0.834   2.787
 2695SOL    HW2 8985   5.482   0.920   2.746
 2696SOL     OW 8986   3.808   3.604   5.222
 2696SOL    HW1 8987   3.836   3.608   5.126
 2696SOL    HW2 8988   3.842   3.686   5.270
 2697SOL     OW 8989   4.272   1.472   3.290
 2697SOL    HW1 8990   4.209   1.411   3.337
 2697SOL    HW2 8991   4.234   1.565   3.289
 2698SOL     OW 8992   2.108   5.614   0.562
 2698SOL    HW1 8993   2.037   5.543   0.558
 2698SOL    HW2 8994   2.177   5.596   0.491
 2699SOL     OW 8995   3.501   5.958   0.289
 2699SOL    HW1 8996   3.565   5.954   0.212
 2699SOL    HW2 8997   3.444   6.039   0.281
 2700SOL     OW 8998   2.112   4.098   1.205
 2700SOL    HW1 8999   2.098   4.191   1.169
 2700SOL    HW2 9000   2.077   4.094   1.299
 2701SOL     OW 9001   2.827   0.317   6.281
 2701SOL    HW1 9002   2.787   0.307   6.372
 2701SOL    HW2 9003   2.759   0.295   6.211
 2702SOL     OW 9004   0.403   2.487   2.812
 2702SOL    HW1 9005   0.465   2.410   2.794
 2702SOL    HW2 9006   0.378   2.488   2.909
 2703SOL     OW 9007   2.241   0.557   2.286
 2703SOL    HW1 9008   2.312   0.602   2.339
 2703SOL    HW2 9009   2.247   0.587   2.190
 2704SOL     OW 9010   0.302   5.587   0.862
 2704SOL    HW1 9011   0.242   5.667   0.870
 2704SOL    HW2 9012   0.346   5.588   0.773
 2705SOL     OW 9013   1.620   5.438   4.790
 2705SOL    HW1 9014   1.681   5.387   4.730
 2705SOL    HW2 9015   1.670   5.512   4.835
 2706SOL     OW 9016   0.638   0.694   1.108
 2706SOL    HW1 9017   0.710   0.660   1.048
 2706SOL    HW2 9018   0.661   0.786   1.140
 2707SOL     OW 9019   1.820   0.524   5.157
 2707SOL    HW1 9020   1.812   0.603   5.096
 2707SOL    HW2 9021   1.904   0.530   5.210
 2708SOL     OW 9022   1.546   1.910   1.114
 2708SOL    HW1 9023   1.531   1.999   1.158
 2708SOL    HW2 9024   1.592   1.849   1.178
 2709SOL     OW 9025   5.456   6.810   0.681
 2709SOL    HW1 9026   5.458   6.825   0.582
 2709SOL    HW2 9027   5.416   6.890   0.726
 2710SOL     OW 9028   0.609   3.246   2.617
 2710SOL    HW1 9029   0.648   3.193   2.693
 2710SOL    HW2 9030   0.512   3.225   2.608
 2711SOL     OW 9031   2.988   1.366   3.418
 2711SOL    HW1 9032   3.042   1.369   3.335
 2711SOL    HW2 9033   2.943   1.455   3.432
 2712SOL     OW 9034   3.294   5.243   1.340
 2712SOL    HW1 9035   3.198   5.217   1.338
 2712SOL    HW2 9036   3.345   5.176   1.395
 2713SOL     OW 9037   1.894   2.245   4.949
 2713SOL    HW1 9038   1.916   2.316   5.016
 2713SOL    HW2 9039   1.976   2.190   4.931
 2714SOL     OW 9040   4.895   2.138   6.553
 2714SOL    HW1 9041   4.867   2.217   6.499
 2714SOL    HW2 9042   4.829   2.124   6.627
 2715SOL     OW 9043   5.652   0.665   0.272
 2715SOL    HW1 9044   5.661   0.567   0.254
 2715SOL    HW2 9045   5.633   0.679   0.369
 2716SOL     OW 9046   5.450   5.006   2.755
 2716SOL    HW1 9047   5.391   4.936   2.713
 2716SOL    HW2 9048   5.485   4.972   2.842
 2717SOL     OW 9049   1.351   5.266   1.784
 2717SOL    HW1 9050   1.441   5.270   1.740
 2717SOL    HW2 9051   1.302   5.185   1.754
 2718SOL     OW 9052   2.042   3.680   4.846
 2718SOL    HW1 9053   2.083   3.727   4.769
 2718SOL    HW2 9054   2.011   3.746   4.914
 2719SOL     OW 9055   5.786   5.541   1.750
 2719SOL    HW1 9056   5.836   5.455   1.760
 2719SOL    HW2 9057   5.843   5.608   1.704
 2720SOL     OW 9058   2.014   5.779   3.033
 2720SOL    HW1 9059   1.929   5.732   3.010
 2720SOL    HW2 9060   2.000   5.878   3.027
 2721SOL     OW 9061   3.474   0.269   4.136
 2721SOL    HW1 9062   3.448   0.360   4.101
 2721SOL    HW2 9063   3.516   0.216   4.062
 2722SOL     OW 9064   6.124   5.379   2.202
 2722SOL    HW1 9065   6.069   5.454   2.165
 2722SOL    HW2 9066   6.209   5.416   2.239
 2723SOL     OW 9067   1.234   6.637   5.931
 2723SOL    HW1 9068   1.306   6.594   5.984
 2723SOL    HW2 9069   1.160   6.667   5.992
 2724SOL     OW 9070   2.794   6.711   6.251
 2724SOL    HW1 9071   2.866   6.643   6.240
 2724SOL    HW2 9072   2.734   6.684   6.327
 2725SOL     OW 9073   6.165   4.890   3.937
 2725SOL    HW1 9074   6.167   4.944   3.853
 2725SOL    HW2 9075   6.200   4.798   3.918
 2726SOL     OW 9076   0.042   4.159   0.966
 2726SOL    HW1 9077   6.986   4.185   0.910
 2726SOL    HW2 9078   0.015   4.158   1.063
 2727SOL     OW 9079   0.792   4.568   2.892
 2727SOL    HW1 9080   0.827   4.535   2.980
 2727SOL    HW2 9081   0.700   4.531   2.876
 2728SOL     OW 9082   3.642   6.881   5.537
 2728SOL    HW1 9083   3.698   6.914   5.461
 2728SOL    HW2 9084   3.643   6.948   5.611
 2729SOL     OW 9085   6.068   5.899   1.298
 2729SOL    HW1 9086   6.050   5.801   1.307
 2729SOL    HW2 9087   6.046   5.928   1.205
 2730SOL     OW 9088   1.295   5.585   1.542
 2730SOL    HW1 9089   1.219   5.591   1.477
 2730SOL    HW2 9090   1.260   5.598   1.635
 2731SOL     OW 9091   3.921   3.366   1.835
 2731SOL    HW1 9092   3.837   3.312   1.831
 2731SOL    HW2 9093   3.976   3.336   1.912
 2732SOL     OW 9094   5.646   3.170   1.692
 2732SOL    HW1 9095   5.714   3.223   1.743
 2732SOL    HW2 9096   5.597   3.230   1.629
 2733SOL     OW 9097   0.201   0.286   5.414
 2733SOL    HW1 9098   0.235   0.323   5.327
 2733SOL    HW2 9099   0.122   0.338   5.444
 2734SOL     OW 9100   2.343   5.646   2.223
 2734SOL    HW1 9101   2.303   5.569   2.174
 2734SOL    HW2 9102   2.274   5.716   2.238
 2735SOL     OW 9103   0.616   3.848   2.841
 2735SOL    HW1 9104   0.616   3.797   2.927
 2735SOL    HW2 9105   0.688   3.918   2.844
 2736SOL     OW 9106   4.967   0.474   4.574
 2736SOL    HW1 9107   5.063   0.495   4.593
 2736SOL    HW2 9108   4.929   0.421   4.650
 2737SOL     OW 9109   3.234   3.322   5.581
 2737SOL    HW1 9110   3.244   3.226   5.556
 2737SOL    HW2 9111   3.324   3.362   5.596
 2738SOL     OW 9112   5.288   5.052   4.196
 2738SOL    HW1 9113   5.349   5.057   4.116
 2738SOL    HW2 9114   5.196   5.028   4.166
 2739SOL     OW 9115   6.578   5.365   6.995
 2739SOL    HW1 9116   6.616   5.319   6.914
 2739SOL    HW2 9117   6.508   5.307   0.013
 2740SOL     OW 9118   6.519   3.731   2.560
 2740SOL    HW1 9119   6.463   3.649   2.569
 2740SOL    HW2 9120   6.542   3.766   2.651
 2741SOL     OW 9121   6.704   0.847   5.877
 2741SOL    HW1 9122   6.712   0.749   5.856
 2741SOL    HW2 9123   6.791   0.881   5.910
 2742SOL     OW 9124   1.858   4.788   6.995
 2742SOL    HW1 9125   1.868   4.803   6.897
 2742SOL    HW2 9126   1.945   4.758   0.011
 2743SOL     OW 9127   6.505   5.214   2.118
 2743SOL    HW1 9128   6.561   5.181   2.042
 2743SOL    HW2 9129   6.413   5.175   2.113
 2744SOL     OW 9130   4.411   1.795   6.842
 2744SOL    HW1 9131   4.477   1.736   6.890
 2744SOL    HW2 9132   4.329   1.805   6.898
 2745SOL     OW 9133   1.267   6.765   6.966
 2745SOL    HW1 9134   1.263   6.714   6.880
 2745SOL    HW2 9135   1.347   6.825   6.966
 2746SOL     OW 9136   2.841   1.709   4.220
 2746SOL    HW1 9137   2.834   1.807   4.238
 2746SOL    HW2 9138   2.775   1.684   4.150
 2747SOL     OW 9139   5.213   3.274   5.314
 2747SOL    HW1 9140   5.148   3.298   5.386
 2747SOL    HW2 9141   5.306   3.274   5.350
 2748SOL     OW 9142   4.125   1.720   1.244
 2748SOL    HW1 9143   4.184   1.799   1.228
 2748SOL    HW2 9144   4.030   1.743   1.223
 2749SOL     OW 9145   5.741   4.782   4.195
 2749SOL    HW1 9146   5.661   4.841   4.192
 2749SOL    HW2 9147   5.738   4.717   4.119
 2750SOL     OW 9148   0.442   5.226   1.744
 2750SOL    HW1 9149   0.480   5.150   1.797
 2750SOL    HW2 9150   0.419   5.301   1.806
 2751SOL     OW 9151   1.245   6.482   0.581
 2751SOL    HW1 9152   1.183   6.404   0.585
 2751SOL    HW2 9153   1.207   6.553   0.522
 2752SOL     OW 9154   5.000   5.096   5.341
 2752SOL    HW1 9155   4.965   5.138   5.257
 2752SOL    HW2 9156   5.099   5.106   5.344
 2753SOL     OW 9157   1.562   0.203   6.489
 2753SOL    HW1 9158   1.598   0.247   6.571
 2753SOL    HW2 9159   1.476   0.247   6.462
 2754SOL     OW 9160   6.432   0.867   4.280
 2754SOL    HW1 9161   6.358   0.832   4.337
 2754SOL    HW2 9162   6.420   0.965   4.265
 2755SOL     OW 9163   3.158   6.960   3.032
 2755SOL    HW1 9164   3.192   6.927   3.120
 2755SOL    HW2 9165   3.141   6.883   2.971
 2756SOL     OW 9166   6.289   3.940   5.067
 2756SOL    HW1 9167   6.265   3.853   5.024
 2756SOL    HW2 9168   6.367   3.926   5.128
 2757SOL     OW 9169   2.322   1.291   6.459
 2757SOL    HW1 9170   2.295   1.354   6.532
 2757SOL    HW2 9171   2.401   1.236   6.490
 2758SOL     OW 9172   5.155   6.225   3.505
 2758SOL    HW1 9173   5.116   6.221   3.597
 2758SOL    HW2 9174   5.110   6.158   3.447
 2759SOL     OW 9175   4.537   5.692   5.448
 2759SOL    HW1 9176   4.526   5.791   5.459
 2759SOL    HW2 9177   4.458   5.656   5.398
 2760SOL     OW 9178   0.083   5.020   2.953
 2760SOL    HW1 9179   0.128   5.101   2.915
 2760SOL    HW2 9180   0.028   5.046   3.032
 2761SOL     OW 9181   1.809   4.287   4.130
 2761SOL    HW1 9182   1.820   4.358   4.061
 2761SOL    HW2 9183   1.762   4.324   4.210
 2762SOL     OW 9184   1.667   1.855   6.652
 2762SOL    HW1 9185   1.601   1.929   6.640
 2762SOL    HW2 9186   1.698   1.823   6.562
 2763SOL     OW 9187   5.005   2.228   5.269
 2763SOL    HW1 9188   4.945   2.300   5.304
 2763SOL    HW2 9189   5.059   2.263   5.192
 2764SOL     OW 9190   0.450   6.158   2.513
 2764SOL    HW1 9191   0.481   6.064   2.495
 2764SOL    HW2 9192   0.413   6.164   2.605
 2765SOL     OW 9193   6.928   0.228   0.540
 2765SOL    HW1 9194   6.961   0.205   0.448
 2765SOL    HW2 9195   6.843   0.179   0.557
 2766SOL     OW 9196   4.123   1.800   6.830
 2766SOL    HW1 9197   4.051   1.790   6.761
 2766SOL    HW2 9198   4.122   1.721   6.891
 2767SOL     OW 9199   6.162   5.358   6.351
 2767SOL    HW1 9200   6.116   5.272   6.328
 2767SOL    HW2 9201   6.115   5.402   6.427
 2768SOL     OW 9202   4.955   1.340   0.255
 2768SOL    HW1 9203   5.011   1.351   0.338
 2768SOL    HW2 9204   4.913   1.427   0.231
 2769SOL     OW 9205   2.516   4.892   6.583
 2769SOL    HW1 9206   2.506   4.903   6.484
 2769SOL    HW2 9207   2.571   4.967   6.620
 2770SOL     OW 9208   4.145   5.761   5.555
 2770SOL    HW1 9209   4.081   5.766   5.632
 2770SOL    HW2 9210   4.123   5.681   5.499
 2771SOL     OW 9211   5.798   0.985   4.927
 2771SOL    HW1 9212   5.795   1.066   4.984
 2771SOL    HW2 9213   5.809   0.904   4.985
 2772SOL     OW 9214   3.005   1.519   1.486
 2772SOL    HW1 9215   2.950   1.572   1.422
 2772SOL    HW2 9216   3.011   1.567   1.573
 2773SOL     OW 9217   6.903   2.557   3.999
 2773SOL    HW1 9218   6.906   2.547   3.899
 2773SOL    HW2 9219   6.846   2.485   4.038
 2774SOL     OW 9220   5.305   3.120   2.681
 2774SOL    HW1 9221   5.281   3.023   2.683
 2774SOL    HW2 9222   5.318   3.149   2.586
 2775SOL     OW 9223   6.338   3.085   4.174
 2775SOL    HW1 9224   6.253   3.090   4.226
 2775SOL    HW2 9225   6.319   3.049   4.083
 2776SOL     OW 9226   5.282   4.175   5.547
 2776SOL    HW1 9227   5.269   4.265   5.589
 2776SOL    HW2 9228   5.306   4.187   5.450
 2777SOL     OW 9229   2.313   1.425   0.052
 2777SOL    HW1 9230   2.320   1.519   0.017
 2777SOL    HW2 9231   2.403   1.394   0.080
 2778SOL     OW 9232   1.428   5.899   6.308
 2778SOL    HW1 9233   1.408   5.868   6.400
 2778SOL    HW2 9234   1.363   5.970   6.282
 2779SOL     OW 9235   5.213   6.915   1.664
 2779SOL    HW1 9236   5.291   6.966   1.701
 2779SOL    HW2 9237   5.206   6.933   1.565
 2780SOL     OW 9238   6.507   6.903   5.888
 2780SOL    HW1 9239   6.541   6.837   5.820
 2780SOL    HW2 9240   6.576   6.916   5.959
 2781SOL     OW 9241   5.852   0.167   3.283
 2781SOL    HW1 9242   5.850   0.190   3.186
 2781SOL    HW2 9243   5.935   0.203   3.324
 2782SOL     OW 9244   4.547   1.395   5.201
 2782SOL    HW1 9245   4.613   1.365   5.132
 2782SOL    HW2 9246   4.458   1.409   5.158
 2783SOL     OW 9247   6.969   3.827   1.265
 2783SOL    HW1 9248   7.012   3.889   1.200
 2783SOL    HW2 9249   6.900   3.876   1.318
 2784SOL     OW 9250   3.220   1.528   2.065
 2784SOL    HW1 9251   3.260   1.446   2.105
 2784SOL    HW2 9252   3.247   1.536   1.969
 2785SOL     OW 9253   5.537   2.226   0.744
 2785SOL    HW1 9254   5.593   2.143   0.734
 2785SOL    HW2 9255   5.457   2.205   0.799
 2786SOL     OW 9256   6.669   6.664   1.398
 2786SOL    HW1 9257   6.603   6.720   1.449
 2786SOL    HW2 9258   6.758   6.667   1.444
 2787SOL     OW 9259   6.186   5.963   5.597
 2787SOL    HW1 9260   6.171   5.901   5.674
 2787SOL    HW2 9261   6.168   6.057   5.626
 2788SOL     OW 9262   2.691   6.219   6.160
 2788SOL    HW1 9263   2.657   6.148   6.222
 2788SOL    HW2 9264   2.639   6.216   6.074
 2789SOL     OW 9265   1.873   1.687   3.738
 2789SOL    HW1 9266   1.900   1.674   3.643
 2789SOL    HW2 9267   1.773   1.697   3.744
 2790SOL     OW 9268   2.917   5.576   0.817
 2790SOL    HW1 9269   2.910   5.569   0.917
 2790SOL    HW2 9270   2.848   5.640   0.783
 2791SOL     OW 9271   0.811   4.046   2.313
 2791SOL    HW1 9272   0.873   3.970   2.294
 2791SOL    HW2 9273   0.768   4.033   2.403
 2792SOL     OW 9274   3.034   1.169   4.593
 2792SOL    HW1 9275   3.038   1.091   4.531
 2792SOL    HW2 9276   2.956   1.227   4.568
 2793SOL     OW 9277   5.273   3.583   1.855
 2793SOL    HW1 9278   5.307   3.676   1.863
 2793SOL    HW2 9279   5.315   3.538   1.776
 2794SOL     OW 9280   6.709   2.085   6.186
 2794SOL    HW1 9281   6.690   2.009   6.125
 2794SOL    HW2 9282   6.664   2.167   6.152
 2795SOL     OW 9283   0.350   4.106   1.092
 2795SOL    HW1 9284   0.257   4.091   1.125
 2795SOL    HW2 9285   0.350   4.185   1.030
 2796SOL     OW 9286   0.701   5.582   3.854
 2796SOL    HW1 9287   0.741   5.580   3.762
 2796SOL    HW2 9288   0.755   5.524   3.915
 2797SOL     OW 9289   5.456   5.175   5.178
 2797SOL    HW1 9290   5.390   5.147   5.248
 2797SOL    HW2 9291   5.450   5.274   5.164
 2798SOL     OW 9292   5.845   6.000   2.744
 2798SOL    HW1 9293   5.829   6.032   2.838
 2798SOL    HW2 9294   5.788   5.920   2.726
 2799SOL     OW 9295   5.246   6.259   5.654
 2799SOL    HW1 9296   5.191   6.285   5.733
 2799SOL    HW2 9297   5.268   6.162   5.658
 2800SOL     OW 9298   5.648   0.436   5.924
 2800SOL    HW1 9299   5.627   0.465   5.831
 2800SOL    HW2 9300   5.717   0.497   5.963
 2801SOL     OW 9301   1.311   5.452   6.249
 2801SOL    HW1 9302   1.406   5.469   6.222
 2801SOL    HW2 9303   1.249   5.498   6.185
 2802SOL     OW 9304   6.701   6.303   5.490
 2802SOL    HW1 9305   6.747   6.287   5.577
 2802SOL    HW2 9306   6.615   6.252   5.487
 2803SOL     OW 9307   3.375   4.632   5.782
 2803SOL    HW1 9308   3.299   4.660   5.723
 2803SOL    HW2 9309   3.410   4.543   5.752
 2804SOL     OW 9310   0.281   4.284   4.525
 2804SOL    HW1 9311   0.283   4.292   4.425
 2804SOL    HW2 9312   0.356   4.225   4.555
 2805SOL     OW 9313   5.994   4.059   2.956
 2805SOL    HW1 9314   6.044   4.118   2.893
 2805SOL    HW2 9315   5.928   4.005   2.905
 2806SOL     OW 9316   1.678   4.559   6.226
 2806SOL    HW1 9317   1.714   4.521   6.312
 2806SOL    HW2 9318   1.584   4.591   6.241
 2807SOL     OW 9319   4.105   0.346   3.103
 2807SOL    HW1 9320   4.042   0.368   3.179
 2807SOL    HW2 9321   4.198   0.369   3.130
 2808SOL     OW 9322   6.521   6.098   0.861
 2808SOL    HW1 9323   6.429   6.109   0.822
 2808SOL    HW2 9324   6.543   6.178   0.917
 2809SOL     OW 9325   5.483   2.441   1.407
 2809SOL    HW1 9326   5.540   2.491   1.472
 2809SOL    HW2 9327   5.541   2.396   1.339
 2810SOL     OW 9328   2.379   5.311   2.917
 2810SOL    HW1 9329   2.314   5.307   2.840
 2810SOL    HW2 9330   2.329   5.294   3.002
 2811SOL     OW 9331   0.987   1.600   2.828
 2811SOL    HW1 9332   0.966   1.697   2.836
 2811SOL    HW2 9333   0.908   1.551   2.791
 2812SOL     OW 9334   6.272   3.520   0.674
 2812SOL    HW1 9335   6.310   3.459   0.604
 2812SOL    HW2 9336   6.192   3.477   0.715
 2813SOL     OW 9337   0.889   1.658   0.438
 2813SOL    HW1 9338   0.977   1.638   0.480
 2813SOL    HW2 9339   0.897   1.738   0.378
 2814SOL     OW 9340   2.966   4.509   5.752
 2814SOL    HW1 9341   3.044   4.559   5.715
 2814SOL    HW2 9342   2.883   4.563   5.739
 2815SOL     OW 9343   6.960   5.261   6.094
 2815SOL    HW1 9344   0.021   5.213   6.121
 2815SOL    HW2 9345   6.951   5.346   6.146
 2816SOL     OW 9346   6.490   5.701   4.476
 2816SOL    HW1 9347   6.547   5.679   4.396
 2816SOL    HW2 9348   6.394   5.706   4.448
 2817SOL     OW 9349   3.743   1.327   2.754
 2817SOL    HW1 9350   3.728   1.340   2.656
 2817SOL    HW2 9351   3.775   1.412   2.794
 2818SOL     OW 9352   6.740   1.308   2.187
 2818SOL    HW1 9353   6.707   1.213   2.185
 2818SOL    HW2 9354   6.827   1.313   2.236
 2819SOL     OW 9355   1.455   0.501   1.605
 2819SOL    HW1 9356   1.510   0.460   1.677
 2819SOL    HW2 9357   1.359   0.497   1.630
 2820SOL     OW 9358   0.932   2.087   2.315
 2820SOL    HW1 9359   1.024   2.084   2.277
 2820SOL    HW2 9360   0.930   2.039   2.403
 2821SOL     OW 9361   2.767   5.267   6.114
 2821SOL    HW1 9362   2.721   5.262   6.203
 2821SOL    HW2 9363   2.827   5.346   6.113
 2822SOL     OW 9364   4.559   2.373   6.994
 2822SOL    HW1 9365   4.616   2.399   6.916
 2822SOL    HW2 9366   4.525   2.455   0.017
 2823SOL     OW 9367   6.352   0.707   0.026
 2823SOL    HW1 9368   6.332   0.657   6.964
 2823SOL    HW2 9369   6.343   0.805   0.009
 2824SOL     OW 9370   1.601   3.090   5.631
 2824SOL    HW1 9371   1.611   2.994   5.656
 2824SOL    HW2 9372   1.551   3.097   5.544
 2825SOL     OW 9373   5.261   0.607   6.240
 2825SOL    HW1 9374   5.264   0.645   6.333
 2825SOL    HW2 9375   5.222   0.674   6.177
 2826SOL     OW 9376   2.797   3.204   6.423
 2826SOL    HW1 9377   2.789   3.170   6.329
 2826SOL    HW2 9378   2.815   3.127   6.485
 2827SOL     OW 9379   0.381   0.923   6.686
 2827SOL    HW1 9380   0.348   0.981   6.760
 2827SOL    HW2 9381   0.458   0.868   6.718
 2828SOL     OW 9382   1.970   3.407   1.384
 2828SOL    HW1 9383   2.068   3.424   1.392
 2828SOL    HW2 9384   1.944   3.406   1.287
 2829SOL     OW 9385   3.020   3.257   3.324
 2829SOL    HW1 9386   2.947   3.325   3.314
 2829SOL    HW2 9387   3.001   3.200   3.405
 2830SOL     OW 9388   3.466   4.270   5.229
 2830SOL    HW1 9389   3.503   4.254   5.138
 2830SOL    HW2 9390   3.366   4.264   5.226
 2831SOL     OW 9391   0.756   2.647   2.612
 2831SOL    HW1 9392   0.659   2.671   2.607
 2831SOL    HW2 9393   0.775   2.572   2.548
 2832SOL     OW 9394   0.788   3.225   1.576
 2832SOL    HW1 9395   0.786   3.293   1.503
 2832SOL    HW2 9396   0.750   3.139   1.542
 2833SOL     OW 9397   2.459   1.513   1.774
 2833SOL    HW1 9398   2.420   1.605   1.765
 2833SOL    HW2 9399   2.559   1.520   1.780
 2834SOL     OW 9400   4.722   6.521   4.373
 2834SOL    HW1 9401   4.803   6.545   4.427
 2834SOL    HW2 9402   4.648   6.586   4.393
 2835SOL     OW 9403   0.852   6.301   0.333
 2835SOL    HW1 9404   0.928   6.238   0.317
 2835SOL    HW2 9405   0.805   6.319   0.247
 2836SOL     OW 9406   2.093   6.541   2.071
 2836SOL    HW1 9407   2.144   6.611   2.122
 2836SOL    HW2 9408   1.995   6.553   2.086
 2837SOL     OW 9409   5.757   4.524   2.819
 2837SOL    HW1 9410   5.698   4.527   2.899
 2837SOL    HW2 9411   5.818   4.604   2.819
 2838SOL     OW 9412   4.852   3.684   0.537
 2838SOL    HW1 9413   4.925   3.650   0.596
 2838SOL    HW2 9414   4.891   3.749   0.471
 2839SOL     OW 9415   0.446   3.155   2.178
 2839SOL    HW1 9416   0.490   3.218   2.242
 2839SOL    HW2 9417   0.348   3.153   2.195
 2840SOL     OW 9418   1.246   5.888   2.780
 2840SOL    HW1 9419   1.318   5.948   2.743
 2840SOL    HW2 9420   1.240   5.901   2.879
 2841SOL     OW 9421   6.285   2.330   0.141
 2841SOL    HW1 9422   6.345   2.265   0.187
 2841SOL    HW2 9423   6.279   2.307   0.044
 2842SOL     OW 9424   1.387   6.013   4.789
 2842SOL    HW1 9425   1.369   6.004   4.887
 2842SOL    HW2 9426   1.378   5.924   4.744
 2843SOL     OW 9427   2.439   1.419   2.674
 2843SOL    HW1 9428   2.397   1.503   2.638
 2843SOL    HW2 9429   2.512   1.444   2.737
 2844SOL     OW 9430   5.898   4.881   1.182
 2844SOL    HW1 9431   5.833   4.847   1.251
 2844SOL    HW2 9432   5.852   4.893   1.095
 2845SOL     OW 9433   5.537   3.333   2.456
 2845SOL    HW1 9434   5.499   3.351   2.365
 2845SOL    HW2 9435   5.594   3.251   2.453
 2846SOL     OW 9436   3.344   1.144   0.531
 2846SOL    HW1 9437   3.279   1.120   0.603
 2846SOL    HW2 9438   3.433   1.104   0.552
 2847SOL     OW 9439   4.916   3.683   2.060
 2847SOL    HW1 9440   4.859   3.756   2.021
 2847SOL    HW2 9441   4.920   3.607   1.996
 2848SOL     OW 9442   2.396   2.398   5.410
 2848SOL    HW1 9443   2.429   2.461   5.480
 2848SOL    HW2 9444   2.296   2.396   5.411
 2849SOL     OW 9445   3.666   1.413   1.536
 2849SOL    HW1 9446   3.690   1.497   1.586
 2849SOL    HW2 9447   3.749   1.360   1.519
 2850SOL     OW 9448   2.577   6.919   3.387
 2850SOL    HW1 9449   2.560   6.946   3.292
 2850SOL    HW2 9450   2.636   6.838   3.389
 2851SOL     OW 9451   3.851   3.310   6.966
 2851SOL    HW1 9452   3.937   3.324   6.916
 2851SOL    HW2 9453   3.780   3.280   6.902
 2852SOL     OW 9454   5.890   4.563   6.856
 2852SOL    HW1 9455   5.867   4.642   6.913
 2852SOL    HW2 9456   5.868   4.479   6.907
 2853SOL     OW 9457   0.800   3.627   0.651
 2853SOL    HW1 9458   0.719   3.581   0.614
 2853SOL    HW2 9459   0.882   3.592   0.605
 2854SOL     OW 9460   3.191   0.748   5.982
 2854SOL    HW1 9461   3.224   0.657   5.958
 2854SOL    HW2 9462   3.262   0.815   5.963
 2855SOL     OW 9463   1.141   2.830   4.768
 2855SOL    HW1 9464   1.190   2.750   4.733
 2855SOL    HW2 9465   1.062   2.849   4.709
 2856SOL     OW 9466   1.432   2.905   3.999
 2856SOL    HW1 9467   1.500   2.977   3.982
 2856SOL    HW2 9468   1.373   2.896   3.919
 2857SOL     OW 9469   0.311   2.985   0.970
 2857SOL    HW1 9470   0.273   2.974   1.062
 2857SOL    HW2 9471   0.399   2.939   0.965
 2858SOL     OW 9472   5.214   6.624   2.405
 2858SOL    HW1 9473   5.256   6.604   2.316
 2858SOL    HW2 9474   5.187   6.538   2.449
 2859SOL     OW 9475   5.599   6.345   0.638
 2859SOL    HW1 9476   5.589   6.444   0.641
 2859SOL    HW2 9477   5.568   6.310   0.549
 2860SOL     OW 9478   1.552   6.804   2.244
 2860SOL    HW1 9479   1.549   6.881   2.180
 2860SOL    HW2 9480   1.464   6.756   2.241
 2861SOL     OW 9481   3.272   6.116   5.159
 2861SOL    HW1 9482   3.357   6.170   5.158
 2861SOL    HW2 9483   3.247   6.095   5.253
 2862SOL     OW 9484   4.517   2.454   1.920
 2862SOL    HW1 9485   4.557   2.371   1.881
 2862SOL    HW2 9486   4.585   2.528   1.917
 2863SOL     OW 9487   4.986   1.120   6.821
 2863SOL    HW1 9488   4.984   1.195   6.888
 2863SOL    HW2 9489   4.892   1.089   6.803
 2864SOL     OW 9490   4.493   2.818   1.050
 2864SOL    HW1 9491   4.562   2.766   1.099
 2864SOL    HW2 9492   4.403   2.776   1.064
 2865SOL     OW 9493   4.037   6.953   4.032
 2865SOL    HW1 9494   3.992   0.016   4.006
 2865SOL    HW2 9495   4.077   6.910   3.952
 2866SOL     OW 9496   5.759   4.153   0.442
 2866SOL    HW1 9497   5.679   4.183   0.389
 2866SOL    HW2 9498   5.835   4.136   0.380
 2867SOL     OW 9499   6.011   6.430   2.767
 2867SOL    HW1 9500   6.014   6.480   2.680
 2867SOL    HW2 9501   6.040   6.336   2.753
 2868SOL     OW 9502   1.027   1.774   5.445
 2868SOL    HW1 9503   0.945   1.800   5.393
 2868SOL    HW2 9504   1.008   1.689   5.495
 2869SOL     OW 9505   6.338   0.719   4.017
 2869SOL    HW1 9506   6.279   0.707   3.937
 2869SOL    HW2 9507   6.433   0.703   3.991
 2870SOL     OW 9508   0.702   1.786   6.602
 2870SOL    HW1 9509   0.678   1.711   6.664
 2870SOL    HW2 9510   0.743   1.749   6.519
 2871SOL     OW 9511   6.453   0.502   0.191
 2871SOL    HW1 9512   6.382   0.433   0.180
 2871SOL    HW2 9513   6.426   0.586   0.144
 2872SOL     OW 9514   2.575   1.456   0.761
 2872SOL    HW1 9515   2.640   1.388   0.728
 2872SOL    HW2 9516   2.620   1.546   0.765
 2873SOL     OW 9517   6.831   6.375   2.245
 2873SOL    HW1 9518   6.837   6.318   2.163
 2873SOL    HW2 9519   6.770   6.333   2.312
 2874SOL     OW 9520   4.355   6.861   3.013
 2874SOL    HW1 9521   4.327   6.956   3.001
 2874SOL    HW2 9522   4.392   6.826   2.927
 2875SOL     OW 9523   3.881   6.946   2.905
 2875SOL    HW1 9524   3.808   7.012   2.923
 2875SOL    HW2 9525   3.855   6.857   2.941
 2876SOL     OW 9526   1.176   6.316   2.319
 2876SOL    HW1 9527   1.161   6.218   2.332
 2876SOL    HW2 9528   1.273   6.337   2.329
 2877SOL     OW 9529   1.981   0.652   6.840
 2877SOL    HW1 9530   2.028   0.578   6.792
 2877SOL    HW2 9531   1.981   0.734   6.783
 2878SOL     OW 9532   3.188   3.633   4.868
 2878SOL    HW1 9533   3.194   3.598   4.775
 2878SOL    HW2 9534   3.131   3.572   4.923
 2879SOL     OW 9535   4.661   5.315   5.684
 2879SOL    HW1 9536   4.655   5.218   5.663
 2879SOL    HW2 9537   4.572   5.349   5.716
 2880SOL     OW 9538   0.276   1.687   3.481
 2880SOL    HW1 9539   0.362   1.727   3.512
 2880SOL    HW2 9540   0.272   1.591   3.506
 2881SOL     OW 9541   3.553   6.168   6.965
 2881SOL    HW1 9542   3.520   6.076   6.943
 2881SOL    HW2 9543   3.600   6.166   0.031
 2882SOL     OW 9544   6.304   5.990   1.356
 2882SOL    HW1 9545   6.212   5.951   1.350
 2882SOL    HW2 9546   6.316   6.034   1.445
 2883SOL     OW 9547   5.901   6.689   3.557
 2883SOL    HW1 9548   5.975   6.657   3.615
 2883SOL    HW2 9549   5.820   6.632   3.571
 2884SOL     OW 9550   6.888   5.892   2.153
 2884SOL    HW1 9551   6.848   5.817   2.101
 2884SOL    HW2 9552   6.987   5.883   2.154
 2885SOL     OW 9553   0.940   2.608   4.599
 2885SOL    HW1 9554   0.909   2.542   4.667
 2885SOL    HW2 9555   0.926   2.571   4.507
 2886SOL     OW 9556   2.007   4.290   6.599
 2886SOL    HW1 9557   1.912   4.268   6.622
 2886SOL    HW2 9558   2.028   4.384   6.628
 2887SOL     OW 9559   0.178   5.783   4.398
 2887SOL    HW1 9560   0.143   5.870   4.363
 2887SOL    HW2 9561   0.164   5.712   4.329
 2888SOL     OW 9562   0.351   5.052   0.222
 2888SOL    HW1 9563   0.316   5.138   0.184
 2888SOL    HW2 9564   0.312   5.038   0.313
 2889SOL     OW 9565   3.300   6.540   2.693
 2889SOL    HW1 9566   3.272   6.612   2.629
 2889SOL    HW2 9567   3.222   6.482   2.714
 2890SOL     OW 9568   1.724   5.356   0.953
 2890SOL    HW1 9569   1.706   5.286   0.884
 2890SOL    HW2 9570   1.819   5.350   0.983
 2891SOL     OW 9571   1.454   3.065   3.298
 2891SOL    HW1 9572   1.432   3.005   3.221
 2891SOL    HW2 9573   1.372   3.114   3.328
 2892SOL     OW 9574   5.817   3.107   1.083
 2892SOL    HW1 9575   5.806   3.037   1.155
 2892SOL    HW2 9576   5.733   3.161   1.076
 2893SOL     OW 9577   1.401   5.271   4.792
 2893SOL    HW1 9578   1.477   5.329   4.764
 2893SOL    HW2 9579   1.432   5.206   4.862
 2894SOL     OW 9580   1.744   3.806   1.604
 2894SOL    HW1 9581   1.653   3.824   1.569
 2894SOL    HW2 9582   1.812   3.841   1.540
 2895SOL     OW 9583   3.905   0.512   6.405
 2895SOL    HW1 9584   3.811   0.515   6.438
 2895SOL    HW2 9585   3.962   0.572   6.460
 2896SOL     OW 9586   4.371   0.293   5.388
 2896SOL    HW1 9587   4.407   0.386   5.375
 2896SOL    HW2 9588   4.425   0.246   5.457
 2897SOL     OW 9589   4.052   5.118   2.912
 2897SOL    HW1 9590   4.098   5.116   2.824
 2897SOL    HW2 9591   4.003   5.204   2.923
 2898SOL     OW 9592   5.158   4.172   4.125
 2898SOL    HW1 9593   5.132   4.111   4.199
 2898SOL    HW2 9594   5.107   4.258   4.132
 2899SOL     OW 9595   6.526   1.823   0.867
 2899SOL    HW1 9596   6.584   1.763   0.811
 2899SOL    HW2 9597   6.463   1.872   0.807
 2900SOL     OW 9598   4.218   4.887   6.516
 2900SOL    HW1 9599   4.163   4.929   6.588
 2900SOL    HW2 9600   4.158   4.844   6.448
 2901SOL     OW 9601   2.157   4.637   3.640
 2901SOL    HW1 9602   2.174   4.662   3.735
 2901SOL    HW2 9603   2.149   4.538   3.632
 2902SOL     OW 9604   6.577   4.925   3.747
 2902SOL    HW1 9605   6.615   4.909   3.656
 2902SOL    HW2 9606   6.541   5.019   3.752
 2903SOL     OW 9607   4.086   6.412   0.813
 2903SOL    HW1 9608   4.184   6.429   0.823
 2903SOL    HW2 9609   4.034   6.486   0.855
 2904SOL     OW 9610   3.360   5.183   4.835
 2904SOL    HW1 9611   3.333   5.112   4.900
 2904SOL    HW2 9612   3.278   5.221   4.792
 2905SOL     OW 9613   1.716   4.093   4.322
 2905SOL    HW1 9614   1.751   4.106   4.229
 2905SOL    HW2 9615   1.625   4.052   4.318
 2906SOL     OW 9616   5.480   5.935   2.657
 2906SOL    HW1 9617   5.487   5.854   2.714
 2906SOL    HW2 9618   5.476   5.908   2.560
 2907SOL     OW 9619   1.040   1.738   4.160
 2907SOL    HW1 9620   1.053   1.639   4.168
 2907SOL    HW2 9621   1.096   1.773   4.085
 2908SOL     OW 9622   5.218   6.430   3.360
 2908SOL    HW1 9623   5.230   6.512   3.416
 2908SOL    HW2 9624   5.200   6.351   3.420
 2909SOL     OW 9625   2.037   6.754   3.171
 2909SOL    HW1 9626   1.949   6.753   3.123
 2909SOL    HW2 9627   2.058   6.847   3.202
 2910SOL     OW 9628   6.557   0.617   3.861
 2910SOL    HW1 9629   6.535   0.710   3.830
 2910SOL    HW2 9630   6.602   0.621   3.950
 2911SOL     OW 9631   1.907   5.287   3.612
 2911SOL    HW1 9632   1.991   5.340   3.600
 2911SOL    HW2 9633   1.832   5.348   3.637
 2912SOL     OW 9634   6.549   5.945   6.767
 2912SOL    HW1 9635   6.486   5.895   6.708
 2912SOL    HW2 9636   6.503   6.027   6.802
 2913SOL     OW 9637   3.292   4.900   2.368
 2913SOL    HW1 9638   3.379   4.877   2.325
 2913SOL    HW2 9639   3.250   4.975   2.318
 2914SOL     OW 9640   5.828   5.772   1.055
 2914SOL    HW1 9641   5.737   5.748   1.020
 2914SOL    HW2 9642   5.878   5.688   1.075
 2915SOL     OW 9643   3.474   1.599   3.867
 2915SOL    HW1 9644   3.375   1.596   3.853
 2915SOL    HW2 9645   3.509   1.684   3.827
 2916SOL     OW 9646   1.692   5.382   0.356
 2916SOL    HW1 9647   1.715   5.292   0.319
 2916SOL    HW2 9648   1.647   5.438   0.286
 2917SOL     OW 9649   3.359   0.567   4.349
 2917SOL    HW1 9650   3.449   0.577   4.390
 2917SOL    HW2 9651   3.368   0.559   4.249
 2918SOL     OW 9652   6.008   3.662   6.151
 2918SOL    HW1 9653   5.964   3.698   6.233
 2918SOL    HW2 9654   6.069   3.587   6.176
 2919SOL     OW 9655   6.115   0.428   3.765
 2919SOL    HW1 9656   6.154   0.409   3.855
 2919SOL    HW2 9657   6.136   0.352   3.703
 2920SOL     OW 9658   3.365   0.532   1.490
 2920SOL    HW1 9659   3.424   0.606   1.524
 2920SOL    HW2 9660   3.270   0.550   1.516
 2921SOL     OW 9661   0.446   0.017   5.893
 2921SOL    HW1 9662   0.367   6.992   5.853
 2921SOL    HW2 9663   0.513   6.972   5.923
 2922SOL     OW 9664   4.039   6.098   1.801
 2922SOL    HW1 9665   4.010   6.125   1.893
 2922SOL    HW2 9666   4.039   6.178   1.741
 2923SOL     OW 9667   6.764   5.458   4.707
 2923SOL    HW1 9668   6.757   5.551   4.743
 2923SOL    HW2 9669   6.839   5.411   4.752
 2924SOL     OW 9670   0.478   2.072   4.230
 2924SOL    HW1 9671   0.542   1.995   4.232
 2924SOL    HW2 9672   0.393   2.045   4.275
 2925SOL     OW 9673   6.014   1.547   0.144
 2925SOL    HW1 9674   5.963   1.617   0.094
 2925SOL    HW2 9675   5.953   1.471   0.166
 2926SOL     OW 9676   6.357   1.969   6.075
 2926SOL    HW1 9677   6.388   2.063   6.093
 2926SOL    HW2 9678   6.379   1.911   6.154
 2927SOL     OW 9679   1.346   3.504   0.802
 2927SOL    HW1 9680   1.253   3.511   0.837
 2927SOL    HW2 9681   1.344   3.492   0.702
 2928SOL     OW 9682   6.418   1.410   6.957
 2928SOL    HW1 9683   6.393   1.483   6.894
 2928SOL    HW2 9684   6.351   1.404   0.008
 2929SOL     OW 9685   1.796   2.787   5.390
 2929SOL    HW1 9686   1.848   2.795   5.475
 2929SOL    HW2 9687   1.840   2.842   5.319
 2930SOL     OW 9688   5.353   6.330   5.037
 2930SOL    HW1 9689   5.400   6.415   5.015
 2930SOL    HW2 9690   5.421   6.259   5.057
 2931SOL     OW 9691   4.809   4.804   6.987
 2931SOL    HW1 9692   4.861   4.732   0.011
 2931SOL    HW2 9693   4.853   4.892   7.002
 2932SOL     OW 9694   7.018   5.904   1.752
 2932SOL    HW1 9695   7.010   5.873   1.657
 2932SOL    HW2 9696   6.993   6.001   1.758
 2933SOL     OW 9697   0.516   6.548   1.810
 2933SOL    HW1 9698   0.453   6.599   1.751
 2933SOL    HW2 9699   0.464   6.503   1.882
 2934SOL     OW 9700   5.129   2.653   0.935
 2934SOL    HW1 9701   5.059   2.724   0.923
 2934SOL    HW2 9702   5.094   2.582   0.997
 2935SOL     OW 9703   0.376   2.533   6.452
 2935SOL    HW1 9704   0.364   2.527   6.353
 2935SOL    HW2 9705   0.412   2.624   6.475
 2936SOL     OW 9706   3.941   6.235   0.505
 2936SOL    HW1 9707   3.946   6.179   0.588
 2936SOL    HW2 9708   3.852   6.222   0.461
 2937SOL     OW 9709   4.882   5.470   0.910
 2937SOL    HW1 9710   4.960   5.419   0.876
 2937SOL    HW2 9711   4.912   5.533   0.981
 2938SOL     OW 9712   7.014   5.455   0.182
 2938SOL    HW1 9713   6.920   5.433   0.156
 2938SOL    HW2 9714   7.015   5.487   0.277
 2939SOL     OW 9715   1.681   0.695   1.394
 2939SOL    HW1 9716   1.595   0.734   1.361
 2939SOL    HW2 9717   1.758   0.750   1.363
 2940SOL     OW 9718   6.285   5.466   5.131
 2940SOL    HW1 9719   6.260   5.529   5.057
 2940SOL    HW2 9720   6.338   5.390   5.094
 2941SOL     OW 9721   2.597   1.763   2.815
 2941SOL    HW1 9722   2.591   1.668   2.846
 2941SOL    HW2 9723   2.690   1.797   2.830
 2942SOL     OW 9724   3.645   2.662   0.745
 2942SOL    HW1 9725   3.657   2.729   0.671
 2942SOL    HW2 9726   3.635   2.709   0.832
 2943SOL     OW 9727   5.479   4.815   3.811
 2943SOL    HW1 9728   5.448   4.823   3.717
 2943SOL    HW2 9729   5.542   4.738   3.819
 2944SOL     OW 9730   2.586   6.421   3.891
 2944SOL    HW1 9731   2.677   6.427   3.932
 2944SOL    HW2 9732   2.593   6.386   3.798
 2945SOL     OW 9733   4.735   2.623   1.556
 2945SOL    HW1 9734   4.765   2.649   1.464
 2945SOL    HW2 9735   4.712   2.706   1.607
 2946SOL     OW 9736   2.328   4.424   5.688
 2946SOL    HW1 9737   2.259   4.381   5.630
 2946SOL    HW2 9738   2.376   4.353   5.740
 2947SOL     OW 9739   7.012   5.199   0.507
 2947SOL    HW1 9740   0.001   5.298   0.514
 2947SOL    HW2 9741   6.970   5.164   0.591
 2948SOL     OW 9742   6.862   4.163   3.913
 2948SOL    HW1 9743   6.823   4.098   3.848
 2948SOL    HW2 9744   6.828   4.255   3.891
 2949SOL     OW 9745   0.562   5.398   6.904
 2949SOL    HW1 9746   0.593   5.390   6.998
 2949SOL    HW2 9747   0.611   5.473   6.859
 2950SOL     OW 9748   5.786   5.943   3.635
 2950SOL    HW1 9749   5.735   5.873   3.685
 2950SOL    HW2 9750   5.884   5.927   3.647
 2951SOL     OW 9751   5.489   1.500   1.990
 2951SOL    HW1 9752   5.563   1.445   1.951
 2951SOL    HW2 9753   5.501   1.596   1.963
 2952SOL     OW 9754   0.253   6.828   4.946
 2952SOL    HW1 9755   0.305   6.899   4.993
 2952SOL    HW2 9756   0.170   6.869   4.907
 2953SOL     OW 9757   6.908   4.315   3.267
 2953SOL    HW1 9758   6.853   4.335   3.186
 2953SOL    HW2 9759   6.903   4.392   3.331
 2954SOL     OW 9760   0.090   4.340   6.998
 2954SOL    HW1 9761   0.077   4.279   0.054
 2954SOL    HW2 9762   0.164   4.405   7.018
 2955SOL     OW 9763   0.594   4.551   1.251
 2955SOL    HW1 9764   0.569   4.517   1.161
 2955SOL    HW2 9765   0.689   4.525   1.272
 2956SOL     OW 9766   6.487   5.549   3.427
 2956SOL    HW1 9767   6.505   5.456   3.458
 2956SOL    HW2 9768   6.560   5.578   3.365
 2957SOL     OW 9769   4.796   4.467   1.652
 2957SOL    HW1 9770   4.865   4.537   1.632
 2957SOL    HW2 9771   4.833   4.377   1.629
 2958SOL     OW 9772   2.121   4.854   3.445
 2958SOL    HW1 9773   2.111   4.762   3.484
 2958SOL    HW2 9774   2.036   4.881   3.401
 2959SOL     OW 9775   5.486   2.775   2.298
 2959SOL    HW1 9776   5.450   2.714   2.368
 2959SOL    HW2 9777   5.544   2.845   2.340
 2960SOL     OW 9778   3.601   6.741   6.711
 2960SOL    HW1 9779   3.631   6.685   6.788
 2960SOL    HW2 9780   3.652   6.715   6.629
 2961SOL     OW 9781   6.193   4.989   3.176
 2961SOL    HW1 9782   6.131   4.915   3.150
 2961SOL    HW2 9783   6.218   5.041   3.094
 2962SOL     OW 9784   4.819   6.347   3.419
 2962SOL    HW1 9785   4.743   6.341   3.484
 2962SOL    HW2 9786   4.820   6.266   3.361
 2963SOL     OW 9787   0.917   1.080   6.714
 2963SOL    HW1 9788   0.882   1.100   6.623
 2963SOL    HW2 9789   0.859   1.125   6.783
 2964SOL     OW 9790   0.303   1.972   5.883
 2964SOL    HW1 9791   0.396   1.958   5.850
 2964SOL    HW2 9792   0.276   1.898   5.944
 2965SOL     OW 9793   0.525   0.676   4.225
 2965SOL    HW1 9794   0.617   0.647   4.253
 2965SOL    HW2 9795   0.531   0.727   4.139
 2966SOL     OW 9796   4.731   5.631   3.669
 2966SOL    HW1 9797   4.716   5.614   3.767
 2966SOL    HW2 9798   4.690   5.719   3.644
 2967SOL     OW 9799   6.612   0.983   5.381
 2967SOL    HW1 9800   6.667   0.952   5.459
 2967SOL    HW2 9801   6.517   0.992   5.409
 2968SOL     OW 9802   1.016   2.611   0.819
 2968SOL    HW1 9803   1.044   2.522   0.854
 2968SOL    HW2 9804   1.097   2.665   0.797
 2969SOL     OW 9805   4.818   2.734   4.344
 2969SOL    HW1 9806   4.811   2.816   4.400
 2969SOL    HW2 9807   4.912   2.699   4.347
 2970SOL     OW 9808   2.693   2.899   5.377
 2970SOL    HW1 9809   2.675   2.943   5.465
 2970SOL    HW2 9810   2.641   2.945   5.305
 2971SOL     OW 9811   5.179   4.184   0.607
 2971SOL    HW1 9812   5.108   4.201   0.539
 2971SOL    HW2 9813   5.136   4.156   0.693
 2972SOL     OW 9814   5.506   5.160   6.119
 2972SOL    HW1 9815   5.559   5.103   6.056
 2972SOL    HW2 9816   5.419   5.115   6.139
 2973SOL     OW 9817   4.662   6.530   2.266
 2973SOL    HW1 9818   4.735   6.462   2.275
 2973SOL    HW2 9819   4.579   6.497   2.311
 2974SOL     OW 9820   6.550   4.303   3.187
 2974SOL    HW1 9821   6.481   4.248   3.140
 2974SOL    HW2 9822   6.618   4.335   3.121
 2975SOL     OW 9823   5.396   4.414   4.449
 2975SOL    HW1 9824   5.496   4.419   4.438
 2975SOL    HW2 9825   5.365   4.321   4.430
 2976SOL     OW 9826   5.109   1.929   2.881
 2976SOL    HW1 9827   5.169   1.896   2.808
 2976SOL    HW2 9828   5.118   2.028   2.890
 2977SOL     OW 9829   0.280   0.909   2.363
 2977SOL    HW1 9830   0.318   0.939   2.275
 2977SOL    HW2 9831   0.296   0.979   2.432
 2978SOL     OW 9832   3.816   4.458   0.176
 2978SOL    HW1 9833   3.838   4.432   0.270
 2978SOL    HW2 9834   3.868   4.402   0.113
 2979SOL     OW 9835   3.455   1.825   4.263
 2979SOL    HW1 9836   3.473   1.920   4.237
 2979SOL    HW2 9837   3.459   1.816   4.362
 2980SOL     OW 9838   2.545   5.488   6.090
 2980SOL    HW1 9839   2.585   5.444   6.010
 2980SOL    HW2 9840   2.546   5.425   6.167
 2981SOL     OW 9841   2.381   0.764   0.078
 2981SOL    HW1 9842   2.285   0.767   0.105
 2981SOL    HW2 9843   2.422   0.855   0.090
 2982SOL     OW 9844   2.293   6.185   1.604
 2982SOL    HW1 9845   2.248   6.166   1.690
 2982SOL    HW2 9846   2.381   6.136   1.600
 2983SOL     OW 9847   6.591   2.233   1.412
 2983SOL    HW1 9848   6.526   2.307   1.396
 2983SOL    HW2 9849   6.673   2.247   1.356
 2984SOL     OW 9850   5.652   5.854   6.203
 2984SOL    HW1 9851   5.704   5.931   6.165
 2984SOL    HW2 9852   5.582   5.888   6.266
 2985SOL     OW 9853   1.190   1.786   4.774
 2985SOL    HW1 9854   1.279   1.754   4.807
 2985SOL    HW2 9855   1.204   1.835   4.688
 2986SOL     OW 9856   3.666   3.865   2.480
 2986SOL    HW1 9857   3.608   3.786   2.462
 2986SOL    HW2 9858   3.703   3.859   2.573
 2987SOL     OW 9859   1.588   1.325   4.323
 2987SOL    HW1 9860   1.570   1.420   4.299
 2987SOL    HW2 9861   1.621   1.276   4.242
 2988SOL     OW 9862   1.369   7.019   1.721
 2988SOL    HW1 9863   1.463   0.015   1.692
 2988SOL    HW2 9864   1.329   6.949   1.662
 2989SOL     OW 9865   5.400   3.989   5.721
 2989SOL    HW1 9866   5.405   4.049   5.801
 2989SOL    HW2 9867   5.350   4.035   5.648
 2990SOL     OW 9868   4.854   2.387   4.173
 2990SOL    HW1 9869   4.884   2.370   4.079
 2990SOL    HW2 9870   4.778   2.325   4.195
 2991SOL     OW 9871   5.924   3.188   6.366
 2991SOL    HW1 9872   5.860   3.253   6.406
 2991SOL    HW2 9873   5.932   3.204   6.267
 2992SOL     OW 9874   2.014   4.955   4.730
 2992SOL    HW1 9875   2.101   5.001   4.748
 2992SOL    HW2 9876   2.012   4.867   4.778
 2993SOL     OW 9877   0.064   4.864   0.732
 2993SOL    HW1 9878   0.146   4.860   0.789
 2993SOL    HW2 9879   0.022   4.954   0.741
 2994SOL     OW 9880   3.827   5.914   0.410
 2994SOL    HW1 9881   3.755   5.980   0.432
 2994SOL    HW2 9882   3.903   5.924   0.475
 2995SOL     OW 9883   4.132   0.760   0.245
 2995SOL    HW1 9884   4.060   0.781   0.311
 2995SOL    HW2 9885   4.139   0.833   0.178
 2996SOL     OW 9886   0.858   2.242   4.655
 2996SOL    HW1 9887   0.836   2.322   4.710
 2996SOL    HW2 9888   0.957   2.229   4.653
 2997SOL     OW 9889   5.137   0.091   3.166
 2997SOL    HW1 9890   5.063   0.151   3.134
 2997SOL    HW2 9891   5.129   0.080   3.265
 2998SOL     OW 9892   4.468   6.443   3.401
 2998SOL    HW1 9893   4.483   6.461   3.498
 2998SOL    HW2 9894   4.508   6.517   3.347
 2999SOL     OW 9895   2.637   5.071   5.810
 2999SOL    HW1 9896   2.538   5.067   5.807
 2999SOL    HW2 9897   2.669   5.039   5.899
 3000SOL     OW 9898   2.683   3.884   6.673
 3000SOL    HW1 9899   2.592   3.886   6.631
 3000SOL    HW2 9900   2.703   3.792   6.706
 3001SOL     OW 9901   6.234   1.879   0.275
 3001SOL    HW1 9902   6.168   1.894   0.202
 3001SOL    HW2 9903   6.204   1.802   0.331
 3002SOL     OW 9904   3.439   2.039   0.439
 3002SOL    HW1 9905   3.458   2.071   0.347
 3002SOL    HW2 9906   3.417   1.942   0.437
 3003SOL     OW 9907   0.857   6.527   1.261
 3003SOL    HW1 9908   0.887   6.447   1.313
 3003SOL    HW2 9909   0.916   6.538   1.181
 3004SOL     OW 9910   1.258   5.024   2.581
 3004SOL    HW1 9911   1.278   4.926   2.571
 3004SOL    HW2 9912   1.184   5.048   2.518
 3005SOL     OW 9913   1.365   3.076   6.749
 3005SOL    HW1 9914   1.328   3.011   6.814
 3005SOL    HW2 9915   1.337   3.051   6.656
 3006SOL     OW 9916   5.496   1.736   5.197
 3006SOL    HW1 9917   5.577   1.679   5.214
 3006SOL    HW2 9918   5.526   1.826   5.165
 3007SOL     OW 9919   4.709   4.867   0.479
 3007SOL    HW1 9920   4.611   4.863   0.496
 3007SOL    HW2 9921   4.740   4.780   0.439
 3008SOL     OW 9922   3.483   2.386   6.271
 3008SOL    HW1 9923   3.416   2.358   6.203
 3008SOL    HW2 9924   3.520   2.305   6.318
 3009SOL     OW 9925   0.085   3.322   2.527
 3009SOL    HW1 9926   0.161   3.326   2.592
 3009SOL    HW2 9927   0.120   3.339   2.435
 3010SOL     OW 9928   2.963   5.764   4.328
 3010SOL    HW1 9929   2.863   5.769   4.328
 3010SOL    HW2 9930   2.995   5.745   4.236
 3011SOL     OW 9931   6.007   0.495   1.672
 3011SOL    HW1 9932   6.040   0.559   1.741
 3011SOL    HW2 9933   6.054   0.513   1.585
 3012SOL     OW 9934   2.052   3.163   0.305
 3012SOL    HW1 9935   2.120   3.190   0.374
 3012SOL    HW2 9936   1.990   3.239   0.288
 3013SOL     OW 9937   6.196   4.848   3.423
 3013SOL    HW1 9938   6.143   4.766   3.403
 3013SOL    HW2 9939   6.186   4.914   3.349
 3014SOL     OW 9940   4.717   1.961   6.410
 3014SOL    HW1 9941   4.728   1.863   6.420
 3014SOL    HW2 9942   4.790   2.008   6.459
 3015SOL     OW 9943   2.167   2.027   0.348
 3015SOL    HW1 9944   2.109   2.088   0.402
 3015SOL    HW2 9945   2.229   2.083   0.292
 3016SOL     OW 9946   3.445   6.923   4.439
 3016SOL    HW1 9947   3.523   6.866   4.415
 3016SOL    HW2 9948   3.365   6.866   4.454
 3017SOL     OW 9949   5.336   5.550   2.447
 3017SOL    HW1 9950   5.281   5.632   2.466
 3017SOL    HW2 9951   5.323   5.484   2.521
 3018SOL     OW 9952   3.398   0.186   6.703
 3018SOL    HW1 9953   3.411   0.118   6.775
 3018SOL    HW2 9954   3.457   0.265   6.720
 3019SOL     OW 9955   0.854   0.568   6.434
 3019SOL    HW1 9956   0.874   0.546   6.530
 3019SOL    HW2 9957   0.763   0.608   6.427
 3020SOL     OW 9958   4.219   2.967   0.878
 3020SOL    HW1 9959   4.280   2.997   0.805
 3020SOL    HW2 9960   4.202   2.869   0.868
 3021SOL     OW 9961   2.369   7.011   4.359
 3021SOL    HW1 9962   2.354   7.002   4.260
 3021SOL    HW2 9963   2.321   0.069   4.392
 3022SOL     OW 9964   4.250   5.297   4.920
 3022SOL    HW1 9965   4.196   5.218   4.950
 3022SOL    HW2 9966   4.322   5.267   4.858
 3023SOL     OW 9967   4.045   6.781   3.265
 3023SOL    HW1 9968   3.973   6.712   3.273
 3023SOL    HW2 9969   4.129   6.737   3.233
 3024SOL     OW 9970   5.569   6.606   5.590
 3024SOL    HW1 9971   5.502   6.605   5.664
 3024SOL    HW2 9972   5.659   6.582   5.626
 3025SOL     OW 9973   3.948   5.808   1.742
 3025SOL    HW1 9974   3.960   5.880   1.673
 3025SOL    HW2 9975   3.890   5.842   1.815
 3026SOL     OW 9976   0.307   1.307   6.142
 3026SOL    HW1 9977   0.276   1.225   6.093
 3026SOL    HW2 9978   0.404   1.323   6.121
 3027SOL     OW 9979   3.880   1.558   1.905
 3027SOL    HW1 9980   3.925   1.512   1.982
 3027SOL    HW2 9981   3.783   1.533   1.904
 3028SOL     OW 9982   1.322   4.417   6.043
 3028SOL    HW1 9983   1.353   4.487   6.107
 3028SOL    HW2 9984   1.382   4.338   6.048
 3029SOL     OW 9985   0.996   2.845   3.799
 3029SOL    HW1 9986   0.960   2.781   3.867
 3029SOL    HW2 9987   0.948   2.933   3.808
 3030SOL     OW 9988   1.227   3.977   1.194
 3030SOL    HW1 9989   1.275   3.939   1.273
 3030SOL    HW2 9990   1.250   3.924   1.113
 3031SOL     OW 9991   0.476   4.429   1.004
 3031SOL    HW1 9992   0.529   4.349   0.975
 3031SOL    HW2 9993   0.379   4.414   0.983
 3032SOL     OW 9994   2.228   6.494   1.421
 3032SOL    HW1 9995   2.271   6.504   1.332
 3032SOL    HW2 9996   2.280   6.544   1.490
 3033SOL     OW 9997   6.286   1.398   2.466
 3033SOL    HW1 9998   6.357   1.416   2.398
 3033SOL    HW2 9999   6.294   1.463   2.541
 3034SOL     OW10000   0.274   6.007   3.388
 3034SOL    HW110001   0.282   6.060   3.304
 3034SOL    HW210002   0.270   5.909   3.367
 3035SOL     OW10003   0.875   3.342   5.857
 3035SOL    HW110004   0.837   3.408   5.922
 3035SOL    HW210005   0.867   3.379   5.764
 3036SOL     OW10006   1.507   2.447   5.226
 3036SOL    HW110007   1.525   2.401   5.313
 3036SOL    HW210008   1.451   2.388   5.167
 3037SOL     OW10009   6.521   4.819   5.167
 3037SOL    HW110010   6.427   4.852   5.159
 3037SOL    HW210011   6.521   4.719   5.166
 3038SOL     OW10012   4.745   4.279   5.835
 3038SOL    HW110013   4.743   4.307   5.931
 3038SOL    HW210014   4.651   4.273   5.801
 3039SOL     OW10015   0.051   3.391   0.543
 3039SOL    HW110016   6.981   3.423   0.520
 3039SOL    HW210017   0.046   3.298   0.581
 3040SOL     OW10018   3.430   4.901   5.757
 3040SOL    HW110019   3.345   4.945   5.729
 3040SOL    HW210020   3.413   4.805   5.778
 3041SOL     OW10021   1.255   5.017   6.117
 3041SOL    HW110022   1.301   5.105   6.109
 3041SOL    HW210023   1.292   4.967   6.195
 3042SOL     OW10024   5.681   6.313   2.564
 3042SOL    HW110025   5.721   6.385   2.621
 3042SOL    HW210026   5.622   6.255   2.621
 3043SOL     OW10027   3.220   3.675   1.510
 3043SOL    HW110028   3.259   3.628   1.589
 3043SOL    HW210029   3.133   3.717   1.536
 3044SOL     OW10030   3.081   5.425   5.319
 3044SOL    HW110031   3.060   5.458   5.412
 3044SOL    HW210032   3.033   5.483   5.252
 3045SOL     OW10033   4.995   6.684   3.124
 3045SOL    HW110034   4.984   6.586   3.144
 3045SOL    HW210035   4.921   6.735   3.169
 3046SOL     OW10036   3.305   0.025   6.927
 3046SOL    HW110037   3.318   0.117   6.964
 3046SOL    HW210038   3.207   0.006   6.916
 3047SOL     OW10039   6.073   6.999   0.755
 3047SOL    HW110040   6.126   0.030   0.820
 3047SOL    HW210041   5.990   0.028   0.730
 3048SOL     OW10042   4.985   1.937   0.714
 3048SOL    HW110043   4.961   1.841   0.726
 3048SOL    HW210044   4.988   1.982   0.804
 3049SOL     OW10045   1.736   0.567   3.625
 3049SOL    HW110046   1.712   0.474   3.598
 3049SOL    HW210047   1.655   0.625   3.623
 3050SOL     OW10048   2.858   2.109   1.290
 3050SOL    HW110049   2.901   2.090   1.378
 3050SOL    HW210050   2.840   2.207   1.283
 3051SOL     OW10051   2.217   6.540   6.475
 3051SOL    HW110052   2.300   6.491   6.502
 3051SOL    HW210053   2.137   6.485   6.497
 3052SOL     OW10054   5.104   5.248   2.276
 3052SOL    HW110055   5.203   5.251   2.290
 3052SOL    HW210056   5.085   5.235   2.179
 3053SOL     OW10057   0.068   3.397   1.531
 3053SOL    HW110058   0.037   3.452   1.453
 3053SOL    HW210059   0.161   3.424   1.556
 3054SOL     OW10060   5.987   0.866   2.030
 3054SOL    HW110061   5.975   0.767   2.037
 3054SOL    HW210062   5.966   0.895   1.937
 3055SOL     OW10063   4.961   0.300   5.348
 3055SOL    HW110064   4.935   0.307   5.444
 3055SOL    HW210065   4.878   0.290   5.292
 3056SOL     OW10066   6.651   1.144   5.755
 3056SOL    HW110067   6.573   1.149   5.691
 3056SOL    HW210068   6.634   1.070   5.820
 3057SOL     OW10069   4.976   6.472   3.961
 3057SOL    HW110070   4.993   6.521   4.046
 3057SOL    HW210071   5.040   6.504   3.891
 3058SOL     OW10072   6.236   4.284   0.764
 3058SOL    HW110073   6.180   4.274   0.681
 3058SOL    HW210074   6.254   4.194   0.804
 3059SOL     OW10075   2.666   1.630   4.041
 3059SOL    HW110076   2.713   1.645   3.954
 3059SOL    HW210077   2.640   1.533   4.048
 3060SOL     OW10078   1.964   5.064   0.218
 3060SOL    HW110079   2.037   5.037   0.155
 3060SOL    HW210080   1.999   5.131   0.283
 3061SOL     OW10081   6.107   5.793   5.823
 3061SOL    HW110082   6.045   5.776   5.899
 3061SOL    HW210083   6.146   5.707   5.791
 3062SOL     OW10084   2.325   6.329   1.007
 3062SOL    HW110085   2.393   6.279   0.953
 3062SOL    HW210086   2.238   6.280   1.004
 3063SOL     OW10087   1.112   4.791   1.379
 3063SOL    HW110088   1.080   4.705   1.418
 3063SOL    HW210089   1.068   4.867   1.427
 3064SOL     OW10090   4.309   3.422   0.574
 3064SOL    HW110091   4.315   3.336   0.523
 3064SOL    HW210092   4.351   3.495   0.520
 3065SOL     OW10093   1.049   2.007   6.411
 3065SOL    HW110094   1.107   1.941   6.459
 3065SOL    HW210095   1.093   2.034   6.325
 3066SOL     OW10096   5.175   5.305   6.664
 3066SOL    HW110097   5.161   5.402   6.684
 3066SOL    HW210098   5.268   5.292   6.628
 3067SOL     OW10099   2.840   0.998   0.143
 3067SOL    HW110100   2.831   0.902   0.168
 3067SOL    HW210101   2.927   1.034   0.178
 3068SOL     OW10102   6.995   0.196   1.746
 3068SOL    HW110103   0.047   0.139   1.781
 3068SOL    HW210104   6.946   0.236   1.823
 3069SOL     OW10105   6.317   6.470   3.104
 3069SOL    HW110106   6.224   6.478   3.069
 3069SOL    HW210107   6.344   6.557   3.146
 3070SOL     OW10108   1.969   0.596   0.076
 3070SOL    HW110109   1.955   0.634   7.007
 3070SOL    HW210110   2.016   0.663   0.133
 3071SOL     OW10111   6.237   5.836   3.824
 3071SOL    HW110112   6.333   5.849   3.797
 3071SOL    HW210113   6.234   5.796   3.916
 3072SOL     OW10114   2.156   5.799   6.266
 3072SOL    HW110115   2.211   5.730   6.313
 3072SOL    HW210116   2.059   5.786   6.289
 3073SOL     OW10117   0.227   4.576   2.228
 3073SOL    HW110118   0.137   4.596   2.268
 3073SOL    HW210119   0.248   4.479   2.240
 3074SOL     OW10120   0.380   4.114   0.704
 3074SOL    HW110121   0.454   4.141   0.765
 3074SOL    HW210122   0.412   4.116   0.609
 3075SOL     OW10123   2.881   5.425   3.396
 3075SOL    HW110124   2.796   5.379   3.421
 3075SOL    HW210125   2.959   5.371   3.426
 3076SOL     OW10126   6.878   1.626   4.395
 3076SOL    HW110127   6.906   1.633   4.300
 3076SOL    HW210128   6.778   1.628   4.401
 3077SOL     OW10129   5.874   3.943   1.995
 3077SOL    HW110130   5.789   3.981   1.960
 3077SOL    HW210131   5.909   4.001   2.069
 3078SOL     OW10132   6.597   3.442   2.249
 3078SOL    HW110133   6.541   3.427   2.330
 3078SOL    HW210134   6.693   3.443   2.275
 3079SOL     OW10135   3.381   1.934   3.232
 3079SOL    HW110136   3.452   1.864   3.233
 3079SOL    HW210137   3.382   1.981   3.144
 3080SOL     OW10138   5.225   4.023   1.941
 3080SOL    HW110139   5.295   4.015   2.013
 3080SOL    HW210140   5.259   3.979   1.858
 3081SOL     OW10141   0.368   4.651   5.775
 3081SOL    HW110142   0.414   4.628   5.861
 3081SOL    HW210143   0.354   4.568   5.721
 3082SOL     OW10144   2.023   5.785   4.126
 3082SOL    HW110145   2.100   5.754   4.071
 3082SOL    HW210146   1.981   5.865   4.084
 3083SOL     OW10147   3.560   6.036   2.945
 3083SOL    HW110148   3.507   6.013   3.027
 3083SOL    HW210149   3.562   5.957   2.883
 3084SOL     OW10150   6.544   4.664   3.038
 3084SOL    HW110151   6.634   4.703   3.018
 3084SOL    HW210152   6.544   4.567   3.014
 3085SOL     OW10153   5.973   4.398   0.402
 3085SOL    HW110154   6.036   4.337   0.451
 3085SOL    HW210155   6.006   4.492   0.409
 3086SOL     OW10156   4.742   1.004   6.656
 3086SOL    HW110157   4.720   1.102   6.652
 3086SOL    HW210158   4.683   0.959   6.722
 3087SOL     OW10159   2.982   6.114   3.214
 3087SOL    HW110160   2.960   6.084   3.307
 3087SOL    HW210161   3.080   6.134   3.209
 3088SOL     OW10162   1.808   3.500   5.522
 3088SOL    HW110163   1.885   3.565   5.522
 3088SOL    HW210164   1.767   3.498   5.431
 3089SOL     OW10165   4.022   2.236   4.783
 3089SOL    HW110166   4.021   2.314   4.845
 3089SOL    HW210167   4.116   2.209   4.765
 3090SOL     OW10168   2.612   0.747   2.244
 3090SOL    HW110169   2.558   0.831   2.241
 3090SOL    HW210170   2.575   0.685   2.313
 3091SOL     OW10171   1.496   1.242   0.284
 3091SOL    HW110172   1.401   1.259   0.258
 3091SOL    HW210173   1.504   1.245   0.384
 3092SOL     OW10174   5.254   6.742   1.137
 3092SOL    HW110175   5.206   6.827   1.118
 3092SOL    HW210176   5.306   6.751   1.222
 3093SOL     OW10177   5.781   6.076   6.080
 3093SOL    HW110178   5.717   6.128   6.136
 3093SOL    HW210179   5.732   6.034   6.003
 3094SOL     OW10180   2.646   0.215   4.301
 3094SOL    HW110181   2.566   0.273   4.314
 3094SOL    HW210182   2.623   0.139   4.240
 3095SOL     OW10183   2.489   4.133   5.801
 3095SOL    HW110184   2.481   4.037   5.776
 3095SOL    HW210185   2.570   4.172   5.757
 3096SOL     OW10186   1.132   4.743   5.281
 3096SOL    HW110187   1.101   4.771   5.372
 3096SOL    HW210188   1.161   4.647   5.284
 3097SOL     OW10189   5.214   3.289   6.854
 3097SOL    HW110190   5.158   3.218   6.898
 3097SOL    HW210191   5.154   3.351   6.804
 3098SOL     OW10192   1.809   3.431   1.869
 3098SOL    HW110193   1.853   3.392   1.788
 3098SOL    HW210194   1.745   3.503   1.840
 3099SOL     OW10195   0.888   6.639   4.016
 3099SOL    HW110196   0.843   6.658   4.104
 3099SOL    HW210197   0.986   6.628   4.032
 3100SOL     OW10198   6.609   6.234   3.297
 3100SOL    HW110199   6.561   6.216   3.211
 3100SOL    HW210200   6.703   6.199   3.290
 3101SOL     OW10201   4.938   5.776   6.001
 3101SOL    HW110202   5.002   5.741   6.070
 3101SOL    HW210203   4.893   5.700   5.955
 3102SOL     OW10204   6.396   7.009   1.418
 3102SOL    HW110205   6.366   6.976   1.328
 3102SOL    HW210206   6.481   0.039   1.407
 3103SOL     OW10207   4.611   1.118   1.145
 3103SOL    HW110208   4.707   1.107   1.169
 3103SOL    HW210209   4.574   1.030   1.115
 3104SOL     OW10210   3.182   0.371   6.111
 3104SOL    HW110211   3.272   0.346   6.075
 3104SOL    HW210212   3.182   0.362   6.211
 3105SOL     OW10213   4.830   3.796   1.406
 3105SOL    HW110214   4.906   3.731   1.410
 3105SOL    HW210215   4.767   3.778   1.482
 3106SOL     OW10216   5.452   6.578   5.045
 3106SOL    HW110217   5.479   6.557   5.139
 3106SOL    HW210218   5.398   6.662   5.043
 3107SOL     OW10219   4.185   1.259   4.663
 3107SOL    HW110220   4.182   1.187   4.594
 3107SOL    HW210221   4.201   1.347   4.618
 3108SOL     OW10222   1.769   5.243   4.930
 3108SOL    HW110223   1.723   5.325   4.964
 3108SOL    HW210224   1.769   5.243   4.830
 3109SOL     OW10225   6.332   0.075   4.333
 3109SOL    HW110226   6.287   0.093   4.246
 3109SOL    HW210227   6.285   0.000   4.380
 3110SOL     OW10228   2.037   4.347   3.332
 3110SOL    HW110229   2.016   4.369   3.427
 3110SOL    HW210230   2.120   4.293   3.327
 3111SOL     OW10231   0.157   4.724   3.518
 3111SOL    HW110232   0.095   4.802   3.508
 3111SOL    HW210233   0.149   4.686   3.609
 3112SOL     OW10234   2.598   3.169   0.436
 3112SOL    HW110235   2.546   3.144   0.354
 3112SOL    HW210236   2.556   3.128   0.517
 3113SOL     OW10237   3.065   5.961   2.727
 3113SOL    HW110238   3.121   6.041   2.704
 3113SOL    HW210239   2.969   5.986   2.727
 3114SOL     OW10240   4.080   1.699   0.403
 3114SOL    HW110241   4.025   1.696   0.486
 3114SOL    HW210242   4.044   1.634   0.336
 3115SOL     OW10243   3.833   4.526   5.614
 3115SOL    HW110244   3.777   4.489   5.688
 3115SOL    HW210245   3.879   4.450   5.567
 3116SOL     OW10246   6.950   1.706   0.199
 3116SOL    HW110247   6.900   1.633   0.150
 3116SOL    HW210248   6.919   1.795   0.166
 3117SOL     OW10249   4.423   3.151   5.364
 3117SOL    HW110250   4.324   3.139   5.357
 3117SOL    HW210251   4.444   3.245   5.390
 3118SOL     OW10252   0.659   6.181   1.682
 3118SOL    HW110253   0.704   6.271   1.684
 3118SOL    HW210254   0.695   6.127   1.606
 3119SOL     OW10255   2.768   2.110   5.997
 3119SOL    HW110256   2.843   2.129   6.061
 3119SOL    HW210257   2.681   2.114   6.046
 3120SOL     OW10258   2.672   0.619   5.731
 3120SOL    HW110259   2.694   0.656   5.821
 3120SOL    HW210260   2.610   0.541   5.741
 3121SOL     OW10261   5.973   1.944   4.711
 3121SOL    HW110262   6.003   1.880   4.640
 3121SOL    HW210263   6.013   1.917   4.799
 3122SOL     OW10264   4.719   4.802   4.908
 3122SOL    HW110265   4.756   4.856   4.984
 3122SOL    HW210266   4.621   4.788   4.922
 3123SOL     OW10267   1.724   1.434   2.914
 3123SOL    HW110268   1.822   1.424   2.931
 3123SOL    HW210269   1.708   1.444   2.816
 3124SOL     OW10270   4.450   6.933   3.766
 3124SOL    HW110271   4.506   6.998   3.715
 3124SOL    HW210272   4.362   6.974   3.788
 3125SOL     OW10273   1.471   3.165   5.366
 3125SOL    HW110274   1.561   3.174   5.322
 3125SOL    HW210275   1.402   3.210   5.309
 3126SOL     OW10276   5.368   4.512   5.553
 3126SOL    HW110277   5.405   4.589   5.501
 3126SOL    HW210278   5.270   4.504   5.535
 3127SOL     OW10279   2.123   2.314   5.666
 3127SOL    HW110280   2.134   2.354   5.575
 3127SOL    HW210281   2.210   2.275   5.696
 3128SOL     OW10282   3.617   0.530   0.407
 3128SOL    HW110283   3.541   0.595   0.409
 3128SOL    HW210284   3.679   0.548   0.484
 3129SOL     OW10285   4.916   3.567   0.944
 3129SOL    HW110286   4.831   3.524   0.913
 3129SOL    HW210287   4.978   3.497   0.979
 3130SOL     OW10288   1.917   4.674   1.437
 3130SOL    HW110289   1.958   4.762   1.459
 3130SOL    HW210290   1.869   4.681   1.349
 3131SOL     OW10291   0.761   3.738   2.344
 3131SOL    HW110292   0.700   3.698   2.413
 3131SOL    HW210293   0.839   3.781   2.389
 3132SOL     OW10294   4.936   5.058   6.792
 3132SOL    HW110295   4.941   5.152   6.826
 3132SOL    HW210296   5.008   5.043   6.724
 3133SOL     OW10297   3.874   1.183   3.122
 3133SOL    HW110298   3.929   1.266   3.110
 3133SOL    HW210299   3.814   1.195   3.202
 3134SOL     OW10300   4.369   4.982   0.862
 3134SOL    HW110301   4.341   5.073   0.832
 3134SOL    HW210302   4.462   4.985   0.897
 3135SOL     OW10303   4.986   0.224   5.922
 3135SOL    HW110304   5.083   0.200   5.932
 3135SOL    HW210305   4.963   0.298   5.985
 3136SOL     OW10306   5.648   0.194   2.117
 3136SOL    HW110307   5.695   0.213   2.031
 3136SOL    HW210308   5.583   0.268   2.136
 3137SOL     OW10309   6.738   6.668   3.362
 3137SOL    HW110310   6.823   6.720   3.354
 3137SOL    HW210311   6.685   6.702   3.439
 3138SOL     OW10312   5.814   5.626   3.214
 3138SOL    HW110313   5.754   5.556   3.252
 3138SOL    HW210314   5.807   5.710   3.268
 3139SOL     OW10315   3.535   4.848   1.425
 3139SOL    HW110316   3.494   4.765   1.386
 3139SOL    HW210317   3.579   4.900   1.351
 3140SOL     OW10318   6.196   5.876   5.134
 3140SOL    HW110319   6.174   5.864   5.231
 3140SOL    HW210320   6.152   5.804   5.080
 3141SOL     OW10321   0.718   6.763   6.726
 3141SOL    HW110322   0.695   6.822   6.802
 3141SOL    HW210323   0.817   6.746   6.725
 3142SOL     OW10324   2.851   0.363   2.628
 3142SOL    HW110325   2.924   0.425   2.598
 3142SOL    HW210326   2.774   0.417   2.662
 3143SOL     OW10327   5.977   1.115   0.012
 3143SOL    HW110328   5.997   1.038   6.973
 3143SOL    HW210329   6.021   1.197   7.000
 3144SOL     OW10330   4.439   3.377   0.834
 3144SOL    HW110331   4.391   3.417   0.912
 3144SOL    HW210332   4.399   3.412   0.749
 3145SOL     OW10333   1.792   6.544   2.506
 3145SOL    HW110334   1.695   6.537   2.530
 3145SOL    HW210335   1.823   6.458   2.465
 3146SOL     OW10336   1.076   0.972   4.912
 3146SOL    HW110337   1.061   0.914   4.833
 3146SOL    HW210338   1.048   1.066   4.891
 3147SOL     OW10339   2.780   4.779   6.998
 3147SOL    HW110340   2.797   4.839   6.920
 3147SOL    HW210341   2.784   4.683   6.968
 3148SOL     OW10342   6.750   0.048   4.136
 3148SOL    HW110343   6.839   0.069   4.096
 3148SOL    HW210344   6.679   0.059   4.067
 3149SOL     OW10345   2.961   1.049   6.569
 3149SOL    HW110346   2.993   1.108   6.644
 3149SOL    HW210347   2.870   1.078   6.541
 3150SOL     OW10348   0.088   6.018   5.017
 3150SOL    HW110349   0.142   5.960   5.077
 3150SOL    HW210350   7.015   5.989   5.018
 3151SOL     OW10351   0.378   1.220   5.686
 3151SOL    HW110352   0.441   1.252   5.757
 3151SOL    HW210353   0.286   1.255   5.705
 3152SOL     OW10354   0.833   3.804   0.392
 3152SOL    HW110355   0.751   3.776   0.342
 3152SOL    HW210356   0.833   3.760   0.482
 3153SOL     OW10357   6.509   5.827   0.499
 3153SOL    HW110358   6.604   5.850   0.480
 3153SOL    HW210359   6.499   5.803   0.595
 3154SOL     OW10360   6.673   1.110   0.588
 3154SOL    HW110361   6.602   1.090   0.656
 3154SOL    HW210362   6.632   1.108   0.497
 3155SOL     OW10363   6.403   5.235   0.146
 3155SOL    HW110364   6.400   5.172   0.224
 3155SOL    HW210365   6.377   5.327   0.177
 3156SOL     OW10366   3.190   3.770   2.011
 3156SOL    HW110367   3.151   3.692   2.060
 3156SOL    HW210368   3.237   3.738   1.929
 3157SOL     OW10369   1.970   1.611   5.538
 3157SOL    HW110370   1.919   1.552   5.475
 3157SOL    HW210371   2.066   1.616   5.508
 3158SOL     OW10372   2.193   0.792   4.384
 3158SOL    HW110373   2.252   0.862   4.344
 3158SOL    HW210374   2.097   0.813   4.367
 3159SOL     OW10375   5.869   6.901   6.417
 3159SOL    HW110376   5.794   6.850   6.460
 3159SOL    HW210377   5.864   6.891   6.318
 3160SOL     OW10378   1.794   5.844   5.989
 3160SOL    HW110379   1.757   5.922   6.039
 3160SOL    HW210380   1.832   5.875   5.902
 3161SOL     OW10381   2.327   2.145   2.569
 3161SOL    HW110382   2.258   2.073   2.558
 3161SOL    HW210383   2.375   2.132   2.656
 3162SOL     OW10384   1.011   5.966   1.280
 3162SOL    HW110385   1.099   5.996   1.316
 3162SOL    HW210386   1.023   5.881   1.229
 3163SOL     OW10387   3.869   3.846   6.554
 3163SOL    HW110388   3.814   3.814   6.477
 3163SOL    HW210389   3.960   3.806   6.549
 3164SOL     OW10390   3.701   5.577   1.835
 3164SOL    HW110391   3.775   5.611   1.777
 3164SOL    HW210392   3.676   5.647   1.903
 3165SOL     OW10393   1.478   5.528   1.852
 3165SOL    HW110394   1.422   5.449   1.827
 3165SOL    HW210395   1.570   5.518   1.814
 3166SOL     OW10396   4.392   2.014   3.788
 3166SOL    HW110397   4.461   2.043   3.855
 3166SOL    HW210398   4.427   2.031   3.696
 3167SOL     OW10399   5.489   4.338   1.028
 3167SOL    HW110400   5.502   4.262   0.965
 3167SOL    HW210401   5.569   4.397   1.027
 3168SOL     OW10402   5.371   3.061   6.894
 3168SOL    HW110403   5.304   3.056   6.968
 3168SOL    HW210404   5.336   3.122   6.822
 3169SOL     OW10405   2.335   4.213   3.577
 3169SOL    HW110406   2.311   4.212   3.480
 3169SOL    HW210407   2.354   4.119   3.607
 3170SOL     OW10408   4.087   5.443   1.884
 3170SOL    HW110409   4.008   5.391   1.917
 3170SOL    HW210410   4.062   5.494   1.802
 3171SOL     OW10411   6.657   1.948   2.182
 3171SOL    HW110412   6.677   1.994   2.268
 3171SOL    HW210413   6.616   2.012   2.118
 3172SOL     OW10414   0.086   5.303   6.816
 3172SOL    HW110415   0.184   5.313   6.834
 3172SOL    HW210416   0.045   5.244   6.886
 3173SOL     OW10417   3.174   2.151   6.788
 3173SOL    HW110418   3.187   2.053   6.804
 3173SOL    HW210419   3.218   2.203   6.861
 3174SOL     OW10420   3.060   2.842   6.592
 3174SOL    HW110421   3.154   2.812   6.577
 3174SOL    HW210422   3.017   2.783   6.661
 3175SOL     OW10423   5.472   1.727   1.577
 3175SOL    HW110424   5.519   1.656   1.629
 3175SOL    HW210425   5.392   1.758   1.627
 3176SOL     OW10426   0.697   4.245   5.239
 3176SOL    HW110427   0.748   4.272   5.321
 3176SOL    HW210428   0.736   4.292   5.160
 3177SOL     OW10429   5.587   4.353   3.941
 3177SOL    HW110430   5.632   4.391   4.022
 3177SOL    HW210431   5.501   4.310   3.967
 3178SOL     OW10432   6.536   2.395   0.454
 3178SOL    HW110433   6.541   2.330   0.378
 3178SOL    HW210434   6.441   2.405   0.483
 3179SOL     OW10435   1.252   2.191   1.929
 3179SOL    HW110436   1.159   2.170   1.960
 3179SOL    HW210437   1.256   2.285   1.896
 3180SOL     OW10438   6.284   6.873   0.463
 3180SOL    HW110439   6.336   6.858   0.547
 3180SOL    HW210440   6.191   6.840   0.475
 3181SOL     OW10441   6.448   2.145   3.387
 3181SOL    HW110442   6.480   2.233   3.350
 3181SOL    HW210443   6.348   2.142   3.387
 3182SOL     OW10444   2.638   0.324   6.812
 3182SOL    HW110445   2.718   0.364   6.857
 3182SOL    HW210446   2.555   0.366   6.850
 3183SOL     OW10447   4.621   4.333   2.266
 3183SOL    HW110448   4.599   4.316   2.170
 3183SOL    HW210449   4.635   4.431   2.279
 3184SOL     OW10450   0.298   2.500   3.073
 3184SOL    HW110451   0.245   2.416   3.057
 3184SOL    HW210452   0.367   2.482   3.143
 3185SOL     OW10453   4.434   6.006   6.518
 3185SOL    HW110454   4.487   6.021   6.434
 3185SOL    HW210455   4.396   6.093   6.550
 3186SOL     OW10456   2.898   2.275   0.302
 3186SOL    HW110457   2.907   2.262   0.203
 3186SOL    HW210458   2.885   2.373   0.321
 3187SOL     OW10459   4.452   5.113   1.158
 3187SOL    HW110460   4.419   5.187   1.100
 3187SOL    HW210461   4.421   5.127   1.251
 3188SOL     OW10462   1.417   6.621   3.934
 3188SOL    HW110463   1.482   6.673   3.879
 3188SOL    HW210464   1.438   6.631   4.031
 3189SOL     OW10465   1.255   1.897   1.229
 3189SOL    HW110466   1.332   1.844   1.263
 3189SOL    HW210467   1.211   1.846   1.155
 3190SOL     OW10468   6.857   5.549   0.399
 3190SOL    HW110469   6.931   5.533   0.465
 3190SOL    HW210470   6.880   5.629   0.343
 3191SOL     OW10471   4.904   5.168   1.626
 3191SOL    HW110472   4.854   5.237   1.678
 3191SOL    HW210473   4.846   5.088   1.611
 3192SOL     OW10474   0.515   3.924   1.361
 3192SOL    HW110475   0.502   4.011   1.314
 3192SOL    HW210476   0.612   3.899   1.359
 3193SOL     OW10477   3.864   1.655   5.659
 3193SOL    HW110478   3.892   1.665   5.754
 3193SOL    HW210479   3.767   1.632   5.654
 3194SOL     OW10480   1.516   2.369   5.975
 3194SOL    HW110481   1.544   2.460   5.947
 3194SOL    HW210482   1.598   2.313   5.991
 3195SOL     OW10483   1.507   1.293   2.325
 3195SOL    HW110484   1.479   1.203   2.358
 3195SOL    HW210485   1.506   1.293   2.225
 3196SOL     OW10486   0.053   0.676   6.729
 3196SOL    HW110487   7.021   0.739   6.784
 3196SOL    HW210488   0.108   0.729   6.663
 3197SOL     OW10489   2.712   6.564   4.743
 3197SOL    HW110490   2.658   6.648   4.736
 3197SOL    HW210491   2.734   6.531   4.651
 3198SOL     OW10492   6.684   3.211   3.092
 3198SOL    HW110493   6.708   3.174   3.002
 3198SOL    HW210494   6.592   3.251   3.089
 3199SOL     OW10495   5.121   3.986   2.535
 3199SOL    HW110496   5.181   3.918   2.578
 3199SOL    HW210497   5.146   4.077   2.567
 3200SOL     OW10498   6.046   3.138   2.697
 3200SOL    HW110499   6.009   3.127   2.789
 3200SOL    HW210500   6.145   3.150   2.702
 3201SOL     OW10501   6.502   4.726   3.303
 3201SOL    HW110502   6.527   4.667   3.226
 3201SOL    HW210503   6.416   4.773   3.281
 3202SOL     OW10504   0.996   4.805   1.002
 3202SOL    HW110505   1.020   4.810   0.905
 3202SOL    HW210506   1.038   4.725   1.043
 3203SOL     OW10507   5.998   1.446   0.824
 3203SOL    HW110508   5.899   1.447   0.837
 3203SOL    HW210509   6.032   1.540   0.820
 3204SOL     OW10510   4.091   0.232   3.409
 3204SOL    HW110511   4.078   0.145   3.361
 3204SOL    HW210512   4.013   0.291   3.390
 3205SOL     OW10513   5.302   3.188   6.014
 3205SOL    HW110514   5.276   3.098   5.977
 3205SOL    HW210515   5.240   3.258   5.977
 3206SOL     OW10516   1.512   4.403   1.133
 3206SOL    HW110517   1.575   4.397   1.211
 3206SOL    HW210518   1.546   4.345   1.058
 3207SOL     OW10519   1.501   0.894   6.704
 3207SOL    HW110520   1.595   0.859   6.698
 3207SOL    HW210521   1.468   0.886   6.798
 3208SOL     OW10522   5.015   6.378   6.385
 3208SOL    HW110523   4.974   6.286   6.394
 3208SOL    HW210524   5.105   6.378   6.427
 3209SOL     OW10525   3.429   5.395   3.834
 3209SOL    HW110526   3.436   5.298   3.809
 3209SOL    HW210527   3.377   5.444   3.764
 3210SOL     OW10528   1.086   4.601   1.170
 3210SOL    HW110529   1.123   4.664   1.239
 3210SOL    HW210530   1.155   4.532   1.147
 3211SOL     OW10531   1.219   3.802   0.967
 3211SOL    HW110532   1.128   3.767   0.988
 3211SOL    HW210533   1.288   3.736   0.995
 3212SOL     OW10534   2.895   6.603   2.212
 3212SOL    HW110535   2.805   6.575   2.245
 3212SOL    HW210536   2.898   6.703   2.204
 3213SOL     OW10537   1.460   6.893   0.218
 3213SOL    HW110538   1.488   6.860   0.128
 3213SOL    HW210539   1.419   6.984   0.208
 3214SOL     OW10540   4.541   5.429   1.585
 3214SOL    HW110541   4.611   5.476   1.639
 3214SOL    HW210542   4.458   5.485   1.582
 3215SOL     OW10543   0.516   3.877   0.539
 3215SOL    HW110544   0.473   3.852   0.627
 3215SOL    HW210545   0.606   3.917   0.556
 3216SOL     OW10546   5.990   5.661   0.536
 3216SOL    HW110547   6.052   5.709   0.599
 3216SOL    HW210548   5.896   5.667   0.571
 3217SOL     OW10549   0.152   5.699   2.637
 3217SOL    HW110550   0.252   5.690   2.641
 3217SOL    HW210551   0.118   5.737   2.723
 3218SOL     OW10552   5.345   2.563   2.994
 3218SOL    HW110553   5.412   2.637   2.999
 3218SOL    HW210554   5.284   2.568   3.073
 3219SOL     OW10555   0.819   1.486   3.494
 3219SOL    HW110556   0.762   1.443   3.564
 3219SOL    HW210557   0.884   1.548   3.537
 3220SOL     OW10558   6.787   5.305   5.645
 3220SOL    HW110559   6.776   5.206   5.654
 3220SOL    HW210560   6.868   5.334   5.695
 3221SOL     OW10561   3.589   0.108   1.816
 3221SOL    HW110562   3.607   0.160   1.900
 3221SOL    HW210563   3.551   0.168   1.747
 3222SOL     OW10564   2.908   1.519   2.628
 3222SOL    HW110565   2.963   1.558   2.703
 3222SOL    HW210566   2.831   1.469   2.667
 3223SOL     OW10567   2.673   6.680   6.519
 3223SOL    HW110568   2.684   6.583   6.538
 3223SOL    HW210569   2.576   6.703   6.517
 3224SOL     OW10570   4.706   2.776   4.819
 3224SOL    HW110571   4.623   2.722   4.820
 3224SOL    HW210572   4.775   2.731   4.762
 3225SOL     OW10573   5.023   2.353   5.830
 3225SOL    HW110574   5.011   2.370   5.928
 3225SOL    HW210575   4.976   2.268   5.805
 3226SOL     OW10576   2.244   1.108   2.100
 3226SOL    HW110577   2.170   1.089   2.035
 3226SOL    HW210578   2.277   1.201   2.087
 3227SOL     OW10579   3.396   3.452   6.812
 3227SOL    HW110580   3.393   3.533   6.870
 3227SOL    HW210581   3.313   3.398   6.826
 3228SOL     OW10582   6.714   3.997   1.027
 3228SOL    HW110583   6.751   4.039   1.110
 3228SOL    HW210584   6.746   4.047   0.947
 3229SOL     OW10585   3.554   0.596   5.881
 3229SOL    HW110586   3.528   0.686   5.916
 3229SOL    HW210587   3.642   0.603   5.833
 3230SOL     OW10588   2.053   4.989   5.690
 3230SOL    HW110589   1.969   4.964   5.643
 3230SOL    HW210590   2.074   5.085   5.673
 3231SOL     OW10591   2.627   0.383   1.736
 3231SOL    HW110592   2.614   0.481   1.746
 3231SOL    HW210593   2.548   0.335   1.773
 3232SOL     OW10594   4.543   6.714   4.408
 3232SOL    HW110595   4.458   6.753   4.445
 3232SOL    HW210596   4.594   6.786   4.360
 3233SOL     OW10597   6.451   2.186   0.699
 3233SOL    HW110598   6.449   2.203   0.797
 3233SOL    HW210599   6.389   2.249   0.653
 3234SOL     OW10600   0.722   2.537   0.138
 3234SOL    HW110601   0.718   2.628   0.096
 3234SOL    HW210602   0.652   2.479   0.099
 3235SOL     OW10603   0.090   6.952   1.545
 3235SOL    HW110604   0.095   7.014   1.624
 3235SOL    HW210605   0.153   6.982   1.474
 3236SOL     OW10606   0.565   3.804   0.219
 3236SOL    HW110607   0.525   3.720   0.182
 3236SOL    HW210608   0.590   3.865   0.144
 3237SOL     OW10609   6.101   1.590   2.154
 3237SOL    HW110610   6.088   1.614   2.251
 3237SOL    HW210611   6.187   1.631   2.122
 3238SOL     OW10612   6.837   5.763   0.204
 3238SOL    HW110613   6.923   5.737   0.160
 3238SOL    HW210614   6.855   5.823   0.281
 3239SOL     OW10615   0.151   1.389   2.560
 3239SOL    HW110616   0.219   1.393   2.487
 3239SOL    HW210617   0.098   1.474   2.561
 3240SOL     OW10618   6.939   6.339   6.308
 3240SOL    HW110619   7.022   6.382   6.342
 3240SOL    HW210620   6.936   6.348   6.208
 3241SOL     OW10621   4.555   1.098   5.906
 3241SOL    HW110622   4.571   1.066   5.812
 3241SOL    HW210623   4.523   1.023   5.962
 3242SOL     OW10624   4.601   4.476   6.552
 3242SOL    HW110625   4.650   4.489   6.638
 3242SOL    HW210626   4.529   4.546   6.544
 3243SOL     OW10627   4.178   4.843   0.491
 3243SOL    HW110628   4.188   4.771   0.422
 3243SOL    HW210629   4.259   4.902   0.490
 3244SOL     OW10630   5.136   6.078   6.995
 3244SOL    HW110631   5.124   6.038   0.063
 3244SOL    HW210632   5.061   6.142   6.977
 3245SOL     OW10633   5.347   3.036   3.795
 3245SOL    HW110634   5.293   2.952   3.802
 3245SOL    HW210635   5.435   3.024   3.840
 3246SOL     OW10636   6.835   6.968   3.106
 3246SOL    HW110637   6.905   6.987   3.037
 3246SOL    HW210638   6.808   0.031   3.151
 3247SOL     OW10639   5.911   4.483   2.373
 3247SOL    HW110640   5.995   4.480   2.426
 3247SOL    HW210641   5.906   4.403   2.313
 3248SOL     OW10642   5.353   3.135   2.102
 3248SOL    HW110643   5.352   3.214   2.163
 3248SOL    HW210644   5.309   3.058   2.148
 3249SOL     OW10645   3.633   4.034   3.614
 3249SOL    HW110646   3.714   4.085   3.645
 3249SOL    HW210647   3.650   3.936   3.625
 3250SOL     OW10648   6.000   0.489   2.514
 3250SOL    HW110649   5.976   0.515   2.607
 3250SOL    HW210650   5.949   0.408   2.488
 3251SOL     OW10651   3.507   0.890   3.594
 3251SOL    HW110652   3.411   0.865   3.580
 3251SOL    HW210653   3.530   0.967   3.534
 3252SOL     OW10654   2.902   0.980   2.582
 3252SOL    HW110655   2.872   0.965   2.488
 3252SOL    HW210656   2.915   0.892   2.628
 3253SOL     OW10657   4.574   3.393   1.126
 3253SOL    HW110658   4.505   3.460   1.100
 3253SOL    HW210659   4.630   3.371   1.046
 3254SOL     OW10660   4.562   5.557   6.612
 3254SOL    HW110661   4.535   5.632   6.551
 3254SOL    HW210662   4.582   5.476   6.557
 3255SOL     OW10663   4.364   6.768   0.944
 3255SOL    HW110664   4.322   6.708   0.876
 3255SOL    HW210665   4.303   6.776   1.024
 3256SOL     OW10666   3.862   1.398   1.191
 3256SOL    HW110667   3.839   1.301   1.183
 3256SOL    HW210668   3.860   1.425   1.287
 3257SOL     OW10669   1.472   2.030   1.972
 3257SOL    HW110670   1.393   2.081   1.938
 3257SOL    HW210671   1.544   2.032   1.903
 3258SOL     OW10672   4.684   5.918   2.429
 3258SOL    HW110673   4.746   5.875   2.363
 3258SOL    HW210674   4.606   5.858   2.444
 3259SOL     OW10675   4.834   4.911   5.437
 3259SOL    HW110676   4.894   4.989   5.423
 3259SOL    HW210677   4.742   4.933   5.407
 3260SOL     OW10678   1.825   2.372   1.084
 3260SOL    HW110679   1.752   2.365   1.017
 3260SOL    HW210680   1.900   2.311   1.059
 3261SOL     OW10681   5.494   0.826   1.433
 3261SOL    HW110682   5.411   0.806   1.381
 3261SOL    HW210683   5.471   0.887   1.510
 3262SOL     OW10684   3.236   1.854   2.357
 3262SOL    HW110685   3.239   1.913   2.276
 3262SOL    HW210686   3.313   1.790   2.354
 3263SOL     OW10687   3.030   1.106   2.829
 3263SOL    HW110688   2.941   1.061   2.827
 3263SOL    HW210689   3.066   1.115   2.736
 3264SOL     OW10690   1.554   5.847   0.660
 3264SOL    HW110691   1.462   5.874   0.632
 3264SOL    HW210692   1.557   5.749   0.676
 3265SOL     OW10693   4.575   0.325   6.577
 3265SOL    HW110694   4.656   0.269   6.561
 3265SOL    HW210695   4.494   0.267   6.580
 3266SOL     OW10696   2.198   4.183   0.195
 3266SOL    HW110697   2.296   4.181   0.214
 3266SOL    HW210698   2.182   4.220   0.103
 3267SOL     OW10699   3.086   6.295   1.598
 3267SOL    HW110700   3.098   6.393   1.613
 3267SOL    HW210701   3.173   6.248   1.611
 3268SOL     OW10702   2.591   3.930   1.650
 3268SOL    HW110703   2.617   4.009   1.705
 3268SOL    HW210704   2.501   3.944   1.610
 3269SOL     OW10705   5.216   5.722   2.715
 3269SOL    HW110706   5.172   5.739   2.627
 3269SOL    HW210707   5.173   5.779   2.785
 3270SOL     OW10708   1.241   4.451   6.523
 3270SOL    HW110709   1.237   4.547   6.550
 3270SOL    HW210710   1.309   4.404   6.578
 3271SOL     OW10711   5.693   3.495   1.585
 3271SOL    HW110712   5.782   3.450   1.595
 3271SOL    HW210713   5.698   3.564   1.513
 3272SOL     OW10714   2.924   4.514   6.165
 3272SOL    HW110715   2.980   4.461   6.102
 3272SOL    HW210716   2.840   4.542   6.120
 3273SOL     OW10717   6.446   5.572   0.376
 3273SOL    HW110718   6.468   5.586   0.280
 3273SOL    HW210719   6.474   5.653   0.428
 3274SOL     OW10720   5.380   0.922   0.740
 3274SOL    HW110721   5.397   0.910   0.837
 3274SOL    HW210722   5.458   0.968   0.697
 3275SOL     OW10723   5.172   0.697   0.099
 3275SOL    HW110724   5.165   0.603   0.132
 3275SOL    HW210725   5.178   0.760   0.177
 3276SOL     OW10726   3.868   6.015   6.607
 3276SOL    HW110727   3.790   6.067   6.642
 3276SOL    HW210728   3.924   6.073   6.548
 3277SOL     OW10729   3.793   0.403   0.814
 3277SOL    HW110730   3.718   0.440   0.869
 3277SOL    HW210731   3.841   0.333   0.866
 3278SOL     OW10732   1.092   0.856   5.841
 3278SOL    HW110733   1.043   0.809   5.767
 3278SOL    HW210734   1.117   0.790   5.912
 3279SOL     OW10735   4.889   0.240   0.252
 3279SOL    HW110736   4.812   0.182   0.279
 3279SOL    HW210737   4.942   0.194   0.181
 3280SOL     OW10738   5.076   4.220   4.820
 3280SOL    HW110739   4.980   4.196   4.825
 3280SOL    HW210740   5.100   4.280   4.897
 3281SOL     OW10741   1.042   4.492   1.531
 3281SOL    HW110742   1.137   4.467   1.547
 3281SOL    HW210743   0.991   4.413   1.498
 3282SOL     OW10744   0.049   4.786   4.634
 3282SOL    HW110745   0.144   4.765   4.655
 3282SOL    HW210746   7.019   4.790   4.720
 3283SOL     OW10747   3.564   1.074   0.646
 3283SOL    HW110748   3.593   0.979   0.637
 3283SOL    HW210749   3.607   1.130   0.575
 3284SOL     OW10750   1.091   5.658   6.404
 3284SOL    HW110751   1.143   5.672   6.488
 3284SOL    HW210752   1.140   5.701   6.328
 3285SOL     OW10753   4.018   2.219   4.179
 3285SOL    HW110754   4.049   2.248   4.269
 3285SOL    HW210755   4.075   2.143   4.148
 3286SOL     OW10756   3.693   2.981   2.450
 3286SOL    HW110757   3.740   3.067   2.429
 3286SOL    HW210758   3.683   2.972   2.550
 3287SOL     OW10759   1.080   0.291   0.026
 3287SOL    HW110760   1.175   0.315   0.004
 3287SOL    HW210761   1.064   0.195   0.002
 3288SOL     OW10762   2.192   6.272   0.207
 3288SOL    HW110763   2.208   6.281   0.108
 3288SOL    HW210764   2.095   6.260   0.224
 3289SOL     OW10765   3.093   0.788   5.578
 3289SOL    HW110766   3.035   0.816   5.501
 3289SOL    HW210767   3.047   0.719   5.632
 3290SOL     OW10768   0.200   5.178   1.285
 3290SOL    HW110769   0.285   5.180   1.232
 3290SOL    HW210770   0.148   5.261   1.267
 3291SOL     OW10771   1.870   0.503   6.566
 3291SOL    HW110772   1.962   0.524   6.596
 3291SOL    HW210773   1.816   0.587   6.560
 3292SOL     OW10774   0.215   1.128   0.782
 3292SOL    HW110775   0.119   1.098   0.785
 3292SOL    HW210776   0.223   1.209   0.724
 3293SOL     OW10777   6.480   4.586   1.929
 3293SOL    HW110778   6.477   4.487   1.944
 3293SOL    HW210779   6.563   4.623   1.970
 3294SOL     OW10780   5.742   2.922   6.376
 3294SOL    HW110781   5.731   2.929   6.277
 3294SOL    HW210782   5.825   2.969   6.404
 3295SOL     OW10783   1.218   2.504   2.026
 3295SOL    HW110784   1.285   2.457   2.083
 3295SOL    HW210785   1.149   2.547   2.083
 3296SOL     OW10786   1.395   0.699   2.545
 3296SOL    HW110787   1.378   0.675   2.450
 3296SOL    HW210788   1.422   0.617   2.596
 3297SOL     OW10789   2.834   1.503   5.698
 3297SOL    HW110790   2.878   1.422   5.736
 3297SOL    HW210791   2.899   1.553   5.641
 3298SOL     OW10792   6.146   2.163   5.800
 3298SOL    HW110793   6.175   2.070   5.823
 3298SOL    HW210794   6.217   2.227   5.826
 3299SOL     OW10795   3.865   5.965   2.889
 3299SOL    HW110796   3.779   6.011   2.911
 3299SOL    HW210797   3.856   5.920   2.800
 3300SOL     OW10798   0.330   0.345   5.988
 3300SOL    HW110799   0.420   0.303   5.998
 3300SOL    HW210800   0.266   0.304   6.052
 3301SOL     OW10801   2.034   2.997   3.516
 3301SOL    HW110802   1.982   3.054   3.581
 3301SOL    HW210803   2.014   2.901   3.534
 3302SOL     OW10804   0.462   5.225   5.196
 3302SOL    HW110805   0.459   5.131   5.231
 3302SOL    HW210806   0.485   5.223   5.098
 3303SOL     OW10807   3.157   3.396   0.490
 3303SOL    HW110808   3.089   3.325   0.507
 3303SOL    HW210809   3.232   3.358   0.435
 3304SOL     OW10810   1.753   5.682   4.888
 3304SOL    HW110811   1.840   5.684   4.839
 3304SOL    HW210812   1.761   5.735   4.972
 3305SOL     OW10813   2.314   1.605   2.105
 3305SOL    HW110814   2.216   1.622   2.110
 3305SOL    HW210815   2.347   1.622   2.012
 3306SOL     OW10816   2.241   5.561   4.777
 3306SOL    HW110817   2.292   5.475   4.775
 3306SOL    HW210818   2.304   5.636   4.796
 3307SOL     OW10819   0.690   5.708   6.339
 3307SOL    HW110820   0.763   5.673   6.280
 3307SOL    HW210821   0.692   5.659   6.426
 3308SOL     OW10822   2.465   5.843   1.490
 3308SOL    HW110823   2.565   5.840   1.489
 3308SOL    HW210824   2.430   5.810   1.403
 3309SOL     OW10825   5.959   5.231   3.815
 3309SOL    HW110826   5.926   5.138   3.829
 3309SOL    HW210827   5.978   5.246   3.718
 3310SOL     OW10828   0.045   4.480   5.770
 3310SOL    HW110829   7.012   4.403   5.738
 3310SOL    HW210830   0.110   4.506   5.698
 3311SOL     OW10831   3.746   4.303   0.462
 3311SOL    HW110832   3.650   4.283   0.439
 3311SOL    HW210833   3.749   4.372   0.534
 3312SOL     OW10834   3.920   4.300   5.473
 3312SOL    HW110835   3.982   4.244   5.417
 3312SOL    HW210836   3.950   4.297   5.569
 3313SOL     OW10837   0.990   6.466   3.529
 3313SOL    HW110838   0.912   6.404   3.532
 3313SOL    HW210839   0.982   6.533   3.602
 3314SOL     OW10840   2.199   1.221   2.388
 3314SOL    HW110841   2.161   1.140   2.342
 3314SOL    HW210842   2.124   1.278   2.423
 3315SOL     OW10843   0.010   4.422   4.896
 3315SOL    HW110844   0.086   4.440   4.834
 3315SOL    HW210845   0.046   4.396   4.986
 3316SOL     OW10846   5.553   1.260   5.430
 3316SOL    HW110847   5.565   1.357   5.452
 3316SOL    HW210848   5.475   1.224   5.481
 3317SOL     OW10849   5.044   2.957   1.993
 3317SOL    HW110850   4.955   2.953   1.947
 3317SOL    HW210851   5.062   3.051   2.022
 3318SOL     OW10852   1.968   1.573   1.285
 3318SOL    HW110853   1.977   1.483   1.244
 3318SOL    HW210854   2.056   1.600   1.326
 3319SOL     OW10855   5.864   1.589   3.836
 3319SOL    HW110856   5.925   1.520   3.798
 3319SOL    HW210857   5.808   1.549   3.909
 3320SOL     OW10858   6.442   1.135   5.555
 3320SOL    HW110859   6.359   1.112   5.605
 3320SOL    HW210860   6.424   1.212   5.494
 3321SOL     OW10861   5.285   1.688   0.523
 3321SOL    HW110862   5.255   1.699   0.618
 3321SOL    HW210863   5.228   1.620   0.478
 3322SOL     OW10864   6.524   2.490   1.044
 3322SOL    HW110865   6.587   2.537   1.106
 3322SOL    HW210866   6.577   2.435   0.979
 3323SOL     OW10867   3.211   3.006   0.214
 3323SOL    HW110868   3.285   2.969   0.158
 3323SOL    HW210869   3.171   2.933   0.269
 3324SOL     OW10870   3.691   4.852   6.765
 3324SOL    HW110871   3.757   4.882   6.696
 3324SOL    HW210872   3.687   4.752   6.766
 3325SOL     OW10873   0.163   3.676   6.476
 3325SOL    HW110874   0.143   3.769   6.446
 3325SOL    HW210875   0.153   3.671   6.576
 3326SOL     OW10876   4.958   2.053   2.141
 3326SOL    HW110877   4.968   2.005   2.054
 3326SOL    HW210878   4.874   2.022   2.186
 3327SOL     OW10879   3.054   5.314   1.579
 3327SOL    HW110880   3.146   5.347   1.599
 3327SOL    HW210881   3.008   5.290   1.664
 3328SOL     OW10882   4.752   2.312   0.485
 3328SOL    HW110883   4.693   2.311   0.404
 3328SOL    HW210884   4.764   2.218   0.518
 3329SOL     OW10885   5.714   0.879   4.694
 3329SOL    HW110886   5.746   0.941   4.765
 3329SOL    HW210887   5.694   0.931   4.611
 3330SOL     OW10888   6.418   4.066   1.485
 3330SOL    HW110889   6.442   4.028   1.396
 3330SOL    HW210890   6.416   4.166   1.479
 3331SOL     OW10891   2.559   2.745   1.765
 3331SOL    HW110892   2.514   2.825   1.726
 3331SOL    HW210893   2.492   2.691   1.817
 3332SOL     OW10894   5.640   5.532   6.963
 3332SOL    HW110895   5.610   5.557   0.032
 3332SOL    HW210896   5.662   5.615   6.911
 3333SOL     OW10897   4.515   4.785   6.900
 3333SOL    HW110898   4.610   4.799   6.927
 3333SOL    HW210899   4.495   4.839   6.818
 3334SOL     OW10900   2.988   3.791   1.559
 3334SOL    HW110901   2.903   3.743   1.538
 3334SOL    HW210902   2.971   3.860   1.630
 3335SOL     OW10903   4.709   5.825   6.136
 3335SOL    HW110904   4.795   5.810   6.088
 3335SOL    HW210905   4.639   5.852   6.070
 3336SOL     OW10906   2.654   5.880   5.026
 3336SOL    HW110907   2.729   5.861   5.089
 3336SOL    HW210908   2.683   5.951   4.961
 3337SOL     OW10909   2.931   3.828   2.453
 3337SOL    HW110910   2.930   3.793   2.359
 3337SOL    HW210911   2.978   3.916   2.456
 3338SOL     OW10912   5.588   2.753   1.686
 3338SOL    HW110913   5.577   2.809   1.769
 3338SOL    HW210914   5.508   2.765   1.628
 3339SOL     OW10915   6.497   6.945   6.695
 3339SOL    HW110916   6.467   6.858   6.734
 3339SOL    HW210917   6.512   6.935   6.596
 3340SOL     OW10918   3.816   0.744   2.488
 3340SOL    HW110919   3.751   0.728   2.414
 3340SOL    HW210920   3.795   0.832   2.531
 3341SOL     OW10921   0.871   6.106   3.440
 3341SOL    HW110922   0.817   6.179   3.481
 3341SOL    HW210923   0.834   6.017   3.469
 3342SOL     OW10924   2.841   6.619   4.107
 3342SOL    HW110925   2.831   6.606   4.008
 3342SOL    HW210926   2.767   6.570   4.154
 3343SOL     OW10927   4.563   2.876   0.613
 3343SOL    HW110928   4.644   2.866   0.671
 3343SOL    HW210929   4.483   2.839   0.661
 3344SOL     OW10930   5.512   3.473   4.276
 3344SOL    HW110931   5.575   3.426   4.214
 3344SOL    HW210932   5.524   3.572   4.268
 3345SOL     OW10933   1.436   3.698   6.133
 3345SOL    HW110934   1.374   3.648   6.193
 3345SOL    HW210935   1.470   3.638   6.061
 3346SOL     OW10936   1.843   0.973   0.749
 3346SOL    HW110937   1.840   0.924   0.836
 3346SOL    HW210938   1.769   0.941   0.690
 3347SOL     OW10939   0.662   3.931   3.879
 3347SOL    HW110940   0.730   3.926   3.952
 3347SOL    HW210941   0.673   3.853   3.817
 3348SOL     OW10942   3.034   3.070   3.555
 3348SOL    HW110943   3.000   2.976   3.565
 3348SOL    HW210944   3.035   3.115   3.644
 3349SOL     OW10945   1.042   5.718   3.724
 3349SOL    HW110946   0.971   5.773   3.680
 3349SOL    HW210947   1.009   5.625   3.738
 3350SOL     OW10948   1.827   2.601   5.782
 3350SOL    HW110949   1.748   2.604   5.843
 3350SOL    HW210950   1.835   2.509   5.744
 3351SOL     OW10951   5.263   0.900   2.428
 3351SOL    HW110952   5.250   0.802   2.413
 3351SOL    HW210953   5.361   0.921   2.432
 3352SOL     OW10954   0.219   2.605   0.452
 3352SOL    HW110955   0.230   2.527   0.392
 3352SOL    HW210956   0.238   2.689   0.402
 3353SOL     OW10957   1.602   5.764   1.953
 3353SOL    HW110958   1.581   5.836   1.888
 3353SOL    HW210959   1.555   5.680   1.927
 3354SOL     OW10960   5.084   2.551   4.962
 3354SOL    HW110961   5.114   2.456   4.954
 3354SOL    HW210962   5.089   2.595   4.873
 3355SOL     OW10963   2.055   1.572   0.401
 3355SOL    HW110964   1.979   1.620   0.357
 3355SOL    HW210965   2.084   1.622   0.482
 3356SOL     OW10966   2.234   3.751   6.216
 3356SOL    HW110967   2.135   3.763   6.218
 3356SOL    HW210968   2.274   3.793   6.298
 3357SOL     OW10969   2.581   4.540   1.843
 3357SOL    HW110970   2.678   4.557   1.859
 3357SOL    HW210971   2.553   4.458   1.893
 3358SOL     OW10972   5.141   0.564   0.789
 3358SOL    HW110973   5.071   0.625   0.827
 3358SOL    HW210974   5.149   0.483   0.847
 3359SOL     OW10975   6.910   0.330   3.630
 3359SOL    HW110976   6.968   0.386   3.689
 3359SOL    HW210977   6.814   0.357   3.643
 3360SOL     OW10978   0.554   1.252   6.637
 3360SOL    HW110979   0.506   1.232   6.722
 3360SOL    HW210980   0.612   1.175   6.612
 3361SOL     OW10981   0.302   4.020   3.113
 3361SOL    HW110982   0.350   3.954   3.172
 3361SOL    HW210983   0.264   4.094   3.169
 3362SOL     OW10984   3.715   1.215   3.926
 3362SOL    HW110985   3.703   1.314   3.927
 3362SOL    HW210986   3.682   1.177   4.013
 3363SOL     OW10987   0.282   0.228   0.257
 3363SOL    HW110988   0.187   0.220   0.228
 3363SOL    HW210989   0.293   0.311   0.312
 3364SOL     OW10990   1.660   4.454   3.913
 3364SOL    HW110991   1.564   4.428   3.926
 3364SOL    HW210992   1.682   4.455   3.816
 3365SOL     OW10993   0.705   2.401   5.432
 3365SOL    HW110994   0.748   2.491   5.434
 3365SOL    HW210995   0.773   2.332   5.406
 3366SOL     OW10996   5.735   0.610   6.298
 3366SOL    HW110997   5.657   0.553   6.325
 3366SOL    HW210998   5.702   0.701   6.274
 3367SOL     OW10999   3.210   2.842   1.494
 3367SOL    HW111000   3.235   2.776   1.565
 3367SOL    HW211001   3.139   2.802   1.436
 3368SOL     OW11002   0.778   5.333   6.212
 3368SOL    HW111003   0.810   5.362   6.122
 3368SOL    HW211004   0.683   5.361   6.225
 3369SOL     OW11005   4.032   2.561   5.679
 3369SOL    HW111006   3.932   2.564   5.676
 3369SOL    HW211007   4.066   2.645   5.721
 3370SOL     OW11008   6.598   6.084   5.840
 3370SOL    HW111009   6.668   6.134   5.789
 3370SOL    HW211010   6.532   6.149   5.877
 3371SOL     OW11011   1.529   3.241   2.184
 3371SOL    HW111012   1.606   3.305   2.171
 3371SOL    HW211013   1.539   3.195   2.272
 3372SOL     OW11014   0.758   1.187   1.291
 3372SOL    HW111015   0.807   1.235   1.220
 3372SOL    HW211016   0.687   1.247   1.330
 3373SOL     OW11017   0.074   2.327   2.732
 3373SOL    HW111018   0.004   2.256   2.723
 3373SOL    HW211019   0.164   2.287   2.716
 3374SOL     OW11020   2.016   6.236   4.266
 3374SOL    HW111021   1.946   6.185   4.215
 3374SOL    HW211022   1.987   6.331   4.275
 3375SOL     OW11023   5.613   5.390   6.173
 3375SOL    HW111024   5.533   5.450   6.171
 3375SOL    HW211025   5.588   5.301   6.137
 3376SOL     OW11026   3.486   2.894   3.754
 3376SOL    HW111027   3.496   2.818   3.817
 3376SOL    HW211028   3.576   2.928   3.727
 3377SOL     OW11029   0.333   6.803   4.486
 3377SOL    HW111030   0.348   6.766   4.578
 3377SOL    HW211031   0.247   6.855   4.485
 3378SOL     OW11032   6.997   0.979   0.317
 3378SOL    HW111033   7.020   1.064   0.364
 3378SOL    HW211034   0.009   0.901   0.370
 3379SOL     OW11035   6.967   5.661   6.439
 3379SOL    HW111036   7.021   5.743   6.456
 3379SOL    HW211037   6.890   5.658   6.503
 3380SOL     OW11038   5.451   6.926   6.102
 3380SOL    HW111039   5.387   6.978   6.044
 3380SOL    HW211040   5.527   6.985   6.128
 3381SOL     OW11041   1.208   2.827   1.523
 3381SOL    HW111042   1.268   2.873   1.588
 3381SOL    HW211043   1.244   2.736   1.503
 3382SOL     OW11044   1.031   1.024   0.687
 3382SOL    HW111045   0.947   1.000   0.640
 3382SOL    HW211046   1.010   1.069   0.774
 3383SOL     OW11047   4.446   5.756   1.996
 3383SOL    HW111048   4.512   5.682   1.979
 3383SOL    HW211049   4.421   5.756   2.093
 3384SOL     OW11050   2.509   3.911   5.647
 3384SOL    HW111051   2.457   3.849   5.706
 3384SOL    HW211052   2.605   3.882   5.645
 3385SOL     OW11053   0.225   2.802   3.843
 3385SOL    HW111054   0.156   2.787   3.914
 3385SOL    HW211055   0.275   2.886   3.863
 3386SOL     OW11056   6.367   3.385   6.672
 3386SOL    HW111057   6.285   3.329   6.662
 3386SOL    HW211058   6.363   3.462   6.608
 3387SOL     OW11059   3.412   1.289   4.104
 3387SOL    HW111060   3.406   1.212   4.168
 3387SOL    HW211061   3.400   1.375   4.154
 3388SOL     OW11062   5.146   3.447   2.075
 3388SOL    HW111063   5.051   3.417   2.065
 3388SOL    HW211064   5.178   3.487   1.990
 3389SOL     OW11065   5.275   5.082   5.379
 3389SOL    HW111066   5.295   5.170   5.421
 3389SOL    HW211067   5.256   5.014   5.451
 3390SOL     OW11068   4.939   4.771   5.863
 3390SOL    HW111069   4.910   4.807   5.952
 3390SOL    HW211070   4.958   4.673   5.872
 3391SOL     OW11071   5.616   2.564   5.018
 3391SOL    HW111072   5.605   2.553   5.116
 3391SOL    HW211073   5.670   2.646   4.998
 3392SOL     OW11074   2.841   6.819   3.644
 3392SOL    HW111075   2.781   6.867   3.708
 3392SOL    HW211076   2.930   6.804   3.686
 3393SOL     OW11077   0.551   6.296   0.203
 3393SOL    HW111078   0.633   6.334   0.160
 3393SOL    HW211079   0.470   6.344   0.168
 3394SOL     OW11080   6.056   3.081   0.926
 3394SOL    HW111081   6.134   3.062   0.985
 3394SOL    HW211082   5.972   3.081   0.980
 3395SOL     OW11083   5.775   3.025   3.537
 3395SOL    HW111084   5.782   3.037   3.438
 3395SOL    HW211085   5.681   3.041   3.565
 3396SOL     OW11086   5.376   2.004   3.719
 3396SOL    HW111087   5.415   2.095   3.705
 3396SOL    HW211088   5.417   1.940   3.655
 3397SOL     OW11089   2.796   1.045   5.549
 3397SOL    HW111090   2.834   1.130   5.513
 3397SOL    HW211091   2.783   1.054   5.648
 3398SOL     OW11092   1.206   6.761   4.281
 3398SOL    HW111093   1.148   6.840   4.300
 3398SOL    HW211094   1.302   6.787   4.289
 3399SOL     OW11095   5.656   4.419   4.436
 3399SOL    HW111096   5.732   4.480   4.413
 3399SOL    HW211097   5.689   4.324   4.435
 3400SOL     OW11098   4.841   2.170   5.630
 3400SOL    HW111099   4.789   2.108   5.690
 3400SOL    HW211100   4.777   2.217   5.569
 3401SOL     OW11101   6.974   3.404   0.945
 3401SOL    HW111102   6.986   3.454   1.031
 3401SOL    HW211103   0.019   3.331   0.940
 3402SOL     OW11104   3.809   6.424   6.565
 3402SOL    HW111105   3.908   6.420   6.573
 3402SOL    HW211106   3.769   6.341   6.604
 3403SOL     OW11107   4.255   6.592   4.993
 3403SOL    HW111108   4.203   6.638   4.921
 3403SOL    HW211109   4.267   6.496   4.969
 3404SOL     OW11110   5.264   1.329   0.238
 3404SOL    HW111111   5.260   1.229   0.235
 3404SOL    HW211112   5.257   1.365   0.145
 3405SOL     OW11113   6.776   3.900   4.576
 3405SOL    HW111114   6.759   3.993   4.542
 3405SOL    HW211115   6.870   3.873   4.554
 3406SOL     OW11116   0.574   3.720   2.555
 3406SOL    HW111117   0.478   3.697   2.570
 3406SOL    HW211118   0.610   3.767   2.635
 3407SOL     OW11119   1.658   5.505   0.121
 3407SOL    HW111120   1.728   5.568   0.153
 3407SOL    HW211121   1.644   5.519   0.023
 3408SOL     OW11122   5.014   3.795   5.429
 3408SOL    HW111123   4.922   3.763   5.406
 3408SOL    HW211124   5.066   3.719   5.469
 3409SOL     OW11125   3.479   5.915   6.557
 3409SOL    HW111126   3.413   5.865   6.501
 3409SOL    HW211127   3.464   6.013   6.546
 3410SOL     OW11128   0.245   6.131   0.244
 3410SOL    HW111129   0.168   6.068   0.243
 3410SOL    HW211130   0.325   6.086   0.205
 3411SOL     OW11131   0.360   2.710   1.493
 3411SOL    HW111132   0.369   2.776   1.568
 3411SOL    HW211133   0.425   2.734   1.420
 3412SOL     OW11134   4.144   2.906   6.855
 3412SOL    HW111135   4.171   2.950   6.769
 3412SOL    HW211136   4.063   2.951   6.892
 3413SOL     OW11137   5.500   1.221   1.470
 3413SOL    HW111138   5.588   1.267   1.472
 3413SOL    HW211139   5.472   1.197   1.563
 3414SOL     OW11140   1.926   0.890   5.880
 3414SOL    HW111141   1.856   0.922   5.816
 3414SOL    HW211142   1.881   0.844   5.957
 3415SOL     OW11143   1.519   3.908   4.656
 3415SOL    HW111144   1.599   3.889   4.600
 3415SOL    HW211145   1.455   3.966   4.605
 3416SOL     OW11146   0.174   5.836   0.880
 3416SOL    HW111147   0.086   5.851   0.925
 3416SOL    HW211148   0.200   5.918   0.830
 3417SOL     OW11149   0.301   6.088   3.120
 3417SOL    HW111150   0.242   6.127   3.048
 3417SOL    HW211151   0.392   6.128   3.113
 3418SOL     OW11152   3.448   0.766   4.751
 3418SOL    HW111153   3.375   0.834   4.752
 3418SOL    HW211154   3.537   0.812   4.741
 3419SOL     OW11155   4.416   5.987   4.859
 3419SOL    HW111156   4.472   5.915   4.900
 3419SOL    HW211157   4.360   5.948   4.786
 3420SOL     OW11158   5.605   2.794   3.758
 3420SOL    HW111159   5.574   2.888   3.777
 3420SOL    HW211160   5.606   2.779   3.659
 3421SOL     OW11161   5.661   0.871   6.321
 3421SOL    HW111162   5.570   0.869   6.362
 3421SOL    HW211163   5.663   0.942   6.250
 3422SOL     OW11164   1.886   6.954   1.129
 3422SOL    HW111165   1.802   6.998   1.097
 3422SOL    HW211166   1.962   7.020   1.123
 3423SOL     OW11167   2.304   6.035   0.310
 3423SOL    HW111168   2.261   6.120   0.282
 3423SOL    HW211169   2.374   6.054   0.379
 3424SOL     OW11170   2.952   6.893   2.232
 3424SOL    HW111171   2.996   6.971   2.276
 3424SOL    HW211172   2.911   6.922   2.145
 3425SOL     OW11173   5.265   4.365   2.313
 3425SOL    HW111174   5.353   4.347   2.358
 3425SOL    HW211175   5.213   4.279   2.307
 3426SOL     OW11176   3.697   2.882   0.587
 3426SOL    HW111177   3.624   2.950   0.582
 3426SOL    HW211178   3.779   2.924   0.625
 3427SOL     OW11179   6.772   6.913   0.321
 3427SOL    HW111180   6.856   6.865   0.293
 3427SOL    HW211181   6.718   6.853   0.379
 3428SOL     OW11182   2.947   4.557   1.116
 3428SOL    HW111183   2.867   4.501   1.138
 3428SOL    HW211184   2.916   4.647   1.084
 3429SOL     OW11185   0.627   2.184   0.210
 3429SOL    HW111186   0.567   2.106   0.192
 3429SOL    HW211187   0.573   2.268   0.214
 3430SOL     OW11188   0.250   6.197   5.179
 3430SOL    HW111189   0.179   6.139   5.140
 3430SOL    HW211190   0.255   6.283   5.127
 3431SOL     OW11191   1.462   6.849   1.016
 3431SOL    HW111192   1.536   6.820   1.076
 3431SOL    HW211193   1.496   6.855   0.922
 3432SOL     OW11194   2.021   2.669   6.953
 3432SOL    HW111195   1.945   2.667   7.018
 3432SOL    HW211196   2.099   2.619   6.991
 3433SOL     OW11197   1.157   0.141   6.557
 3433SOL    HW111198   1.058   0.134   6.556
 3433SOL    HW211199   1.196   0.061   6.511
 3434SOL     OW11200   4.805   2.030   0.544
 3434SOL    HW111201   4.727   1.967   0.550
 3434SOL    HW211202   4.879   1.998   0.603
 3435SOL     OW11203   1.358   1.367   1.029
 3435SOL    HW111204   1.455   1.341   1.028
 3435SOL    HW211205   1.304   1.293   0.988
 3436SOL     OW11206   3.304   6.016   6.024
 3436SOL    HW111207   3.367   5.940   6.037
 3436SOL    HW211208   3.325   6.063   5.938
 3437SOL     OW11209   2.564   1.262   5.947
 3437SOL    HW111210   2.502   1.285   6.022
 3437SOL    HW211211   2.519   1.201   5.883
 3438SOL     OW11212   1.193   2.636   0.509
 3438SOL    HW111213   1.249   2.635   0.426
 3438SOL    HW211214   1.219   2.559   0.568
 3439SOL     OW11215   2.118   6.245   5.227
 3439SOL    HW111216   2.217   6.254   5.240
 3439SOL    HW211217   2.070   6.306   5.290
 3440SOL     OW11218   3.729   3.152   1.667
 3440SOL    HW111219   3.640   3.135   1.623
 3440SOL    HW211220   3.754   3.073   1.722
 3441SOL     OW11221   5.301   6.942   4.352
 3441SOL    HW111222   5.374   6.917   4.289
 3441SOL    HW211223   5.245   7.014   4.311
 3442SOL     OW11224   3.690   5.358   2.261
 3442SOL    HW111225   3.729   5.268   2.282
 3442SOL    HW211226   3.681   5.411   2.346
 3443SOL     OW11227   5.017   6.500   1.760
 3443SOL    HW111228   5.117   6.507   1.765
 3443SOL    HW211229   4.992   6.423   1.703
 3444SOL     OW11230   5.337   5.775   0.490
 3444SOL    HW111231   5.324   5.687   0.444
 3444SOL    HW211232   5.317   5.849   0.426
 3445SOL     OW11233   6.180   5.698   4.427
 3445SOL    HW111234   6.114   5.722   4.357
 3445SOL    HW211235   6.150   5.734   4.516
 3446SOL     OW11236   5.957   0.522   2.149
 3446SOL    HW111237   6.018   0.460   2.197
 3446SOL    HW211238   5.882   0.549   2.210
 3447SOL     OW11239   5.215   5.504   1.069
 3447SOL    HW111240   5.145   5.575   1.077
 3447SOL    HW211241   5.206   5.458   0.980
 3448SOL     OW11242   3.156   0.303   0.981
 3448SOL    HW111243   3.092   0.284   0.907
 3448SOL    HW211244   3.106   0.331   1.063
 3449SOL     OW11245   6.558   6.913   3.938
 3449SOL    HW111246   6.654   6.885   3.929
 3449SOL    HW211247   6.500   6.832   3.943
 3450SOL     OW11248   0.006   1.917   6.563
 3450SOL    HW111249   6.974   1.928   6.479
 3450SOL    HW211250   0.058   2.001   6.579
 3451SOL     OW11251   1.587   6.360   2.194
 3451SOL    HW111252   1.628   6.451   2.193
 3451SOL    HW211253   1.657   6.292   2.220
 3452SOL     OW11254   5.825   1.538   6.185
 3452SOL    HW111255   5.839   1.461   6.247
 3452SOL    HW211256   5.914   1.580   6.164
 3453SOL     OW11257   6.866   5.758   5.994
 3453SOL    HW111258   6.879   5.710   5.907
 3453SOL    HW211259   6.771   5.788   6.001
 3454SOL     OW11260   1.200   1.875   6.923
 3454SOL    HW111261   1.139   1.800   6.949
 3454SOL    HW211262   1.147   1.959   6.911
 3455SOL     OW11263   2.329   2.314   4.543
 3455SOL    HW111264   2.381   2.253   4.484
 3455SOL    HW211265   2.316   2.271   4.632
 3456SOL     OW11266   5.914   5.480   2.397
 3456SOL    HW111267   5.956   5.549   2.338
 3456SOL    HW211268   5.829   5.516   2.435
 3457SOL     OW11269   2.910   5.684   3.535
 3457SOL    HW111270   2.892   5.599   3.485
 3457SOL    HW211271   2.976   5.739   3.485
 3458SOL     OW11272   4.873   0.623   0.747
 3458SOL    HW111273   4.787   0.599   0.791
 3458SOL    HW211274   4.923   0.540   0.724
 3459SOL     OW11275   5.778   4.233   2.747
 3459SOL    HW111276   5.770   4.321   2.795
 3459SOL    HW211277   5.762   4.247   2.650
 3460SOL     OW11278   2.555   3.180   6.968
 3460SOL    HW111279   2.586   3.238   6.892
 3460SOL    HW211280   2.596   3.090   6.960
 3461SOL     OW11281   4.628   6.703   4.696
 3461SOL    HW111282   4.711   6.744   4.656
 3461SOL    HW211283   4.554   6.706   4.629
 3462SOL     OW11284   0.215   3.374   1.988
 3462SOL    HW111285   0.231   3.384   2.086
 3462SOL    HW211286   0.281   3.430   1.938
 3463SOL     OW11287   1.268   3.502   3.802
 3463SOL    HW111288   1.259   3.409   3.838
 3463SOL    HW211289   1.227   3.567   3.866
 3464SOL     OW11290   6.914   3.168   6.864
 3464SOL    HW111291   6.829   3.125   6.895
 3464SOL    HW211292   6.979   3.173   6.940
 3465SOL     OW11293   1.638   2.268   2.196
 3465SOL    HW111294   1.684   2.334   2.136
 3465SOL    HW211295   1.644   2.176   2.156
 3466SOL     OW11296   6.669   5.188   6.814
 3466SOL    HW111297   6.696   5.104   6.860
 3466SOL    HW211298   6.740   5.216   6.750
 3467SOL     OW11299   2.074   2.623   0.987
 3467SOL    HW111300   2.112   2.533   1.007
 3467SOL    HW211301   2.062   2.633   0.888
 3468SOL     OW11302   5.943   0.575   2.753
 3468SOL    HW111303   6.019   0.583   2.818
 3468SOL    HW211304   5.901   0.665   2.741
 3469SOL     OW11305   4.733   6.863   3.756
 3469SOL    HW111306   4.637   6.838   3.766
 3469SOL    HW211307   4.748   6.953   3.797
 3470SOL     OW11308   6.594   2.491   1.912
 3470SOL    HW111309   6.531   2.568   1.919
 3470SOL    HW211310   6.673   2.518   1.857
 3471SOL     OW11311   5.024   4.635   4.655
 3471SOL    HW111312   5.028   4.677   4.565
 3471SOL    HW211313   5.113   4.593   4.676
 3472SOL     OW11314   3.063   1.319   3.170
 3472SOL    HW111315   3.113   1.335   3.085
 3472SOL    HW211316   2.992   1.388   3.181
 3473SOL     OW11317   7.001   2.704   1.428
 3473SOL    HW111318   6.995   2.730   1.331
 3473SOL    HW211319   0.047   2.632   1.439
 3474SOL     OW11320   1.101   4.514   2.743
 3474SOL    HW111321   1.061   4.541   2.655
 3474SOL    HW211322   1.124   4.417   2.741
 3475SOL     OW11323   1.526   4.122   4.103
 3475SOL    HW111324   1.522   4.041   4.161
 3475SOL    HW211325   1.603   4.113   4.039
 3476SOL     OW11326   2.347   1.702   2.697
 3476SOL    HW111327   2.430   1.740   2.737
 3476SOL    HW211328   2.267   1.745   2.741
 3477SOL     OW11329   1.599   5.016   0.760
 3477SOL    HW111330   1.602   4.993   0.857
 3477SOL    HW211331   1.692   5.024   0.724
 3478SOL     OW11332   2.589   5.555   5.472
 3478SOL    HW111333   2.664   5.515   5.418
 3478SOL    HW211334   2.506   5.500   5.459
 3479SOL     OW11335   1.347   0.937   3.153
 3479SOL    HW111336   1.357   1.011   3.220
 3479SOL    HW211337   1.317   0.976   3.065
 3480SOL     OW11338   0.068   6.041   4.754
 3480SOL    HW111339   0.097   6.059   4.848
 3480SOL    HW211340   7.002   5.995   4.755
 3481SOL     OW11341   4.844   0.815   0.325
 3481SOL    HW111342   4.823   0.838   0.420
 3481SOL    HW211343   4.859   0.717   0.317
 3482SOL     OW11344   6.026   1.233   1.978
 3482SOL    HW111345   6.058   1.275   1.893
 3482SOL    HW211346   6.089   1.255   2.052
 3483SOL     OW11347   4.793   2.525   1.809
 3483SOL    HW111348   4.771   2.538   1.712
 3483SOL    HW211349   4.867   2.458   1.818
 3484SOL     OW11350   0.959   3.093   0.490
 3484SOL    HW111351   0.872   3.047   0.474
 3484SOL    HW211352   1.034   3.028   0.477
 3485SOL     OW11353   1.813   2.020   4.135
 3485SOL    HW111354   1.773   1.990   4.222
 3485SOL    HW211355   1.814   1.944   4.070
 3486SOL     OW11356   2.723   0.345   4.026
 3486SOL    HW111357   2.792   0.374   4.093
 3486SOL    HW211358   2.633   0.343   4.070
 3487SOL     OW11359   6.240   2.321   6.641
 3487SOL    HW111360   6.339   2.325   6.651
 3487SOL    HW211361   6.211   2.388   6.572
 3488SOL     OW11362   6.408   0.442   4.572
 3488SOL    HW111363   6.507   0.449   4.560
 3488SOL    HW211364   6.364   0.434   4.482
 3489SOL     OW11365   4.264   0.114   1.644
 3489SOL    HW111366   4.297   0.204   1.673
 3489SOL    HW211367   4.216   0.123   1.557
 3490SOL     OW11368   3.911   4.155   0.789
 3490SOL    HW111369   3.824   4.131   0.747
 3490SOL    HW211370   3.982   4.093   0.756
 3491SOL     OW11371   4.387   2.833   5.914
 3491SOL    HW111372   4.317   2.806   5.980
 3491SOL    HW211373   4.409   2.754   5.856
 3492SOL     OW11374   6.768   4.410   1.092
 3492SOL    HW111375   6.753   4.345   1.167
 3492SOL    HW211376   6.836   4.478   1.120
 3493SOL     OW11377   5.139   3.893   5.179
 3493SOL    HW111378   5.087   3.888   5.265
 3493SOL    HW211379   5.207   3.820   5.177
 3494SOL     OW11380   3.302   0.661   1.762
 3494SOL    HW111381   3.323   0.649   1.859
 3494SOL    HW211382   3.381   0.701   1.715
 3495SOL     OW11383   5.784   5.039   1.512
 3495SOL    HW111384   5.721   5.069   1.583
 3495SOL    HW211385   5.842   5.115   1.484
 3496SOL     OW11386   6.197   4.758   0.839
 3496SOL    HW111387   6.201   4.750   0.938
 3496SOL    HW211388   6.252   4.685   0.798
 3497SOL     OW11389   2.355   1.262   4.025
 3497SOL    HW111390   2.296   1.211   3.962
 3497SOL    HW211391   2.344   1.226   4.117
 3498SOL     OW11392   3.177   2.288   0.991
 3498SOL    HW111393   3.193   2.307   0.894
 3498SOL    HW211394   3.264   2.269   1.036
 3499SOL     OW11395   5.372   3.743   4.174
 3499SOL    HW111396   5.275   3.758   4.195
 3499SOL    HW211397   5.382   3.658   4.123
 3500SOL     OW11398   1.878   3.484   4.761
 3500SOL    HW111399   1.950   3.544   4.795
 3500SOL    HW211400   1.894   3.390   4.793
 3501SOL     OW11401   1.296   5.973   5.043
 3501SOL    HW111402   1.344   6.047   5.090
 3501SOL    HW211403   1.207   5.958   5.087
 3502SOL     OW11404   6.661   2.796   2.048
 3502SOL    HW111405   6.573   2.812   2.003
 3502SOL    HW211406   6.654   2.715   2.107
 3503SOL     OW11407   6.204   6.488   4.955
 3503SOL    HW111408   6.255   6.493   5.042
 3503SOL    HW211409   6.245   6.552   4.890
 3504SOL     OW11410   2.657   1.399   1.487
 3504SOL    HW111411   2.654   1.304   1.517
 3504SOL    HW211412   2.711   1.406   1.403
 3505SOL     OW11413   5.598   3.915   4.903
 3505SOL    HW111414   5.526   3.925   4.834
 3505SOL    HW211415   5.560   3.929   4.994
 3506SOL     OW11416   5.101   5.467   5.698
 3506SOL    HW111417   5.117   5.369   5.709
 3506SOL    HW211418   5.076   5.486   5.604
 3507SOL     OW11419   2.078   0.702   0.894
 3507SOL    HW111420   1.994   0.724   0.845
 3507SOL    HW211421   2.141   0.780   0.891
 3508SOL     OW11422   2.184   1.899   5.616
 3508SOL    HW111423   2.159   1.912   5.712
 3508SOL    HW211424   2.268   1.949   5.596
 3509SOL     OW11425   5.235   0.336   6.218
 3509SOL    HW111426   5.308   0.286   6.173
 3509SOL    HW211427   5.254   0.434   6.214
 3510SOL     OW11428   1.451   1.874   2.186
 3510SOL    HW111429   1.517   1.937   2.226
 3510SOL    HW211430   1.445   1.890   2.088
 3511SOL     OW11431   2.605   5.036   1.010
 3511SOL    HW111432   2.548   5.013   0.931
 3511SOL    HW211433   2.651   5.123   0.992
 3512SOL     OW11434   6.777   4.167   0.846
 3512SOL    HW111435   6.807   4.205   0.758
 3512SOL    HW211436   6.739   4.240   0.902
 3513SOL     OW11437   5.249   2.776   6.785
 3513SOL    HW111438   5.193   2.804   6.863
 3513SOL    HW211439   5.346   2.777   6.811
 3514SOL     OW11440   0.303   1.640   1.836
 3514SOL    HW111441   0.289   1.674   1.743
 3514SOL    HW211442   0.234   1.571   1.857
 3515SOL     OW11443   5.042   6.059   3.331
 3515SOL    HW111444   5.108   6.014   3.271
 3515SOL    HW211445   4.964   6.091   3.277
 3516SOL     OW11446   4.703   0.088   0.969
 3516SOL    HW111447   4.627   0.030   0.941
 3516SOL    HW211448   4.672   0.153   1.038
 3517SOL     OW11449   1.624   2.503   0.884
 3517SOL    HW111450   1.528   2.483   0.903
 3517SOL    HW211451   1.651   2.587   0.932
 3518SOL     OW11452   5.746   2.168   4.037
 3518SOL    HW111453   5.841   2.140   4.048
 3518SOL    HW211454   5.704   2.116   3.962
 3519SOL     OW11455   1.687   0.723   6.565
 3519SOL    HW111456   1.720   0.780   6.490
 3519SOL    HW211457   1.624   0.655   6.529
 3520SOL     OW11458   3.025   5.115   6.675
 3520SOL    HW111459   2.991   5.207   6.697
 3520SOL    HW211460   3.021   5.100   6.577
 3521SOL     OW11461   5.138   2.573   6.649
 3521SOL    HW111462   5.176   2.645   6.706
 3521SOL    HW211463   5.044   2.554   6.678
 3522SOL     OW11464   0.138   4.708   1.743
 3522SOL    HW111465   0.238   4.706   1.739
 3522SOL    HW211466   0.104   4.618   1.768
 3523SOL     OW11467   1.698   5.064   6.013
 3523SOL    HW111468   1.637   5.031   6.086
 3523SOL    HW211469   1.644   5.093   5.934
 3524SOL     OW11470   4.549   1.598   2.034
 3524SOL    HW111471   4.619   1.668   2.046
 3524SOL    HW211472   4.588   1.507   2.051
 3525SOL     OW11473   1.389   4.502   3.197
 3525SOL    HW111474   1.369   4.422   3.141
 3525SOL    HW211475   1.311   4.520   3.258
 3526SOL     OW11476   2.492   6.767   4.038
 3526SOL    HW111477   2.417   6.815   4.083
 3526SOL    HW211478   2.469   6.670   4.028
 3527SOL     OW11479   5.703   3.351   6.367
 3527SOL    HW111480   5.716   3.443   6.403
 3527SOL    HW211481   5.605   3.333   6.358
 3528SOL     OW11482   0.785   5.975   5.096
 3528SOL    HW111483   0.796   6.008   5.002
 3528SOL    HW211484   0.814   6.047   5.160
 3529SOL     OW11485   3.799   0.259   6.712
 3529SOL    HW111486   3.799   0.195   6.635
 3529SOL    HW211487   3.865   0.333   6.693
 3530SOL     OW11488   0.486   5.017   2.750
 3530SOL    HW111489   0.427   4.962   2.809
 3530SOL    HW211490   0.557   5.061   2.806
 3531SOL     OW11491   5.131   2.753   0.217
 3531SOL    HW111492   5.032   2.746   0.202
 3531SOL    HW211493   5.177   2.674   0.177
 3532SOL     OW11494   2.946   0.913   1.244
 3532SOL    HW111495   2.946   0.868   1.155
 3532SOL    HW211496   2.928   0.846   1.316
 3533SOL     OW11497   1.727   1.980   2.720
 3533SOL    HW111498   1.773   2.002   2.806
 3533SOL    HW211499   1.740   1.883   2.699
 3534SOL     OW11500   6.235   1.208   6.746
 3534SOL    HW111501   6.149   1.182   6.704
 3534SOL    HW211502   6.220   1.283   6.812
 3535SOL     OW11503   1.761   6.015   0.798
 3535SOL    HW111504   1.828   6.036   0.728
 3535SOL    HW211505   1.689   5.957   0.760
 3536SOL     OW11506   3.077   2.240   3.086
 3536SOL    HW111507   3.012   2.245   3.161
 3536SOL    HW211508   3.170   2.257   3.121
 3537SOL     OW11509   3.139   5.631   1.693
 3537SOL    HW111510   3.185   5.555   1.738
 3537SOL    HW211511   3.140   5.712   1.752
 3538SOL     OW11512   1.466   0.531   6.552
 3538SOL    HW111513   1.443   0.452   6.495
 3538SOL    HW211514   1.387   0.554   6.610
 3539SOL     OW11515   5.298   3.201   5.659
 3539SOL    HW111516   5.294   3.299   5.640
 3539SOL    HW211517   5.260   3.183   5.750
 3540SOL     OW11518   2.408   2.047   5.543
 3540SOL    HW111519   2.498   2.036   5.585
 3540SOL    HW211520   2.408   2.130   5.487
 3541SOL     OW11521   1.979   2.412   6.640
 3541SOL    HW111522   1.951   2.371   6.553
 3541SOL    HW211523   2.039   2.348   6.688
 3542SOL     OW11524   1.615   5.435   2.837
 3542SOL    HW111525   1.519   5.414   2.853
 3542SOL    HW211526   1.639   5.519   2.887
 3543SOL     OW11527   0.622   2.123   4.615
 3543SOL    HW111528   0.718   2.150   4.601
 3543SOL    HW211529   0.570   2.201   4.650
 3544SOL     OW11530   2.824   4.194   6.227
 3544SOL    HW111531   2.881   4.250   6.167
 3544SOL    HW211532   2.843   4.217   6.322
 3545SOL     OW11533   4.072   5.017   0.813
 3545SOL    HW111534   4.076   5.066   0.726
 3545SOL    HW211535   4.127   4.934   0.807
 3546SOL     OW11536   0.968   4.323   3.902
 3546SOL    HW111537   1.021   4.273   3.970
 3546SOL    HW211538   0.991   4.421   3.908
 3547SOL     OW11539   6.506   5.000   4.518
 3547SOL    HW111540   6.581   4.998   4.584
 3547SOL    HW211541   6.474   5.094   4.507
 3548SOL     OW11542   5.898   1.069   5.951
 3548SOL    HW111543   5.836   1.140   5.986
 3548SOL    HW211544   5.992   1.102   5.954
 3549SOL     OW11545   6.908   4.759   5.727
 3549SOL    HW111546   6.921   4.810   5.642
 3549SOL    HW211547   6.983   4.781   5.790
 3550SOL     OW11548   5.922   3.376   3.279
 3550SOL    HW111549   5.949   3.379   3.375
 3550SOL    HW211550   6.002   3.352   3.223
 3551SOL     OW11551   3.815   1.317   2.446
 3551SOL    HW111552   3.847   1.412   2.455
 3551SOL    HW211553   3.884   1.255   2.483
 3552SOL     OW11554   6.001   6.982   2.032
 3552SOL    HW111555   5.978   7.016   2.124
 3552SOL    HW211556   6.100   6.980   2.021
 3553SOL     OW11557   4.688   4.955   1.139
 3553SOL    HW111558   4.607   5.008   1.163
 3553SOL    HW211559   4.661   4.878   1.081
 3554SOL     OW11560   4.553   2.230   1.529
 3554SOL    HW111561   4.522   2.175   1.606
 3554SOL    HW211562   4.478   2.285   1.494
 3555SOL     OW11563   0.815   4.394   3.684
 3555SOL    HW111564   0.876   4.367   3.759
 3555SOL    HW211565   0.726   4.350   3.695
 3556SOL     OW11566   4.147   1.641   4.660
 3556SOL    HW111567   4.205   1.578   4.609
 3556SOL    HW211568   4.095   1.590   4.729
 3557SOL     OW11569   0.962   1.622   4.828
 3557SOL    HW111570   0.906   1.620   4.746
 3557SOL    HW211571   1.056   1.647   4.804
 3558SOL     OW11572   1.251   6.808   2.540
 3558SOL    HW111573   1.307   6.744   2.593
 3558SOL    HW211574   1.188   6.856   2.601
 3559SOL     OW11575   0.573   6.271   5.499
 3559SOL    HW111576   0.479   6.247   5.525
 3559SOL    HW211577   0.614   6.329   5.569
 3560SOL     OW11578   0.887   5.652   1.929
 3560SOL    HW111579   0.912   5.713   1.854
 3560SOL    HW211580   0.857   5.564   1.892
 3561SOL     OW11581   4.407   4.600   4.762
 3561SOL    HW111582   4.499   4.572   4.736
 3561SOL    HW211583   4.380   4.552   4.845
 3562SOL     OW11584   4.737   1.019   3.666
 3562SOL    HW111585   4.790   1.042   3.585
 3562SOL    HW211586   4.653   0.972   3.640
 3563SOL     OW11587   5.932   1.066   0.270
 3563SOL    HW111588   5.956   1.078   0.174
 3563SOL    HW211589   5.927   0.968   0.291
 3564SOL     OW11590   2.138   4.363   3.608
 3564SOL    HW111591   2.224   4.332   3.568
 3564SOL    HW211592   2.098   4.290   3.663
 3565SOL     OW11593   2.470   5.698   5.119
 3565SOL    HW111594   2.523   5.613   5.122
 3565SOL    HW211595   2.528   5.771   5.082
 3566SOL     OW11596   6.349   3.761   5.811
 3566SOL    HW111597   6.423   3.706   5.849
 3566SOL    HW211598   6.272   3.764   5.876
 3567SOL     OW11599   0.250   2.997   0.133
 3567SOL    HW111600   0.241   3.091   0.099
 3567SOL    HW211601   0.266   2.998   0.232
 3568SOL     OW11602   4.598   5.170   4.197
 3568SOL    HW111603   4.680   5.176   4.254
 3568SOL    HW211604   4.517   5.193   4.252
 3569SOL     OW11605   2.071   2.014   5.848
 3569SOL    HW111606   2.007   2.055   5.784
 3569SOL    HW211607   2.149   2.076   5.861
 3570SOL     OW11608   5.456   1.094   4.852
 3570SOL    HW111609   5.410   1.007   4.838
 3570SOL    HW211610   5.541   1.096   4.799
 3571SOL     OW11611   0.908   5.641   5.338
 3571SOL    HW111612   0.812   5.664   5.324
 3571SOL    HW211613   0.961   5.672   5.259
 3572SOL     OW11614   5.955   3.158   2.975
 3572SOL    HW111615   5.869   3.194   3.014
 3572SOL    HW211616   6.032   3.208   3.014
 3573SOL     OW11617   6.691   4.760   3.506
 3573SOL    HW111618   6.778   4.737   3.462
 3573SOL    HW211619   6.617   4.760   3.439
 3574SOL     OW11620   0.391   2.954   0.681
 3574SOL    HW111621   0.455   2.880   0.698
 3574SOL    HW211622   0.331   2.965   0.761
 3575SOL     OW11623   5.506   5.307   2.357
 3575SOL    HW111624   5.429   5.369   2.370
 3575SOL    HW211625   5.570   5.317   2.433
 3576SOL     OW11626   0.632   2.416   6.545
 3576SOL    HW111627   0.706   2.484   6.541
 3576SOL    HW211628   0.546   2.460   6.519
 3577SOL     OW11629   1.312   2.585   0.005
 3577SOL    HW111630   1.386   2.637   6.987
 3577SOL    HW211631   1.226   2.637   7.018
 3578SOL     OW11632   4.024   1.193   0.433
 3578SOL    HW111633   4.001   1.284   0.468
 3578SOL    HW211634   4.103   1.158   0.483
 3579SOL     OW11635   6.652   2.353   2.975
 3579SOL    HW111636   6.642   2.394   3.065
 3579SOL    HW211637   6.727   2.288   2.976
 3580SOL     OW11638   6.345   3.414   1.288
 3580SOL    HW111639   6.301   3.462   1.363
 3580SOL    HW211640   6.276   3.383   1.222
 3581SOL     OW11641   1.187   4.817   3.499
 3581SOL    HW111642   1.249   4.848   3.426
 3581SOL    HW211643   1.225   4.842   3.588
 3582SOL     OW11644   1.193   3.615   6.573
 3582SOL    HW111645   1.212   3.589   6.479
 3582SOL    HW211646   1.171   3.713   6.577
 3583SOL     OW11647   1.335   4.945   0.017
 3583SOL    HW111648   1.406   4.903   0.075
 3583SOL    HW211649   1.260   4.880   0.004
 3584SOL     OW11650   5.940   4.455   6.107
 3584SOL    HW111651   5.889   4.397   6.043
 3584SOL    HW211652   5.892   4.457   6.195
 3585SOL     OW11653   2.869   1.979   4.302
 3585SOL    HW111654   2.869   2.022   4.392
 3585SOL    HW211655   2.959   1.990   4.259
 3586SOL     OW11656   6.343   1.589   4.529
 3586SOL    HW111657   6.419   1.524   4.525
 3586SOL    HW211658   6.306   1.601   4.437
 3587SOL     OW11659   1.909   4.914   5.928
 3587SOL    HW111660   1.827   4.969   5.933
 3587SOL    HW211661   1.984   4.968   5.891
 3588SOL     OW11662   1.055   3.295   5.117
 3588SOL    HW111663   1.003   3.259   5.194
 3588SOL    HW211664   1.097   3.219   5.067
 3589SOL     OW11665   5.344   1.070   5.247
 3589SOL    HW111666   5.409   1.027   5.310
 3589SOL    HW211667   5.385   1.153   5.208
 3590SOL     OW11668   0.484   3.619   0.472
 3590SOL    HW111669   0.487   3.718   0.484
 3590SOL    HW211670   0.406   3.582   0.523
 3591SOL     OW11671   5.465   4.237   6.938
 3591SOL    HW111672   5.389   4.181   6.968
 3591SOL    HW211673   5.479   4.225   6.840
 3592SOL     OW11674   0.604   5.979   1.938
 3592SOL    HW111675   0.678   6.037   1.972
 3592SOL    HW211676   0.562   6.022   1.858
 3593SOL     OW11677   0.986   5.360   5.427
 3593SOL    HW111678   1.078   5.367   5.465
 3593SOL    HW211679   0.951   5.452   5.408
 3594SOL     OW11680   4.784   6.842   3.249
 3594SOL    HW111681   4.755   6.912   3.314
 3594SOL    HW211682   4.794   6.882   3.158
 3595SOL     OW11683   4.624   6.023   6.284
 3595SOL    HW111684   4.651   5.957   6.214
 3595SOL    HW211685   4.701   6.041   6.345
 3596SOL     OW11686   5.934   3.265   2.474
 3596SOL    HW111687   5.983   3.210   2.543
 3596SOL    HW211688   5.865   3.208   2.430
 3597SOL     OW11689   1.746   2.156   5.568
 3597SOL    HW111690   1.670   2.192   5.515
 3597SOL    HW211691   1.727   2.060   5.592
 3598SOL     OW11692   1.087   6.320   6.088
 3598SOL    HW111693   1.127   6.409   6.111
 3598SOL    HW211694   0.989   6.330   6.075
 3599SOL     OW11695   5.140   2.133   6.687
 3599SOL    HW111696   5.186   2.219   6.666
 3599SOL    HW211697   5.065   2.118   6.622
 3600SOL     OW11698   0.899   3.022   2.031
 3600SOL    HW111699   0.960   2.975   1.967
 3600SOL    HW211700   0.856   3.100   1.984
 3601SOL     OW11701   4.872   3.260   6.043
 3601SOL    HW111702   4.894   3.245   5.947
 3601SOL    HW211703   4.880   3.357   6.064
 3602SOL     OW11704   0.747   4.055   0.634
 3602SOL    HW111705   0.733   4.136   0.691
 3602SOL    HW211706   0.735   3.973   0.690
 3603SOL     OW11707   3.726   1.216   4.216
 3603SOL    HW111708   3.734   1.310   4.182
 3603SOL    HW211709   3.659   1.214   4.290
 3604SOL     OW11710   6.880   6.132   3.290
 3604SOL    HW111711   6.898   6.060   3.222
 3604SOL    HW211712   6.961   6.144   3.348
 3605SOL     OW11713   0.321   4.110   3.802
 3605SOL    HW111714   0.352   4.036   3.742
 3605SOL    HW211715   0.222   4.105   3.814
 3606SOL     OW11716   0.642   0.128   4.181
 3606SOL    HW111717   0.666   0.202   4.244
 3606SOL    HW211718   0.644   0.162   4.087
 3607SOL     OW11719   5.216   5.340   1.986
 3607SOL    HW111720   5.202   5.244   1.962
 3607SOL    HW211721   5.253   5.347   2.078
 3608SOL     OW11722   4.498   2.231   4.591
 3608SOL    HW111723   4.526   2.145   4.548
 3608SOL    HW211724   4.578   2.287   4.611
 3609SOL     OW11725   1.426   0.288   3.951
 3609SOL    HW111726   1.465   0.291   3.859
 3609SOL    HW211727   1.438   0.197   3.990
 3610SOL     OW11728   1.732   0.239   6.201
 3610SOL    HW111729   1.649   0.238   6.258
 3610SOL    HW211730   1.807   0.195   6.250
 3611SOL     OW11731   4.588   4.747   4.467
 3611SOL    HW111732   4.627   4.706   4.549
 3611SOL    HW211733   4.620   4.842   4.458
 3612SOL     OW11734   0.407   0.177   7.017
 3612SOL    HW111735   0.460   0.199   0.077
 3612SOL    HW211736   0.330   0.241   7.010
 3613SOL     OW11737   4.967   4.646   2.362
 3613SOL    HW111738   5.060   4.654   2.328
 3613SOL    HW211739   4.942   4.549   2.368
 3614SOL     OW11740   3.567   3.725   0.572
 3614SOL    HW111741   3.552   3.757   0.666
 3614SOL    HW211742   3.499   3.766   0.511
 3615SOL     OW11743   5.113   3.726   6.159
 3615SOL    HW111744   5.131   3.760   6.067
 3615SOL    HW211745   5.165   3.780   6.225
 3616SOL     OW11746   0.232   1.246   6.584
 3616SOL    HW111747   0.183   1.287   6.661
 3616SOL    HW211748   0.323   1.219   6.614
 3617SOL     OW11749   4.558   0.852   6.805
 3617SOL    HW111750   4.510   0.895   6.882
 3617SOL    HW211751   4.492   0.801   6.750
 3618SOL     OW11752   2.501   3.231   5.375
 3618SOL    HW111753   2.507   3.155   5.310
 3618SOL    HW211754   2.585   3.286   5.369
 3619SOL     OW11755   6.027   2.454   5.187
 3619SOL    HW111756   5.958   2.403   5.136
 3619SOL    HW211757   6.102   2.480   5.126
 3620SOL     OW11758   6.260   5.503   5.691
 3620SOL    HW111759   6.301   5.511   5.782
 3620SOL    HW211760   6.332   5.502   5.621
 3621SOL     OW11761   3.451   2.744   5.388
 3621SOL    HW111762   3.491   2.658   5.358
 3621SOL    HW211763   3.461   2.754   5.486
 3622SOL     OW11764   1.068   1.387   6.846
 3622SOL    HW111765   1.059   1.313   6.912
 3622SOL    HW211766   1.034   1.356   6.757
 3623SOL     OW11767   6.781   6.095   4.416
 3623SOL    HW111768   6.817   6.029   4.351
 3623SOL    HW211769   6.836   6.179   4.412
 3624SOL     OW11770   1.606   0.062   2.125
 3624SOL    HW111771   1.679   0.101   2.068
 3624SOL    HW211772   1.521   0.113   2.109
 3625SOL     OW11773   0.388   3.217   6.515
 3625SOL    HW111774   0.474   3.176   6.485
 3625SOL    HW211775   0.344   3.262   6.437
 3626SOL     OW11776   0.751   2.845   5.578
 3626SOL    HW111777   0.788   2.774   5.519
 3626SOL    HW211778   0.762   2.934   5.535
 3627SOL     OW11779   4.023   3.006   1.058
 3627SOL    HW111780   3.981   2.939   1.120
 3627SOL    HW211781   4.051   2.960   0.974
 3628SOL     OW11782   1.037   1.655   2.366
 3628SOL    HW111783   1.093   1.709   2.429
 3628SOL    HW211784   1.095   1.616   2.294
 3629SOL     OW11785   0.775   1.207   5.211
 3629SOL    HW111786   0.745   1.301   5.226
 3629SOL    HW211787   0.874   1.202   5.225
 3630SOL     OW11788   5.207   2.285   4.249
 3630SOL    HW111789   5.155   2.229   4.184
 3630SOL    HW211790   5.156   2.293   4.335
 3631SOL     OW11791   2.441   0.987   3.032
 3631SOL    HW111792   2.469   1.053   2.961
 3631SOL    HW211793   2.348   0.956   3.013
 3632SOL     OW11794   5.428   5.073   1.211
 3632SOL    HW111795   5.371   5.155   1.220
 3632SOL    HW211796   5.433   5.047   1.114
 3633SOL     OW11797   4.073   2.364   5.996
 3633SOL    HW111798   4.073   2.463   5.980
 3633SOL    HW211799   4.114   2.318   5.918
 3634SOL     OW11800   1.751   5.357   5.810
 3634SOL    HW111801   1.771   5.455   5.802
 3634SOL    HW211802   1.680   5.332   5.745
 3635SOL     OW11803   3.243   0.075   1.128
 3635SOL    HW111804   3.189   0.083   1.212
 3635SOL    HW211805   3.217   0.147   1.064
 3636SOL     OW11806   6.448   5.798   0.778
 3636SOL    HW111807   6.469   5.864   0.850
 3636SOL    HW211808   6.484   5.708   0.804
 3637SOL     OW11809   0.122   2.487   1.855
 3637SOL    HW111810   0.092   2.582   1.860
 3637SOL    HW211811   0.073   2.432   1.923
 3638SOL     OW11812   0.057   3.896   3.137
 3638SOL    HW111813   0.151   3.931   3.134
 3638SOL    HW211814   0.018   3.898   3.045
 3639SOL     OW11815   4.092   5.208   0.617
 3639SOL    HW111816   4.017   5.258   0.662
 3639SOL    HW211817   4.097   5.235   0.521
 3640SOL     OW11818   4.654   1.231   0.119
 3640SOL    HW111819   4.681   1.279   0.202
 3640SOL    HW211820   4.717   1.156   0.101
 3641SOL     OW11821   6.133   3.715   1.960
 3641SOL    HW111822   6.051   3.720   1.903
 3641SOL    HW211823   6.146   3.802   2.007
 3642SOL     OW11824   5.013   2.366   7.009
 3642SOL    HW111825   5.058   2.277   7.011
 3642SOL    HW211826   4.986   2.392   0.079
 3643SOL     OW11827   2.903   5.729   4.789
 3643SOL    HW111828   2.855   5.814   4.813
 3643SOL    HW211829   2.853   5.651   4.826
 3644SOL     OW11830   2.055   1.361   1.982
 3644SOL    HW111831   2.155   1.363   1.979
 3644SOL    HW211832   2.021   1.281   1.931
 3645SOL     OW11833   2.018   2.401   3.965
 3645SOL    HW111834   2.005   2.494   4.002
 3645SOL    HW211835   2.003   2.334   4.038
 3646SOL     OW11836   1.211   3.999   5.653
 3646SOL    HW111837   1.131   4.003   5.714
 3646SOL    HW211838   1.294   3.985   5.707
 3647SOL     OW11839   2.326   5.999   6.701
 3647SOL    HW111840   2.377   6.049   6.771
 3647SOL    HW211841   2.234   6.039   6.692
 3648SOL     OW11842   4.484   6.216   3.242
 3648SOL    HW111843   4.458   6.296   3.296
 3648SOL    HW211844   4.529   6.245   3.158
 3649SOL     OW11845   6.034   2.903   0.708
 3649SOL    HW111846   6.027   2.949   0.797
 3649SOL    HW211847   6.026   2.804   0.722
 3650SOL     OW11848   6.205   5.331   1.689
 3650SOL    HW111849   6.237   5.363   1.599
 3650SOL    HW211850   6.240   5.392   1.760
 3651SOL     OW11851   1.079   0.579   4.175
 3651SOL    HW111852   1.166   0.626   4.161
 3651SOL    HW211853   1.069   0.505   4.108
 3652SOL     OW11854   6.294   6.719   3.470
 3652SOL    HW111855   6.333   6.686   3.384
 3652SOL    HW211856   6.259   6.812   3.457
 3653SOL     OW11857   1.488   1.503   3.161
 3653SOL    HW111858   1.446   1.542   3.243
 3653SOL    HW211859   1.514   1.576   3.099
 3654SOL     OW11860   3.700   4.737   0.569
 3654SOL    HW111861   3.605   4.763   0.587
 3654SOL    HW211862   3.710   4.709   0.474
 3655SOL     OW11863   3.359   0.503   4.044
 3655SOL    HW111864   3.404   0.508   3.954
 3655SOL    HW211865   3.297   0.581   4.054
 3656SOL     OW11866   0.463   5.350   1.443
 3656SOL    HW111867   0.450   5.352   1.542
 3656SOL    HW211868   0.428   5.263   1.406
 3657SOL     OW11869   5.091   5.447   4.758
 3657SOL    HW111870   5.052   5.446   4.850
 3657SOL    HW211871   5.123   5.356   4.734
 3658SOL     OW11872   2.849   4.786   6.629
 3658SOL    HW111873   2.784   4.710   6.623
 3658SOL    HW211874   2.823   4.847   6.703
 3659SOL     OW11875   1.620   2.613   5.959
 3659SOL    HW111876   1.537   2.668   5.948
 3659SOL    HW211877   1.664   2.637   6.046
 3660SOL     OW11878   6.068   6.474   4.400
 3660SOL    HW111879   6.050   6.523   4.485
 3660SOL    HW211880   6.167   6.472   4.384
 3661SOL     OW11881   0.099   0.615   5.046
 3661SOL    HW111882   0.166   0.634   4.974
 3661SOL    HW211883   0.121   0.529   5.091
 3662SOL     OW11884   4.305   0.777   4.407
 3662SOL    HW111885   4.372   0.852   4.404
 3662SOL    HW211886   4.235   0.798   4.475
 3663SOL     OW11887   1.899   2.999   0.437
 3663SOL    HW111888   1.927   3.057   0.361
 3663SOL    HW211889   1.921   2.904   0.416
 3664SOL     OW11890   4.347   2.329   2.093
 3664SOL    HW111891   4.423   2.306   2.154
 3664SOL    HW211892   4.381   2.385   2.018
 3665SOL     OW11893   1.006   6.183   5.040
 3665SOL    HW111894   0.918   6.229   5.028
 3665SOL    HW211895   1.036   6.144   4.954
 3666SOL     OW11896   0.939   3.966   3.146
 3666SOL    HW111897   0.972   4.055   3.177
 3666SOL    HW211898   0.848   3.950   3.183
 3667SOL     OW11899   0.294   1.461   3.785
 3667SOL    HW111900   0.288   1.539   3.846
 3667SOL    HW211901   0.332   1.383   3.835
 3668SOL     OW11902   1.220   0.660   1.152
 3668SOL    HW111903   1.184   0.753   1.154
 3668SOL    HW211904   1.183   0.608   1.228
 3669SOL     OW11905   5.780   1.728   3.501
 3669SOL    HW111906   5.710   1.661   3.476
 3669SOL    HW211907   5.870   1.685   3.498
 3670SOL     OW11908   2.589   5.230   6.963
 3670SOL    HW111909   2.632   5.194   0.023
 3670SOL    HW211910   2.560   5.324   6.979
 3671SOL     OW11911   0.081   1.988   4.103
 3671SOL    HW111912   0.032   2.075   4.102
 3671SOL    HW211913   0.035   1.924   4.042
 3672SOL     OW11914   4.760   1.973   2.739
 3672SOL    HW111915   4.799   2.044   2.798
 3672SOL    HW211916   4.660   1.980   2.740
 3673SOL     OW11917   3.732   5.871   0.121
 3673SOL    HW111918   3.756   5.845   0.215
 3673SOL    HW211919   3.731   5.790   0.063
 3674SOL     OW11920   1.917   5.907   5.775
 3674SOL    HW111921   1.909   5.926   5.677
 3674SOL    HW211922   1.978   5.829   5.789
 3675SOL     OW11923   1.664   2.553   4.179
 3675SOL    HW111924   1.678   2.539   4.277
 3675SOL    HW211925   1.662   2.464   4.133
 3676SOL     OW11926   6.034   3.788   2.374
 3676SOL    HW111927   6.133   3.777   2.360
 3676SOL    HW211928   6.016   3.816   2.468
 3677SOL     OW11929   3.069   7.005   4.250
 3677SOL    HW111930   3.164   0.013   4.258
 3677SOL    HW211931   3.009   0.050   4.293
 3678SOL     OW11932   1.166   1.322   4.685
 3678SOL    HW111933   1.214   1.362   4.607
 3678SOL    HW211934   1.068   1.334   4.674
 3679SOL     OW11935   6.989   0.394   3.352
 3679SOL    HW111936   6.995   0.373   3.450
 3679SOL    HW211937   7.022   0.488   3.336
 3680SOL     OW11938   5.047   2.721   3.981
 3680SOL    HW111939   5.015   2.768   4.063
 3680SOL    HW211940   5.139   2.752   3.958
 3681SOL     OW11941   1.031   1.049   6.391
 3681SOL    HW111942   1.063   0.978   6.328
 3681SOL    HW211943   1.110   1.100   6.426
 3682SOL     OW11944   5.500   2.317   6.903
 3682SOL    HW111945   5.427   2.304   6.836
 3682SOL    HW211946   5.464   2.368   6.981
 3683SOL     OW11947   0.381   1.202   4.362
 3683SOL    HW111948   0.345   1.109   4.353
 3683SOL    HW211949   0.479   1.198   4.380
 3684SOL     OW11950   0.845   5.421   0.396
 3684SOL    HW111951   0.903   5.347   0.431
 3684SOL    HW211952   0.839   5.414   0.296
 3685SOL     OW11953   2.074   5.687   5.679
 3685SOL    HW111954   2.154   5.708   5.624
 3685SOL    HW211955   2.009   5.635   5.625
 3686SOL     OW11956   6.139   4.929   4.376
 3686SOL    HW111957   6.068   4.885   4.320
 3686SOL    HW211958   6.229   4.911   4.337
 3687SOL     OW11959   4.620   6.400   4.145
 3687SOL    HW111960   4.701   6.355   4.107
 3687SOL    HW211961   4.648   6.457   4.223
 3688SOL     OW11962   6.645   3.262   0.150
 3688SOL    HW111963   6.590   3.209   0.085
 3688SOL    HW211964   6.617   3.358   0.147
 3689SOL     OW11965   2.171   0.740   5.752
 3689SOL    HW111966   2.191   0.740   5.654
 3689SOL    HW211967   2.086   0.790   5.769
 3690SOL     OW11968   3.850   5.293   0.728
 3690SOL    HW111969   3.803   5.215   0.684
 3690SOL    HW211970   3.782   5.363   0.751
 3691SOL     OW11971   2.720   1.732   0.225
 3691SOL    HW111972   2.685   1.814   0.270
 3691SOL    HW211973   2.759   1.757   0.136
 3692SOL     OW11974   6.501   4.956   5.623
 3692SOL    HW111975   6.416   5.001   5.647
 3692SOL    HW211976   6.578   5.012   5.653
 3693SOL     OW11977   2.162   1.994   3.290
 3693SOL    HW111978   2.127   1.974   3.382
 3693SOL    HW211979   2.226   1.921   3.263
 3694SOL     OW11980   1.782   6.785   2.358
 3694SOL    HW111981   1.690   6.797   2.322
 3694SOL    HW211982   1.784   6.707   2.420
 3695SOL     OW11983   5.226   2.384   1.414
 3695SOL    HW111984   5.206   2.345   1.324
 3695SOL    HW211985   5.325   2.396   1.423
 3696SOL     OW11986   4.525   0.399   4.342
 3696SOL    HW111987   4.624   0.415   4.341
 3696SOL    HW211988   4.504   0.320   4.285
 3697SOL     OW11989   0.113   5.850   2.882
 3697SOL    HW111990   0.039   5.913   2.855
 3697SOL    HW211991   0.200   5.899   2.880
 3698SOL     OW11992   2.372   1.035   3.387
 3698SOL    HW111993   2.328   1.056   3.300
 3698SOL    HW211994   2.343   1.102   3.456
 3699SOL     OW11995   2.212   1.106   3.828
 3699SOL    HW111996   2.235   1.170   3.754
 3699SOL    HW211997   2.254   1.017   3.810
 3700SOL     OW11998   1.675   4.589   4.786
 3700SOL    HW111999   1.605   4.560   4.721
 3700SOL    HW212000   1.765   4.560   4.753
 3701SOL     OW12001   1.655   0.324   3.473
 3701SOL    HW112002   1.721   0.267   3.424
 3701SOL    HW212003   1.604   0.380   3.407
 3702SOL     OW12004   5.322   6.461   3.091
 3702SOL    HW112005   5.411   6.504   3.106
 3702SOL    HW212006   5.267   6.468   3.173
 3703SOL     OW12007   0.302   0.430   6.607
 3703SOL    HW112008   0.386   0.412   6.556
 3703SOL    HW212009   0.324   0.476   6.693
 3704SOL     OW12010   4.070   2.376   1.521
 3704SOL    HW112011   4.009   2.382   1.601
 3704SOL    HW212012   4.048   2.450   1.457
 3705SOL     OW12013   5.871   4.292   4.270
 3705SOL    HW112014   5.804   4.220   4.254
 3705SOL    HW212015   5.957   4.267   4.225
 3706SOL     OW12016   0.295   4.023   6.549
 3706SOL    HW112017   0.310   4.008   6.647
 3706SOL    HW212018   0.229   4.096   6.536
 3707SOL     OW12019   4.789   5.743   4.707
 3707SOL    HW112020   4.871   5.756   4.651
 3707SOL    HW212021   4.793   5.654   4.752
 3708SOL     OW12022   4.829   6.774   1.368
 3708SOL    HW112023   4.883   6.858   1.360
 3708SOL    HW212024   4.869   6.715   1.438
 3709SOL     OW12025   3.015   0.348   1.196
 3709SOL    HW112026   2.964   0.320   1.277
 3709SOL    HW212027   3.091   0.407   1.222
 3710SOL     OW12028   0.040   5.546   5.245
 3710SOL    HW112029   6.981   5.491   5.259
 3710SOL    HW212030   0.120   5.487   5.234
 3711SOL     OW12031   1.480   5.722   5.426
 3711SOL    HW112032   1.529   5.809   5.434
 3711SOL    HW212033   1.429   5.719   5.340
 3712SOL     OW12034   1.371   5.567   6.798
 3712SOL    HW112035   1.278   5.602   6.804
 3712SOL    HW212036   1.377   5.499   6.725
 3713SOL     OW12037   0.420   0.154   5.305
 3713SOL    HW112038   0.349   0.186   5.367
 3713SOL    HW212039   0.473   0.232   5.271
 3714SOL     OW12040   5.542   5.753   6.815
 3714SOL    HW112041   5.505   5.695   6.742
 3714SOL    HW212042   5.467   5.792   6.868
 3715SOL     OW12043   1.429   4.660   2.293
 3715SOL    HW112044   1.510   4.629   2.242
 3715SOL    HW212045   1.406   4.592   2.362
 3716SOL     OW12046   6.231   6.189   4.935
 3716SOL    HW112047   6.313   6.157   4.889
 3716SOL    HW212048   6.224   6.289   4.926
 3717SOL     OW12049   5.681   0.396   6.961
 3717SOL    HW112050   5.646   0.310   6.997
 3717SOL    HW212051   5.761   0.423   7.014
 3718SOL     OW12052   0.141   0.303   6.972
 3718SOL    HW112053   0.133   0.209   6.939
 3718SOL    HW212054   0.050   0.340   6.990
 3719SOL     OW12055   4.515   2.625   0.456
 3719SOL    HW112056   4.508   2.715   0.499
 3719SOL    HW212057   4.544   2.557   0.524
 3720SOL     OW12058   5.283   3.257   0.657
 3720SOL    HW112059   5.320   3.172   0.618
 3720SOL    HW212060   5.190   3.241   0.689
 3721SOL     OW12061   0.057   4.508   0.728
 3721SOL    HW112062   0.088   4.568   0.802
 3721SOL    HW212063   0.115   4.521   0.648
 3722SOL     OW12064   5.415   6.074   1.181
 3722SOL    HW112065   5.417   6.173   1.166
 3722SOL    HW212066   5.466   6.052   1.264
 3723SOL     OW12067   4.427   4.945   0.540
 3723SOL    HW112068   4.428   5.006   0.619
 3723SOL    HW212069   4.407   4.852   0.570
 3724SOL     OW12070   1.926   4.253   5.763
 3724SOL    HW112071   1.907   4.329   5.701
 3724SOL    HW212072   1.883   4.170   5.728
 3725SOL     OW12073   0.652   5.976   6.616
 3725SOL    HW112074   0.584   5.915   6.576
 3725SOL    HW212075   0.620   6.071   6.608
 3726SOL     OW12076   5.417   3.503   5.658
 3726SOL    HW112077   5.454   3.482   5.749
 3726SOL    HW212078   5.489   3.490   5.589
 3727SOL     OW12079   6.921   2.965   5.518
 3727SOL    HW112080   6.951   2.888   5.462
 3727SOL    HW212081   6.823   2.957   5.537
 3728SOL     OW12082   1.227   3.395   6.744
 3728SOL    HW112083   1.209   3.471   6.682
 3728SOL    HW212084   1.164   3.320   6.725
 3729SOL     OW12085   1.529   1.836   4.101
 3729SOL    HW112086   1.623   1.849   4.068
 3729SOL    HW212087   1.492   1.924   4.131
 3730SOL     OW12088   4.011   6.067   5.377
 3730SOL    HW112089   3.942   6.013   5.329
 3730SOL    HW212090   3.994   6.064   5.475
 3731SOL     OW12091   0.517   1.577   0.569
 3731SOL    HW112092   0.606   1.603   0.608
 3731SOL    HW212093   0.451   1.650   0.585
 3732SOL     OW12094   2.608   1.935   0.344
 3732SOL    HW112095   2.594   2.033   0.338
 3732SOL    HW212096   2.522   1.887   0.327
 3733SOL     OW12097   2.340   2.428   3.459
 3733SOL    HW112098   2.296   2.341   3.481
 3733SOL    HW212099   2.272   2.501   3.462
 3734SOL     OW12100   4.597   0.257   1.145
 3734SOL    HW112101   4.534   0.323   1.104
 3734SOL    HW212102   4.577   0.249   1.243
 3735SOL     OW12103   2.908   0.737   2.678
 3735SOL    HW112104   2.938   0.685   2.598
 3735SOL    HW212105   2.835   0.686   2.724
 3736SOL     OW12106   0.078   1.386   1.223
 3736SOL    HW112107   0.076   1.286   1.225
 3736SOL    HW212108   0.136   1.417   1.148
 3737SOL     OW12109   5.865   1.187   3.754
 3737SOL    HW112110   5.900   1.275   3.722
 3737SOL    HW212111   5.858   1.188   3.853
 3738SOL     OW12112   6.290   0.667   1.193
 3738SOL    HW112113   6.285   0.751   1.247
 3738SOL    HW212114   6.372   0.616   1.219
 3739SOL     OW12115   2.266   4.397   1.431
 3739SOL    HW112116   2.323   4.331   1.479
 3739SOL    HW212117   2.212   4.449   1.496
 3740SOL     OW12118   6.564   6.288   0.554
 3740SOL    HW112119   6.485   6.318   0.501
 3740SOL    HW212120   6.554   6.318   0.649
 3741SOL     OW12121   5.100   2.492   6.382
 3741SOL    HW112122   5.050   2.572   6.351
 3741SOL    HW212123   5.127   2.505   6.478
 3742SOL     OW12124   4.135   0.583   0.509
 3742SOL    HW112125   4.148   0.603   0.412
 3742SOL    HW212126   4.160   0.488   0.527
 3743SOL     OW12127   5.500   3.120   1.006
 3743SOL    HW112128   5.533   3.112   1.100
 3743SOL    HW212129   5.427   3.188   1.002
 3744SOL     OW12130   1.137   6.084   1.792
 3744SOL    HW112131   1.232   6.084   1.761
 3744SOL    HW212132   1.122   6.160   1.854
 3745SOL     OW12133   5.104   3.995   3.171
 3745SOL    HW112134   5.144   3.959   3.256
 3745SOL    HW212135   5.031   3.934   3.141
 3746SOL     OW12136   6.705   0.213   3.915
 3746SOL    HW112137   6.610   0.185   3.905
 3746SOL    HW212138   6.727   0.283   3.848
 3747SOL     OW12139   4.480   5.827   5.066
 3747SOL    HW112140   4.543   5.757   5.101
 3747SOL    HW212141   4.386   5.797   5.078
 3748SOL     OW12142   5.162   1.289   1.704
 3748SOL    HW112143   5.173   1.355   1.778
 3748SOL    HW212144   5.166   1.337   1.616
 3749SOL     OW12145   2.493   4.922   2.971
 3749SOL    HW112146   2.415   4.956   3.024
 3749SOL    HW212147   2.484   4.952   2.876
 3750SOL     OW12148   6.358   4.547   0.736
 3750SOL    HW112149   6.444   4.559   0.786
 3750SOL    HW212150   6.323   4.455   0.752
 3751SOL     OW12151   6.638   3.321   0.890
 3751SOL    HW112152   6.699   3.365   0.825
 3751SOL    HW212153   6.572   3.388   0.924
 3752SOL     OW12154   0.307   6.909   0.091
 3752SOL    HW112155   0.305   7.008   0.075
 3752SOL    HW212156   0.293   6.861   0.005
 3753SOL     OW12157   6.958   1.247   4.186
 3753SOL    HW112158   7.001   1.161   4.158
 3753SOL    HW212159   7.020   1.323   4.167
 3754SOL     OW12160   3.964   6.504   1.086
 3754SOL    HW112161   3.904   6.446   1.031
 3754SOL    HW212162   3.911   6.578   1.127
 3755SOL     OW12163   5.992   5.721   4.234
 3755SOL    HW112164   5.919   5.676   4.183
 3755SOL    HW212165   5.960   5.808   4.269
 3756SOL     OW12166   2.340   6.570   5.606
 3756SOL    HW112167   2.416   6.505   5.603
 3756SOL    HW212168   2.286   6.556   5.689
 3757SOL     OW12169   3.677   6.652   6.471
 3757SOL    HW112170   3.724   6.567   6.498
 3757SOL    HW212171   3.636   6.641   6.381
 3758SOL     OW12172   1.715   1.338   4.802
 3758SOL    HW112173   1.671   1.313   4.716
 3758SOL    HW212174   1.729   1.256   4.858
 3759SOL     OW12175   4.696   5.581   6.257
 3759SOL    HW112176   4.777   5.591   6.316
 3759SOL    HW212177   4.668   5.671   6.224
 3760SOL     OW12178   1.843   2.550   4.406
 3760SOL    HW112179   1.907   2.474   4.413
 3760SOL    HW212180   1.882   2.630   4.452
 3761SOL     OW12181   0.616   0.570   5.602
 3761SOL    HW112182   0.645   0.595   5.695
 3761SOL    HW212183   0.569   0.482   5.605
 3762SOL     OW12184   0.910   5.114   7.007
 3762SOL    HW112185   0.851   5.105   6.928
 3762SOL    HW212186   0.880   5.051   0.056
 3763SOL     OW12187   6.887   4.426   6.898
 3763SOL    HW112188   6.815   4.406   6.965
 3763SOL    HW212189   6.972   4.381   6.926
 3764SOL     OW12190   1.960   0.016   3.668
 3764SOL    HW112191   1.872   0.041   3.708
 3764SOL    HW212192   1.950   6.954   3.615
 3765SOL     OW12193   4.986   1.436   1.060
 3765SOL    HW112194   5.013   1.532   1.048
 3765SOL    HW212195   4.891   1.424   1.031
 3766SOL     OW12196   0.874   1.114   3.431
 3766SOL    HW112197   0.868   1.182   3.357
 3766SOL    HW212198   0.892   1.024   3.392
 3767SOL     OW12199   2.261   5.261   0.156
 3767SOL    HW112200   2.310   5.347   0.139
 3767SOL    HW212201   2.310   5.209   0.226
 3768SOL     OW12202   2.003   5.943   4.889
 3768SOL    HW112203   1.928   5.991   4.845
 3768SOL    HW212204   1.996   5.845   4.868
 3769SOL     OW12205   5.756   5.704   5.662
 3769SOL    HW112206   5.734   5.798   5.686
 3769SOL    HW212207   5.679   5.644   5.684
 3770SOL     OW12208   1.874   0.001   6.715
 3770SOL    HW112209   1.893   0.007   6.813
 3770SOL    HW212210   1.781   6.989   6.701
 3771SOL     OW12211   6.167   3.196   6.690
 3771SOL    HW112212   6.095   3.190   6.760
 3771SOL    HW212213   6.226   3.116   6.696
 3772SOL     OW12214   0.435   0.827   0.410
 3772SOL    HW112215   0.478   0.916   0.396
 3772SOL    HW212216   0.344   0.826   0.370
 3773SOL     OW12217   6.661   2.958   6.571
 3773SOL    HW112218   6.665   3.025   6.646
 3773SOL    HW212219   6.627   3.002   6.489
 3774SOL     OW12220   0.542   6.002   0.183
 3774SOL    HW112221   0.578   5.990   0.091
 3774SOL    HW212222   0.541   6.099   0.206
 3775SOL     OW12223   5.071   4.914   2.160
 3775SOL    HW112224   4.997   4.982   2.160
 3775SOL    HW212225   5.061   4.854   2.081
 3776SOL     OW12226   4.223   1.503   1.342
 3776SOL    HW112227   4.181   1.578   1.291
 3776SOL    HW212228   4.256   1.536   1.430
 3777SOL     OW12229   3.505   4.946   4.944
 3777SOL    HW112230   3.420   4.899   4.970
 3777SOL    HW212231   3.517   5.027   5.000
 3778SOL     OW12232   3.331   4.939   2.940
 3778SOL    HW112233   3.352   4.908   2.848
 3778SOL    HW212234   3.233   4.959   2.947
 3779SOL     OW12235   2.250   4.938   0.919
 3779SOL    HW112236   2.327   4.876   0.909
 3779SOL    HW212237   2.223   4.943   1.015
 3780SOL     OW12238   4.934   6.033   6.050
 3780SOL    HW112239   4.836   6.041   6.030
 3780SOL    HW212240   4.962   5.938   6.040
 3781SOL     OW12241   1.487   0.053   4.099
 3781SOL    HW112242   1.587   0.053   4.102
 3781SOL    HW212243   1.452   6.994   4.145
 3782SOL     OW12244   2.684   0.993   4.462
 3782SOL    HW112245   2.639   1.051   4.529
 3782SOL    HW212246   2.782   1.011   4.461
 3783SOL     OW12247   5.542   5.889   4.347
 3783SOL    HW112248   5.577   5.926   4.261
 3783SOL    HW212249   5.497   5.802   4.331
 3784SOL     OW12250   5.008   2.604   2.749
 3784SOL    HW112251   5.001   2.630   2.845
 3784SOL    HW212252   4.963   2.672   2.691
 3785SOL     OW12253   1.240   1.554   6.969
 3785SOL    HW112254   1.290   1.609   6.902
 3785SOL    HW212255   1.175   1.495   6.922
 3786SOL     OW12256   2.580   6.841   3.034
 3786SOL    HW112257   2.563   6.829   2.936
 3786SOL    HW212258   2.537   6.767   3.085
 3787SOL     OW12259   5.858   0.266   2.485
 3787SOL    HW112260   5.853   0.196   2.556
 3787SOL    HW212261   5.914   0.232   2.409
 3788SOL     OW12262   1.143   4.018   4.305
 3788SOL    HW112263   1.166   3.925   4.332
 3788SOL    HW212264   1.096   4.065   4.380
 3789SOL     OW12265   0.193   3.546   5.098
 3789SOL    HW112266   0.116   3.491   5.131
 3789SOL    HW212267   0.225   3.510   5.011
 3790SOL     OW12268   1.729   4.645   5.654
 3790SOL    HW112269   1.812   4.589   5.666
 3790SOL    HW212270   1.657   4.589   5.615
 3791SOL     OW12271   6.491   6.972   0.339
 3791SOL    HW112272   6.458   0.030   0.289
 3791SOL    HW212273   6.415   6.930   0.388
 3792SOL     OW12274   0.709   0.810   4.585
 3792SOL    HW112275   0.675   0.904   4.585
 3792SOL    HW212276   0.640   0.750   4.626
 3793SOL     OW12277   4.344   0.117   2.369
 3793SOL    HW112278   4.260   0.080   2.330
 3793SOL    HW212279   4.327   0.145   2.464
 3794SOL     OW12280   2.229   4.092   0.650
 3794SOL    HW112281   2.195   4.174   0.696
 3794SOL    HW212282   2.168   4.015   0.669
 3795SOL     OW12283   3.791   6.096   6.018
 3795SOL    HW112284   3.758   6.187   5.996
 3795SOL    HW212285   3.734   6.056   6.090
 3796SOL     OW12286   2.966   1.684   0.732
 3796SOL    HW112287   3.008   1.767   0.697
 3796SOL    HW212288   2.876   1.672   0.692
 3797SOL     OW12289   6.681   4.182   2.656
 3797SOL    HW112290   6.680   4.124   2.737
 3797SOL    HW212291   6.707   4.275   2.682
 3798SOL     OW12292   3.444   6.226   2.774
 3798SOL    HW112293   3.465   6.318   2.808
 3798SOL    HW212294   3.497   6.159   2.824
 3799SOL     OW12295   0.809   2.412   4.082
 3799SOL    HW112296   0.898   2.373   4.060
 3799SOL    HW212297   0.737   2.364   4.032
 3800SOL     OW12298   5.682   3.272   4.483
 3800SOL    HW112299   5.696   3.332   4.562
 3800SOL    HW212300   5.634   3.323   4.412
 3801SOL     OW12301   6.002   6.292   3.066
 3801SOL    HW112302   6.091   6.248   3.059
 3801SOL    HW212303   5.965   6.277   3.157
 3802SOL     OW12304   1.202   2.541   3.093
 3802SOL    HW112305   1.214   2.607   3.167
 3802SOL    HW212306   1.148   2.464   3.125
 3803SOL     OW12307   3.657   2.218   1.386
 3803SOL    HW112308   3.685   2.223   1.482
 3803SOL    HW212309   3.732   2.183   1.331
 3804SOL     OW12310   5.057   1.660   3.552
 3804SOL    HW112311   5.146   1.701   3.532
 3804SOL    HW212312   4.996   1.729   3.591
 3805SOL     OW12313   2.754   3.383   1.956
 3805SOL    HW112314   2.687   3.354   2.024
 3805SOL    HW212315   2.763   3.312   1.886
 3806SOL     OW12316   3.200   3.967   0.048
 3806SOL    HW112317   3.119   4.009   0.007
 3806SOL    HW212318   3.256   4.038   0.092
 3807SOL     OW12319   2.422   6.594   3.669
 3807SOL    HW112320   2.423   6.686   3.707
 3807SOL    HW212321   2.424   6.527   3.744
 3808SOL     OW12322   4.391   0.428   1.027
 3808SOL    HW112323   4.331   0.459   1.101
 3808SOL    HW212324   4.352   0.456   0.939
 3809SOL     OW12325   5.842   2.879   0.473
 3809SOL    HW112326   5.916   2.851   0.534
 3809SOL    HW212327   5.862   2.849   0.380
 3810SOL     OW12328   4.678   2.224   5.161
 3810SOL    HW112329   4.625   2.158   5.108
 3810SOL    HW212330   4.751   2.263   5.104
 3811SOL     OW12331   1.413   4.333   3.978
 3811SOL    HW112332   1.488   4.277   4.013
 3811SOL    HW212333   1.326   4.289   4.000
 3812SOL     OW12334   4.943   0.014   5.215
 3812SOL    HW112335   4.851   0.044   5.240
 3812SOL    HW212336   5.011   0.065   5.269
 3813SOL     OW12337   4.620   3.928   0.348
 3813SOL    HW112338   4.577   4.018   0.335
 3813SOL    HW212339   4.617   3.903   0.445
 3814SOL     OW12340   0.291   0.031   0.812
 3814SOL    HW112341   0.382   0.062   0.783
 3814SOL    HW212342   0.251   6.996   0.741
 3815SOL     OW12343   4.468   2.911   0.319
 3815SOL    HW112344   4.536   2.930   0.249
 3815SOL    HW212345   4.514   2.893   0.406
 3816SOL     OW12346   0.572   6.232   0.464
 3816SOL    HW112347   0.564   6.260   0.369
 3816SOL    HW212348   0.666   6.247   0.496
 3817SOL     OW12349   5.124   3.583   3.266
 3817SOL    HW112350   5.154   3.565   3.172
 3817SOL    HW212351   5.201   3.571   3.328
 3818SOL     OW12352   5.367   0.116   0.219
 3818SOL    HW112353   5.313   0.183   0.270
 3818SOL    HW212354   5.401   0.046   0.282
 3819SOL     OW12355   5.298   5.317   1.270
 3819SOL    HW112356   5.259   5.379   1.202
 3819SOL    HW212357   5.361   5.369   1.329
 3820SOL     OW12358   6.416   6.676   3.227
 3820SOL    HW112359   6.436   6.758   3.172
 3820SOL    HW212360   6.502   6.632   3.252
 3821SOL     OW12361   2.649   2.278   0.717
 3821SOL    HW112362   2.575   2.313   0.660
 3821SOL    HW212363   2.639   2.179   0.729
 3822SOL     OW12364   1.763   6.034   3.170
 3822SOL    HW112365   1.717   6.091   3.238
 3822SOL    HW212366   1.779   5.943   3.209
 3823SOL     OW12367   3.161   2.553   6.004
 3823SOL    HW112368   3.085   2.596   5.956
 3823SOL    HW212369   3.247   2.583   5.964
 3824SOL     OW12370   5.880   1.751   0.003
 3824SOL    HW112371   5.881   1.764   6.926
 3824SOL    HW212372   5.791   1.717   0.031
 3825SOL     OW12373   0.225   6.887   0.598
 3825SOL    HW112374   0.198   6.849   0.510
 3825SOL    HW212375   0.324   6.874   0.611
 3826SOL     OW12376   0.215   3.348   0.309
 3826SOL    HW112377   0.203   3.420   0.241
 3826SOL    HW212378   0.146   3.359   0.381
 3827SOL     OW12379   3.070   2.688   1.104
 3827SOL    HW112380   3.036   2.727   1.190
 3827SOL    HW212381   3.170   2.699   1.099
 3828SOL     OW12382   3.990   2.305   1.801
 3828SOL    HW112383   3.996   2.223   1.859
 3828SOL    HW212384   3.901   2.348   1.813
 3829SOL     OW12385   2.285   4.239   4.564
 3829SOL    HW112386   2.266   4.143   4.547
 3829SOL    HW212387   2.284   4.256   4.663
 3830SOL     OW12388   0.872   0.132   4.950
 3830SOL    HW112389   0.953   0.119   4.893
 3830SOL    HW212390   0.880   0.075   5.032
 3831SOL     OW12391   4.864   1.651   2.578
 3831SOL    HW112392   4.772   1.619   2.555
 3831SOL    HW212393   4.866   1.678   2.674
 3832SOL     OW12394   5.717   0.601   2.331
 3832SOL    HW112395   5.757   0.546   2.404
 3832SOL    HW212396   5.725   0.698   2.355
 3833SOL     OW12397   0.900   5.649   6.149
 3833SOL    HW112398   0.951   5.718   6.097
 3833SOL    HW212399   0.931   5.558   6.122
 3834SOL     OW12400   3.572   2.822   0.944
 3834SOL    HW112401   3.633   2.900   0.952
 3834SOL    HW212402   3.488   2.840   0.994
 3835SOL     OW12403   2.883   5.252   5.155
 3835SOL    HW112404   2.961   5.295   5.109
 3835SOL    HW212405   2.812   5.232   5.087
 3836SOL     OW12406   1.766   4.012   5.698
 3836SOL    HW112407   1.746   3.923   5.656
 3836SOL    HW212408   1.738   4.011   5.794
 3837SOL     OW12409   4.892   3.752   0.050
 3837SOL    HW112410   4.970   3.791   0.001
 3837SOL    HW212411   4.922   3.675   0.105
 3838SOL     OW12412   6.919   3.761   4.174
 3838SOL    HW112413   6.868   3.844   4.151
 3838SOL    HW212414   6.990   3.745   4.105
 3839SOL     OW12415   4.069   0.589   4.405
 3839SOL    HW112416   4.166   0.608   4.394
 3839SOL    HW212417   4.020   0.675   4.422
 3840SOL     OW12418   1.965   0.906   5.207
 3840SOL    HW112419   1.993   0.985   5.152
 3840SOL    HW212420   1.957   0.933   5.303
 3841SOL     OW12421   0.401   3.338   5.106
 3841SOL    HW112422   0.375   3.421   5.155
 3841SOL    HW212423   0.501   3.336   5.095
 3842SOL     OW12424   0.860   4.352   6.810
 3842SOL    HW112425   0.842   4.268   6.759
 3842SOL    HW212426   0.785   4.369   6.874
 3843SOL     OW12427   7.022   4.909   1.849
 3843SOL    HW112428   6.956   4.945   1.782
 3843SOL    HW212429   0.067   4.853   1.802
 3844SOL     OW12430   6.784   3.700   6.120
 3844SOL    HW112431   6.875   3.668   6.148
 3844SOL    HW212432   6.728   3.714   6.201
 3845SOL     OW12433   3.853   2.975   2.905
 3845SOL    HW112434   3.786   2.918   2.954
 3845SOL    HW212435   3.900   3.034   2.970
 3846SOL     OW12436   0.469   4.149   4.048
 3846SOL    HW112437   0.569   4.149   4.049
 3846SOL    HW212438   0.437   4.166   3.955
 3847SOL     OW12439   6.067   1.125   5.283
 3847SOL    HW112440   6.020   1.048   5.326
 3847SOL    HW212441   6.099   1.097   5.192
 3848SOL     OW12442   3.220   5.440   2.743
 3848SOL    HW112443   3.161   5.520   2.733
 3848SOL    HW212444   3.228   5.416   2.840
 3849SOL     OW12445   0.787   1.754   5.015
 3849SOL    HW112446   0.716   1.694   5.051
 3849SOL    HW212447   0.852   1.700   4.961
 3850SOL     OW12448   2.629   3.321   1.438
 3850SOL    HW112449   2.619   3.358   1.531
 3850SOL    HW212450   2.542   3.331   1.389
 3851SOL     OW12451   1.230   4.332   3.011
 3851SOL    HW112452   1.304   4.271   3.039
 3851SOL    HW212453   1.268   4.404   2.952
 3852SOL     OW12454   4.645   6.918   4.257
 3852SOL    HW112455   4.667   7.006   4.299
 3852SOL    HW212456   4.729   6.873   4.229
 3853SOL     OW12457   1.796   3.052   2.720
 3853SOL    HW112458   1.703   3.051   2.756
 3853SOL    HW212459   1.854   2.991   2.775
 3854SOL     OW12460   1.253   3.867   2.633
 3854SOL    HW112461   1.330   3.839   2.690
 3854SOL    HW212462   1.175   3.807   2.649
 3855SOL     OW12463   4.579   5.734   6.900
 3855SOL    HW112464   4.573   5.813   6.838
 3855SOL    HW212465   4.550   5.651   6.851
 3856SOL     OW12466   6.927   6.280   5.327
 3856SOL    HW112467   6.840   6.281   5.376
 3856SOL    HW212468   6.909   6.271   5.228
 3857SOL     OW12469   1.081   5.775   5.945
 3857SOL    HW112470   1.140   5.806   5.870
 3857SOL    HW212471   1.000   5.730   5.908
 3858SOL     OW12472   1.532   6.244   5.703
 3858SOL    HW112473   1.545   6.340   5.676
 3858SOL    HW212474   1.612   6.214   5.756
 3859SOL     OW12475   6.860   2.542   2.634
 3859SOL    HW112476   6.903   2.551   2.724
 3859SOL    HW212477   6.930   2.518   2.566
 3860SOL     OW12478   1.363   0.261   5.468
 3860SOL    HW112479   1.290   0.242   5.402
 3860SOL    HW212480   1.451   0.239   5.427
 3861SOL     OW12481   5.176   4.300   1.901
 3861SOL    HW112482   5.172   4.355   1.984
 3861SOL    HW212483   5.198   4.206   1.925
 3862SOL     OW12484   0.108   6.722   5.142
 3862SOL    HW112485   0.128   6.773   5.226
 3862SOL    HW212486   0.182   6.736   5.076
 3863SOL     OW12487   3.594   4.285   6.571
 3863SOL    HW112488   3.641   4.268   6.658
 3863SOL    HW212489   3.648   4.249   6.496
 3864SOL     OW12490   4.127   1.820   5.795
 3864SOL    HW112491   4.073   1.763   5.857
 3864SOL    HW212492   4.085   1.819   5.704
 3865SOL     OW12493   3.845   0.674   1.525
 3865SOL    HW112494   3.914   0.726   1.475
 3865SOL    HW212495   3.844   0.701   1.621
 3866SOL     OW12496   4.032   0.745   0.989
 3866SOL    HW112497   4.024   0.691   0.906
 3866SOL    HW212498   4.106   0.812   0.979
 3867SOL     OW12499   1.288   3.383   4.332
 3867SOL    HW112500   1.191   3.397   4.312
 3867SOL    HW212501   1.311   3.287   4.320
 3868SOL     OW12502   2.067   6.603   1.760
 3868SOL    HW112503   2.049   6.578   1.855
 3868SOL    HW212504   2.077   6.519   1.705
 3869SOL     OW12505   6.978   3.124   4.565
 3869SOL    HW112506   6.884   3.104   4.590
 3869SOL    HW212507   6.982   3.151   4.469
 3870SOL     OW12508   4.431   4.678   0.636
 3870SOL    HW112509   4.363   4.610   0.610
 3870SOL    HW212510   4.521   4.635   0.643
 3871SOL     OW12511   3.393   0.862   2.214
 3871SOL    HW112512   3.344   0.895   2.294
 3871SOL    HW212513   3.463   0.929   2.187
 3872SOL     OW12514   3.032   3.066   1.932
 3872SOL    HW112515   3.045   3.090   2.028
 3872SOL    HW212516   3.037   2.967   1.921
 3873SOL     OW12517   5.892   5.682   1.336
 3873SOL    HW112518   5.797   5.650   1.328
 3873SOL    HW212519   5.920   5.680   1.433
 3874SOL     OW12520   3.858   6.358   7.005
 3874SOL    HW112521   3.812   6.270   7.017
 3874SOL    HW212522   3.869   6.403   0.071
 3875SOL     OW12523   1.200   3.110   2.379
 3875SOL    HW112524   1.200   3.059   2.294
 3875SOL    HW212525   1.288   3.157   2.390
 3876SOL     OW12526   5.800   5.599   6.271
 3876SOL    HW112527   5.746   5.523   6.234
 3876SOL    HW212528   5.854   5.640   6.198
 3877SOL     OW12529   6.887   1.370   0.478
 3877SOL    HW112530   6.812   1.344   0.417
 3877SOL    HW212531   6.857   1.363   0.573
 3878SOL     OW12532   2.503   6.299   5.675
 3878SOL    HW112533   2.530   6.203   5.668
 3878SOL    HW212534   2.422   6.307   5.732
 3879SOL     OW12535   4.221   6.181   1.370
 3879SOL    HW112536   4.148   6.113   1.365
 3879SOL    HW212537   4.230   6.226   1.281
 3880SOL     OW12538   5.850   4.003   3.186
 3880SOL    HW112539   5.931   3.990   3.129
 3880SOL    HW212540   5.768   3.991   3.130
 3881SOL     OW12541   1.415   5.302   0.804
 3881SOL    HW112542   1.470   5.254   0.872
 3881SOL    HW212543   1.466   5.306   0.718
 3882SOL     OW12544   6.224   1.245   4.917
 3882SOL    HW112545   6.317   1.219   4.893
 3882SOL    HW212546   6.224   1.339   4.951
 3883SOL     OW12547   4.553   1.467   4.188
 3883SOL    HW112548   4.518   1.374   4.194
 3883SOL    HW212549   4.512   1.513   4.109
 3884SOL     OW12550   1.206   6.453   4.676
 3884SOL    HW112551   1.179   6.400   4.756
 3884SOL    HW212552   1.304   6.473   4.680
 3885SOL     OW12553   6.491   1.184   4.789
 3885SOL    HW112554   6.579   1.214   4.752
 3885SOL    HW212555   6.417   1.210   4.727
 3886SOL     OW12556   6.009   0.253   5.560
 3886SOL    HW112557   5.932   0.295   5.512
 3886SOL    HW212558   6.092   0.306   5.541
 3887SOL     OW12559   5.734   2.181   5.718
 3887SOL    HW112560   5.671   2.259   5.730
 3887SOL    HW212561   5.687   2.109   5.667
 3888SOL     OW12562   6.953   0.472   6.287
 3888SOL    HW112563   0.021   0.486   6.327
 3888SOL    HW212564   6.883   0.503   6.351
 3889SOL     OW12565   0.190   4.684   6.477
 3889SOL    HW112566   0.132   4.733   6.412
 3889SOL    HW212567   0.170   4.716   6.569
 3890SOL     OW12568   6.530   6.618   2.896
 3890SOL    HW112569   6.535   6.556   2.975
 3890SOL    HW212570   6.436   6.627   2.865
 3891SOL     OW12571   5.109   4.393   5.047
 3891SOL    HW112572   5.041   4.457   5.014
 3891SOL    HW212573   5.168   4.438   5.114
 3892SOL     OW12574   1.226   0.337   2.101
 3892SOL    HW112575   1.167   0.378   2.170
 3892SOL    HW212576   1.251   0.244   2.129
 3893SOL     OW12577   3.659   5.851   2.762
 3893SOL    HW112578   3.566   5.814   2.772
 3893SOL    HW212579   3.658   5.924   2.694
 3894SOL     OW12580   3.608   2.466   0.558
 3894SOL    HW112581   3.628   2.544   0.617
 3894SOL    HW212582   3.590   2.385   0.614
 3895SOL     OW12583   0.946   0.744   5.660
 3895SOL    HW112584   0.878   0.745   5.586
 3895SOL    HW212585   1.019   0.679   5.638
 3896SOL     OW12586   0.718   2.438   6.274
 3896SOL    HW112587   0.725   2.400   6.181
 3896SOL    HW212588   0.652   2.513   6.274
 3897SOL     OW12589   3.037   6.396   2.481
 3897SOL    HW112590   2.988   6.321   2.437
 3897SOL    HW212591   3.090   6.446   2.412
 3898SOL     OW12592   3.265   3.042   3.356
 3898SOL    HW112593   3.259   3.112   3.286
 3898SOL    HW212594   3.200   3.063   3.429
 3899SOL     OW12595   5.206   1.019   4.600
 3899SOL    HW112596   5.250   0.998   4.688
 3899SOL    HW212597   5.172   1.113   4.602
 3900SOL     OW12598   5.756   2.786   3.176
 3900SOL    HW112599   5.752   2.730   3.259
 3900SOL    HW212600   5.817   2.743   3.109
 3901SOL     OW12601   1.739   6.166   5.867
 3901SOL    HW112602   1.797   6.141   5.790
 3901SOL    HW212603   1.774   6.249   5.910
 3902SOL     OW12604   4.770   4.349   3.026
 3902SOL    HW112605   4.725   4.317   2.943
 3902SOL    HW212606   4.859   4.305   3.035
 3903SOL     OW12607   4.304   4.103   6.766
 3903SOL    HW112608   4.302   4.066   6.859
 3903SOL    HW212609   4.214   4.095   6.724
 3904SOL     OW12610   1.040   0.014   0.012
 3904SOL    HW112611   1.051   0.005   0.111
 3904SOL    HW212612   0.999   6.952   6.999
 3905SOL     OW12613   6.282   6.393   6.651
 3905SOL    HW112614   6.279   6.402   6.552
 3905SOL    HW212615   6.194   6.358   6.684
 3906SOL     OW12616   1.827   4.482   4.519
 3906SOL    HW112617   1.886   4.402   4.512
 3906SOL    HW212618   1.878   4.563   4.490
 3907SOL     OW12619   0.338   0.910   5.062
 3907SOL    HW112620   0.395   0.859   4.999
 3907SOL    HW212621   0.391   0.983   5.105
 3908SOL     OW12622   1.073   0.292   6.155
 3908SOL    HW112623   1.122   0.228   6.096
 3908SOL    HW212624   1.024   0.242   6.226
 3909SOL     OW12625   5.129   3.898   6.377
 3909SOL    HW112626   5.031   3.909   6.394
 3909SOL    HW212627   5.177   3.982   6.404
 3910SOL     OW12628   3.561   3.774   1.958
 3910SOL    HW112629   3.520   3.724   2.034
 3910SOL    HW212630   3.595   3.862   1.991
 3911SOL     OW12631   5.399   0.258   0.636
 3911SOL    HW112632   5.460   0.189   0.676
 3911SOL    HW212633   5.308   0.248   0.676
 3912SOL     OW12634   3.081   0.948   5.803
 3912SOL    HW112635   3.060   0.872   5.864
 3912SOL    HW212636   3.057   0.922   5.709
 3913SOL     OW12637   3.730   6.138   0.160
 3913SOL    HW112638   3.754   6.044   0.135
 3913SOL    HW212639   3.705   6.141   0.257
 3914SOL     OW12640   5.198   1.664   1.700
 3914SOL    HW112641   5.158   1.754   1.713
 3914SOL    HW212642   5.200   1.641   1.603
 3915SOL     OW12643   3.018   6.515   0.418
 3915SOL    HW112644   3.008   6.454   0.339
 3915SOL    HW212645   3.114   6.520   0.444
 3916SOL     OW12646   3.333   0.144   2.953
 3916SOL    HW112647   3.341   0.215   3.023
 3916SOL    HW212648   3.275   0.070   2.987
 3917SOL     OW12649   2.499   5.242   0.409
 3917SOL    HW112650   2.428   5.177   0.439
 3917SOL    HW212651   2.496   5.324   0.466
 3918SOL     OW12652   4.857   1.546   0.514
 3918SOL    HW112653   4.950   1.516   0.493
 3918SOL    HW212654   4.828   1.616   0.448
 3919SOL     OW12655   4.201   1.003   1.052
 3919SOL    HW112656   4.144   1.030   0.975
 3919SOL    HW212657   4.231   1.084   1.102
 3920SOL     OW12658   2.677   1.381   6.933
 3920SOL    HW112659   2.654   1.285   6.919
 3920SOL    HW212660   2.711   1.394   0.004
 3921SOL     OW12661   6.693   2.989   6.865
 3921SOL    HW112662   6.760   2.929   6.819
 3921SOL    HW212663   6.694   2.970   6.963
 3922SOL     OW12664   4.732   4.811   2.163
 3922SOL    HW112665   4.786   4.755   2.100
 3922SOL    HW212666   4.661   4.859   2.113
 3923SOL     OW12667   5.987   0.989   1.372
 3923SOL    HW112668   6.000   0.901   1.417
 3923SOL    HW212669   5.993   1.063   1.440
 3924SOL     OW12670   0.031   4.449   3.727
 3924SOL    HW112671   0.002   4.358   3.698
 3924SOL    HW212672   0.119   4.443   3.774
 3925SOL     OW12673   4.365   4.269   0.838
 3925SOL    HW112674   4.273   4.308   0.829
 3925SOL    HW212675   4.413   4.275   0.751
 3926SOL     OW12676   0.903   0.110   5.667
 3926SOL    HW112677   0.982   0.080   5.612
 3926SOL    HW212678   0.823   0.120   5.607
 3927SOL     OW12679   0.594   3.247   4.340
 3927SOL    HW112680   0.554   3.254   4.248
 3927SOL    HW212681   0.544   3.307   4.403
 3928SOL     OW12682   2.946   6.757   2.894
 3928SOL    HW112683   2.915   6.827   2.959
 3928SOL    HW212684   3.009   6.799   2.828
 3929SOL     OW12685   6.777   1.707   6.723
 3929SOL    HW112686   6.837   1.633   6.755
 3929SOL    HW212687   6.783   1.784   6.786
 3930SOL     OW12688   1.244   2.283   3.955
 3930SOL    HW112689   1.192   2.347   4.011
 3930SOL    HW212690   1.253   2.319   3.862
 3931SOL     OW12691   1.774   1.770   1.936
 3931SOL    HW112692   1.768   1.809   2.027
 3931SOL    HW212693   1.787   1.843   1.869
 3932SOL     OW12694   2.017   5.632   3.262
 3932SOL    HW112695   2.079   5.652   3.339
 3932SOL    HW212696   2.017   5.709   3.198
 3933SOL     OW12697   1.007   5.231   0.556
 3933SOL    HW112698   1.058   5.276   0.629
 3933SOL    HW212699   1.060   5.152   0.523
 3934SOL     OW12700   0.520   1.909   2.979
 3934SOL    HW112701   0.585   1.874   3.047
 3934SOL    HW212702   0.567   1.921   2.892
 3935SOL     OW12703   6.281   2.929   6.693
 3935SOL    HW112704   6.379   2.944   6.684
 3935SOL    HW212705   6.260   2.834   6.672
 3936SOL     OW12706   6.838   5.944   4.916
 3936SOL    HW112707   6.786   5.996   4.984
 3936SOL    HW212708   6.776   5.891   4.860
 3937SOL     OW12709   0.587   5.282   2.868
 3937SOL    HW112710   0.522   5.336   2.922
 3937SOL    HW212711   0.667   5.260   2.924
 3938SOL     OW12712   7.016   3.495   4.644
 3938SOL    HW112713   0.030   3.405   4.665
 3938SOL    HW212714   0.069   3.561   4.638
 3939SOL     OW12715   1.047   1.379   2.538
 3939SOL    HW112716   0.962   1.329   2.555
 3939SOL    HW212717   1.027   1.464   2.490
 3940SOL     OW12718   2.894   4.703   1.708
 3940SOL    HW112719   2.878   4.782   1.768
 3940SOL    HW212720   2.879   4.619   1.759
 3941SOL     OW12721   5.967   6.948   4.267
 3941SOL    HW112722   5.936   6.854   4.270
 3941SOL    HW212723   6.043   6.956   4.203
 3942SOL     OW12724   1.442   6.514   6.097
 3942SOL    HW112725   1.398   6.576   6.161
 3942SOL    HW212726   1.458   6.426   6.140
 3943SOL     OW12727   0.964   3.963   1.949
 3943SOL    HW112728   1.005   3.876   1.922
 3943SOL    HW212729   0.865   3.959   1.933
 3944SOL     OW12730   5.400   3.132   6.595
 3944SOL    HW112731   5.473   3.070   6.622
 3944SOL    HW212732   5.407   3.217   6.647
 3945SOL     OW12733   1.078   2.207   3.105
 3945SOL    HW112734   1.176   2.191   3.115
 3945SOL    HW212735   1.032   2.119   3.087
 3946SOL     OW12736   6.732   3.684   0.216
 3946SOL    HW112737   6.680   3.693   0.301
 3946SOL    HW212738   6.674   3.645   0.145
 3947SOL     OW12739   5.991   5.761   0.289
 3947SOL    HW112740   6.069   5.737   0.231
 3947SOL    HW212741   6.010   5.732   0.383
 3948SOL     OW12742   1.809   3.159   6.735
 3948SOL    HW112743   1.728   3.122   6.781
 3948SOL    HW212744   1.859   3.218   6.798
 3949SOL     OW12745   6.427   6.910   2.578
 3949SOL    HW112746   6.402   6.972   2.652
 3949SOL    HW212747   6.520   6.877   2.592
 3950SOL     OW12748   4.219   4.029   1.779
 3950SOL    HW112749   4.164   4.010   1.860
 3950SOL    HW212750   4.289   4.097   1.801
 3951SOL     OW12751   0.344   2.459   5.848
 3951SOL    HW112752   0.321   2.373   5.893
 3951SOL    HW212753   0.343   2.447   5.749
 3952SOL     OW12754   5.868   2.463   4.782
 3952SOL    HW112755   5.896   2.387   4.724
 3952SOL    HW212756   5.947   2.522   4.801
 3953SOL     OW12757   3.202   3.901   6.008
 3953SOL    HW112758   3.223   3.804   6.018
 3953SOL    HW212759   3.156   3.934   6.090
 3954SOL     OW12760   6.324   4.154   5.361
 3954SOL    HW112761   6.377   4.084   5.313
 3954SOL    HW212762   6.363   4.170   5.451
 3955SOL     OW12763   5.156   6.323   0.328
 3955SOL    HW112764   5.103   6.240   0.309
 3955SOL    HW212765   5.165   6.335   0.427
 3956SOL     OW12766   0.569   3.161   5.675
 3956SOL    HW112767   0.633   3.141   5.600
 3956SOL    HW212768   0.558   3.260   5.682
 3957SOL     OW12769   2.828   0.193   3.835
 3957SOL    HW112770   2.776   0.245   3.903
 3957SOL    HW212771   2.784   0.103   3.822
 3958SOL     OW12772   6.488   6.491   0.055
 3958SOL    HW112773   6.551   6.549   0.003
 3958SOL    HW212774   6.466   6.535   0.142
 3959SOL     OW12775   2.458   5.603   1.242
 3959SOL    HW112776   2.466   5.505   1.226
 3959SOL    HW212777   2.381   5.621   1.303
 3960SOL     OW12778   4.757   2.340   6.818
 3960SOL    HW112779   4.832   2.339   6.884
 3960SOL    HW212780   4.725   2.246   6.803
 3961SOL     OW12781   5.196   2.121   2.248
 3961SOL    HW112782   5.218   2.181   2.325
 3961SOL    HW212783   5.101   2.135   2.220
 3962SOL     OW12784   0.974   5.874   0.412
 3962SOL    HW112785   0.893   5.870   0.470
 3962SOL    HW212786   0.957   5.825   0.327
 3963SOL     OW12787   5.103   5.657   3.417
 3963SOL    HW112788   5.155   5.600   3.354
 3963SOL    HW212789   5.067   5.600   3.491
 3964SOL     OW12790   5.335   6.000   5.601
 3964SOL    HW112791   5.400   5.925   5.588
 3964SOL    HW212792   5.242   5.966   5.587
 3965SOL     OW12793   3.236   4.791   0.026
 3965SOL    HW112794   3.187   4.708   0.052
 3965SOL    HW212795   3.263   4.786   6.952
 3966SOL     OW12796   6.384   4.337   6.363
 3966SOL    HW112797   6.292   4.363   6.395
 3966SOL    HW212798   6.404   4.384   6.278
 3967SOL     OW12799   0.744   5.285   4.160
 3967SOL    HW112800   0.648   5.310   4.143
 3967SOL    HW212801   0.804   5.350   4.114
 3968SOL     OW12802   5.576   0.398   3.280
 3968SOL    HW112803   5.566   0.312   3.332
 3968SOL    HW212804   5.662   0.442   3.305
 3969SOL     OW12805   1.596   5.199   3.101
 3969SOL    HW112806   1.608   5.163   3.194
 3969SOL    HW212807   1.615   5.126   3.035
 3970SOL     OW12808   4.851   4.708   4.254
 3970SOL    HW112809   4.863   4.618   4.294
 3970SOL    HW212810   4.791   4.763   4.312
 3971SOL     OW12811   3.185   5.325   3.000
 3971SOL    HW112812   3.186   5.241   3.055
 3971SOL    HW212813   3.093   5.364   3.002
 3972SOL     OW12814   0.268   6.069   0.778
 3972SOL    HW112815   0.288   6.100   0.685
 3972SOL    HW212816   0.346   6.089   0.837
 3973SOL     OW12817   3.117   3.083   4.986
 3973SOL    HW112818   3.078   3.134   4.909
 3973SOL    HW212819   3.048   3.072   5.057
 3974SOL     OW12820   0.495   1.361   5.904
 3974SOL    HW112821   0.571   1.363   5.839
 3974SOL    HW212822   0.439   1.443   5.894
 3975SOL     OW12823   6.383   0.531   5.873
 3975SOL    HW112824   6.433   0.446   5.886
 3975SOL    HW212825   6.436   0.608   5.910
 3976SOL     OW12826   0.504   4.204   1.298
 3976SOL    HW112827   0.458   4.284   1.337
 3976SOL    HW212828   0.458   4.177   1.213
 3977SOL     OW12829   2.564   6.038   5.662
 3977SOL    HW112830   2.564   6.024   5.761
 3977SOL    HW212831   2.590   5.953   5.616
 3978SOL     OW12832   5.918   1.531   5.848
 3978SOL    HW112833   5.827   1.492   5.833
 3978SOL    HW212834   5.933   1.606   5.784
 3979SOL     OW12835   2.119   0.255   1.556
 3979SOL    HW112836   2.203   0.259   1.502
 3979SOL    HW212837   2.073   0.343   1.553
 3980SOL     OW12838   5.558   3.489   4.628
 3980SOL    HW112839   5.492   3.415   4.644
 3980SOL    HW212840   5.636   3.478   4.689
 3981SOL     OW12841   6.854   1.900   6.350
 3981SOL    HW112842   6.886   1.831   6.285
 3981SOL    HW212843   6.811   1.975   6.299
 3982SOL     OW12844   1.808   1.083   4.888
 3982SOL    HW112845   1.742   1.011   4.868
 3982SOL    HW212846   1.899   1.043   4.894
 3983SOL     OW12847   3.666   0.247   4.792
 3983SOL    HW112848   3.648   0.228   4.889
 3983SOL    HW212849   3.601   0.196   4.735
 3984SOL     OW12850   1.821   6.648   2.103
 3984SOL    HW112851   1.788   6.694   2.020
 3984SOL    HW212852   1.801   6.706   2.183
 3985SOL     OW12853   1.856   4.067   7.006
 3985SOL    HW112854   1.912   4.146   6.979
 3985SOL    HW212855   1.760   4.089   6.992
 3986SOL     OW12856   0.346   2.140   1.699
 3986SOL    HW112857   0.367   2.063   1.639
 3986SOL    HW212858   0.314   2.106   1.787
 3987SOL     OW12859   1.304   5.688   5.207
 3987SOL    HW112860   1.320   5.671   5.110
 3987SOL    HW212861   1.233   5.758   5.217
 3988SOL     OW12862   3.890   1.615   6.569
 3988SOL    HW112863   3.892   1.528   6.618
 3988SOL    HW212864   3.795   1.642   6.552
 3989SOL     OW12865   6.179   6.756   6.576
 3989SOL    HW112866   6.179   6.855   6.593
 3989SOL    HW212867   6.273   6.724   6.571
 3990SOL     OW12868   6.836   2.518   5.186
 3990SOL    HW112869   6.801   2.554   5.273
 3990SOL    HW212870   6.839   2.592   5.119
 3991SOL     OW12871   0.290   2.271   3.430
 3991SOL    HW112872   0.338   2.353   3.460
 3991SOL    HW212873   0.344   2.190   3.454
 3992SOL     OW12874   3.686   3.242   6.754
 3992SOL    HW112875   3.629   3.283   6.682
 3992SOL    HW212876   3.679   3.143   6.751
 3993SOL     OW12877   2.749   2.288   2.645
 3993SOL    HW112878   2.783   2.225   2.575
 3993SOL    HW212879   2.779   2.256   2.735
 3994SOL     OW12880   2.223   2.520   5.013
 3994SOL    HW112881   2.216   2.457   4.936
 3994SOL    HW212882   2.157   2.494   5.083
 3995SOL     OW12883   2.244   4.188   3.309
 3995SOL    HW112884   2.214   4.105   3.261
 3995SOL    HW212885   2.310   4.237   3.252
 3996SOL     OW12886   1.527   1.558   4.205
 3996SOL    HW112887   1.518   1.636   4.143
 3996SOL    HW212888   1.445   1.551   4.262
 3997SOL     OW12889   4.894   3.419   3.203
 3997SOL    HW112890   4.855   3.344   3.256
 3997SOL    HW212891   4.985   3.441   3.239
 3998SOL     OW12892   6.307   1.925   1.991
 3998SOL    HW112893   6.252   2.005   1.967
 3998SOL    HW212894   6.381   1.914   1.924
 3999SOL     OW12895   5.857   3.896   3.643
 3999SOL    HW112896   5.843   3.865   3.549
 3999SOL    HW212897   5.945   3.943   3.649
 4000SOL     OW12898   3.154   5.953   2.999
 4000SOL    HW112899   3.129   5.980   2.906
 4000SOL    HW212900   3.112   6.016   3.064
 4001SOL     OW12901   2.425   4.249   6.036
 4001SOL    HW112902   2.444   4.184   5.962
 4001SOL    HW212903   2.344   4.221   6.086
 4002SOL     OW12904   3.588   3.104   4.604
 4002SOL    HW112905   3.677   3.080   4.567
 4002SOL    HW212906   3.581   3.075   4.699
 4003SOL     OW12907   2.041   1.455   6.136
 4003SOL    HW112908   2.083   1.368   6.160
 4003SOL    HW212909   2.112   1.525   6.126
 4004SOL     OW12910   6.610   3.376   3.978
 4004SOL    HW112911   6.537   3.404   4.041
 4004SOL    HW212912   6.652   3.291   4.011
 4005SOL     OW12913   4.062   4.597   1.065
 4005SOL    HW112914   4.095   4.533   1.135
 4005SOL    HW212915   4.137   4.623   1.005
 4006SOL     OW12916   5.376   4.814   1.684
 4006SOL    HW112917   5.474   4.801   1.702
 4006SOL    HW212918   5.364   4.887   1.617
 4007SOL     OW12919   0.140   2.023   3.117
 4007SOL    HW112920   0.155   1.935   3.070
 4007SOL    HW212921   0.155   2.098   3.052
 4008SOL     OW12922   3.167   0.341   6.399
 4008SOL    HW112923   3.098   0.269   6.410
 4008SOL    HW212924   3.201   0.368   6.489
 4009SOL     OW12925   4.749   1.947   1.329
 4009SOL    HW112926   4.768   1.919   1.423
 4009SOL    HW212927   4.757   1.867   1.269
 4010SOL     OW12928   3.095   3.311   1.400
 4010SOL    HW112929   3.148   3.271   1.475
 4010SOL    HW212930   3.153   3.371   1.346
 4011SOL     OW12931   6.543   5.815   2.029
 4011SOL    HW112932   6.546   5.717   2.049
 4011SOL    HW212933   6.579   5.832   1.937
 4012SOL     OW12934   4.026   6.823   2.703
 4012SOL    HW112935   3.987   6.889   2.766
 4012SOL    HW212936   4.003   6.730   2.732
 4013SOL     OW12937   2.061   0.193   1.196
 4013SOL    HW112938   2.102   0.282   1.216
 4013SOL    HW212939   2.133   0.124   1.192
 4014SOL     OW12940   3.265   6.245   4.070
 4014SOL    HW112941   3.169   6.240   4.097
 4014SOL    HW212942   3.281   6.184   3.993
 4015SOL     OW12943   4.651   5.113   6.609
 4015SOL    HW112944   4.664   5.113   6.709
 4015SOL    HW212945   4.714   5.049   6.567
 4016SOL     OW12946   2.945   5.314   0.321
 4016SOL    HW112947   2.933   5.237   0.258
 4016SOL    HW212948   2.915   5.288   0.413
 4017SOL     OW12949   0.225   5.351   5.189
 4017SOL    HW112950   0.323   5.329   5.194
 4017SOL    HW212951   0.171   5.268   5.198
 4018SOL     OW12952   4.445   0.375   1.639
 4018SOL    HW112953   4.493   0.361   1.726
 4018SOL    HW212954   4.366   0.435   1.653
 4019SOL     OW12955   5.397   3.761   2.563
 4019SOL    HW112956   5.431   3.669   2.583
 4019SOL    HW212957   5.348   3.761   2.476
 4020SOL     OW12958   6.733   2.740   5.692
 4020SOL    HW112959   6.780   2.725   5.605
 4020SOL    HW212960   6.790   2.797   5.751
 4021SOL     OW12961   3.533   4.200   5.497
 4021SOL    HW112962   3.469   4.124   5.486
 4021SOL    HW212963   3.537   4.252   5.412
 4022SOL     OW12964   3.667   6.194   6.702
 4022SOL    HW112965   3.584   6.205   6.647
 4022SOL    HW212966   3.642   6.191   6.799
 4023SOL     OW12967   6.783   0.880   5.577
 4023SOL    HW112968   6.780   0.946   5.653
 4023SOL    HW212969   6.877   0.865   5.549
 4024SOL     OW12970   2.611   4.652   3.794
 4024SOL    HW112971   2.657   4.648   3.883
 4024SOL    HW212972   2.547   4.576   3.786
 4025SOL     OW12973   0.602   6.291   4.224
 4025SOL    HW112974   0.559   6.267   4.311
 4025SOL    HW212975   0.696   6.320   4.240
 4026SOL     OW12976   6.320   6.751   4.335
 4026SOL    HW112977   6.314   6.757   4.434
 4026SOL    HW212978   6.374   6.671   4.309
 4027SOL     OW12979   2.511   2.621   0.074
 4027SOL    HW112980   2.429   2.674   0.093
 4027SOL    HW212981   2.585   2.682   0.046
 4028SOL     OW12982   4.573   1.437   3.737
 4028SOL    HW112983   4.539   1.473   3.649
 4028SOL    HW212984   4.500   1.442   3.805
 4029SOL     OW12985   3.182   3.695   5.679
 4029SOL    HW112986   3.240   3.698   5.598
 4029SOL    HW212987   3.095   3.741   5.660
 4030SOL     OW12988   6.679   1.022   2.202
 4030SOL    HW112989   6.741   0.978   2.268
 4030SOL    HW212990   6.586   1.021   2.239
 4031SOL     OW12991   5.440   6.208   3.236
 4031SOL    HW112992   5.458   6.198   3.334
 4031SOL    HW212993   5.444   6.305   3.211
 4032SOL     OW12994   0.242   6.926   2.241
 4032SOL    HW112995   0.243   6.843   2.184
 4032SOL    HW212996   0.194   6.999   2.193
 4033SOL     OW12997   2.242   2.789   1.453
 4033SOL    HW112998   2.190   2.873   1.465
 4033SOL    HW212999   2.247   2.767   1.356
 4034SOL     OW13000   5.967   2.071   5.130
 4034SOL    HW113001   5.931   1.989   5.175
 4034SOL    HW213002   6.012   2.129   5.198
 4035SOL     OW13003   6.152   1.238   0.918
 4035SOL    HW113004   6.149   1.145   0.881
 4035SOL    HW213005   6.092   1.298   0.865
 4036SOL     OW13006   4.243   4.798   2.264
 4036SOL    HW113007   4.143   4.795   2.277
 4036SOL    HW213008   4.273   4.713   2.221
 4037SOL     OW13009   2.144   1.939   0.010
 4037SOL    HW113010   2.078   2.011   0.029
 4037SOL    HW213011   2.096   1.851   0.003
 4038SOL     OW13012   4.263   2.910   1.298
 4038SOL    HW113013   4.229   3.004   1.300
 4038SOL    HW213014   4.307   2.888   1.385
 4039SOL     OW13015   5.367   5.494   1.531
 4039SOL    HW113016   5.463   5.493   1.505
 4039SOL    HW213017   5.353   5.437   1.612
 4040SOL     OW13018   3.691   6.936   4.874
 4040SOL    HW113019   3.733   7.001   4.811
 4040SOL    HW213020   3.758   6.904   4.940
 4041SOL     OW13021   1.094   4.903   0.748
 4041SOL    HW113022   1.165   4.947   0.694
 4041SOL    HW213023   1.066   4.963   0.823
 4042SOL     OW13024   6.192   6.054   4.576
 4042SOL    HW113025   6.195   5.973   4.518
 4042SOL    HW213026   6.168   6.028   4.669
 4043SOL     OW13027   6.910   2.352   6.295
 4043SOL    HW113028   6.991   2.337   6.351
 4043SOL    HW213029   6.833   2.379   6.353
 4044SOL     OW13030   4.732   6.451   3.742
 4044SOL    HW113031   4.821   6.487   3.770
 4044SOL    HW213032   4.736   6.351   3.741
 4045SOL     OW13033   3.933   5.903   5.864
 4045SOL    HW113034   3.895   5.810   5.857
 4045SOL    HW213035   3.893   5.949   5.943
 4046SOL     OW13036   1.427   1.858   3.607
 4046SOL    HW113037   1.328   1.847   3.607
 4046SOL    HW213038   1.451   1.939   3.661
 4047SOL     OW13039   2.857   2.497   6.931
 4047SOL    HW113040   2.816   2.572   6.983
 4047SOL    HW213041   2.787   2.455   6.872
 4048SOL     OW13042   5.217   1.472   1.891
 4048SOL    HW113043   5.210   1.560   1.843
 4048SOL    HW213044   5.310   1.462   1.928
 4049SOL     OW13045   5.242   4.859   6.301
 4049SOL    HW113046   5.160   4.880   6.354
 4049SOL    HW213047   5.269   4.938   6.247
 4050SOL     OW13048   0.622   6.701   1.994
 4050SOL    HW113049   0.570   6.674   1.913
 4050SOL    HW213050   0.562   6.699   2.074
 4051SOL     OW13051   4.101   1.281   6.844
 4051SOL    HW113052   4.117   1.303   6.940
 4051SOL    HW213053   4.149   1.347   6.786
 4052SOL     OW13054   6.037   1.317   2.530
 4052SOL    HW113055   6.120   1.373   2.530
 4052SOL    HW213056   5.972   1.354   2.463
 4053SOL     OW13057   3.071   6.697   4.464
 4053SOL    HW113058   3.081   6.654   4.374
 4053SOL    HW213059   3.161   6.723   4.499
 4054SOL     OW13060   5.675   3.666   0.948
 4054SOL    HW113061   5.694   3.729   1.023
 4054SOL    HW213062   5.583   3.681   0.913
 4055SOL     OW13063   2.814   3.576   0.404
 4055SOL    HW113064   2.790   3.488   0.364
 4055SOL    HW213065   2.826   3.565   0.503
 4056SOL     OW13066   5.150   3.907   0.703
 4056SOL    HW113067   5.192   3.921   0.613
 4056SOL    HW213068   5.109   3.992   0.734
 4057SOL     OW13069   6.733   2.384   0.868
 4057SOL    HW113070   6.749   2.481   0.856
 4057SOL    HW213071   6.790   2.332   0.805
 4058SOL     OW13072   2.338   0.154   5.081
 4058SOL    HW113073   2.372   0.083   5.019
 4058SOL    HW213074   2.295   0.227   5.029
 4059SOL     OW13075   1.117   1.660   3.063
 4059SOL    HW113076   1.093   1.614   2.978
 4059SOL    HW213077   1.064   1.620   3.138
 4060SOL     OW13078   5.646   5.630   5.195
 4060SOL    HW113079   5.693   5.613   5.108
 4060SOL    HW213080   5.683   5.570   5.265
 4061SOL     OW13081   2.223   5.064   2.189
 4061SOL    HW113082   2.159   5.132   2.223
 4061SOL    HW213083   2.271   5.021   2.265
 4062SOL     OW13084   2.357   0.678   1.651
 4062SOL    HW113085   2.343   0.603   1.715
 4062SOL    HW213086   2.444   0.723   1.669
 4063SOL     OW13087   6.060   6.413   0.346
 4063SOL    HW113088   6.007   6.329   0.352
 4063SOL    HW213089   6.044   6.469   0.428
 4064SOL     OW13090   2.503   0.711   3.818
 4064SOL    HW113091   2.457   0.649   3.754
 4064SOL    HW213092   2.600   0.714   3.797
 4065SOL     OW13093   1.235   6.799   1.674
 4065SOL    HW113094   1.242   6.700   1.680
 4065SOL    HW213095   1.225   6.826   1.578
 4066SOL     OW13096   6.185   4.539   3.382
 4066SOL    HW113097   6.092   4.513   3.356
 4066SOL    HW213098   6.239   4.556   3.299
 4067SOL     OW13099   6.206   3.861   2.974
 4067SOL    HW113100   6.132   3.918   2.940
 4067SOL    HW213101   6.197   3.850   3.073
 4068SOL     OW13102   1.640   1.146   5.132
 4068SOL    HW113103   1.592   1.064   5.103
 4068SOL    HW213104   1.648   1.148   5.231
 4069SOL     OW13105   2.913   5.400   6.467
 4069SOL    HW113106   2.868   5.482   6.432
 4069SOL    HW213107   3.001   5.387   6.420
 4070SOL     OW13108   0.401   3.455   2.365
 4070SOL    HW113109   0.375   3.535   2.312
 4070SOL    HW213110   0.370   3.465   2.459
 4071SOL     OW13111   1.250   1.075   5.494
 4071SOL    HW113112   1.170   1.118   5.453
 4071SOL    HW213113   1.242   0.976   5.488
 4072SOL     OW13114   0.697   5.783   4.357
 4072SOL    HW113115   0.736   5.738   4.277
 4072SOL    HW213116   0.759   5.854   4.389
 4073SOL     OW13117   3.130   6.421   6.110
 4073SOL    HW113118   3.213   6.375   6.142
 4073SOL    HW213119   3.105   6.385   6.020
 4074SOL     OW13120   6.895   4.194   1.586
 4074SOL    HW113121   6.849   4.283   1.578
 4074SOL    HW213122   6.973   4.203   1.647
 4075SOL     OW13123   4.488   2.152   1.774
 4075SOL    HW113124   4.575   2.163   1.822
 4075SOL    HW213125   4.416   2.129   1.839
 4076SOL     OW13126   3.095   2.987   5.621
 4076SOL    HW113127   3.036   2.918   5.578
 4076SOL    HW213128   3.181   2.945   5.650
 4077SOL     OW13129   3.602   1.414   0.094
 4077SOL    HW113130   3.586   1.316   0.079
 4077SOL    HW213131   3.647   1.453   0.014
 4078SOL     OW13132   0.426   5.607   1.304
 4078SOL    HW113133   0.410   5.586   1.208
 4078SOL    HW213134   0.439   5.521   1.355
 4079SOL     OW13135   1.976   0.894   3.755
 4079SOL    HW113136   2.033   0.975   3.746
 4079SOL    HW213137   1.944   0.887   3.850
 4080SOL     OW13138   4.302   4.252   5.940
 4080SOL    HW113139   4.282   4.349   5.927
 4080SOL    HW213140   4.218   4.198   5.928
 4081SOL     OW13141   1.983   2.873   4.301
 4081SOL    HW113142   1.937   2.876   4.390
 4081SOL    HW213143   1.969   2.784   4.259
 4082SOL     OW13144   0.310   3.883   0.289
 4082SOL    HW113145   0.257   3.816   0.339
 4082SOL    HW213146   0.406   3.856   0.288
 4083SOL     OW13147   6.664   3.859   2.338
 4083SOL    HW113148   6.599   3.805   2.392
 4083SOL    HW213149   6.647   3.956   2.353
 4084SOL     OW13150   5.546   1.906   3.522
 4084SOL    HW113151   5.496   1.881   3.439
 4084SOL    HW213152   5.627   1.847   3.530
 4085SOL     OW13153   2.876   5.619   1.596
 4085SOL    HW113154   2.970   5.642   1.618
 4085SOL    HW213155   2.851   5.533   1.642
 4086SOL     OW13156   1.076   5.405   1.916
 4086SOL    HW113157   1.074   5.504   1.902
 4086SOL    HW213158   1.163   5.369   1.881
 4087SOL     OW13159   1.914   1.758   3.432
 4087SOL    HW113160   1.945   1.678   3.381
 4087SOL    HW213161   1.993   1.807   3.469
 4088SOL     OW13162   0.139   1.405   6.878
 4088SOL    HW113163   0.209   1.468   6.911
 4088SOL    HW213164   0.083   1.451   6.809
 4089SOL     OW13165   6.288   6.282   4.463
 4089SOL    HW113166   6.266   6.188   4.491
 4089SOL    HW213167   6.356   6.320   4.526
 4090SOL     OW13168   1.514   5.087   5.800
 4090SOL    HW113169   1.548   5.144   5.727
 4090SOL    HW213170   1.536   4.991   5.781
 4091SOL     OW13171   6.993   6.194   6.689
 4091SOL    HW113172   6.912   6.154   6.733
 4091SOL    HW213173   7.013   6.145   6.605
 4092SOL     OW13174   6.501   2.611   6.134
 4092SOL    HW113175   6.433   2.591   6.063
 4092SOL    HW213176   6.583   2.648   6.091
 4093SOL     OW13177   4.444   6.861   2.417
 4093SOL    HW113178   4.419   6.882   2.512
 4093SOL    HW213179   4.442   6.945   2.363
 4094SOL     OW13180   2.425   5.816   4.794
 4094SOL    HW113181   2.362   5.891   4.814
 4094SOL    HW213182   2.504   5.822   4.856
 4095SOL     OW13183   0.144   3.732   0.435
 4095SOL    HW113184   0.089   3.682   0.368
 4095SOL    HW213185   0.161   3.674   0.515
 4096SOL     OW13186   4.523   5.828   5.944
 4096SOL    HW113187   4.531   5.841   5.845
 4096SOL    HW213188   4.434   5.862   5.975
 4097SOL     OW13189   3.663   4.735   5.514
 4097SOL    HW113190   3.590   4.686   5.466
 4097SOL    HW213191   3.735   4.670   5.540
 4098SOL     OW13192   6.993   2.187   1.491
 4098SOL    HW113193   6.973   2.114   1.556
 4098SOL    HW213194   0.040   2.247   1.529
 4099SOL     OW13195   2.697   4.826   1.535
 4099SOL    HW113196   2.620   4.762   1.537
 4099SOL    HW213197   2.763   4.801   1.606
 4100SOL     OW13198   0.097   6.088   4.422
 4100SOL    HW113199   0.063   6.059   4.512
 4100SOL    HW213200   0.045   6.169   4.392
 4101SOL     OW13201   6.146   0.665   0.222
 4101SOL    HW113202   6.220   0.691   0.160
 4101SOL    HW213203   6.073   0.733   0.217
 4102SOL     OW13204   6.688   0.385   0.762
 4102SOL    HW113205   6.669   0.334   0.846
 4102SOL    HW213206   6.786   0.401   0.755
 4103SOL     OW13207   0.512   0.484   0.567
 4103SOL    HW113208   0.468   0.454   0.652
 4103SOL    HW213209   0.575   0.413   0.535
 4104SOL     OW13210   1.120   4.772   2.838
 4104SOL    HW113211   1.107   4.673   2.838
 4104SOL    HW213212   1.037   4.817   2.804
 4105SOL     OW13213   4.786   0.043   1.598
 4105SOL    HW113214   4.842   7.007   1.657
 4105SOL    HW213215   4.694   0.006   1.592
 4106SOL     OW13216   6.298   2.552   3.351
 4106SOL    HW113217   6.362   2.624   3.380
 4106SOL    HW213218   6.206   2.590   3.342
 4107SOL     OW13219   1.045   5.709   1.158
 4107SOL    HW113220   1.133   5.720   1.112
 4107SOL    HW213221   1.059   5.658   1.243
 4108SOL     OW13222   6.008   3.838   5.082
 4108SOL    HW113223   6.087   3.896   5.062
 4108SOL    HW213224   5.938   3.853   5.013
 4109SOL     OW13225   6.297   0.032   5.058
 4109SOL    HW113226   6.209   7.005   5.058
 4109SOL    HW213227   6.371   6.990   5.041
 4110SOL     OW13228   3.683   3.752   6.324
 4110SOL    HW113229   3.622   3.769   6.245
 4110SOL    HW213230   3.672   3.658   6.355
 4111SOL     OW13231   4.238   3.419   0.125
 4111SOL    HW113232   4.257   3.446   0.220
 4111SOL    HW213233   4.173   3.484   0.085
 4112SOL     OW13234   5.030   6.596   4.782
 4112SOL    HW113235   5.095   6.654   4.832
 4112SOL    HW213236   5.068   6.505   4.772
 4113SOL     OW13237   4.853   6.288   4.352
 4113SOL    HW113238   4.812   6.378   4.368
 4113SOL    HW213239   4.952   6.299   4.339
 4114SOL     OW13240   3.422   2.029   3.822
 4114SOL    HW113241   3.367   2.008   3.741
 4114SOL    HW213242   3.361   2.059   3.897
 4115SOL     OW13243   3.526   4.892   2.234
 4115SOL    HW113244   3.553   4.828   2.162
 4115SOL    HW213245   3.509   4.982   2.194
 4116SOL     OW13246   3.423   1.658   2.304
 4116SOL    HW113247   3.360   1.639   2.228
 4116SOL    HW213248   3.503   1.707   2.269
 4117SOL     OW13249   1.537   4.914   2.335
 4117SOL    HW113250   1.491   4.997   2.368
 4117SOL    HW213251   1.468   4.844   2.316
 4118SOL     OW13252   3.017   6.748   0.664
 4118SOL    HW113253   2.935   6.732   0.609
 4118SOL    HW213254   3.082   6.803   0.611
 4119SOL     OW13255   3.544   2.061   4.089
 4119SOL    HW113256   3.510   2.081   3.997
 4119SOL    HW213257   3.483   2.102   4.157
 4120SOL     OW13258   3.798   0.471   0.187
 4120SOL    HW113259   3.737   0.407   0.142
 4120SOL    HW213260   3.751   0.514   0.265
 4121SOL     OW13261   6.303   0.724   4.755
 4121SOL    HW113262   6.268   0.630   4.760
 4121SOL    HW213263   6.334   0.752   4.846
 4122SOL     OW13264   1.091   5.861   5.193
 4122SOL    HW113265   1.029   5.848   5.116
 4122SOL    HW213266   1.046   5.914   5.264
 4123SOL     OW13267   4.347   5.182   5.811
 4123SOL    HW113268   4.287   5.258   5.791
 4123SOL    HW213269   4.397   5.200   5.896
 4124SOL     OW13270   6.531   5.569   6.459
 4124SOL    HW113271   6.512   5.486   6.408
 4124SOL    HW213272   6.592   5.628   6.406
 4125SOL     OW13273   4.476   1.171   2.744
 4125SOL    HW113274   4.407   1.174   2.816
 4125SOL    HW213275   4.539   1.095   2.761
 4126SOL     OW13276   1.112   3.933   4.685
 4126SOL    HW113277   1.132   4.031   4.690
 4126SOL    HW213278   1.163   3.885   4.756
 4127SOL     OW13279   4.390   4.896   4.824
 4127SOL    HW113280   4.415   4.934   4.735
 4127SOL    HW213281   4.376   4.798   4.816
 4128SOL     OW13282   1.429   2.887   1.683
 4128SOL    HW113283   1.492   2.872   1.607
 4128SOL    HW213284   1.470   2.851   1.767
 4129SOL     OW13285   4.033   1.351   6.388
 4129SOL    HW113286   3.942   1.366   6.425
 4129SOL    HW213287   4.042   1.399   6.301
 4130SOL     OW13288   6.529   2.982   6.044
 4130SOL    HW113289   6.589   3.062   6.045
 4130SOL    HW213290   6.517   2.947   6.137
 4131SOL     OW13291   1.618   0.541   3.033
 4131SOL    HW113292   1.598   0.604   2.958
 4131SOL    HW213293   1.667   0.461   2.998
 4132SOL     OW13294   5.258   4.413   3.929
 4132SOL    HW113295   5.265   4.328   3.876
 4132SOL    HW213296   5.266   4.391   4.026
 4133SOL     OW13297   3.141   6.202   0.978
 4133SOL    HW113298   3.052   6.248   0.979
 4133SOL    HW213299   3.128   6.105   0.999
 4134SOL     OW13300   2.597   2.780   0.302
 4134SOL    HW113301   2.523   2.814   0.243
 4134SOL    HW213302   2.559   2.715   0.368
 4135SOL     OW13303   0.959   1.576   3.285
 4135SOL    HW113304   0.912   1.523   3.356
 4135SOL    HW213305   0.931   1.672   3.291
 4136SOL     OW13306   1.358   2.057   2.972
 4136SOL    HW113307   1.356   1.958   2.985
 4136SOL    HW213308   1.440   2.082   2.919
 4137SOL     OW13309   0.236   4.562   0.517
 4137SOL    HW113310   0.303   4.603   0.579
 4137SOL    HW213311   0.280   4.489   0.465
 4138SOL     OW13312   4.481   5.412   3.397
 4138SOL    HW113313   4.546   5.464   3.342
 4138SOL    HW213314   4.511   5.316   3.403
 4139SOL     OW13315   1.881   1.776   5.267
 4139SOL    HW113316   1.953   1.817   5.323
 4139SOL    HW213317   1.917   1.696   5.219
 4140SOL     OW13318   3.273   0.747   5.315
 4140SOL    HW113319   3.237   0.783   5.401
 4140SOL    HW213320   3.315   0.822   5.262
 4141SOL     OW13321   5.935   6.080   1.459
 4141SOL    HW113322   5.990   6.009   1.416
 4141SOL    HW213323   5.844   6.081   1.418
 4142SOL     OW13324   6.147   5.582   0.943
 4142SOL    HW113325   6.157   5.630   0.856
 4142SOL    HW213326   6.064   5.527   0.940
 4143SOL     OW13327   6.924   2.496   1.153
 4143SOL    HW113328   6.968   2.558   1.088
 4143SOL    HW213329   6.865   2.549   1.215
 4144SOL     OW13330   4.863   3.928   6.131
 4144SOL    HW113331   4.894   3.871   6.207
 4144SOL    HW213332   4.927   3.920   6.055
 4145SOL     OW13333   6.727   6.492   1.203
 4145SOL    HW113334   6.654   6.472   1.138
 4145SOL    HW213335   6.693   6.553   1.274
 4146SOL     OW13336   6.893   0.767   5.082
 4146SOL    HW113337   6.873   0.843   5.021
 4146SOL    HW213338   6.983   0.729   5.059
 4147SOL     OW13339   4.669   3.761   5.980
 4147SOL    HW113340   4.602   3.732   6.048
 4147SOL    HW213341   4.727   3.833   6.018
 4148SOL     OW13342   1.213   0.571   4.657
 4148SOL    HW113343   1.160   0.497   4.698
 4148SOL    HW213344   1.294   0.589   4.713
 4149SOL     OW13345   0.026   2.777   0.424
 4149SOL    HW113346   0.066   2.703   0.478
 4149SOL    HW213347   6.975   2.740   0.367
 4150SOL     OW13348   0.893   0.748   6.173
 4150SOL    HW113349   0.982   0.760   6.218
 4150SOL    HW213350   0.820   0.766   6.239
 4151SOL     OW13351   3.694   5.405   5.453
 4151SOL    HW113352   3.641   5.326   5.485
 4151SOL    HW213353   3.792   5.383   5.457
 4152SOL     OW13354   3.645   6.176   1.608
 4152SOL    HW113355   3.613   6.094   1.657
 4152SOL    HW213356   3.648   6.253   1.672
 4153SOL     OW13357   4.101   4.891   0.128
 4153SOL    HW113358   4.200   4.891   0.111
 4153SOL    HW213359   4.058   4.964   0.076
 4154SOL     OW13360   0.539   4.571   4.466
 4154SOL    HW113361   0.628   4.617   4.476
 4154SOL    HW213362   0.511   4.573   4.370
 4155SOL     OW13363   0.055   1.141   2.106
 4155SOL    HW113364   0.022   1.177   2.193
 4155SOL    HW213365   7.002   1.137   2.040
 4156SOL     OW13366   6.068   6.167   5.191
 4156SOL    HW113367   6.057   6.081   5.240
 4156SOL    HW213368   6.127   6.152   5.112
 4157SOL     OW13369   5.017   5.655   4.588
 4157SOL    HW113370   5.083   5.694   4.524
 4157SOL    HW213371   5.062   5.588   4.646
 4158SOL     OW13372   1.651   4.570   2.634
 4158SOL    HW113373   1.708   4.640   2.676
 4158SOL    HW213374   1.564   4.564   2.683
 4159SOL     OW13375   1.898   3.467   4.404
 4159SOL    HW113376   1.801   3.491   4.401
 4159SOL    HW213377   1.947   3.515   4.332
 4160SOL     OW13378   6.026   0.351   0.497
 4160SOL    HW113379   6.098   0.287   0.523
 4160SOL    HW213380   6.066   0.442   0.483
 4161SOL     OW13381   0.791   0.495   0.213
 4161SOL    HW113382   0.750   0.570   0.265
 4161SOL    HW213383   0.845   0.533   0.137
 4162SOL     OW13384   5.985   6.696   5.857
 4162SOL    HW113385   5.968   6.632   5.932
 4162SOL    HW213386   6.083   6.718   5.854
 4163SOL     OW13387   6.132   6.591   3.672
 4163SOL    HW113388   6.118   6.495   3.647
 4163SOL    HW213389   6.187   6.636   3.601
 4164SOL     OW13390   1.861   6.498   6.755
 4164SOL    HW113391   1.765   6.506   6.782
 4164SOL    HW213392   1.905   6.588   6.762
 4165SOL     OW13393   3.962   0.226   6.974
 4165SOL    HW113394   3.908   0.232   6.890
 4165SOL    HW213395   4.043   0.284   6.966
 4166SOL     OW13396   6.376   3.940   0.808
 4166SOL    HW113397   6.393   3.841   0.800
 4166SOL    HW213398   6.455   3.990   0.775
 4167SOL     OW13399   0.843   4.455   1.228
 4167SOL    HW113400   0.837   4.388   1.154
 4167SOL    HW213401   0.924   4.512   1.215
 4168SOL     OW13402   6.728   4.977   0.923
 4168SOL    HW113403   6.634   4.947   0.940
 4168SOL    HW213404   6.787   4.897   0.914
 4169SOL     OW13405   5.839   4.188   3.928
 4169SOL    HW113406   5.803   4.281   3.929
 4169SOL    HW213407   5.935   4.190   3.902
 4170SOL     OW13408   3.812   4.032   5.458
 4170SOL    HW113409   3.798   4.130   5.447
 4170SOL    HW213410   3.787   4.004   5.551
 4171SOL     OW13411   5.633   5.577   1.335
 4171SOL    HW113412   5.650   5.478   1.330
 4171SOL    HW213413   5.561   5.601   1.269
 4172SOL     OW13414   0.480   2.236   6.219
 4172SOL    HW113415   0.401   2.298   6.214
 4172SOL    HW213416   0.504   2.205   6.127
 4173SOL     OW13417   4.831   3.584   5.827
 4173SOL    HW113418   4.928   3.608   5.819
 4173SOL    HW213419   4.781   3.659   5.870
 4174SOL     OW13420   5.442   0.937   3.482
 4174SOL    HW113421   5.431   0.843   3.513
 4174SOL    HW213422   5.352   0.979   3.471
 4175SOL     OW13423   1.969   6.213   4.727
 4175SOL    HW113424   2.068   6.212   4.717
 4175SOL    HW213425   1.928   6.144   4.668
 4176SOL     OW13426   3.183   6.523   2.252
 4176SOL    HW113427   3.089   6.544   2.225
 4176SOL    HW213428   3.242   6.602   2.236
 4177SOL     OW13429   6.624   4.396   4.704
 4177SOL    HW113430   6.551   4.426   4.764
 4177SOL    HW213431   6.702   4.366   4.758
 4178SOL     OW13432   4.764   0.599   3.918
 4178SOL    HW113433   4.816   0.684   3.909
 4178SOL    HW213434   4.680   0.617   3.968
 4179SOL     OW13435   5.347   2.285   2.998
 4179SOL    HW113436   5.338   2.380   2.971
 4179SOL    HW213437   5.329   2.226   2.919
 4180SOL     OW13438   5.185   3.816   1.495
 4180SOL    HW113439   5.153   3.891   1.438
 4180SOL    HW213440   5.149   3.729   1.460
 4181SOL     OW13441   2.562   2.161   0.027
 4181SOL    HW113442   2.516   2.179   6.963
 4181SOL    HW213443   2.631   2.232   0.043
 4182SOL     OW13444   0.189   6.448   2.993
 4182SOL    HW113445   0.159   6.523   2.934
 4182SOL    HW213446   0.274   6.409   2.957
 4183SOL     OW13447   4.775   0.773   7.005
 4183SOL    HW113448   4.777   0.696   0.047
 4183SOL    HW213449   4.699   0.762   6.942
 4184SOL     OW13450   4.309   4.868   1.662
 4184SOL    HW113451   4.271   4.801   1.598
 4184SOL    HW213452   4.239   4.935   1.685
 4185SOL     OW13453   0.812   5.870   2.399
 4185SOL    HW113454   0.857   5.901   2.315
 4185SOL    HW213455   0.869   5.800   2.443
 4186SOL     OW13456   2.444   4.759   0.910
 4186SOL    HW113457   2.415   4.742   1.005
 4186SOL    HW213458   2.543   4.772   0.908
 4187SOL     OW13459   3.509   3.681   6.121
 4187SOL    HW113460   3.418   3.669   6.081
 4187SOL    HW213461   3.576   3.629   6.067
 4188SOL     OW13462   5.460   0.283   4.485
 4188SOL    HW113463   5.538   0.332   4.445
 4188SOL    HW213464   5.480   0.263   4.581
 4189SOL     OW13465   3.580   0.637   5.055
 4189SOL    HW113466   3.676   0.609   5.059
 4189SOL    HW213467   3.546   0.629   4.962
 4190SOL     OW13468   0.476   0.584   0.237
 4190SOL    HW113469   0.550   0.517   0.236
 4190SOL    HW213470   0.484   0.642   0.318
 4191SOL     OW13471   5.527   3.196   3.183
 4191SOL    HW113472   5.468   3.161   3.111
 4191SOL    HW213473   5.472   3.237   3.256
 4192SOL     OW13474   0.395   0.970   4.104
 4192SOL    HW113475   0.348   1.003   4.022
 4192SOL    HW213476   0.492   0.991   4.097
 4193SOL     OW13477   2.180   6.829   2.683
 4193SOL    HW113478   2.255   6.848   2.620
 4193SOL    HW213479   2.217   6.818   2.776
 4194SOL     OW13480   5.634   0.774   5.660
 4194SOL    HW113481   5.680   0.862   5.670
 4194SOL    HW213482   5.562   0.766   5.729
 4195SOL     OW13483   4.108   0.474   2.046
 4195SOL    HW113484   4.015   0.495   2.018
 4195SOL    HW213485   4.122   0.375   2.047
 4196SOL     OW13486   5.680   2.273   3.710
 4196SOL    HW113487   5.593   2.311   3.741
 4196SOL    HW213488   5.683   2.175   3.733
 4197SOL     OW13489   5.316   5.743   5.317
 4197SOL    HW113490   5.281   5.649   5.307
 4197SOL    HW213491   5.346   5.776   5.228
 4198SOL     OW13492   5.486   3.067   6.347
 4198SOL    HW113493   5.421   3.099   6.415
 4198SOL    HW213494   5.569   3.035   6.392
 4199SOL     OW13495   1.890   3.761   6.559
 4199SOL    HW113496   1.845   3.678   6.591
 4199SOL    HW213497   1.932   3.743   6.470
 4200SOL     OW13498   3.092   6.012   4.974
 4200SOL    HW113499   3.138   6.030   5.061
 4200SOL    HW213500   3.129   6.073   4.904
 4201SOL     OW13501   6.179   6.293   3.570
 4201SOL    HW113502   6.194   6.201   3.607
 4201SOL    HW213503   6.249   6.313   3.502
 4202SOL     OW13504   4.305   5.954   5.659
 4202SOL    HW113505   4.402   5.938   5.641
 4202SOL    HW213506   4.250   5.883   5.615
 4203SOL     OW13507   4.837   5.510   1.329
 4203SOL    HW113508   4.894   5.430   1.348
 4203SOL    HW213509   4.744   5.481   1.307
 4204SOL     OW13510   3.526   2.839   2.278
 4204SOL    HW113511   3.584   2.889   2.342
 4204SOL    HW213512   3.549   2.741   2.280
 4205SOL     OW13513   3.558   5.052   4.100
 4205SOL    HW113514   3.557   5.065   4.199
 4205SOL    HW213515   3.561   5.141   4.054
 4206SOL     OW13516   5.705   0.878   5.977
 4206SOL    HW113517   5.781   0.943   5.973
 4206SOL    HW213518   5.740   0.785   5.971
 4207SOL     OW13519   2.076   1.751   1.597
 4207SOL    HW113520   2.140   1.745   1.520
 4207SOL    HW213521   2.060   1.659   1.634
 4208SOL     OW13522   0.983   3.066   6.689
 4208SOL    HW113523   1.057   3.024   6.636
 4208SOL    HW213524   0.978   3.163   6.669
 4209SOL     OW13525   0.459   1.861   5.133
 4209SOL    HW113526   0.384   1.894   5.076
 4209SOL    HW213527   0.437   1.771   5.170
 4210SOL     OW13528   2.837   3.555   2.187
 4210SOL    HW113529   2.840   3.459   2.213
 4210SOL    HW213530   2.778   3.566   2.106
 4211SOL     OW13531   3.788   5.464   5.088
 4211SOL    HW113532   3.769   5.474   4.991
 4211SOL    HW213533   3.775   5.369   5.115
 4212SOL     OW13534   6.217   2.506   2.119
 4212SOL    HW113535   6.219   2.490   2.021
 4212SOL    HW213536   6.196   2.602   2.137
 4213SOL     OW13537   2.739   1.009   2.797
 4213SOL    HW113538   2.773   1.015   2.703
 4213SOL    HW213539   2.693   0.922   2.810
 4214SOL     OW13540   1.004   3.945   5.823
 4214SOL    HW113541   0.975   3.963   5.917
 4214SOL    HW213542   0.930   3.901   5.773
 4215SOL     OW13543   6.591   5.951   4.557
 4215SOL    HW113544   6.651   5.997   4.492
 4215SOL    HW213545   6.549   5.871   4.513
 4216SOL     OW13546   1.618   1.757   3.411
 4216SOL    HW113547   1.717   1.750   3.423
 4216SOL    HW213548   1.580   1.818   3.480
 4217SOL     OW13549   6.687   0.069   2.487
 4217SOL    HW113550   6.746   0.058   2.407
 4217SOL    HW213551   6.689   7.007   2.540
 4218SOL     OW13552   5.221   0.226   1.406
 4218SOL    HW113553   5.271   0.295   1.458
 4218SOL    HW213554   5.151   0.185   1.465
 4219SOL     OW13555   3.030   5.368   4.154
 4219SOL    HW113556   3.057   5.452   4.107
 4219SOL    HW213557   2.983   5.308   4.090
 4220SOL     OW13558   6.012   2.503   3.181
 4220SOL    HW113559   5.985   2.577   3.120
 4220SOL    HW213560   6.053   2.429   3.129
 4221SOL     OW13561   6.206   5.592   6.185
 4221SOL    HW113562   6.245   5.653   6.255
 4221SOL    HW213563   6.171   5.510   6.229
 4222SOL     OW13564   6.002   2.500   2.542
 4222SOL    HW113565   6.090   2.512   2.495
 4222SOL    HW213566   5.942   2.577   2.521
 4223SOL     OW13567   3.032   3.420   4.983
 4223SOL    HW113568   2.985   3.367   5.053
 4223SOL    HW213569   3.052   3.362   4.904
 4224SOL     OW13570   4.872   2.966   3.581
 4224SOL    HW113571   4.960   2.944   3.538
 4224SOL    HW213572   4.808   2.892   3.564
 4225SOL     OW13573   4.221   0.308   5.662
 4225SOL    HW113574   4.160   0.387   5.669
 4225SOL    HW213575   4.314   0.334   5.686
 4226SOL     OW13576   0.505   0.513   3.317
 4226SOL    HW113577   0.540   0.606   3.318
 4226SOL    HW213578   0.405   0.515   3.308
 4227SOL     OW13579   3.243   4.955   6.592
 4227SOL    HW113580   3.253   4.978   6.495
 4227SOL    HW213581   3.200   5.032   6.640
 4228SOL     OW13582   0.414   3.475   3.148
 4228SOL    HW113583   0.449   3.410   3.082
 4228SOL    HW213584   0.316   3.491   3.131
 4229SOL     OW13585   4.493   5.275   6.014
 4229SOL    HW113586   4.563   5.346   6.021
 4229SOL    HW213587   4.470   5.241   6.105
 4230SOL     OW13588   2.029   0.829   4.840
 4230SOL    HW113589   1.983   0.835   4.752
 4230SOL    HW213590   2.008   0.741   4.883
 4231SOL     OW13591   5.142   6.304   4.350
 4231SOL    HW113592   5.199   6.225   4.327
 4231SOL    HW213593   5.167   6.338   4.440
 4232SOL     OW13594   6.858   4.556   2.014
 4232SOL    HW113595   6.783   4.622   2.017
 4232SOL    HW213596   6.944   4.602   2.035
 4233SOL     OW13597   0.225   0.572   6.910
 4233SOL    HW113598   0.155   0.602   6.845
 4233SOL    HW213599   0.194   0.489   6.956
 4234SOL     OW13600   1.456   0.252   5.947
 4234SOL    HW113601   1.537   0.304   5.972
 4234SOL    HW213602   1.465   0.158   5.981
 4235SOL     OW13603   6.150   3.410   5.127
 4235SOL    HW113604   6.241   3.370   5.140
 4235SOL    HW213605   6.142   3.494   5.181
 4236SOL     OW13606   0.789   3.367   3.014
 4236SOL    HW113607   0.816   3.423   3.092
 4236SOL    HW213608   0.807   3.271   3.034
 4237SOL     OW13609   6.384   4.863   4.312
 4237SOL    HW113610   6.400   4.930   4.240
 4237SOL    HW213611   6.423   4.897   4.398
 4238SOL     OW13612   4.416   4.776   3.732
 4238SOL    HW113613   4.383   4.721   3.808
 4238SOL    HW213614   4.477   4.720   3.675
 4239SOL     OW13615   6.413   1.024   3.460
 4239SOL    HW113616   6.507   1.055   3.475
 4239SOL    HW213617   6.396   1.016   3.362
 4240SOL     OW13618   2.181   7.004   0.088
 4240SOL    HW113619   2.099   0.027   0.052
 4240SOL    HW213620   2.254   0.049   0.099
 4241SOL     OW13621   4.987   1.271   1.286
 4241SOL    HW113622   5.029   1.322   1.211
 4241SOL    HW213623   4.937   1.193   1.248
 4242SOL     OW13624   2.140   0.984   3.006
 4242SOL    HW113625   2.148   0.886   3.021
 4242SOL    HW213626   2.057   1.003   2.954
 4243SOL     OW13627   0.796   3.598   3.244
 4243SOL    HW113628   0.873   3.543   3.275
 4243SOL    HW213629   0.712   3.562   3.285
 4244SOL     OW13630   4.594   5.160   0.830
 4244SOL    HW113631   4.516   5.198   0.780
 4244SOL    HW213632   4.612   5.215   0.911
 4245SOL     OW13633   6.476   1.500   6.512
 4245SOL    HW113634   6.499   1.405   6.533
 4245SOL    HW213635   6.504   1.522   6.419
 4246SOL     OW13636   5.823   2.269   3.484
 4246SOL    HW113637   5.754   2.257   3.555
 4246SOL    HW213638   5.890   2.337   3.514
 4247SOL     OW13639   2.348   5.269   3.831
 4247SOL    HW113640   2.284   5.193   3.820
 4247SOL    HW213641   2.311   5.335   3.897
 4248SOL     OW13642   1.407   1.236   3.734
 4248SOL    HW113643   1.409   1.234   3.634
 4248SOL    HW213644   1.313   1.236   3.766
 4249SOL     OW13645   6.034   1.278   3.425
 4249SOL    HW113646   6.010   1.181   3.435
 4249SOL    HW213647   6.116   1.287   3.369
 4250SOL     OW13648   6.911   5.961   4.195
 4250SOL    HW113649   6.917   6.005   4.105
 4250SOL    HW213650   6.961   5.875   4.193
 4251SOL     OW13651   6.630   2.887   0.472
 4251SOL    HW113652   6.723   2.887   0.509
 4251SOL    HW213653   6.570   2.834   0.531
 4252SOL     OW13654   5.235   6.399   6.592
 4252SOL    HW113655   5.334   6.406   6.597
 4252SOL    HW213656   5.210   6.308   6.559
 4253SOL     OW13657   3.677   6.154   2.177
 4253SOL    HW113658   3.720   6.177   2.090
 4253SOL    HW213659   3.579   6.169   2.171
 4254SOL     OW13660   2.073   4.465   1.717
 4254SOL    HW113661   2.110   4.533   1.654
 4254SOL    HW213662   2.002   4.507   1.773
 4255SOL     OW13663   0.195   3.784   3.718
 4255SOL    HW113664   0.113   3.832   3.685
 4255SOL    HW213665   0.185   3.764   3.815
 4256SOL     OW13666   0.968   6.136   1.575
 4256SOL    HW113667   0.995   6.223   1.534
 4256SOL    HW213668   1.036   6.109   1.643
 4257SOL     OW13669   4.926   1.162   4.249
 4257SOL    HW113670   5.009   1.216   4.265
 4257SOL    HW213671   4.866   1.169   4.329
 4258SOL     OW13672   3.258   6.309   1.202
 4258SOL    HW113673   3.302   6.228   1.241
 4258SOL    HW213674   3.207   6.283   1.120
 4259SOL     OW13675   1.599   6.299   0.863
 4259SOL    HW113676   1.612   6.207   0.824
 4259SOL    HW213677   1.533   6.350   0.808
 4260SOL     OW13678   5.498   0.268   3.637
 4260SOL    HW113679   5.495   0.192   3.572
 4260SOL    HW213680   5.585   0.317   3.627
 4261SOL     OW13681   1.823   0.774   2.705
 4261SOL    HW113682   1.784   0.805   2.618
 4261SOL    HW213683   1.834   0.675   2.703
 4262SOL     OW13684   1.049   4.321   6.167
 4262SOL    HW113685   1.140   4.358   6.149
 4262SOL    HW213686   0.986   4.354   6.096
 4263SOL     OW13687   2.647   1.183   3.611
 4263SOL    HW113688   2.655   1.174   3.512
 4263SOL    HW213689   2.623   1.277   3.634
 4264SOL     OW13690   6.007   2.115   4.095
 4264SOL    HW113691   5.999   2.209   4.128
 4264SOL    HW213692   6.082   2.109   4.029
 4265SOL     OW13693   3.763   1.142   0.818
 4265SOL    HW113694   3.723   1.127   0.909
 4265SOL    HW213695   3.692   1.132   0.748
 4266SOL     OW13696   1.660   6.602   6.992
 4266SOL    HW113697   1.592   6.555   0.025
 4266SOL    HW213698   1.746   6.610   0.021
 4267SOL     OW13699   2.145   3.545   3.915
 4267SOL    HW113700   2.070   3.479   3.916
 4267SOL    HW213701   2.171   3.567   4.009
 4268SOL     OW13702   2.180   5.743   6.628
 4268SOL    HW113703   2.236   5.722   6.708
 4268SOL    HW213704   2.105   5.677   6.621
 4269SOL     OW13705   2.998   1.018   3.961
 4269SOL    HW113706   2.971   0.926   3.933
 4269SOL    HW213707   2.980   1.082   3.886
 4270SOL     OW13708   3.087   3.020   2.214
 4270SOL    HW113709   3.178   2.984   2.192
 4270SOL    HW213710   3.059   2.987   2.304
 4271SOL     OW13711   0.049   1.316   0.090
 4271SOL    HW113712   0.050   1.360   7.022
 4271SOL    HW213713   0.086   1.380   0.157
 4272SOL     OW13714   6.818   2.716   4.975
 4272SOL    HW113715   6.764   2.781   4.922
 4272SOL    HW213716   6.911   2.752   4.988
 4273SOL     OW13717   5.080   6.297   5.105
 4273SOL    HW113718   5.024   6.346   5.038
 4273SOL    HW213719   5.176   6.310   5.083
 4274SOL     OW13720   1.152   0.192   1.713
 4274SOL    HW113721   1.236   0.147   1.745
 4274SOL    HW213722   1.072   0.146   1.752
 4275SOL     OW13723   0.557   1.892   3.929
 4275SOL    HW113724   0.472   1.937   3.903
 4275SOL    HW213725   0.590   1.837   3.852
 4276SOL     OW13726   3.092   4.928   4.065
 4276SOL    HW113727   3.017   4.899   4.005
 4276SOL    HW213728   3.175   4.939   4.010
 4277SOL     OW13729   0.623   4.517   2.430
 4277SOL    HW113730   0.589   4.427   2.458
 4277SOL    HW213731   0.547   4.582   2.424
 4278SOL     OW13732   0.511   7.009   3.916
 4278SOL    HW113733   0.607   0.014   3.915
 4278SOL    HW213734   0.501   6.921   3.869
 4279SOL     OW13735   1.216   1.175   2.567
 4279SOL    HW113736   1.283   1.197   2.639
 4279SOL    HW213737   1.168   1.259   2.540
 4280SOL     OW13738   6.110   6.933   6.072
 4280SOL    HW113739   6.123   0.003   6.037
 4280SOL    HW213740   6.166   6.869   6.019
 4281SOL     OW13741   5.426   4.735   3.284
 4281SOL    HW113742   5.458   4.781   3.201
 4281SOL    HW213743   5.383   4.648   3.259
 4282SOL     OW13744   2.716   4.926   0.650
 4282SOL    HW113745   2.737   4.870   0.570
 4282SOL    HW213746   2.679   4.868   0.723
 4283SOL     OW13747   3.497   1.139   3.483
 4283SOL    HW113748   3.499   1.224   3.535
 4283SOL    HW213749   3.430   1.148   3.409
 4284SOL     OW13750   4.356   5.531   0.698
 4284SOL    HW113751   4.318   5.557   0.787
 4284SOL    HW213752   4.337   5.604   0.632
 4285SOL     OW13753   2.402   1.070   5.778
 4285SOL    HW113754   2.336   1.134   5.739
 4285SOL    HW213755   2.410   0.990   5.718
 4286SOL     OW13756   5.649   0.113   5.880
 4286SOL    HW113757   5.742   0.127   5.849
 4286SOL    HW213758   5.650   0.082   5.976
 4287SOL     OW13759   4.617   1.051   5.630
 4287SOL    HW113760   4.598   1.112   5.553
 4287SOL    HW213761   4.545   0.983   5.637
 4288SOL     OW13762   0.686   5.329   3.227
 4288SOL    HW113763   0.593   5.295   3.245
 4288SOL    HW213764   0.731   5.268   3.162
 4289SOL     OW13765   0.937   2.362   6.435
 4289SOL    HW113766   0.871   2.398   6.370
 4289SOL    HW213767   0.974   2.276   6.400
 4290SOL     OW13768   0.253   6.468   5.052
 4290SOL    HW113769   0.277   6.510   5.139
 4290SOL    HW213770   0.330   6.475   4.989
 4291SOL     OW13771   5.116   4.180   6.170
 4291SOL    HW113772   5.020   4.168   6.196
 4291SOL    HW213773   5.172   4.111   6.216
 4292SOL     OW13774   5.595   3.101   0.001
 4292SOL    HW113775   5.582   3.188   0.048
 4292SOL    HW213776   5.509   3.073   6.981
 4293SOL     OW13777   3.329   4.430   6.792
 4293SOL    HW113778   3.276   4.417   6.708
 4293SOL    HW213779   3.424   4.451   6.769
 4294SOL     OW13780   2.100   1.886   6.108
 4294SOL    HW113781   2.073   1.926   6.020
 4294SOL    HW213782   2.200   1.879   6.111
 4295SOL     OW13783   4.296   6.092   3.678
 4295SOL    HW113784   4.245   6.175   3.702
 4295SOL    HW213785   4.316   6.040   3.761
 4296SOL     OW13786   3.051   6.831   0.382
 4296SOL    HW113787   2.971   6.859   0.329
 4296SOL    HW213788   3.054   6.731   0.387
 4297SOL     OW13789   6.435   6.585   2.048
 4297SOL    HW113790   6.447   6.529   2.130
 4297SOL    HW213791   6.438   6.526   1.967
 4298SOL     OW13792   3.039   6.250   1.878
 4298SOL    HW113793   3.051   6.266   1.781
 4298SOL    HW213794   3.107   6.302   1.930
 4299SOL     OW13795   0.551   3.099   6.816
 4299SOL    HW113796   0.548   3.168   6.889
 4299SOL    HW213797   0.627   3.118   6.755
 4300SOL     OW13798   2.838   6.990   0.263
 4300SOL    HW113799   2.766   6.947   0.318
 4300SOL    HW213800   2.802   7.011   0.172
 4301SOL     OW13801   4.374   0.611   1.924
 4301SOL    HW113802   4.281   0.596   1.958
 4301SOL    HW213803   4.403   0.704   1.945
 4302SOL     OW13804   6.548   6.894   6.447
 4302SOL    HW113805   6.635   6.868   6.404
 4302SOL    HW213806   6.473   6.875   6.384
 4303SOL     OW13807   6.973   4.735   3.758
 4303SOL    HW113808   6.981   4.636   3.744
 4303SOL    HW213809   6.916   4.753   3.838
 4304SOL     OW13810   3.546   3.635   2.426
 4304SOL    HW113811   3.502   3.623   2.337
 4304SOL    HW213812   3.477   3.635   2.498
 4305SOL     OW13813   0.571   6.478   6.186
 4305SOL    HW113814   0.554   6.577   6.186
 4305SOL    HW213815   0.508   6.434   6.249
 4306SOL     OW13816   5.041   5.175   4.409
 4306SOL    HW113817   5.066   5.124   4.491
 4306SOL    HW213818   4.963   5.234   4.429
 4307SOL     OW13819   5.611   3.177   4.942
 4307SOL    HW113820   5.512   3.194   4.946
 4307SOL    HW213821   5.653   3.203   5.028
 4308SOL     OW13822   5.672   5.311   1.323
 4308SOL    HW113823   5.637   5.226   1.283
 4308SOL    HW213824   5.768   5.299   1.347
 4309SOL     OW13825   1.521   2.338   0.487
 4309SOL    HW113826   1.586   2.373   0.553
 4309SOL    HW213827   1.434   2.318   0.533
 4310SOL     OW13828   1.748   2.434   1.583
 4310SOL    HW113829   1.731   2.501   1.511
 4310SOL    HW213830   1.847   2.418   1.591
 4311SOL     OW13831   0.929   6.051   2.142
 4311SOL    HW113832   0.978   5.967   2.118
 4311SOL    HW213833   0.875   6.082   2.063
 4312SOL     OW13834   1.721   5.648   2.979
 4312SOL    HW113835   1.731   5.583   3.055
 4312SOL    HW213836   1.648   5.713   3.001
 4313SOL     OW13837   4.374   1.883   0.120
 4313SOL    HW113838   4.287   1.887   0.169
 4313SOL    HW213839   4.404   1.787   0.113
 4314SOL     OW13840   6.273   1.648   5.087
 4314SOL    HW113841   6.340   1.635   5.160
 4314SOL    HW213842   6.321   1.666   5.001
 4315SOL     OW13843   2.129   1.099   3.252
 4315SOL    HW113844   2.160   1.194   3.251
 4315SOL    HW213845   2.128   1.063   3.159
 4316SOL     OW13846   5.136   0.312   2.319
 4316SOL    HW113847   5.067   0.339   2.252
 4316SOL    HW213848   5.099   0.238   2.376
 4317SOL     OW13849   4.645   1.582   5.979
 4317SOL    HW113850   4.563   1.532   5.949
 4317SOL    HW213851   4.622   1.678   5.992
 4318SOL     OW13852   0.659   1.277   4.733
 4318SOL    HW113853   0.619   1.364   4.703
 4318SOL    HW213854   0.657   1.274   4.833
 4319SOL     OW13855   1.477   1.817   0.878
 4319SOL    HW113856   1.505   1.847   0.969
 4319SOL    HW213857   1.396   1.868   0.850
 4320SOL     OW13858   3.628   5.464   1.251
 4320SOL    HW113859   3.551   5.443   1.191
 4320SOL    HW213860   3.688   5.385   1.257
 4321SOL     OW13861   6.671   4.525   3.698
 4321SOL    HW113862   6.695   4.442   3.647
 4321SOL    HW213863   6.685   4.604   3.639
 4322SOL     OW13864   6.524   3.427   6.184
 4322SOL    HW113865   6.443   3.368   6.185
 4322SOL    HW213866   6.606   3.372   6.202
 4323SOL     OW13867   5.157   5.101   0.421
 4323SOL    HW113868   5.090   5.054   0.479
 4323SOL    HW213869   5.246   5.056   0.430
 4324SOL     OW13870   6.150   3.997   5.744
 4324SOL    HW113871   6.204   3.913   5.755
 4324SOL    HW213872   6.210   4.072   5.718
 4325SOL     OW13873   2.757   1.480   2.287
 4325SOL    HW113874   2.717   1.501   2.198
 4325SOL    HW213875   2.698   1.516   2.359
 4326SOL     OW13876   5.571   4.236   2.058
 4326SOL    HW113877   5.537   4.330   2.048
 4326SOL    HW213878   5.499   4.178   2.094
 4327SOL     OW13879   4.275   6.183   2.804
 4327SOL    HW113880   4.338   6.171   2.728
 4327SOL    HW213881   4.263   6.280   2.823
 4328SOL     OW13882   5.516   4.289   5.231
 4328SOL    HW113883   5.559   4.323   5.148
 4328SOL    HW213884   5.577   4.306   5.309
 4329SOL     OW13885   6.031   2.640   5.769
 4329SOL    HW113886   5.967   2.568   5.742
 4329SOL    HW213887   6.124   2.602   5.775
 4330SOL     OW13888   1.643   6.797   3.836
 4330SOL    HW113889   1.711   6.831   3.901
 4330SOL    HW213890   1.689   6.762   3.754
 4331SOL     OW13891   6.240   0.911   1.584
 4331SOL    HW113892   6.301   0.844   1.625
 4331SOL    HW213893   6.268   0.929   1.490
 4332SOL     OW13894   6.853   2.855   2.885
 4332SOL    HW113895   6.768   2.808   2.905
 4332SOL    HW213896   6.924   2.788   2.860
 4333SOL     OW13897   4.207   1.703   5.055
 4333SOL    HW113898   4.165   1.760   4.985
 4333SOL    HW213899   4.301   1.731   5.069
 4334SOL     OW13900   1.527   2.857   2.186
 4334SOL    HW113901   1.600   2.925   2.174
 4334SOL    HW213902   1.440   2.905   2.197
 4335SOL     OW13903   3.751   2.929   1.809
 4335SOL    HW113904   3.851   2.923   1.800
 4335SOL    HW213905   3.728   2.938   1.906
 4336SOL     OW13906   2.631   5.400   5.853
 4336SOL    HW113907   2.644   5.302   5.870
 4336SOL    HW213908   2.714   5.438   5.811
 4337SOL     OW13909   2.223   4.647   1.595
 4337SOL    HW113910   2.228   4.714   1.521
 4337SOL    HW213911   2.287   4.672   1.668
 4338SOL     OW13912   6.101   0.308   6.476
 4338SOL    HW113913   6.074   0.353   6.391
 4338SOL    HW213914   6.201   0.307   6.483
 4339SOL     OW13915   3.893   2.371   6.522
 4339SOL    HW113916   3.917   2.394   6.428
 4339SOL    HW213917   3.920   2.447   6.583
 4340SOL     OW13918   5.935   3.742   0.780
 4340SOL    HW113919   5.901   3.736   0.686
 4340SOL    HW213920   5.858   3.734   0.844
 4341SOL     OW13921   1.254   4.893   1.145
 4341SOL    HW113922   1.250   4.861   1.050
 4341SOL    HW213923   1.179   4.852   1.197
 4342SOL     OW13924   5.199   3.563   2.990
 4342SOL    HW113925   5.282   3.618   2.995
 4342SOL    HW213926   5.213   3.487   2.926
 4343SOL     OW13927   3.260   6.409   5.130
 4343SOL    HW113928   3.347   6.456   5.143
 4343SOL    HW213929   3.275   6.310   5.131
 4344SOL     OW13930   0.962   2.874   3.073
 4344SOL    HW113931   0.920   2.826   2.996
 4344SOL    HW213932   0.894   2.934   3.115
 4345SOL     OW13933   3.019   3.171   4.747
 4345SOL    HW113934   2.940   3.199   4.691
 4345SOL    HW213935   3.067   3.096   4.701
 4346SOL     OW13936   2.278   2.705   2.366
 4346SOL    HW113937   2.338   2.670   2.295
 4346SOL    HW213938   2.187   2.722   2.328
 4347SOL     OW13939   5.948   6.860   2.347
 4347SOL    HW113940   5.881   6.872   2.421
 4347SOL    HW213941   6.034   6.904   2.374
 4348SOL     OW13942   0.648   5.760   4.050
 4348SOL    HW113943   0.656   5.689   3.980
 4348SOL    HW213944   0.736   5.806   4.061
 4349SOL     OW13945   6.946   2.836   3.990
 4349SOL    HW113946   6.927   2.845   4.088
 4349SOL    HW213947   6.910   2.749   3.957
 4350SOL     OW13948   4.642   2.225   4.204
 4350SOL    HW113949   4.636   2.188   4.297
 4350SOL    HW213950   4.554   2.265   4.178
 4351SOL     OW13951   1.336   6.191   1.279
 4351SOL    HW113952   1.362   6.104   1.237
 4351SOL    HW213953   1.372   6.196   1.372
 4352SOL     OW13954   6.216   4.146   1.852
 4352SOL    HW113955   6.230   4.108   1.760
 4352SOL    HW213956   6.122   4.179   1.861
 4353SOL     OW13957   3.359   3.813   0.337
 4353SOL    HW113958   3.270   3.773   0.360
 4353SOL    HW213959   3.350   3.912   0.332
 4354SOL     OW13960   1.263   1.797   6.181
 4354SOL    HW113961   1.345   1.746   6.152
 4354SOL    HW213962   1.201   1.735   6.229
 4355SOL     OW13963   1.925   6.920   2.791
 4355SOL    HW113964   2.015   6.914   2.746
 4355SOL    HW213965   1.932   6.979   2.871
 4356SOL     OW13966   4.532   3.479   5.402
 4356SOL    HW113967   4.602   3.506   5.468
 4356SOL    HW213968   4.565   3.496   5.309
 4357SOL     OW13969   6.933   1.552   1.320
 4357SOL    HW113970   6.942   1.607   1.236
 4357SOL    HW213971   6.984   1.467   1.310
 4358SOL     OW13972   6.812   0.149   0.252
 4358SOL    HW113973   6.731   0.197   0.286
 4358SOL    HW213974   6.815   0.058   0.293
 4359SOL     OW13975   1.593   1.289   6.792
 4359SOL    HW113976   1.683   1.246   6.786
 4359SOL    HW213977   1.536   1.240   6.858
 4360SOL     OW13978   0.644   2.642   4.734
 4360SOL    HW113979   0.575   2.667   4.802
 4360SOL    HW213980   0.710   2.579   4.775
 4361SOL     OW13981   1.946   3.749   1.379
 4361SOL    HW113982   1.909   3.668   1.424
 4361SOL    HW213983   2.046   3.744   1.376
 4362SOL     OW13984   0.073   5.774   3.764
 4362SOL    HW113985   6.996   5.773   3.772
 4362SOL    HW213986   0.103   5.690   3.720
 4363SOL     OW13987   4.513   1.300   2.302
 4363SOL    HW113988   4.524   1.208   2.339
 4363SOL    HW213989   4.585   1.318   2.236
 4364SOL     OW13990   3.071   3.998   3.225
 4364SOL    HW113991   3.035   4.022   3.135
 4364SOL    HW213992   3.160   4.042   3.238
 4365SOL     OW13993   3.041   0.680   1.991
 4365SOL    HW113994   3.026   0.581   1.984
 4365SOL    HW213995   3.135   0.697   2.024
 4366SOL     OW13996   6.087   6.160   6.481
 4366SOL    HW113997   6.076   6.116   6.570
 4366SOL    HW213998   6.174   6.132   6.440
 4367SOL     OW13999   3.046   5.047   3.641
 4367SOL    HW114000   3.003   5.024   3.728
 4367SOL    HW214001   3.018   4.981   3.571
 4368SOL     OW14002   3.849   5.367   2.013
 4368SOL    HW114003   3.794   5.434   1.963
 4368SOL    HW214004   3.797   5.333   2.092
 4369SOL     OW14005   4.946   5.328   3.363
 4369SOL    HW114006   4.870   5.334   3.299
 4369SOL    HW214007   5.024   5.379   3.328
 4370SOL     OW14008   3.463   4.006   1.497
 4370SOL    HW114009   3.463   3.925   1.555
 4370SOL    HW214010   3.382   4.006   1.439
 4371SOL     OW14011   2.252   1.340   3.257
 4371SOL    HW114012   2.189   1.416   3.240
 4371SOL    HW214013   2.288   1.348   3.350
 4372SOL     OW14014   2.302   2.966   3.959
 4372SOL    HW114015   2.385   3.022   3.948
 4372SOL    HW214016   2.250   2.997   4.038
 4373SOL     OW14017   4.459   0.754   6.510
 4373SOL    HW114018   4.451   0.846   6.471
 4373SOL    HW214019   4.556   0.727   6.511
 4374SOL     OW14020   2.244   1.673   1.412
 4374SOL    HW114021   2.302   1.749   1.384
 4374SOL    HW214022   2.301   1.595   1.437
 4375SOL     OW14023   4.292   6.481   2.787
 4375SOL    HW114024   4.384   6.520   2.786
 4375SOL    HW214025   4.259   6.470   2.693
 4376SOL     OW14026   6.396   0.609   1.621
 4376SOL    HW114027   6.462   0.536   1.639
 4376SOL    HW214028   6.383   0.663   1.705
 4377SOL     OW14029   6.170   5.777   0.717
 4377SOL    HW114030   6.120   5.841   0.775
 4377SOL    HW214031   6.263   5.812   0.702
 4378SOL     OW14032   1.439   4.452   2.826
 4378SOL    HW114033   1.416   4.399   2.744
 4378SOL    HW214034   1.473   4.391   2.897
 4379SOL     OW14035   2.333   1.130   1.732
 4379SOL    HW114036   2.284   1.043   1.721
 4379SOL    HW214037   2.430   1.112   1.743
 4380SOL     OW14038   1.760   6.420   4.215
 4380SOL    HW114039   1.727   6.463   4.299
 4380SOL    HW214040   1.687   6.422   4.146
 4381SOL     OW14041   2.117   4.084   4.825
 4381SOL    HW114042   2.126   4.045   4.733
 4381SOL    HW214043   2.196   4.057   4.880
 4382SOL     OW14044   5.922   3.878   6.313
 4382SOL    HW114045   5.915   3.927   6.225
 4382SOL    HW214046   5.982   3.929   6.374
 4383SOL     OW14047   0.210   2.673   5.557
 4383SOL    HW114048   0.230   2.576   5.571
 4383SOL    HW214049   0.295   2.725   5.555
 4384SOL     OW14050   5.340   0.789   6.902
 4384SOL    HW114051   5.322   0.884   6.877
 4384SOL    HW214052   5.289   0.767   6.985
 4385SOL     OW14053   0.075   2.875   4.574
 4385SOL    HW114054   0.031   2.963   4.560
 4385SOL    HW214055   0.038   2.808   4.509
 4386SOL     OW14056   0.896   3.354   6.846
 4386SOL    HW114057   0.907   3.355   6.747
 4386SOL    HW214058   0.862   3.444   6.876
 4387SOL     OW14059   0.856   2.390   1.829
 4387SOL    HW114060   0.836   2.488   1.834
 4387SOL    HW214061   0.770   2.339   1.828
 4388SOL     OW14062   5.111   0.899   6.681
 4388SOL    HW114063   5.102   0.804   6.712
 4388SOL    HW214064   5.037   0.954   6.721
 4389SOL     OW14065   5.661   1.416   0.509
 4389SOL    HW114066   5.614   1.450   0.427
 4389SOL    HW214067   5.718   1.337   0.483
 4390SOL     OW14068   3.576   2.048   2.108
 4390SOL    HW114069   3.659   1.998   2.134
 4390SOL    HW214070   3.600   2.120   2.042
 4391SOL     OW14071   1.674   5.420   6.381
 4391SOL    HW114072   1.625   5.334   6.364
 4391SOL    HW214073   1.757   5.402   6.434
 4392SOL     OW14074   6.189   3.410   4.791
 4392SOL    HW114075   6.225   3.317   4.793
 4392SOL    HW214076   6.090   3.408   4.789
 4393SOL     OW14077   5.202   6.579   2.888
 4393SOL    HW114078   5.141   6.649   2.925
 4393SOL    HW214079   5.250   6.533   2.962
 4394SOL     OW14080   6.471   5.371   2.751
 4394SOL    HW114081   6.475   5.330   2.660
 4394SOL    HW214082   6.471   5.471   2.742
 4395SOL     OW14083   4.071   1.744   1.950
 4395SOL    HW114084   4.163   1.706   1.942
 4395SOL    HW214085   4.004   1.670   1.949
 4396SOL     OW14086   2.570   1.960   3.824
 4396SOL    HW114087   2.659   1.951   3.868
 4396SOL    HW214088   2.519   2.034   3.868
 4397SOL     OW14089   0.355   1.428   4.750
 4397SOL    HW114090   0.409   1.493   4.695
 4397SOL    HW214091   0.284   1.477   4.799
 4398SOL     OW14092   1.297   4.403   4.923
 4398SOL    HW114093   1.360   4.343   4.875
 4398SOL    HW214094   1.271   4.479   4.863
 4399SOL     OW14095   2.022   0.374   2.010
 4399SOL    HW114096   2.022   0.286   1.964
 4399SOL    HW214097   2.039   0.361   2.108
 4400SOL     OW14098   2.063   6.519   4.534
 4400SOL    HW114099   1.968   6.550   4.545
 4400SOL    HW214100   2.077   6.436   4.587
 4401SOL     OW14101   5.581   6.231   6.446
 4401SOL    HW114102   5.572   6.323   6.485
 4401SOL    HW214103   5.619   6.238   6.354
 4402SOL     OW14104   1.817   6.288   2.435
 4402SOL    HW114105   1.768   6.203   2.456
 4402SOL    HW214106   1.915   6.274   2.452
 4403SOL     OW14107   0.142   6.910   3.700
 4403SOL    HW114108   0.105   7.002   3.710
 4403SOL    HW214109   0.115   6.855   3.779
 4404SOL     OW14110   0.793   4.263   5.499
 4404SOL    HW114111   0.810   4.354   5.538
 4404SOL    HW214112   0.747   4.206   5.567
 4405SOL     OW14113   2.854   3.849   0.415
 4405SOL    HW114114   2.902   3.847   0.328
 4405SOL    HW214115   2.779   3.782   0.414
 4406SOL     OW14116   5.690   4.558   1.689
 4406SOL    HW114117   5.610   4.540   1.631
 4406SOL    HW214118   5.761   4.603   1.635
 4407SOL     OW14119   0.124   4.793   0.479
 4407SOL    HW114120   0.108   4.826   0.573
 4407SOL    HW214121   0.163   4.701   0.483
 4408SOL     OW14122   4.827   1.041   0.810
 4408SOL    HW114123   4.768   1.091   0.746
 4408SOL    HW214124   4.803   0.943   0.806
 4409SOL     OW14125   4.058   0.864   2.326
 4409SOL    HW114126   4.048   0.815   2.239
 4409SOL    HW214127   3.998   0.823   2.394
 4410SOL     OW14128   1.697   4.809   0.328
 4410SOL    HW114129   1.782   4.800   0.275
 4410SOL    HW214130   1.690   4.732   0.392
 4411SOL     OW14131   3.892   3.280   3.833
 4411SOL    HW114132   3.923   3.206   3.893
 4411SOL    HW214133   3.969   3.314   3.779
 4412SOL     OW14134   3.671   1.533   4.507
 4412SOL    HW114135   3.761   1.509   4.470
 4412SOL    HW214136   3.616   1.576   4.436
 4413SOL     OW14137   4.865   5.889   4.923
 4413SOL    HW114138   4.909   5.972   4.888
 4413SOL    HW214139   4.837   5.831   4.847
 4414SOL     OW14140   4.239   4.627   1.878
 4414SOL    HW114141   4.170   4.587   1.818
 4414SOL    HW214142   4.284   4.703   1.831
 4415SOL     OW14143   3.922   4.128   6.231
 4415SOL    HW114144   4.004   4.146   6.286
 4415SOL    HW214145   3.845   4.112   6.292
 4416SOL     OW14146   3.196   0.479   4.550
 4416SOL    HW114147   3.171   0.383   4.539
 4416SOL    HW214148   3.259   0.506   4.477
 4417SOL     OW14149   6.781   4.374   3.040
 4417SOL    HW114150   6.778   4.289   2.988
 4417SOL    HW214151   6.819   4.447   2.983
 4418SOL     OW14152   5.652   0.776   4.110
 4418SOL    HW114153   5.735   0.738   4.152
 4418SOL    HW214154   5.672   0.803   4.016
 4419SOL     OW14155   5.954   6.176   0.362
 4419SOL    HW114156   5.922   6.115   0.290
 4419SOL    HW214157   6.001   6.123   0.433
 4420SOL     OW14158   5.076   1.703   1.032
 4420SOL    HW114159   5.140   1.777   1.049
 4420SOL    HW214160   4.983   1.735   1.046
 4421SOL     OW14161   1.971   1.142   3.482
 4421SOL    HW114162   1.936   1.060   3.527
 4421SOL    HW214163   2.003   1.119   3.390
 4422SOL     OW14164   2.251   3.766   5.769
 4422SOL    HW114165   2.269   3.687   5.711
 4422SOL    HW214166   2.177   3.820   5.729
 4423SOL     OW14167   1.434   3.051   5.967
 4423SOL    HW114168   1.389   3.055   6.056
 4423SOL    HW214169   1.523   3.097   5.972
 4424SOL     OW14170   5.506   6.344   4.064
 4424SOL    HW114171   5.469   6.418   4.120
 4424SOL    HW214172   5.573   6.292   4.116
 4425SOL     OW14173   3.466   5.496   5.745
 4425SOL    HW114174   3.472   5.553   5.662
 4425SOL    HW214175   3.472   5.555   5.826
 4426SOL     OW14176   0.285   1.908   4.918
 4426SOL    HW114177   0.260   1.897   4.822
 4426SOL    HW214178   0.382   1.931   4.925
 4427SOL     OW14179   6.790   6.651   2.815
 4427SOL    HW114180   6.861   6.648   2.885
 4427SOL    HW214181   6.700   6.654   2.859
 4428SOL     OW14182   2.981   5.175   2.338
 4428SOL    HW114183   3.068   5.225   2.334
 4428SOL    HW214184   2.998   5.080   2.365
 4429SOL     OW14185   3.062   0.691   4.317
 4429SOL    HW114186   3.130   0.622   4.342
 4429SOL    HW214187   2.973   0.665   4.356
 4430SOL     OW14188   5.592   3.062   3.921
 4430SOL    HW114189   5.688   3.059   3.894
 4430SOL    HW214190   5.581   3.016   4.009
 4431SOL     OW14191   1.572   1.085   2.145
 4431SOL    HW114192   1.523   1.134   2.073
 4431SOL    HW214193   1.663   1.059   2.111
 4432SOL     OW14194   3.275   3.705   3.745
 4432SOL    HW114195   3.292   3.772   3.672
 4432SOL    HW214196   3.198   3.646   3.718
 4433SOL     OW14197   6.105   0.552   4.713
 4433SOL    HW114198   6.057   0.557   4.800
 4433SOL    HW214199   6.131   0.457   4.694
 4434SOL     OW14200   3.967   2.187   3.341
 4434SOL    HW114201   4.033   2.230   3.402
 4434SOL    HW214202   4.010   2.168   3.253
 4435SOL     OW14203   4.388   3.744   0.765
 4435SOL    HW114204   4.289   3.754   0.772
 4435SOL    HW214205   4.430   3.766   0.853
 4436SOL     OW14206   3.256   2.257   0.712
 4436SOL    HW114207   3.355   2.242   0.703
 4436SOL    HW214208   3.212   2.240   0.625
 4437SOL     OW14209   5.488   1.145   3.861
 4437SOL    HW114210   5.483   1.068   3.924
 4437SOL    HW214211   5.431   1.127   3.781
 4438SOL     OW14212   4.019   1.019   6.801
 4438SOL    HW114213   4.040   0.981   6.711
 4438SOL    HW214214   4.046   1.115   6.804
 4439SOL     OW14215   0.250   6.143   1.271
 4439SOL    HW114216   0.348   6.133   1.286
 4439SOL    HW214217   0.208   6.052   1.268
 4440SOL     OW14218   1.739   4.412   0.308
 4440SOL    HW114219   1.835   4.413   0.334
 4440SOL    HW214220   1.682   4.395   0.389
 4441SOL     OW14221   6.619   1.824   2.866
 4441SOL    HW114222   6.712   1.855   2.848
 4441SOL    HW214223   6.595   1.750   2.803
 4442SOL     OW14224   3.058   6.129   4.222
 4442SOL    HW114225   2.965   6.097   4.236
 4442SOL    HW214226   3.123   6.065   4.264
 4443SOL     OW14227   0.189   2.974   0.492
 4443SOL    HW114228   0.248   2.936   0.563
 4443SOL    HW214229   0.118   2.908   0.468
 4444SOL     OW14230   3.767   5.627   6.086
 4444SOL    HW114231   3.808   5.712   6.121
 4444SOL    HW214232   3.797   5.550   6.142
 4445SOL     OW14233   0.281   0.641   0.784
 4445SOL    HW114234   0.272   0.564   0.848
 4445SOL    HW214235   0.204   0.640   0.720
 4446SOL     OW14236   5.832   1.617   2.033
 4446SOL    HW114237   5.797   1.632   2.126
 4446SOL    HW214238   5.924   1.580   2.038
 4447SOL     OW14239   5.983   3.626   5.875
 4447SOL    HW114240   5.993   3.625   5.975
 4447SOL    HW214241   5.998   3.718   5.841
 4448SOL     OW14242   3.524   4.088   1.151
 4448SOL    HW114243   3.435   4.080   1.106
 4448SOL    HW214244   3.558   3.996   1.174
 4449SOL     OW14245   4.141   0.700   6.005
 4449SOL    HW114246   4.165   0.679   5.910
 4449SOL    HW214247   4.183   0.634   6.066
 4450SOL     OW14248   4.163   3.609   4.632
 4450SOL    HW114249   4.231   3.669   4.675
 4450SOL    HW214250   4.157   3.631   4.534
 4451SOL     OW14251   5.666   4.039   2.987
 4451SOL    HW114252   5.697   4.103   2.918
 4451SOL    HW214253   5.570   4.057   3.009
 4452SOL     OW14254   5.472   6.817   5.240
 4452SOL    HW114255   5.548   6.852   5.186
 4452SOL    HW214256   5.508   6.781   5.327
 4453SOL     OW14257   6.272   2.384   1.136
 4453SOL    HW114258   6.363   2.424   1.127
 4453SOL    HW214259   6.203   2.448   1.103
 4454SOL     OW14260   5.128   2.106   6.973
 4454SOL    HW114261   5.153   2.118   6.877
 4454SOL    HW214262   5.068   2.026   6.982
 4455SOL     OW14263   3.673   0.239   6.339
 4455SOL    HW114264   3.596   0.304   6.348
 4455SOL    HW214265   3.754   0.288   6.309
 4456SOL     OW14266   2.677   5.049   2.759
 4456SOL    HW114267   2.762   5.011   2.795
 4456SOL    HW214268   2.647   5.124   2.817
 4457SOL     OW14269   4.404   2.107   0.312
 4457SOL    HW114270   4.310   2.138   0.298
 4457SOL    HW214271   4.423   2.030   0.251
 4458SOL     OW14272   1.000   3.807   6.886
 4458SOL    HW114273   0.968   3.786   6.978
 4458SOL    HW214274   1.066   3.882   6.890
 4459SOL     OW14275   5.110   0.865   3.341
 4459SOL    HW114276   5.013   0.854   3.319
 4459SOL    HW214277   5.120   0.893   3.437
 4460SOL     OW14278   2.750   3.139   5.540
 4460SOL    HW114279   2.818   3.205   5.573
 4460SOL    HW214280   2.665   3.152   5.591
 4461SOL     OW14281   0.757   0.640   2.703
 4461SOL    HW114282   0.815   0.697   2.646
 4461SOL    HW214283   0.778   0.655   2.799
 4462SOL     OW14284   0.014   3.428   1.792
 4462SOL    HW114285   0.022   3.446   1.694
 4462SOL    HW214286   0.104   3.414   1.832
 4463SOL     OW14287   2.630   2.875   6.943
 4463SOL    HW114288   2.647   2.894   6.847
 4463SOL    HW214289   2.712   2.837   6.985
 4464SOL     OW14290   6.109   4.692   6.747
 4464SOL    HW114291   6.022   4.647   6.765
 4464SOL    HW214292   6.092   4.783   6.709
 4465SOL     OW14293   2.130   5.680   3.524
 4465SOL    HW114294   2.215   5.733   3.530
 4465SOL    HW214295   2.064   5.714   3.591
 4466SOL     OW14296   1.414   0.727   2.040
 4466SOL    HW114297   1.376   0.808   1.995
 4466SOL    HW214298   1.395   0.732   2.138
 4467SOL     OW14299   1.234   6.330   3.508
 4467SOL    HW114300   1.149   6.382   3.508
 4467SOL    HW214301   1.296   6.367   3.577
 4468SOL     OW14302   1.346   2.562   0.858
 4468SOL    HW114303   1.337   2.510   0.773
 4468SOL    HW214304   1.384   2.652   0.838
 4469SOL     OW14305   3.726   0.361   1.653
 4469SOL    HW114306   3.776   0.307   1.586
 4469SOL    HW214307   3.628   0.341   1.646
 4470SOL     OW14308   6.381   3.780   1.828
 4470SOL    HW114309   6.318   3.753   1.901
 4470SOL    HW214310   6.337   3.848   1.769
 4471SOL     OW14311   0.059   1.526   0.371
 4471SOL    HW114312   0.022   1.589   0.303
 4471SOL    HW214313   7.006   1.480   0.418
 4472SOL     OW14314   1.704   3.222   3.526
 4472SOL    HW114315   1.726   3.167   3.445
 4472SOL    HW214316   1.788   3.260   3.564
 4473SOL     OW14317   6.516   1.877   3.346
 4473SOL    HW114318   6.557   1.873   3.255
 4473SOL    HW214319   6.469   1.965   3.357
 4474SOL     OW14320   3.538   0.881   1.859
 4474SOL    HW114321   3.590   0.869   1.774
 4474SOL    HW214322   3.547   0.799   1.915
 4475SOL     OW14323   1.598   3.669   2.563
 4475SOL    HW114324   1.633   3.682   2.471
 4475SOL    HW214325   1.666   3.701   2.629
 4476SOL     OW14326   5.109   6.550   3.735
 4476SOL    HW114327   5.204   6.522   3.748
 4476SOL    HW214328   5.082   6.531   3.640
 4477SOL     OW14329   1.652   0.176   5.453
 4477SOL    HW114330   1.661   0.142   5.359
 4477SOL    HW214331   1.743   0.193   5.491
 4478SOL     OW14332   2.901   5.913   2.230
 4478SOL    HW114333   2.814   5.882   2.192
 4478SOL    HW214334   2.908   5.884   2.325
 4479SOL     OW14335   0.708   0.204   0.972
 4479SOL    HW114336   0.695   0.288   0.919
 4479SOL    HW214337   0.799   0.205   1.014
 4480SOL     OW14338   1.629   3.839   5.483
 4480SOL    HW114339   1.696   3.806   5.416
 4480SOL    HW214340   1.586   3.922   5.449
 4481SOL     OW14341   2.640   6.927   5.070
 4481SOL    HW114342   2.554   6.966   5.037
 4481SOL    HW214343   2.643   6.829   5.049
 4482SOL     OW14344   0.422   3.867   3.980
 4482SOL    HW114345   0.510   3.891   3.940
 4482SOL    HW214346   0.375   3.950   4.011
 4483SOL     OW14347   5.531   3.300   1.450
 4483SOL    HW114348   5.568   3.393   1.447
 4483SOL    HW214349   5.464   3.288   1.377
 4484SOL     OW14350   3.023   2.601   5.387
 4484SOL    HW114351   2.954   2.531   5.407
 4484SOL    HW214352   3.102   2.558   5.342
 4485SOL     OW14353   5.430   2.137   6.001
 4485SOL    HW114354   5.489   2.215   5.981
 4485SOL    HW214355   5.351   2.167   6.055
 4486SOL     OW14356   5.329   3.633   4.721
 4486SOL    HW114357   5.412   3.585   4.692
 4486SOL    HW214358   5.272   3.572   4.776
 4487SOL     OW14359   2.426   3.154   6.460
 4487SOL    HW114360   2.395   3.152   6.365
 4487SOL    HW214361   2.524   3.174   6.463
 4488SOL     OW14362   5.984   3.198   5.186
 4488SOL    HW114363   6.003   3.165   5.278
 4488SOL    HW214364   6.038   3.281   5.169
 4489SOL     OW14365   5.236   5.709   4.432
 4489SOL    HW114366   5.217   5.716   4.334
 4489SOL    HW214367   5.297   5.632   4.449
 4490SOL     OW14368   6.228   2.388   2.397
 4490SOL    HW114369   6.282   2.303   2.392
 4490SOL    HW214370   6.207   2.419   2.305
 4491SOL     OW14371   0.287   3.044   3.950
 4491SOL    HW114372   0.373   3.095   3.961
 4491SOL    HW214373   0.210   3.102   3.976
 4492SOL     OW14374   5.057   3.141   0.749
 4492SOL    HW114375   5.037   3.125   0.845
 4492SOL    HW214376   4.974   3.170   0.701
 4493SOL     OW14377   4.703   6.086   5.894
 4493SOL    HW114378   4.626   6.023   5.889
 4493SOL    HW214379   4.780   6.050   5.842
 4494SOL     OW14380   6.578   1.655   5.637
 4494SOL    HW114381   6.661   1.641   5.690
 4494SOL    HW214382   6.499   1.657   5.698
 4495SOL     OW14383   4.607   6.019   4.010
 4495SOL    HW114384   4.612   5.944   4.076
 4495SOL    HW214385   4.586   6.104   4.059
 4496SOL     OW14386   4.381   5.832   1.123
 4496SOL    HW114387   4.460   5.893   1.122
 4496SOL    HW214388   4.300   5.883   1.092
 4497SOL     OW14389   4.935   0.324   6.892
 4497SOL    HW114390   4.896   0.233   6.872
 4497SOL    HW214391   5.031   0.314   6.917
 4498SOL     OW14392   0.521   2.955   6.313
 4498SOL    HW114393   0.422   2.947   6.323
 4498SOL    HW214394   0.565   2.924   6.397
 4499SOL     OW14395   0.307   3.385   3.738
 4499SOL    HW114396   0.397   3.417   3.766
 4499SOL    HW214397   0.296   3.397   3.640
 4500SOL     OW14398   2.902   3.489   4.263
 4500SOL    HW114399   2.906   3.588   4.267
 4500SOL    HW214400   2.991   3.451   4.288
 4501SOL     OW14401   0.236   3.183   5.854
 4501SOL    HW114402   0.295   3.104   5.839
 4501SOL    HW214403   0.269   3.236   5.932
 4502SOL     OW14404   1.872   2.062   6.821
 4502SOL    HW114405   1.918   1.999   6.758
 4502SOL    HW214406   1.810   2.011   6.881
 4503SOL     OW14407   3.435   0.160   2.454
 4503SOL    HW114408   3.392   0.128   2.539
 4503SOL    HW214409   3.421   0.093   2.382
 4504SOL     OW14410   6.673   1.555   4.724
 4504SOL    HW114411   6.740   1.490   4.761
 4504SOL    HW214412   6.721   1.637   4.692
 4505SOL     OW14413   6.436   5.733   3.106
 4505SOL    HW114414   6.533   5.756   3.097
 4505SOL    HW214415   6.382   5.817   3.112
 4506SOL     OW14416   4.383   2.329   4.112
 4506SOL    HW114417   4.311   2.311   4.179
 4506SOL    HW214418   4.349   2.393   4.043
 4507SOL     OW14419   5.446   4.693   2.053
 4507SOL    HW114420   5.530   4.696   2.108
 4507SOL    HW214421   5.411   4.786   2.041
 4508SOL     OW14422   0.645   5.167   5.852
 4508SOL    HW114423   0.636   5.266   5.855
 4508SOL    HW214424   0.739   5.143   5.830
 4509SOL     OW14425   5.396   2.335   3.762
 4509SOL    HW114426   5.305   2.377   3.759
 4509SOL    HW214427   5.421   2.315   3.857
 4510SOL     OW14428   4.806   0.424   5.662
 4510SOL    HW114429   4.762   0.465   5.583
 4510SOL    HW214430   4.903   0.448   5.662
 4511SOL     OW14431   6.578   3.692   6.610
 4511SOL    HW114432   6.539   3.692   6.701
 4511SOL    HW214433   6.621   3.780   6.591
 4512SOL     OW14434   2.480   6.814   5.588
 4512SOL    HW114435   2.418   6.737   5.573
 4512SOL    HW214436   2.541   6.824   5.509
 4513SOL     OW14437   5.033   6.671   0.656
 4513SOL    HW114438   4.991   6.648   0.569
 4513SOL    HW214439   5.070   6.764   0.652
 4514SOL     OW14440   4.870   1.057   5.429
 4514SOL    HW114441   4.874   0.977   5.369
 4514SOL    HW214442   4.941   1.122   5.404
 4515SOL     OW14443   6.707   3.816   5.598
 4515SOL    HW114444   6.796   3.835   5.640
 4515SOL    HW214445   6.667   3.901   5.565
 4516SOL     OW14446   1.730   0.999   6.127
 4516SOL    HW114447   1.679   1.085   6.131
 4516SOL    HW214448   1.827   1.018   6.118
 4517SOL     OW14449   1.968   0.299   0.034
 4517SOL    HW114450   1.897   0.309   6.988
 4517SOL    HW214451   1.985   0.388   0.078
 4518SOL     OW14452   6.507   1.313   3.749
 4518SOL    HW114453   6.451   1.231   3.761
 4518SOL    HW214454   6.465   1.372   3.680
 4519SOL     OW14455   5.313   0.154   2.027
 4519SOL    HW114456   5.302   0.061   2.061
 4519SOL    HW214457   5.353   0.211   2.099
 4520SOL     OW14458   5.531   5.574   3.567
 4520SOL    HW114459   5.542   5.530   3.478
 4520SOL    HW214460   5.457   5.530   3.618
 4521SOL     OW14461   5.227   1.969   4.269
 4521SOL    HW114462   5.278   2.054   4.279
 4521SOL    HW214463   5.153   1.982   4.203
 4522SOL     OW14464   5.741   6.666   3.961
 4522SOL    HW114465   5.660   6.721   3.940
 4522SOL    HW214466   5.728   6.572   3.927
 4523SOL     OW14467   1.025   4.351   0.061
 4523SOL    HW114468   0.961   4.275   0.050
 4523SOL    HW214469   0.975   4.434   0.086
 4524SOL     OW14470   5.182   2.296   4.671
 4524SOL    HW114471   5.272   2.254   4.680
 4524SOL    HW214472   5.114   2.225   4.651
 4525SOL     OW14473   5.935   1.304   3.077
 4525SOL    HW114474   5.835   1.311   3.077
 4525SOL    HW214475   5.964   1.241   3.005
 4526SOL     OW14476   4.965   0.784   1.001
 4526SOL    HW114477   4.889   0.761   0.940
 4526SOL    HW214478   5.023   0.853   0.959
 4527SOL     OW14479   4.168   0.941   4.055
 4527SOL    HW114480   4.106   0.962   4.131
 4527SOL    HW214481   4.211   1.026   4.024
 4528SOL     OW14482   4.529   6.727   6.961
 4528SOL    HW114483   4.558   6.668   6.885
 4528SOL    HW214484   4.490   6.811   6.924
 4529SOL     OW14485   3.284   1.531   4.712
 4529SOL    HW114486   3.270   1.480   4.627
 4529SOL    HW214487   3.251   1.625   4.700
 4530SOL     OW14488   6.903   3.536   5.604
 4530SOL    HW114489   6.838   3.599   5.563
 4530SOL    HW214490   6.959   3.494   5.532
 4531SOL     OW14491   0.746   3.118   3.445
 4531SOL    HW114492   0.679   3.149   3.512
 4531SOL    HW214493   0.830   3.092   3.492
 4532SOL     OW14494   6.943   1.140   2.592
 4532SOL    HW114495   6.899   1.056   2.623
 4532SOL    HW214496   6.878   1.216   2.598
 4533SOL     OW14497   1.157   0.448   2.411
 4533SOL    HW114498   1.064   0.443   2.448
 4533SOL    HW214499   1.213   0.376   2.450
 4534SOL     OW14500   5.868   4.098   4.494
 4534SOL    HW114501   5.843   4.171   4.557
 4534SOL    HW214502   5.897   4.138   4.407
 4535SOL     OW14503   5.008   1.960   2.551
 4535SOL    HW114504   5.005   2.057   2.527
 4535SOL    HW214505   4.963   1.947   2.640
 4536SOL     OW14506   4.585   2.071   3.982
 4536SOL    HW114507   4.600   2.125   4.065
 4536SOL    HW214508   4.669   2.072   3.926
 4537SOL     OW14509   4.088   3.243   5.995
 4537SOL    HW114510   4.165   3.299   6.027
 4537SOL    HW214511   4.101   3.221   5.898
 4538SOL     OW14512   2.618   0.746   4.558
 4538SOL    HW114513   2.639   0.835   4.518
 4538SOL    HW214514   2.693   0.716   4.615
 4539SOL     OW14515   2.147   0.622   4.118
 4539SOL    HW114516   2.170   0.547   4.180
 4539SOL    HW214517   2.190   0.605   4.029
 4540SOL     OW14518   3.193   2.968   4.673
 4540SOL    HW114519   3.219   2.934   4.764
 4540SOL    HW214520   3.276   2.986   4.620
 4541SOL     OW14521   5.717   1.147   0.472
 4541SOL    HW114522   5.625   1.108   0.467
 4541SOL    HW214523   5.768   1.122   0.389
 4542SOL     OW14524   6.276   6.808   2.051
 4542SOL    HW114525   6.317   6.717   2.053
 4542SOL    HW214526   6.306   6.856   1.969
 4543SOL     OW14527   5.235   2.068   0.672
 4543SOL    HW114528   5.147   2.022   0.687
 4543SOL    HW214529   5.305   2.000   0.651
 4544SOL     OW14530   3.062   6.632   5.525
 4544SOL    HW114531   3.040   6.633   5.427
 4544SOL    HW214532   3.070   6.726   5.558
 4545SOL     OW14533   6.102   2.588   4.821
 4545SOL    HW114534   6.116   2.668   4.880
 4545SOL    HW214535   6.191   2.548   4.799
 4546SOL     OW14536   1.469   1.452   6.331
 4546SOL    HW114537   1.424   1.419   6.414
 4546SOL    HW214538   1.524   1.378   6.291
 4547SOL     OW14539   6.655   2.520   3.182
 4547SOL    HW114540   6.557   2.527   3.170
 4547SOL    HW214541   6.695   2.611   3.193
 4548SOL     OW14542   1.460   4.197   4.835
 4548SOL    HW114543   1.553   4.211   4.802
 4548SOL    HW214544   1.451   4.105   4.873
 4549SOL     OW14545   6.027   4.019   2.227
 4549SOL    HW114546   6.102   4.075   2.260
 4549SOL    HW214547   6.023   3.934   2.281
 4550SOL     OW14548   0.822   5.907   2.665
 4550SOL    HW114549   0.799   5.929   2.571
 4550SOL    HW214550   0.796   5.983   2.725
 4551SOL     OW14551   6.441   1.787   5.893
 4551SOL    HW114552   6.383   1.841   5.954
 4551SOL    HW214553   6.394   1.703   5.867
 4552SOL     OW14554   6.589   2.867   0.201
 4552SOL    HW114555   6.611   2.871   0.299
 4552SOL    HW214556   6.663   2.910   0.149
 4553SOL     OW14557   3.984   4.185   0.170
 4553SOL    HW114558   3.963   4.092   0.139
 4553SOL    HW214559   3.975   4.189   0.269
 4554SOL     OW14560   4.408   0.947   1.816
 4554SOL    HW114561   4.413   1.043   1.845
 4554SOL    HW214562   4.352   0.940   1.733
 4555SOL     OW14563   3.413   1.833   5.561
 4555SOL    HW114564   3.455   1.924   5.570
 4555SOL    HW214565   3.341   1.822   5.630
 4556SOL     OW14566   4.741   2.306   3.708
 4556SOL    HW114567   4.694   2.381   3.661
 4556SOL    HW214568   4.761   2.234   3.642
 4557SOL     OW14569   5.371   0.100   5.352
 4557SOL    HW114570   5.319   0.129   5.433
 4557SOL    HW214571   5.468   0.092   5.377
 4558SOL     OW14572   6.586   3.598   5.696
 4558SOL    HW114573   6.637   3.563   5.775
 4558SOL    HW214574   6.616   3.691   5.677
 4559SOL     OW14575   0.346   4.475   1.403
 4559SOL    HW114576   0.422   4.510   1.349
 4559SOL    HW214577   0.380   4.439   1.490
 4560SOL     OW14578   4.742   4.773   3.890
 4560SOL    HW114579   4.747   4.811   3.797
 4560SOL    HW214580   4.764   4.844   3.956
 4561SOL     OW14581   2.918   0.612   1.111
 4561SOL    HW114582   2.961   0.661   1.035
 4561SOL    HW214583   2.964   0.524   1.125
 4562SOL     OW14584   3.142   6.079   5.380
 4562SOL    HW114585   3.122   6.027   5.463
 4562SOL    HW214586   3.058   6.121   5.345
 4563SOL     OW14587   0.330   4.098   0.103
 4563SOL    HW114588   0.231   4.106   0.114
 4563SOL    HW214589   0.365   4.026   0.163
 4564SOL     OW14590   0.452   6.678   0.910
 4564SOL    HW114591   0.457   6.737   0.830
 4564SOL    HW214592   0.383   6.607   0.895
 4565SOL     OW14593   0.470   1.380   5.458
 4565SOL    HW114594   0.444   1.284   5.444
 4565SOL    HW214595   0.406   1.439   5.409
 4566SOL     OW14596   6.906   1.274   0.977
 4566SOL    HW114597   6.988   1.220   0.999
 4566SOL    HW214598   6.824   1.221   1.000
 4567SOL     OW14599   0.338   0.931   0.095
 4567SOL    HW114600   0.354   0.834   0.078
 4567SOL    HW214601   0.240   0.950   0.093
 4568SOL     OW14602   0.788   5.054   5.107
 4568SOL    HW114603   0.823   4.962   5.090
 4568SOL    HW214604   0.821   5.086   5.196
 4569SOL     OW14605   1.992   1.393   2.958
 4569SOL    HW114606   2.059   1.461   2.928
 4569SOL    HW214607   2.027   1.344   3.038
 4570SOL     OW14608   0.632   5.020   3.178
 4570SOL    HW114609   0.617   4.955   3.253
 4570SOL    HW214610   0.551   5.077   3.166
 4571SOL     OW14611   3.437   3.594   5.817
 4571SOL    HW114612   3.383   3.668   5.777
 4571SOL    HW214613   3.392   3.562   5.901
 4572SOL     OW14614   0.987   6.724   6.701
 4572SOL    HW114615   1.070   6.679   6.736
 4572SOL    HW214616   1.009   6.776   6.619
 4573SOL     OW14617   6.314   6.157   0.636
 4573SOL    HW114618   6.409   6.168   0.608
 4573SOL    HW214619   6.277   6.245   0.666
 4574SOL     OW14620   6.516   3.957   1.217
 4574SOL    HW114621   6.538   3.879   1.276
 4574SOL    HW214622   6.584   3.963   1.144
 4575SOL     OW14623   6.664   2.005   6.727
 4575SOL    HW114624   6.656   2.086   6.786
 4575SOL    HW214625   6.654   2.033   6.632
 4576SOL     OW14626   2.075   6.330   6.561
 4576SOL    HW114627   2.157   6.324   6.618
 4576SOL    HW214628   2.062   6.245   6.511
 4577SOL     OW14629   0.950   2.172   3.941
 4577SOL    HW114630   0.901   2.188   3.856
 4577SOL    HW214631   1.046   2.152   3.921
 4578SOL     OW14632   0.703   2.978   4.398
 4578SOL    HW114633   0.673   3.073   4.393
 4578SOL    HW214634   0.635   2.919   4.355
 4579SOL     OW14635   5.338   2.131   2.748
 4579SOL    HW114636   5.437   2.124   2.740
 4579SOL    HW214637   5.296   2.049   2.709
 4580SOL     OW14638   5.246   5.619   0.248
 4580SOL    HW114639   5.223   5.527   0.283
 4580SOL    HW214640   5.211   5.628   0.155
 4581SOL     OW14641   3.126   5.700   3.120
 4581SOL    HW114642   3.141   5.789   3.076
 4581SOL    HW214643   3.214   5.663   3.151
 4582SOL     OW14644   5.442   6.013   4.652
 4582SOL    HW114645   5.476   5.989   4.743
 4582SOL    HW214646   5.344   5.995   4.647
 4583SOL     OW14647   2.825   0.998   4.843
 4583SOL    HW114648   2.882   0.918   4.823
 4583SOL    HW214649   2.858   1.076   4.789
 4584SOL     OW14650   0.163   5.003   5.461
 4584SOL    HW114651   0.172   4.954   5.547
 4584SOL    HW214652   0.240   4.979   5.401
 4585SOL     OW14653   3.185   6.296   2.761
 4585SOL    HW114654   3.278   6.271   2.789
 4585SOL    HW214655   3.132   6.322   2.842
 4586SOL     OW14656   3.691   4.991   0.356
 4586SOL    HW114657   3.609   4.952   0.314
 4586SOL    HW214658   3.759   4.918   0.370
 4587SOL     OW14659   4.083   3.340   2.058
 4587SOL    HW114660   4.119   3.419   2.107
 4587SOL    HW214661   4.073   3.263   2.121
 4588SOL     OW14662   3.735   3.955   5.722
 4588SOL    HW114663   3.756   3.858   5.735
 4588SOL    HW214664   3.652   3.979   5.773
 4589SOL     OW14665   5.913   0.728   1.425
 4589SOL    HW114666   5.992   0.669   1.442
 4589SOL    HW214667   5.847   0.717   1.500
 4590SOL     OW14668   4.591   5.982   2.071
 4590SOL    HW114669   4.538   5.914   2.020
 4590SOL    HW214670   4.577   6.072   2.030
 4591SOL     OW14671   0.489   6.043   5.214
 4591SOL    HW114672   0.543   6.058   5.131
 4591SOL    HW214673   0.407   6.099   5.211
 4592SOL     OW14674   3.978   2.148   2.326
 4592SOL    HW114675   4.015   2.055   2.324
 4592SOL    HW214676   4.053   2.213   2.315
 4593SOL     OW14677   3.730   5.714   4.343
 4593SOL    HW114678   3.638   5.739   4.374
 4593SOL    HW214679   3.731   5.705   4.244
 4594SOL     OW14680   3.180   1.889   1.606
 4594SOL    HW114681   3.106   1.954   1.622
 4594SOL    HW214682   3.165   1.841   1.519
 4595SOL     OW14683   3.793   2.696   5.830
 4595SOL    HW114684   3.813   2.778   5.884
 4595SOL    HW214685   3.755   2.625   5.890
 4596SOL     OW14686   5.994   6.556   2.542
 4596SOL    HW114687   5.910   6.543   2.490
 4596SOL    HW214688   6.006   6.653   2.563
 4597SOL     OW14689   5.232   4.551   6.949
 4597SOL    HW114690   5.301   4.608   6.905
 4597SOL    HW214691   5.264   4.524   0.017
 4598SOL     OW14692   2.161   5.404   6.714
 4598SOL    HW114693   2.083   5.420   6.775
 4598SOL    HW214694   2.161   5.308   6.684
 4599SOL     OW14695   1.541   4.515   0.531
 4599SOL    HW114696   1.456   4.555   0.497
 4599SOL    HW214697   1.583   4.578   0.597
 4600SOL     OW14698   1.236   5.052   5.678
 4600SOL    HW114699   1.151   5.080   5.722
 4600SOL    HW214700   1.313   5.074   5.738
 4601SOL     OW14701   1.663   0.061   5.204
 4601SOL    HW114702   1.637   0.091   5.112
 4601SOL    HW214703   1.763   0.066   5.214
 4602SOL     OW14704   0.998   6.194   1.144
 4602SOL    HW114705   0.991   6.099   1.172
 4602SOL    HW214706   0.906   6.231   1.127
 4603SOL     OW14707   3.362   6.231   1.554
 4603SOL    HW114708   3.459   6.248   1.540
 4603SOL    HW214709   3.328   6.170   1.482
 4604SOL     OW14710   4.475   0.745   2.222
 4604SOL    HW114711   4.429   0.656   2.224
 4604SOL    HW214712   4.564   0.738   2.267
 4605SOL     OW14713   4.533   1.123   3.301
 4605SOL    HW114714   4.517   1.117   3.203
 4605SOL    HW214715   4.605   1.190   3.319
 4606SOL     OW14716   0.998   6.733   1.423
 4606SOL    HW114717   1.090   6.692   1.421
 4606SOL    HW214718   0.935   6.674   1.373
 4607SOL     OW14719   2.605   2.700   0.972
 4607SOL    HW114720   2.599   2.600   0.972
 4607SOL    HW214721   2.562   2.736   1.055
 4608SOL     OW14722   0.919   5.467   3.681
 4608SOL    HW114723   0.879   5.391   3.733
 4608SOL    HW214724   0.890   5.461   3.585
 4609SOL     OW14725   3.867   5.407   6.226
 4609SOL    HW114726   3.944   5.383   6.167
 4609SOL    HW214727   3.902   5.452   6.309
 4610SOL     OW14728   5.674   2.283   0.288
 4610SOL    HW114729   5.722   2.278   0.375
 4610SOL    HW214730   5.577   2.301   0.304
 4611SOL     OW14731   6.323   5.882   6.036
 4611SOL    HW114732   6.234   5.867   6.079
 4611SOL    HW214733   6.313   5.877   5.937
 4612SOL     OW14734   1.054   6.116   0.326
 4612SOL    HW114735   1.058   6.176   0.406
 4612SOL    HW214736   1.023   6.025   0.354
 4613SOL     OW14737   2.930   5.763   2.462
 4613SOL    HW114738   2.933   5.673   2.419
 4613SOL    HW214739   3.001   5.769   2.532
 4614SOL     OW14740   0.809   4.344   4.988
 4614SOL    HW114741   0.807   4.259   4.936
 4614SOL    HW214742   0.858   4.414   4.935
 4615SOL     OW14743   1.651   0.827   0.329
 4615SOL    HW114744   1.586   0.891   0.370
 4615SOL    HW214745   1.743   0.865   0.332
 4616SOL     OW14746   5.556   0.484   5.677
 4616SOL    HW114747   5.551   0.385   5.663
 4616SOL    HW214748   5.618   0.524   5.610
 4617SOL     OW14749   1.221   2.155   2.223
 4617SOL    HW114750   1.267   2.151   2.134
 4617SOL    HW214751   1.239   2.244   2.266
 4618SOL     OW14752   2.132   2.166   5.180
 4618SOL    HW114753   2.099   2.253   5.216
 4618SOL    HW214754   2.226   2.177   5.148
 4619SOL     OW14755   4.146   6.276   3.315
 4619SOL    HW114756   4.155   6.326   3.229
 4619SOL    HW214757   4.170   6.180   3.300
 4620SOL     OW14758   3.226   4.322   0.382
 4620SOL    HW114759   3.174   4.393   0.431
 4620SOL    HW214760   3.168   4.284   0.310
 4621SOL     OW14761   5.493   1.815   3.084
 4621SOL    HW114762   5.534   1.906   3.092
 4621SOL    HW214763   5.401   1.824   3.047
 4622SOL     OW14764   1.555   3.719   0.164
 4622SOL    HW114765   1.489   3.783   0.202
 4622SOL    HW214766   1.524   3.688   0.074
 4623SOL     OW14767   6.893   6.542   0.808
 4623SOL    HW114768   6.959   6.492   0.752
 4623SOL    HW214769   6.910   6.522   0.905
 4624SOL     OW14770   5.615   0.020   3.100
 4624SOL    HW114771   5.604   6.968   3.166
 4624SOL    HW214772   5.524   0.051   3.070
 4625SOL     OW14773   1.548   4.779   0.107
 4625SOL    HW114774   1.563   4.771   0.206
 4625SOL    HW214775   1.626   4.828   0.066
 4626SOL     OW14776   5.512   5.754   2.328
 4626SOL    HW114777   5.595   5.714   2.289
 4626SOL    HW214778   5.454   5.681   2.366
 4627SOL     OW14779   3.229   5.518   3.670
 4627SOL    HW114780   3.244   5.605   3.718
 4627SOL    HW214781   3.133   5.490   3.682
 4628SOL     OW14782   5.849   3.678   3.819
 4628SOL    HW114783   5.836   3.758   3.760
 4628SOL    HW214784   5.827   3.595   3.768
 4629SOL     OW14785   2.383   4.913   4.944
 4629SOL    HW114786   2.305   4.975   4.944
 4629SOL    HW214787   2.437   4.928   4.861
 4630SOL     OW14788   3.907   5.697   2.765
 4630SOL    HW114789   3.828   5.754   2.786
 4630SOL    HW214790   3.889   5.643   2.683
 4631SOL     OW14791   2.332   6.287   3.564
 4631SOL    HW114792   2.425   6.324   3.572
 4631SOL    HW214793   2.266   6.361   3.577
 4632SOL     OW14794   4.283   5.156   3.108
 4632SOL    HW114795   4.204   5.142   3.049
 4632SOL    HW214796   4.259   5.133   3.202
 4633SOL     OW14797   6.291   1.756   3.648
 4633SOL    HW114798   6.269   1.818   3.573
 4633SOL    HW214799   6.255   1.793   3.733
 4634SOL     OW14800   1.902   4.312   6.900
 4634SOL    HW114801   1.975   4.368   6.860
 4634SOL    HW214802   1.835   4.370   6.945
 4635SOL     OW14803   5.615   3.493   1.864
 4635SOL    HW114804   5.584   3.583   1.896
 4635SOL    HW214805   5.625   3.494   1.765
 4636SOL     OW14806   1.962   5.434   6.893
 4636SOL    HW114807   1.877   5.387   6.868
 4636SOL    HW214808   1.980   5.420   6.991
 4637SOL     OW14809   1.360   0.388   0.134
 4637SOL    HW114810   1.403   0.424   0.051
 4637SOL    HW214811   1.357   0.459   0.204
 4638SOL     OW14812   4.076   2.698   7.001
 4638SOL    HW114813   4.033   2.748   0.054
 4638SOL    HW214814   4.090   2.761   6.924
 4639SOL     OW14815   2.120   4.460   5.064
 4639SOL    HW114816   2.113   4.361   5.078
 4639SOL    HW214817   2.143   4.504   5.151
 4640SOL     OW14818   4.922   5.127   3.688
 4640SOL    HW114819   4.906   5.130   3.589
 4640SOL    HW214820   4.863   5.193   3.733
 4641SOL     OW14821   3.074   6.579   4.225
 4641SOL    HW114822   2.983   6.572   4.184
 4641SOL    HW214823   3.107   6.488   4.249
 4642SOL     OW14824   0.609   6.522   5.146
 4642SOL    HW114825   0.686   6.498   5.206
 4642SOL    HW214826   0.549   6.586   5.193
 4643SOL     OW14827   5.319   2.637   1.226
 4643SOL    HW114828   5.236   2.663   1.275
 4643SOL    HW214829   5.377   2.582   1.285
 4644SOL     OW14830   1.234   4.892   4.928
 4644SOL    HW114831   1.201   4.958   4.996
 4644SOL    HW214832   1.334   4.894   4.925
 4645SOL     OW14833   1.368   0.685   3.867
 4645SOL    HW114834   1.362   0.670   3.966
 4645SOL    HW214835   1.463   0.674   3.838
 4646SOL     OW14836   2.800   6.462   3.314
 4646SOL    HW114837   2.788   6.366   3.286
 4646SOL    HW214838   2.711   6.501   3.336
 4647SOL     OW14839   1.568   6.987   3.362
 4647SOL    HW114840   1.470   6.968   3.367
 4647SOL    HW214841   1.607   6.987   3.454
 4648SOL     OW14842   4.034   0.916   1.549
 4648SOL    HW114843   4.019   0.861   1.631
 4648SOL    HW214844   3.948   0.960   1.522
 4649SOL     OW14845   4.902   6.857   6.122
 4649SOL    HW114846   4.971   6.929   6.130
 4649SOL    HW214847   4.895   6.829   6.026
 4650SOL     OW14848   4.378   5.926   3.880
 4650SOL    HW114849   4.473   5.942   3.904
 4650SOL    HW214850   4.363   5.828   3.868
 4651SOL     OW14851   0.260   1.495   1.043
 4651SOL    HW114852   0.263   1.438   0.961
 4651SOL    HW214853   0.331   1.566   1.036
 4652SOL     OW14854   0.760   0.129   4.473
 4652SOL    HW114855   0.702   0.209   4.489
 4652SOL    HW214856   0.706   0.056   4.431
 4653SOL     OW14857   6.318   5.510   6.797
 4653SOL    HW114858   6.349   5.416   6.804
 4653SOL    HW214859   6.225   5.518   6.832
 4654SOL     OW14860   0.246   6.787   0.328
 4654SOL    HW114861   0.259   6.688   0.327
 4654SOL    HW214862   0.284   6.827   0.245
 4655SOL     OW14863   6.620   5.590   1.782
 4655SOL    HW114864   6.678   5.574   1.863
 4655SOL    HW214865   6.527   5.561   1.802
 4656SOL     OW14866   1.117   0.454   3.252
 4656SOL    HW114867   1.121   0.359   3.284
 4656SOL    HW214868   1.170   0.512   3.314
 4657SOL     OW14869   4.655   6.447   1.468
 4657SOL    HW114870   4.612   6.416   1.383
 4657SOL    HW214871   4.585   6.480   1.531
 4658SOL     OW14872   3.907   1.440   2.165
 4658SOL    HW114873   3.877   1.482   2.250
 4658SOL    HW214874   3.975   1.369   2.185
 4659SOL     OW14875   2.732   4.174   5.655
 4659SOL    HW114876   2.792   4.243   5.695
 4659SOL    HW214877   2.716   4.195   5.559
 4660SOL     OW14878   1.216   3.195   5.538
 4660SOL    HW114879   1.290   3.142   5.496
 4660SOL    HW214880   1.253   3.276   5.581
 4661SOL     OW14881   3.551   3.834   5.527
 4661SOL    HW114882   3.594   3.913   5.483
 4661SOL    HW214883   3.614   3.796   5.595
 4662SOL     OW14884   4.452   0.564   4.981
 4662SOL    HW114885   4.440   0.662   4.998
 4662SOL    HW214886   4.549   0.542   4.983
 4663SOL     OW14887   0.962   1.921   2.537
 4663SOL    HW114888   0.913   1.841   2.570
 4663SOL    HW214889   1.054   1.894   2.508
 4664SOL     OW14890   2.379   1.828   0.266
 4664SOL    HW114891   2.354   1.731   0.273
 4664SOL    HW214892   2.298   1.884   0.279
 4665SOL     OW14893   4.262   0.332   0.537
 4665SOL    HW114894   4.294   0.319   0.631
 4665SOL    HW214895   4.187   0.268   0.517
 4666SOL     OW14896   1.489   1.998   0.554
 4666SOL    HW114897   1.498   2.007   0.455
 4666SOL    HW214898   1.491   1.901   0.579
 4667SOL     OW14899   6.380   4.333   1.460
 4667SOL    HW114900   6.354   4.347   1.365
 4667SOL    HW214901   6.435   4.410   1.492
 4668SOL     OW14902   5.941   2.709   2.966
 4668SOL    HW114903   5.884   2.785   2.936
 4668SOL    HW214904   6.037   2.728   2.944
 4669SOL     OW14905   3.469   0.019   0.220
 4669SOL    HW114906   3.560   7.007   0.241
 4669SOL    HW214907   3.430   6.990   0.144
 4670SOL     OW14908   3.022   1.932   4.875
 4670SOL    HW114909   3.040   2.028   4.852
 4670SOL    HW214910   3.048   1.914   4.969
 4671SOL     OW14911   6.914   2.818   2.223
 4671SOL    HW114912   6.998   2.856   2.185
 4671SOL    HW214913   6.840   2.827   2.156
 4672SOL     OW14914   2.639   4.777   6.212
 4672SOL    HW114915   2.723   4.770   6.267
 4672SOL    HW214916   2.582   4.697   6.228
 4673SOL     OW14917   4.804   6.320   1.192
 4673SOL    HW114918   4.791   6.411   1.230
 4673SOL    HW214919   4.828   6.326   1.095
 4674SOL     OW14920   5.043   0.092   0.050
 4674SOL    HW114921   5.058   7.019   0.024
 4674SOL    HW214922   5.130   0.141   0.044
 4675SOL     OW14923   0.418   2.845   6.761
 4675SOL    HW114924   0.457   2.936   6.753
 4675SOL    HW214925   0.420   2.815   6.856
 4676SOL     OW14926   6.652   5.595   3.668
 4676SOL    HW114927   6.686   5.501   3.676
 4676SOL    HW214928   6.581   5.598   3.598
 4677SOL     OW14929   3.057   1.920   0.662
 4677SOL    HW114930   3.142   1.953   0.704
 4677SOL    HW214931   3.013   1.996   0.614
 4678SOL     OW14932   1.872   4.452   3.120
 4678SOL    HW114933   1.884   4.551   3.132
 4678SOL    HW214934   1.915   4.403   3.196
 4679SOL     OW14935   4.140   6.890   1.443
 4679SOL    HW114936   4.193   6.808   1.466
 4679SOL    HW214937   4.117   6.940   1.527
 4680SOL     OW14938   3.651   1.149   6.282
 4680SOL    HW114939   3.626   1.079   6.349
 4680SOL    HW214940   3.681   1.105   6.197
 4681SOL     OW14941   5.422   5.035   0.270
 4681SOL    HW114942   5.417   4.948   0.318
 4681SOL    HW214943   5.344   5.043   0.208
 4682SOL     OW14944   4.543   4.909   6.054
 4682SOL    HW114945   4.560   4.901   5.955
 4682SOL    HW214946   4.529   5.006   6.077
 4683SOL     OW14947   5.386   5.585   2.884
 4683SOL    HW114948   5.478   5.594   2.845
 4683SOL    HW214949   5.318   5.614   2.817
 4684SOL     OW14950   4.799   0.053   5.784
 4684SOL    HW114951   4.828   0.053   5.689
 4684SOL    HW214952   4.865   0.105   5.839
 4685SOL     OW14953   2.010   4.555   6.667
 4685SOL    HW114954   1.968   4.645   6.668
 4685SOL    HW214955   2.106   4.563   6.640
 4686SOL     OW14956   4.094   6.011   6.766
 4686SOL    HW114957   4.091   6.099   6.814
 4686SOL    HW214958   4.008   5.996   6.717
 4687SOL     OW14959   4.933   3.154   3.792
 4687SOL    HW114960   4.914   3.110   3.704
 4687SOL    HW214961   4.897   3.097   3.866
 4688SOL     OW14962   5.709   3.078   5.300
 4688SOL    HW114963   5.671   3.091   5.391
 4688SOL    HW214964   5.704   3.165   5.249
 4689SOL     OW14965   5.131   0.596   0.509
 4689SOL    HW114966   5.130   0.592   0.609
 4689SOL    HW214967   5.225   0.608   0.478
 4690SOL     OW14968   1.857   0.479   0.817
 4690SOL    HW114969   1.901   0.402   0.770
 4690SOL    HW214970   1.797   0.444   0.888
 4691SOL     OW14971   2.800   3.354   0.942
 4691SOL    HW114972   2.775   3.341   1.038
 4691SOL    HW214973   2.777   3.272   0.890
 4692SOL     OW14974   5.612   5.294   3.052
 4692SOL    HW114975   5.697   5.333   3.018
 4692SOL    HW214976   5.540   5.305   2.984
 4693SOL     OW14977   1.334   1.078   3.385
 4693SOL    HW114978   1.327   1.001   3.449
 4693SOL    HW214979   1.410   1.136   3.410
 4694SOL     OW14980   2.591   1.463   0.174
 4694SOL    HW114981   2.559   1.470   0.268
 4694SOL    HW214982   2.653   1.538   0.154
 4695SOL     OW14983   1.304   4.773   0.897
 4695SOL    HW114984   1.389   4.755   0.947
 4695SOL    HW214985   1.324   4.784   0.799
 4696SOL     OW14986   0.305   5.090   6.616
 4696SOL    HW114987   0.252   5.134   6.688
 4696SOL    HW214988   0.402   5.107   6.630
 4697SOL     OW14989   1.031   3.766   1.568
 4697SOL    HW114990   0.976   3.816   1.502
 4697SOL    HW214991   0.979   3.687   1.601
 4698SOL     OW14992   4.305   6.018   3.233
 4698SOL    HW114993   4.388   6.069   3.213
 4698SOL    HW214994   4.282   5.958   3.156
 4699SOL     OW14995   0.615   6.351   2.380
 4699SOL    HW114996   0.554   6.289   2.431
 4699SOL    HW214997   0.710   6.322   2.393
 4700SOL     OW14998   6.472   2.040   2.591
 4700SOL    HW114999   6.456   2.118   2.652
 4700SOL    HW215000   6.413   1.963   2.620
 4701SOL     OW15001   3.356   2.244   6.976
 4701SOL    HW115002   3.367   2.344   6.977
 4701SOL    HW215003   3.420   2.204   6.910
 4702SOL     OW15004   4.969   4.947   0.601
 4702SOL    HW115005   4.951   5.010   0.677
 4702SOL    HW215006   4.884   4.924   0.556
 4703SOL     OW15007   0.868   0.306   2.584
 4703SOL    HW115008   0.844   0.218   2.543
 4703SOL    HW215009   0.799   0.333   2.650
 4704SOL     OW15010   6.563   6.005   6.448
 4704SOL    HW115011   6.617   5.980   6.528
 4704SOL    HW215012   6.618   5.992   6.366
 4705SOL     OW15013   4.302   2.450   1.138
 4705SOL    HW115014   4.301   2.405   1.227
 4705SOL    HW215015   4.253   2.537   1.143
 4706SOL     OW15016   2.380   0.761   0.365
 4706SOL    HW115017   2.423   0.671   0.356
 4706SOL    HW215018   2.373   0.805   0.276
 4707SOL     OW15019   0.857   6.869   0.975
 4707SOL    HW115020   0.929   6.863   1.044
 4707SOL    HW215021   0.768   6.871   1.020
 4708SOL     OW15022   1.051   2.116   5.948
 4708SOL    HW115023   1.082   2.042   5.888
 4708SOL    HW215024   1.102   2.112   6.034
 4709SOL     OW15025   4.849   5.422   5.482
 4709SOL    HW115026   4.812   5.442   5.391
 4709SOL    HW215027   4.775   5.394   5.543
 4710SOL     OW15028   5.323   0.477   5.857
 4710SOL    HW115029   5.402   0.490   5.797
 4710SOL    HW215030   5.353   0.448   5.948
 4711SOL     OW15031   5.947   1.486   1.599
 4711SOL    HW115032   5.986   1.499   1.508
 4711SOL    HW215033   5.932   1.575   1.642
 4712SOL     OW15034   3.275   5.030   6.319
 4712SOL    HW115035   3.177   5.041   6.335
 4712SOL    HW215036   3.290   4.991   6.228
 4713SOL     OW15037   3.554   4.442   0.786
 4713SOL    HW115038   3.625   4.432   0.716
 4713SOL    HW215039   3.480   4.499   0.750
 4714SOL     OW15040   1.050   1.422   6.192
 4714SOL    HW115041   0.964   1.466   6.167
 4714SOL    HW215042   1.084   1.366   6.116
 4715SOL     OW15043   6.094   3.500   1.432
 4715SOL    HW115044   6.051   3.518   1.344
 4715SOL    HW215045   6.050   3.556   1.502
 4716SOL     OW15046   4.083   6.526   5.466
 4716SOL    HW115047   4.154   6.481   5.521
 4716SOL    HW215048   4.030   6.587   5.525
 4717SOL     OW15049   0.903   6.011   4.331
 4717SOL    HW115050   0.907   6.068   4.249
 4717SOL    HW215051   0.988   5.959   4.339
 4718SOL     OW15052   5.974   1.736   1.340
 4718SOL    HW115053   5.941   1.750   1.247
 4718SOL    HW215054   6.074   1.740   1.340
 4719SOL     OW15055   4.919   3.259   2.039
 4719SOL    HW115056   4.863   3.176   2.030
 4719SOL    HW215057   4.884   3.330   1.979
 4720SOL     OW15058   2.368   5.371   5.440
 4720SOL    HW115059   2.377   5.272   5.431
 4720SOL    HW215060   2.319   5.408   5.361
 4721SOL     OW15061   0.073   1.906   1.804
 4721SOL    HW115062   0.013   1.927   1.727
 4721SOL    HW215063   0.061   1.810   1.830
 4722SOL     OW15064   1.128   5.734   6.698
 4722SOL    HW115065   1.067   5.813   6.695
 4722SOL    HW215066   1.223   5.764   6.683
 4723SOL     OW15067   2.431   3.555   5.336
 4723SOL    HW115068   2.529   3.535   5.332
 4723SOL    HW215069   2.418   3.654   5.343
 4724SOL     OW15070   6.739   0.286   4.854
 4724SOL    HW115071   6.790   0.204   4.881
 4724SOL    HW215072   6.769   0.364   4.909
 4725SOL     OW15073   6.308   5.426   0.592
 4725SOL    HW115074   6.364   5.482   0.531
 4725SOL    HW215075   6.221   5.405   0.548
 4726SOL     OW15076   1.428   3.375   6.452
 4726SOL    HW115077   1.424   3.473   6.431
 4726SOL    HW215078   1.473   3.327   6.377
 4727SOL     OW15079   0.360   6.262   0.986
 4727SOL    HW115080   0.452   6.246   0.952
 4727SOL    HW215081   0.353   6.229   1.080
 4728SOL     OW15082   5.540   1.409   2.472
 4728SOL    HW115083   5.485   1.413   2.388
 4728SOL    HW215084   5.586   1.496   2.486
 4729SOL     OW15085   4.782   1.283   0.619
 4729SOL    HW115086   4.785   1.375   0.578
 4729SOL    HW215087   4.873   1.242   0.615
 4730SOL     OW15088   3.154   5.768   4.828
 4730SOL    HW115089   3.059   5.740   4.811
 4730SOL    HW215090   3.154   5.848   4.888
 4731SOL     OW15091   3.260   0.933   0.304
 4731SOL    HW115092   3.203   0.903   0.381
 4731SOL    HW215093   3.343   0.977   0.339
 4732SOL     OW15094   0.655   3.653   5.146
 4732SOL    HW115095   0.571   3.690   5.185
 4732SOL    HW215096   0.734   3.703   5.181
 4733SOL     OW15097   1.541   3.759   3.902
 4733SOL    HW115098   1.530   3.736   3.805
 4733SOL    HW215099   1.631   3.730   3.932
 4734SOL     OW15100   4.316   3.182   0.424
 4734SOL    HW115101   4.256   3.108   0.393
 4734SOL    HW215102   4.387   3.198   0.356
 4735SOL     OW15103   6.886   5.464   3.929
 4735SOL    HW115104   6.898   5.386   3.991
 4735SOL    HW215105   6.970   5.478   3.877
 4736SOL     OW15106   6.119   1.341   5.917
 4736SOL    HW115107   6.118   1.315   6.013
 4736SOL    HW215108   6.046   1.408   5.900
 4737SOL     OW15109   3.048   4.231   1.262
 4737SOL    HW115110   2.987   4.182   1.324
 4737SOL    HW215111   3.039   4.330   1.277
 4738SOL     OW15112   2.270   6.799   2.925
 4738SOL    HW115113   2.332   6.721   2.930
 4738SOL    HW215114   2.257   6.836   3.017
 4739SOL     OW15115   5.344   1.443   3.073
 4739SOL    HW115116   5.294   1.359   3.056
 4739SOL    HW215117   5.430   1.443   3.022
 4740SOL     OW15118   0.720   1.543   1.180
 4740SOL    HW115119   0.798   1.494   1.218
 4740SOL    HW215120   0.712   1.523   1.083
 4741SOL     OW15121   4.861   3.442   1.221
 4741SOL    HW115122   4.767   3.470   1.201
 4741SOL    HW215123   4.918   3.454   1.140
 4742SOL     OW15124   2.762   6.720   0.506
 4742SOL    HW115125   2.809   6.675   0.430
 4742SOL    HW215126   2.709   6.797   0.472
 4743SOL     OW15127   1.673   3.219   5.202
 4743SOL    HW115128   1.674   3.317   5.222
 4743SOL    HW215129   1.766   3.187   5.185
 4744SOL     OW15130   3.032   3.616   6.236
 4744SOL    HW115131   2.983   3.628   6.322
 4744SOL    HW215132   2.987   3.545   6.182
 4745SOL     OW15133   2.944   5.616   5.122
 4745SOL    HW115134   2.921   5.710   5.147
 4745SOL    HW215135   2.859   5.563   5.112
 4746SOL     OW15136   5.595   6.749   2.130
 4746SOL    HW115137   5.673   6.688   2.147
 4746SOL    HW215138   5.510   6.697   2.141
 4747SOL     OW15139   1.586   4.098   6.971
 4747SOL    HW115140   1.523   4.167   6.935
 4747SOL    HW215141   1.539   4.009   6.975
 4748SOL     OW15142   0.998   5.074   0.942
 4748SOL    HW115143   0.989   5.155   1.000
 4748SOL    HW215144   0.966   4.994   0.992
 4749SOL     OW15145   3.065   6.568   5.260
 4749SOL    HW115146   3.053   6.650   5.204
 4749SOL    HW215147   3.134   6.510   5.218
 4750SOL     OW15148   0.093   3.265   3.855
 4750SOL    HW115149   0.113   3.227   3.945
 4750SOL    HW215150   0.170   3.321   3.825
 4751SOL     OW15151   2.854   2.793   0.990
 4751SOL    HW115152   2.767   2.744   0.975
 4751SOL    HW215153   2.919   2.731   1.033
 4752SOL     OW15154   2.914   0.205   6.992
 4752SOL    HW115155   2.982   0.214   0.042
 4752SOL    HW215156   2.893   0.295   6.954
 4753SOL     OW15157   5.533   0.661   4.534
 4753SOL    HW115158   5.495   0.752   4.513
 4753SOL    HW215159   5.509   0.636   4.627
 4754SOL     OW15160   5.929   0.654   4.925
 4754SOL    HW115161   5.942   0.614   5.016
 4754SOL    HW215162   5.868   0.597   4.871
 4755SOL     OW15163   2.653   0.677   0.914
 4755SOL    HW115164   2.673   0.677   1.012
 4755SOL    HW215165   2.579   0.612   0.895
 4756SOL     OW15166   5.584   3.057   1.256
 4756SOL    HW115167   5.557   2.974   1.305
 4756SOL    HW215168   5.601   3.130   1.322
 4757SOL     OW15169   1.815   2.272   1.328
 4757SOL    HW115170   1.854   2.328   1.401
 4757SOL    HW215171   1.822   2.322   1.241
 4758SOL     OW15172   2.205   6.310   4.067
 4758SOL    HW115173   2.141   6.279   4.137
 4758SOL    HW215174   2.189   6.258   3.983
 4759SOL     OW15175   5.225   5.398   4.364
 4759SOL    HW115176   5.166   5.422   4.287
 4759SOL    HW215177   5.183   5.324   4.417
 4760SOL     OW15178   3.944   2.015   0.544
 4760SOL    HW115179   3.916   2.024   0.449
 4760SOL    HW215180   3.931   1.920   0.573
 4761SOL     OW15181   0.981   6.325   6.791
 4761SOL    HW115182   0.883   6.307   6.782
 4761SOL    HW215183   1.026   6.245   6.829
 4762SOL     OW15184   2.040   5.501   2.925
 4762SOL    HW115185   2.110   5.460   2.867
 4762SOL    HW215186   2.083   5.557   2.995
 4763SOL     OW15187   6.051   6.470   3.946
 4763SOL    HW115188   5.971   6.529   3.951
 4763SOL    HW215189   6.129   6.523   3.912
 4764SOL     OW15190   5.244   4.234   5.268
 4764SOL    HW115191   5.333   4.267   5.239
 4764SOL    HW215192   5.181   4.233   5.190
 4765SOL     OW15193   5.676   0.993   4.235
 4765SOL    HW115194   5.637   0.916   4.185
 4765SOL    HW215195   5.776   0.983   4.238
 4766SOL     OW15196   4.392   6.641   3.930
 4766SOL    HW115197   4.442   6.707   3.985
 4766SOL    HW215198   4.441   6.554   3.930
 4767SOL     OW15199   3.543   5.077   5.912
 4767SOL    HW115200   3.511   5.006   5.850
 4767SOL    HW215201   3.594   5.036   5.988
 4768SOL     OW15202   4.499   1.951   5.405
 4768SOL    HW115203   4.597   1.957   5.425
 4768SOL    HW215204   4.447   1.962   5.489
 4769SOL     OW15205   5.027   4.774   0.288
 4769SOL    HW115206   5.111   4.787   0.341
 4769SOL    HW215207   4.991   4.863   0.259
 4770SOL     OW15208   1.318   0.713   4.400
 4770SOL    HW115209   1.371   0.749   4.477
 4770SOL    HW215210   1.255   0.643   4.433
 4771SOL     OW15211   2.882   5.442   5.745
 4771SOL    HW115212   2.887   5.344   5.728
 4771SOL    HW215213   2.949   5.490   5.687
 4772SOL     OW15214   3.059   4.908   1.394
 4772SOL    HW115215   2.967   4.890   1.359
 4772SOL    HW215216   3.126   4.862   1.336
 4773SOL     OW15217   6.682   5.773   4.759
 4773SOL    HW115218   6.592   5.749   4.797
 4773SOL    HW215219   6.668   5.819   4.671
 4774SOL     OW15220   1.392   2.589   1.515
 4774SOL    HW115221   1.404   2.553   1.608
 4774SOL    HW215222   1.348   2.520   1.458
 4775SOL     OW15223   5.096   6.873   2.378
 4775SOL    HW115224   5.108   6.775   2.391
 4775SOL    HW215225   5.003   6.891   2.345
 4776SOL     OW15226   1.155   6.302   5.219
 4776SOL    HW115227   1.108   6.291   5.307
 4776SOL    HW215228   1.097   6.264   5.147
 4777SOL     OW15229   3.072   4.489   1.349
 4777SOL    HW115230   3.001   4.493   1.419
 4777SOL    HW215231   3.040   4.536   1.266
 4778SOL     OW15232   6.692   2.773   2.601
 4778SOL    HW115233   6.735   2.830   2.531
 4778SOL    HW215234   6.762   2.717   2.646
 4779SOL     OW15235   6.199   6.389   2.402
 4779SOL    HW115236   6.142   6.441   2.465
 4779SOL    HW215237   6.219   6.299   2.441
 4780SOL     OW15238   6.766   0.796   0.198
 4780SOL    HW115239   6.766   0.697   0.213
 4780SOL    HW215240   6.860   0.830   0.202
 4781SOL     OW15241   2.616   5.891   2.058
 4781SOL    HW115242   2.659   5.970   2.013
 4781SOL    HW215243   2.569   5.922   2.141
 4782SOL     OW15244   4.131   6.293   6.834
 4782SOL    HW115245   4.225   6.313   6.862
 4782SOL    HW215246   4.068   6.325   6.905
 4783SOL     OW15247   4.677   4.521   6.817
 4783SOL    HW115248   4.738   4.474   6.882
 4783SOL    HW215249   4.602   4.564   6.867
 4784SOL     OW15250   5.961   4.303   6.551
 4784SOL    HW115251   5.890   4.318   6.482
 4784SOL    HW215252   5.922   4.315   6.643
 4785SOL     OW15253   5.874   5.478   2.055
 4785SOL    HW115254   5.801   5.432   2.105
 4785SOL    HW215255   5.892   5.428   1.970
 4786SOL     OW15256   2.673   1.781   1.012
 4786SOL    HW115257   2.760   1.819   0.979
 4786SOL    HW215258   2.682   1.682   1.021
 4787SOL     OW15259   3.605   1.759   3.249
 4787SOL    HW115260   3.667   1.793   3.179
 4787SOL    HW215261   3.594   1.660   3.238
 4788SOL     OW15262   1.069   4.803   5.532
 4788SOL    HW115263   1.056   4.902   5.546
 4788SOL    HW215264   1.126   4.767   5.606
 4789SOL     OW15265   5.025   1.160   0.666
 4789SOL    HW115266   5.100   1.212   0.709
 4789SOL    HW215267   4.956   1.140   0.735
 4790SOL     OW15268   0.175   3.005   5.578
 4790SOL    HW115269   0.203   2.995   5.673
 4790SOL    HW215270   0.076   2.992   5.571
 4791SOL     OW15271   5.910   1.729   1.035
 4791SOL    HW115272   5.872   1.796   0.972
 4791SOL    HW215273   6.010   1.734   1.034
 4792SOL     OW15274   2.058   3.335   2.747
 4792SOL    HW115275   2.086   3.313   2.841
 4792SOL    HW215276   2.105   3.274   2.684
 4793SOL     OW15277   2.018   2.916   6.064
 4793SOL    HW115278   2.102   2.901   6.011
 4793SOL    HW215279   1.939   2.900   6.005
 4794SOL     OW15280   4.650   0.377   3.145
 4794SOL    HW115281   4.625   0.417   3.233
 4794SOL    HW215282   4.746   0.352   3.146
 4795SOL     OW15283   6.695   1.774   3.973
 4795SOL    HW115284   6.687   1.697   3.910
 4795SOL    HW215285   6.614   1.833   3.963
 4796SOL     OW15286   5.060   1.711   5.805
 4796SOL    HW115287   5.110   1.774   5.746
 4796SOL    HW215288   5.045   1.625   5.757
 4797SOL     OW15289   1.966   6.218   5.686
 4797SOL    HW115290   1.975   6.318   5.686
 4797SOL    HW215291   2.045   6.178   5.638
 4798SOL     OW15292   6.877   3.202   4.915
 4798SOL    HW115293   6.875   3.146   4.832
 4798SOL    HW215294   6.887   3.144   4.995
 4799SOL     OW15295   4.818   2.594   6.715
 4799SOL    HW115296   4.780   2.517   6.767
 4799SOL    HW215297   4.797   2.582   6.618
 4800SOL     OW15298   3.248   3.625   6.064
 4800SOL    HW115299   3.212   3.556   6.001
 4800SOL    HW215300   3.182   3.641   6.137
 4801SOL     OW15301   3.040   2.052   1.106
 4801SOL    HW115302   3.101   2.129   1.088
 4801SOL    HW215303   2.966   2.082   1.166
 4802SOL     OW15304   0.642   6.308   2.107
 4802SOL    HW115305   0.703   6.244   2.061
 4802SOL    HW215306   0.668   6.315   2.203
 4803SOL     OW15307   1.339   5.670   1.082
 4803SOL    HW115308   1.322   5.736   1.009
 4803SOL    HW215309   1.429   5.628   1.069
 4804SOL     OW15310   4.931   5.698   6.726
 4804SOL    HW115311   4.891   5.624   6.779
 4804SOL    HW215312   4.865   5.732   6.659
 4805SOL     OW15313   5.914   0.279   1.408
 4805SOL    HW115314   5.948   0.300   1.316
 4805SOL    HW215315   5.863   0.357   1.444
 4806SOL     OW15316   0.964   4.753   3.145
 4806SOL    HW115317   1.042   4.720   3.092
 4806SOL    HW215318   0.956   4.698   3.229
 4807SOL     OW15319   0.930   4.866   0.262
 4807SOL    HW115320   0.915   4.939   0.329
 4807SOL    HW215321   0.843   4.821   0.242
 4808SOL     OW15322   6.209   3.493   6.238
 4808SOL    HW115323   6.230   3.396   6.245
 4808SOL    HW215324   6.261   3.543   6.307
 4809SOL     OW15325   3.351   4.381   0.066
 4809SOL    HW115326   3.369   4.388   6.990
 4809SOL    HW215327   3.422   4.432   0.116
 4810SOL     OW15328   0.870   5.282   2.600
 4810SOL    HW115329   0.940   5.291   2.529
 4810SOL    HW215330   0.830   5.191   2.595
 4811SOL     OW15331   2.046   4.416   2.066
 4811SOL    HW115332   2.003   4.331   2.034
 4811SOL    HW215333   2.107   4.395   2.143
 4812SOL     OW15334   6.765   4.977   4.603
 4812SOL    HW115335   6.845   5.013   4.555
 4812SOL    HW215336   6.794   4.909   4.670
 4813SOL     OW15337   5.444   1.889   0.624
 4813SOL    HW115338   5.401   1.832   0.554
 4813SOL    HW215339   5.485   1.831   0.694
 4814SOL     OW15340   5.926   4.176   0.227
 4814SOL    HW115341   5.974   4.254   0.266
 4814SOL    HW215342   5.992   4.103   0.206
 4815SOL     OW15343   5.919   4.285   3.100
 4815SOL    HW115344   5.943   4.196   3.061
 4815SOL    HW215345   5.881   4.271   3.192
 4816SOL     OW15346   0.906   5.281   1.357
 4816SOL    HW115347   0.878   5.195   1.313
 4816SOL    HW215348   0.830   5.346   1.355
 4817SOL     OW15349   0.509   2.248   6.810
 4817SOL    HW115350   0.435   2.245   6.743
 4817SOL    HW215351   0.592   2.284   6.766
 4818SOL     OW15352   1.202   0.602   5.146
 4818SOL    HW115353   1.185   0.688   5.194
 4818SOL    HW215354   1.115   0.558   5.125
 4819SOL     OW15355   0.887   2.081   0.199
 4819SOL    HW115356   0.789   2.103   0.199
 4819SOL    HW215357   0.936   2.146   0.142
 4820SOL     OW15358   6.145   2.666   1.333
 4820SOL    HW115359   6.238   2.696   1.312
 4820SOL    HW215360   6.083   2.695   1.260
 4821SOL     OW15361   1.094   5.884   2.574
 4821SOL    HW115362   0.998   5.881   2.603
 4821SOL    HW215363   1.154   5.872   2.653
 4822SOL     OW15364   2.193   2.666   4.697
 4822SOL    HW115365   2.258   2.686   4.769
 4822SOL    HW215366   2.113   2.726   4.706
 4823SOL     OW15367   1.936   1.174   4.369
 4823SOL    HW115368   1.912   1.097   4.310
 4823SOL    HW215369   2.023   1.213   4.340
 4824SOL     OW15370   4.852   3.156   5.055
 4824SOL    HW115371   4.755   3.152   5.079
 4824SOL    HW215372   4.899   3.075   5.091
 4825SOL     OW15373   1.604   2.918   4.556
 4825SOL    HW115374   1.618   3.016   4.567
 4825SOL    HW215375   1.520   2.902   4.505
 4826SOL     OW15376   5.886   0.725   0.012
 4826SOL    HW115377   5.848   0.740   0.103
 4826SOL    HW215378   5.812   0.711   6.968
 4827SOL     OW15379   6.392   1.372   0.921
 4827SOL    HW115380   6.441   1.384   1.008
 4827SOL    HW215381   6.309   1.318   0.936
 4828SOL     OW15382   5.208   1.676   0.765
 4828SOL    HW115383   5.108   1.680   0.765
 4828SOL    HW215384   5.241   1.682   0.859
 4829SOL     OW15385   3.801   0.336   5.270
 4829SOL    HW115386   3.723   0.277   5.291
 4829SOL    HW215387   3.868   0.332   5.344
 4830SOL     OW15388   3.876   5.959   4.473
 4830SOL    HW115389   3.928   5.887   4.518
 4830SOL    HW215390   3.846   5.928   4.383
 4831SOL     OW15391   0.905   4.414   5.700
 4831SOL    HW115392   0.995   4.396   5.660
 4831SOL    HW215393   0.913   4.423   5.799
 4832SOL     OW15394   3.395   4.178   3.741
 4832SOL    HW115395   3.315   4.155   3.685
 4832SOL    HW215396   3.477   4.143   3.697
 4833SOL     OW15397   6.619   1.217   2.769
 4833SOL    HW115398   6.678   1.210   2.850
 4833SOL    HW215399   6.584   1.126   2.746
 4834SOL     OW15400   2.666   5.717   1.839
 4834SOL    HW115401   2.739   5.772   1.879
 4834SOL    HW215402   2.700   5.625   1.820
 4835SOL     OW15403   5.566   2.401   5.974
 4835SOL    HW115404   5.476   2.444   5.973
 4835SOL    HW215405   5.604   2.400   5.881
 4836SOL     OW15406   5.188   1.989   4.849
 4836SOL    HW115407   5.274   2.025   4.814
 4836SOL    HW215408   5.180   2.007   4.947
 4837SOL     OW15409   6.840   3.381   2.880
 4837SOL    HW115410   6.757   3.358   2.829
 4837SOL    HW215411   6.892   3.450   2.829
 4838SOL     OW15412   2.407   5.876   0.115
 4838SOL    HW115413   2.484   5.833   0.163
 4838SOL    HW215414   2.346   5.919   0.182
 4839SOL     OW15415   1.006   4.047   0.533
 4839SOL    HW115416   0.908   4.057   0.554
 4839SOL    HW215417   1.059   4.105   0.594
 4840SOL     OW15418   6.821   4.782   6.355
 4840SOL    HW115419   6.878   4.701   6.369
 4840SOL    HW215420   6.731   4.753   6.321
 4841SOL     OW15421   2.558   5.206   3.160
 4841SOL    HW115422   2.462   5.187   3.138
 4841SOL    HW215423   2.604   5.239   3.077
 4842SOL     OW15424   2.966   5.013   3.293
 4842SOL    HW115425   2.888   4.989   3.235
 4842SOL    HW215426   2.964   4.957   3.376
 4843SOL     OW15427   5.983   2.791   1.137
 4843SOL    HW115428   5.927   2.803   1.055
 4843SOL    HW215429   6.008   2.880   1.174
 4844SOL     OW15430   0.051   3.633   6.080
 4844SOL    HW115431   0.049   3.598   5.986
 4844SOL    HW215432   0.137   3.608   6.123
 4845SOL     OW15433   4.728   4.903   6.458
 4845SOL    HW115434   4.668   4.840   6.409
 4845SOL    HW215435   4.747   4.867   6.550
 4846SOL     OW15436   0.384   2.498   3.587
 4846SOL    HW115437   0.427   2.581   3.551
 4846SOL    HW215438   0.329   2.521   3.667
 4847SOL     OW15439   2.363   1.011   6.134
 4847SOL    HW115440   2.309   0.962   6.066
 4847SOL    HW215441   2.344   1.109   6.127
 4848SOL     OW15442   2.253   1.012   4.894
 4848SOL    HW115443   2.190   0.935   4.887
 4848SOL    HW215444   2.340   0.981   4.930
 4849SOL     OW15445   1.585   5.585   0.731
 4849SOL    HW115446   1.585   5.604   0.829
 4849SOL    HW215447   1.568   5.487   0.716
 4850SOL     OW15448   4.459   1.195   1.373
 4850SOL    HW115449   4.359   1.186   1.366
 4850SOL    HW215450   4.502   1.148   1.296
 4851SOL     OW15451   3.425   5.852   5.738
 4851SOL    HW115452   3.490   5.888   5.671
 4851SOL    HW215453   3.337   5.897   5.728
 4852SOL     OW15454   2.020   5.718   4.756
 4852SOL    HW115455   2.037   5.775   4.676
 4852SOL    HW215456   2.097   5.655   4.769
 4853SOL     OW15457   4.137   1.146   3.635
 4853SOL    HW115458   4.083   1.146   3.720
 4853SOL    HW215459   4.234   1.155   3.657
 4854SOL     OW15460   4.495   6.750   2.163
 4854SOL    HW115461   4.468   6.762   2.258
 4854SOL    HW215462   4.561   6.675   2.156
 4855SOL     OW15463   6.187   2.583   5.366
 4855SOL    HW115464   6.188   2.504   5.427
 4855SOL    HW215465   6.112   2.574   5.301
 4856SOL     OW15466   1.730   3.492   2.780
 4856SOL    HW115467   1.691   3.449   2.698
 4856SOL    HW215468   1.763   3.583   2.756
 4857SOL     OW15469   2.946   2.224   3.326
 4857SOL    HW115470   3.029   2.169   3.339
 4857SOL    HW215471   2.951   2.306   3.383
 4858SOL     OW15472   6.926   6.283   5.045
 4858SOL    HW115473   6.930   6.340   4.962
 4858SOL    HW215474   6.965   6.193   5.026
 4859SOL     OW15475   0.272   4.931   2.506
 4859SOL    HW115476   0.330   5.010   2.525
 4859SOL    HW215477   0.205   4.920   2.579
 4860SOL     OW15478   4.493   4.280   0.059
 4860SOL    HW115479   4.530   4.199   0.015
 4860SOL    HW215480   4.412   4.255   0.113
 4861SOL     OW15481   5.946   5.474   6.472
 4861SOL    HW115482   5.946   5.545   6.541
 4861SOL    HW215483   5.883   5.499   6.398
 4862SOL     OW15484   2.067   4.698   4.864
 4862SOL    HW115485   2.136   4.696   4.792
 4862SOL    HW215486   2.083   4.622   4.927
 4863SOL     OW15487   5.208   3.195   2.419
 4863SOL    HW115488   5.218   3.101   2.384
 4863SOL    HW215489   5.119   3.231   2.391
 4864SOL     OW15490   2.867   1.036   1.908
 4864SOL    HW115491   2.935   1.108   1.898
 4864SOL    HW215492   2.788   1.072   1.957
 4865SOL     OW15493   2.011   5.851   4.524
 4865SOL    HW115494   1.932   5.890   4.570
 4865SOL    HW215495   2.078   5.923   4.506
 4866SOL     OW15496   6.099   4.844   1.374
 4866SOL    HW115497   6.025   4.835   1.307
 4866SOL    HW215498   6.103   4.939   1.406
 4867SOL     OW15499   5.125   5.826   3.190
 4867SOL    HW115500   5.217   5.856   3.168
 4867SOL    HW215501   5.128   5.759   3.264
 4868SOL     OW15502   6.931   5.527   1.706
 4868SOL    HW115503   6.852   5.497   1.761
 4868SOL    HW215504   7.001   5.456   1.708
 4869SOL     OW15505   6.849   2.290   1.303
 4869SOL    HW115506   6.896   2.260   1.386
 4869SOL    HW215507   6.880   2.382   1.279
 4870SOL     OW15508   5.539   5.414   1.742
 4870SOL    HW115509   5.620   5.472   1.747
 4870SOL    HW215510   5.565   5.323   1.707
 4871SOL     OW15511   0.208   1.216   4.647
 4871SOL    HW115512   0.270   1.139   4.632
 4871SOL    HW215513   0.259   1.302   4.640
 4872SOL     OW15514   0.398   5.928   4.088
 4872SOL    HW115515   0.482   5.873   4.087
 4872SOL    HW215516   0.398   5.986   4.170
 4873SOL     OW15517   6.553   4.747   3.970
 4873SOL    HW115518   6.566   4.764   3.872
 4873SOL    HW215519   6.522   4.831   4.015
 4874SOL     OW15520   6.075   4.253   2.762
 4874SOL    HW115521   6.101   4.340   2.804
 4874SOL    HW215522   5.980   4.258   2.730
 4875SOL     OW15523   4.931   2.352   0.798
 4875SOL    HW115524   4.914   2.439   0.751
 4875SOL    HW215525   4.844   2.307   0.817
 4876SOL     OW15526   6.105   1.033   5.043
 4876SOL    HW115527   6.155   0.947   5.034
 4876SOL    HW215528   6.141   1.099   4.978
 4877SOL     OW15529   6.753   1.619   0.787
 4877SOL    HW115530   6.849   1.640   0.807
 4877SOL    HW215531   6.737   1.521   0.796
 4878SOL     OW15532   6.682   1.722   2.487
 4878SOL    HW115533   6.683   1.822   2.489
 4878SOL    HW215534   6.692   1.690   2.392
 4879SOL     OW15535   4.064   5.275   3.536
 4879SOL    HW115536   4.075   5.344   3.465
 4879SOL    HW215537   4.135   5.287   3.606
 4880SOL     OW15538   6.189   3.110   6.384
 4880SOL    HW115539   6.101   3.079   6.347
 4880SOL    HW215540   6.181   3.124   6.482
 4881SOL     OW15541   2.281   6.309   6.731
 4881SOL    HW115542   2.222   6.328   6.810
 4881SOL    HW215543   2.370   6.353   6.745
 4882SOL     OW15544   5.743   1.409   4.189
 4882SOL    HW115545   5.668   1.459   4.232
 4882SOL    HW215546   5.726   1.404   4.090
 4883SOL     OW15547   5.118   4.869   2.427
 4883SOL    HW115548   5.173   4.813   2.489
 4883SOL    HW215549   5.144   4.851   2.332
 4884SOL     OW15550   4.379   0.176   0.774
 4884SOL    HW115551   4.377   0.086   0.817
 4884SOL    HW215552   4.471   0.215   0.783
 4885SOL     OW15553   2.665   6.447   2.360
 4885SOL    HW115554   2.574   6.452   2.318
 4885SOL    HW215555   2.697   6.352   2.358
 4886SOL     OW15556   6.952   5.590   5.786
 4886SOL    HW115557   0.013   5.627   5.745
 4886SOL    HW215558   6.965   5.493   5.805
 4887SOL     OW15559   0.403   1.350   2.701
 4887SOL    HW115560   0.457   1.283   2.650
 4887SOL    HW215561   0.326   1.381   2.644
 4888SOL     OW15562   2.016   6.551   4.049
 4888SOL    HW115563   2.083   6.477   4.052
 4888SOL    HW215564   2.037   6.612   3.972
 4889SOL     OW15565   6.985   1.510   6.716
 4889SOL    HW115566   0.015   1.565   6.651
 4889SOL    HW215567   6.937   1.438   6.666
 4890SOL     OW15568   0.430   2.372   5.354
 4890SOL    HW115569   0.522   2.409   5.367
 4890SOL    HW215570   0.389   2.411   5.272
 4891SOL     OW15571   1.302   5.825   0.538
 4891SOL    HW115572   1.253   5.738   0.547
 4891SOL    HW215573   1.345   5.830   0.448
 4892SOL     OW15574   2.528   5.984   2.294
 4892SOL    HW115575   2.448   6.037   2.321
 4892SOL    HW215576   2.531   5.899   2.347
 4893SOL     OW15577   6.311   4.610   0.069
 4893SOL    HW115578   6.365   4.694   0.062
 4893SOL    HW215579   6.356   4.537   0.018
 4894SOL     OW15580   2.551   0.975   1.541
 4894SOL    HW115581   2.633   1.027   1.516
 4894SOL    HW215582   2.474   1.005   1.485
 4895SOL     OW15583   0.218   5.130   1.588
 4895SOL    HW115584   0.302   5.076   1.594
 4895SOL    HW215585   0.172   5.111   1.501
 4896SOL     OW15586   2.270   5.279   2.666
 4896SOL    HW115587   2.191   5.312   2.614
 4896SOL    HW215588   2.354   5.312   2.623
 4897SOL     OW15589   2.370   5.623   6.302
 4897SOL    HW115590   2.352   5.594   6.208
 4897SOL    HW215591   2.400   5.544   6.355
 4898SOL     OW15592   5.850   1.842   5.259
 4898SOL    HW115593   5.772   1.903   5.268
 4898SOL    HW215594   5.819   1.747   5.265
 4899SOL     OW15595   6.298   4.606   3.143
 4899SOL    HW115596   6.279   4.521   3.094
 4899SOL    HW215597   6.370   4.657   3.096
 4900SOL     OW15598   1.893   5.981   5.504
 4900SOL    HW115599   1.918   6.067   5.548
 4900SOL    HW215600   1.976   5.936   5.471
 4901SOL     OW15601   2.919   6.977   5.026
 4901SOL    HW115602   2.864   6.988   4.943
 4901SOL    HW215603   2.935   6.880   5.043
 4902SOL     OW15604   2.442   2.071   4.908
 4902SOL    HW115605   2.512   2.039   4.844
 4902SOL    HW215606   2.478   2.147   4.961
 4903SOL     OW15607   3.169   6.584   6.617
 4903SOL    HW115608   3.223   6.660   6.580
 4903SOL    HW215609   3.228   6.505   6.631
 4904SOL     OW15610   1.548   0.218   3.700
 4904SOL    HW115611   1.478   0.152   3.673
 4904SOL    HW215612   1.576   0.271   3.620
 4905SOL     OW15613   4.484   2.044   2.312
 4905SOL    HW115614   4.566   1.992   2.337
 4905SOL    HW215615   4.507   2.141   2.304
 4906SOL     OW15616   3.191   1.168   6.350
 4906SOL    HW115617   3.161   1.168   6.255
 4906SOL    HW215618   3.128   1.222   6.406
 4907SOL     OW15619   4.823   6.306   2.209
 4907SOL    HW115620   4.836   6.342   2.116
 4907SOL    HW215621   4.907   6.261   2.239
 4908SOL     OW15622   4.394   4.894   0.122
 4908SOL    HW115623   4.423   4.865   0.031
 4908SOL    HW215624   4.383   4.815   0.182
 4909SOL     OW15625   6.177   0.202   6.038
 4909SOL    HW115626   6.216   0.231   6.125
 4909SOL    HW215627   6.250   0.183   5.973
 4910SOL     OW15628   5.769   6.691   4.705
 4910SOL    HW115629   5.744   6.739   4.621
 4910SOL    HW215630   5.702   6.620   4.724
 4911SOL     OW15631   6.732   2.673   6.009
 4911SOL    HW115632   6.774   2.706   5.925
 4911SOL    HW215633   6.798   2.679   6.084
 4912SOL     OW15634   5.455   1.982   1.353
 4912SOL    HW115635   5.544   1.937   1.366
 4912SOL    HW215636   5.420   2.013   1.441
 4913SOL     OW15637   3.720   3.079   3.713
 4913SOL    HW115638   3.741   3.129   3.797
 4913SOL    HW215639   3.640   3.119   3.669
 4914SOL     OW15640   3.698   0.549   4.777
 4914SOL    HW115641   3.659   0.460   4.752
 4914SOL    HW215642   3.746   0.541   4.864
 4915SOL     OW15643   4.983   0.327   4.788
 4915SOL    HW115644   4.902   0.275   4.816
 4915SOL    HW215645   5.038   0.350   4.868
 4916SOL     OW15646   2.250   1.222   3.575
 4916SOL    HW115647   2.167   1.200   3.524
 4916SOL    HW215648   2.264   1.322   3.576
 4917SOL     OW15649   1.511   4.272   0.671
 4917SOL    HW115650   1.516   4.364   0.631
 4917SOL    HW215651   1.474   4.278   0.764
 4918SOL     OW15652   3.100   0.077   2.369
 4918SOL    HW115653   3.046   0.080   2.453
 4918SOL    HW215654   3.196   0.062   2.392
 4919SOL     OW15655   2.452   1.842   1.310
 4919SOL    HW115656   2.509   1.885   1.239
 4919SOL    HW215657   2.509   1.783   1.367
 4920SOL     OW15658   4.266   0.579   6.450
 4920SOL    HW115659   4.348   0.632   6.475
 4920SOL    HW215660   4.191   0.603   6.511
 4921SOL     OW15661   1.780   3.905   1.227
 4921SOL    HW115662   1.838   3.835   1.268
 4921SOL    HW215663   1.685   3.887   1.249
 4922SOL     OW15664   1.272   3.433   5.014
 4922SOL    HW115665   1.186   3.412   5.061
 4922SOL    HW215666   1.317   3.509   5.062
 4923SOL     OW15667   4.156   1.221   1.373
 4923SOL    HW115668   4.075   1.169   1.345
 4923SOL    HW215669   4.149   1.314   1.336
 4924SOL     OW15670   2.290   2.847   5.941
 4924SOL    HW115671   2.369   2.801   5.900
 4924SOL    HW215672   2.313   2.878   6.033
 4925SOL     OW15673   6.333   6.517   0.956
 4925SOL    HW115674   6.408   6.522   1.021
 4925SOL    HW215675   6.370   6.517   0.863
 4926SOL     OW15676   4.862   2.621   1.309
 4926SOL    HW115677   4.939   2.666   1.353
 4926SOL    HW215678   4.895   2.545   1.253
 4927SOL     OW15679   4.090   3.736   4.039
 4927SOL    HW115680   4.020   3.806   4.023
 4927SOL    HW215681   4.140   3.758   4.123
 4928SOL     OW15682   0.301   7.007   6.606
 4928SOL    HW115683   0.258   6.917   6.612
 4928SOL    HW215684   0.376   7.013   6.672
 4929SOL     OW15685   1.297   4.127   5.188
 4929SOL    HW115686   1.261   4.170   5.104
 4929SOL    HW215687   1.230   4.140   5.262
 4930SOL     OW15688   6.524   0.566   1.347
 4930SOL    HW115689   6.622   0.586   1.359
 4930SOL    HW215690   6.475   0.588   1.431
 4931SOL     OW15691   0.186   6.613   0.955
 4931SOL    HW115692   0.112   6.589   1.019
 4931SOL    HW215693   0.183   6.550   0.877
 4932SOL     OW15694   2.175   3.255   1.748
 4932SOL    HW115695   2.223   3.290   1.828
 4932SOL    HW215696   2.224   3.280   1.665
 4933SOL     OW15697   2.782   6.850   4.698
 4933SOL    HW115698   2.836   6.934   4.703
 4933SOL    HW215699   2.842   6.771   4.703
 4934SOL     OW15700   1.550   5.174   3.371
 4934SOL    HW115701   1.520   5.115   3.446
 4934SOL    HW215702   1.491   5.255   3.365
 4935SOL     OW15703   1.050   1.193   0.007
 4935SOL    HW115704   1.093   1.139   0.080
 4935SOL    HW215705   0.954   1.208   0.030
 4936SOL     OW15706   1.889   4.974   2.171
 4936SOL    HW115707   1.964   4.931   2.120
 4936SOL    HW215708   1.857   5.055   2.122
 4937SOL     OW15709   0.467   3.791   6.130
 4937SOL    HW115710   0.426   3.840   6.207
 4937SOL    HW215711   0.409   3.714   6.104
 4938SOL     OW15712   3.024   5.184   1.351
 4938SOL    HW115713   3.040   5.223   1.441
 4938SOL    HW215714   3.022   5.084   1.358
 4939SOL     OW15715   1.003   2.018   3.507
 4939SOL    HW115716   0.923   2.053   3.458
 4939SOL    HW215717   0.974   1.945   3.570
 4940SOL     OW15718   0.487   1.866   5.648
 4940SOL    HW115719   0.558   1.880   5.579
 4940SOL    HW215720   0.420   1.800   5.613
 4941SOL     OW15721   4.233   2.771   5.374
 4941SOL    HW115722   4.151   2.795   5.425
 4941SOL    HW215723   4.215   2.691   5.317
 4942SOL     OW15724   5.335   3.332   4.712
 4942SOL    HW115725   5.340   3.241   4.753
 4942SOL    HW215726   5.240   3.353   4.690
 4943SOL     OW15727   4.969   4.137   5.802
 4943SOL    HW115728   5.000   4.120   5.708
 4943SOL    HW215729   4.880   4.181   5.800
 4944SOL     OW15730   2.410   4.249   1.598
 4944SOL    HW115731   2.378   4.163   1.557
 4944SOL    HW215732   2.378   4.254   1.693
 4945SOL     OW15733   1.016   6.982   5.096
 4945SOL    HW115734   1.032   6.914   5.024
 4945SOL    HW215735   1.099   0.014   5.108
 4946SOL     OW15736   1.069   5.510   0.057
 4946SOL    HW115737   1.167   5.531   0.063
 4946SOL    HW215738   1.038   5.521   6.985
 4947SOL     OW15739   2.292   0.880   0.907
 4947SOL    HW115740   2.318   0.807   0.970
 4947SOL    HW215741   2.308   0.968   0.950
 4948SOL     OW15742   2.333   2.528   2.849
 4948SOL    HW115743   2.307   2.620   2.877
 4948SOL    HW215744   2.337   2.523   2.749
 4949SOL     OW15745   0.088   3.929   5.100
 4949SOL    HW115746   0.111   3.879   5.017
 4949SOL    HW215747   0.172   3.950   5.151
 4950SOL     OW15748   2.200   4.266   5.510
 4950SOL    HW115749   2.277   4.222   5.464
 4950SOL    HW215750   2.117   4.251   5.456
 4951SOL     OW15751   6.270   0.076   4.769
 4951SOL    HW115752   6.325   7.018   4.748
 4951SOL    HW215753   6.302   0.117   4.854
 4952SOL     OW15754   0.482   6.737   6.155
 4952SOL    HW115755   0.538   6.770   6.079
 4952SOL    HW215756   0.386   6.743   6.131
 4953SOL     OW15757   1.410   6.566   3.064
 4953SOL    HW115758   1.381   6.607   2.977
 4953SOL    HW215759   1.470   6.629   3.113
 4954SOL     OW15760   3.098   3.454   0.135
 4954SOL    HW115761   3.149   3.418   0.213
 4954SOL    HW215762   3.133   3.544   0.111
 4955SOL     OW15763   2.966   6.395   6.700
 4955SOL    HW115764   2.982   6.303   6.663
 4955SOL    HW215765   3.043   6.455   6.676
 4956SOL     OW15766   2.917   0.403   4.990
 4956SOL    HW115767   2.965   0.315   5.001
 4956SOL    HW215768   2.955   0.469   5.054
 4957SOL     OW15769   5.356   2.775   0.881
 4957SOL    HW115770   5.424   2.761   0.953
 4957SOL    HW215771   5.273   2.726   0.904
 4958SOL     OW15772   1.476   5.510   5.852
 4958SOL    HW115773   1.469   5.508   5.752
 4958SOL    HW215774   1.453   5.602   5.885
 4959SOL     OW15775   6.052   1.208   1.186
 4959SOL    HW115776   6.018   1.121   1.222
 4959SOL    HW215777   6.090   1.194   1.094
 4960SOL     OW15778   4.470   4.810   4.192
 4960SOL    HW115779   4.554   4.818   4.246
 4960SOL    HW215780   4.392   4.799   4.252
 4961SOL     OW15781   3.264   0.068   6.264
 4961SOL    HW115782   3.283   0.026   6.352
 4961SOL    HW215783   3.167   0.096   6.261
 4962SOL     OW15784   5.922   2.730   0.206
 4962SOL    HW115785   5.993   2.741   0.136
 4962SOL    HW215786   5.861   2.655   0.179
 4963SOL     OW15787   0.751   5.689   0.785
 4963SOL    HW115788   0.701   5.604   0.767
 4963SOL    HW215789   0.849   5.670   0.789
 4964SOL     OW15790   2.117   0.074   4.466
 4964SOL    HW115791   2.151   7.006   4.441
 4964SOL    HW215792   2.116   0.083   4.566
 4965SOL     OW15793   0.893   6.264   2.331
 4965SOL    HW115794   0.976   6.312   2.359
 4965SOL    HW215795   0.915   6.200   2.257
 4966SOL     OW15796   3.227   6.851   4.836
 4966SOL    HW115797   3.320   6.816   4.844
 4966SOL    HW215798   3.164   6.776   4.816
 4967SOL     OW15799   3.156   5.249   6.005
 4967SOL    HW115800   3.202   5.199   5.931
 4967SOL    HW215801   3.182   5.346   6.000
 4968SOL     OW15802   0.316   1.382   3.146
 4968SOL    HW115803   0.346   1.413   3.056
 4968SOL    HW215804   0.240   1.439   3.177
 4969SOL     OW15805   2.041   6.132   2.617
 4969SOL    HW115806   2.112   6.196   2.647
 4969SOL    HW215807   1.971   6.126   2.689
 4970SOL     OW15808   2.445   1.478   1.077
 4970SOL    HW115809   2.380   1.517   1.013
 4970SOL    HW215810   2.401   1.465   1.166
 4971SOL     OW15811   6.222   5.622   2.921
 4971SOL    HW115812   6.197   5.718   2.919
 4971SOL    HW215813   6.181   5.579   3.002
 4972SOL     OW15814   0.505   3.854   1.039
 4972SOL    HW115815   0.421   3.907   1.050
 4972SOL    HW215816   0.581   3.902   1.081
 4973SOL     OW15817   0.890   6.798   1.712
 4973SOL    HW115818   0.896   6.893   1.743
 4973SOL    HW215819   0.927   6.791   1.619
 4974SOL     OW15820   6.323   5.097   0.790
 4974SOL    HW115821   6.229   5.061   0.794
 4974SOL    HW215822   6.321   5.196   0.795
 4975SOL     OW15823   5.693   3.878   6.439
 4975SOL    HW115824   5.779   3.872   6.389
 4975SOL    HW215825   5.702   3.944   6.514
 4976SOL     OW15826   1.936   1.766   4.647
 4976SOL    HW115827   1.854   1.730   4.603
 4976SOL    HW215828   2.017   1.728   4.602
 4977SOL     OW15829   4.747   5.128   0.379
 4977SOL    HW115830   4.722   5.046   0.430
 4977SOL    HW215831   4.688   5.137   0.299
 4978SOL     OW15832   5.877   4.694   4.678
 4978SOL    HW115833   5.846   4.638   4.601
 4978SOL    HW215834   5.811   4.688   4.753
 4979SOL     OW15835   6.804   6.742   5.999
 4979SOL    HW115836   6.801   6.799   5.917
 4979SOL    HW215837   6.896   6.746   6.039
 4980SOL     OW15838   5.102   5.587   3.812
 4980SOL    HW115839   5.044   5.564   3.734
 4980SOL    HW215840   5.103   5.509   3.876
 4981SOL     OW15841   3.986   5.073   1.486
 4981SOL    HW115842   3.919   5.068   1.560
 4981SOL    HW215843   4.009   5.168   1.467
 4982SOL     OW15844   3.323   1.961   5.897
 4982SOL    HW115845   3.302   2.047   5.850
 4982SOL    HW215846   3.414   1.967   5.939
 4983SOL     OW15847   5.352   3.740   5.286
 4983SOL    HW115848   5.266   3.727   5.336
 4983SOL    HW215849   5.428   3.712   5.344
 4984SOL     OW15850   4.913   3.618   3.043
 4984SOL    HW115851   4.893   3.546   3.110
 4984SOL    HW215852   5.006   3.607   3.009
 4985SOL     OW15853   6.181   7.014   3.250
 4985SOL    HW115854   6.088   6.979   3.237
 4985SOL    HW215855   6.234   6.997   3.168
 4986SOL     OW15856   6.638   5.167   0.557
 4986SOL    HW115857   6.637   5.241   0.490
 4986SOL    HW215858   6.623   5.080   0.511
 4987SOL     OW15859   0.850   6.697   2.543
 4987SOL    HW115860   0.765   6.748   2.553
 4987SOL    HW215861   0.854   6.655   2.453
 4988SOL     OW15862   5.145   1.125   2.422
 4988SOL    HW115863   5.157   1.195   2.492
 4988SOL    HW215864   5.217   1.056   2.431
 4989SOL     OW15865   5.149   6.474   1.166
 4989SOL    HW115866   5.178   6.558   1.120
 4989SOL    HW215867   5.156   6.486   1.265
 4990SOL     OW15868   2.889   1.981   5.773
 4990SOL    HW115869   2.866   2.027   5.859
 4990SOL    HW215870   2.878   1.882   5.784
 4991SOL     OW15871   6.209   5.675   4.054
 4991SOL    HW115872   6.138   5.687   4.123
 4991SOL    HW215873   6.199   5.585   4.011
 4992SOL     OW15874   4.735   0.189   2.160
 4992SOL    HW115875   4.778   0.277   2.179
 4992SOL    HW215876   4.781   0.145   2.083
 4993SOL     OW15877   3.689   6.264   5.423
 4993SOL    HW115878   3.752   6.301   5.355
 4993SOL    HW215879   3.729   6.272   5.514
 4994SOL     OW15880   1.752   6.780   4.327
 4994SOL    HW115881   1.839   6.740   4.300
 4994SOL    HW215882   1.768   6.852   4.394
 4995SOL     OW15883   1.129   2.394   5.134
 4995SOL    HW115884   1.132   2.475   5.192
 4995SOL    HW215885   1.034   2.369   5.115
 4996SOL     OW15886   0.026   1.035   3.704
 4996SOL    HW115887   0.044   1.133   3.691
 4996SOL    HW215888   6.954   1.022   3.733
 4997SOL     OW15889   4.522   2.306   2.288
 4997SOL    HW115890   4.594   2.375   2.279
 4997SOL    HW215891   4.488   2.307   2.382
 4998SOL     OW15892   2.146   3.438   4.572
 4998SOL    HW115893   2.169   3.418   4.667
 4998SOL    HW215894   2.059   3.394   4.549
 4999SOL     OW15895   6.652   3.385   4.864
 4999SOL    HW115896   6.732   3.418   4.815
 4999SOL    HW215897   6.679   3.356   4.956
 5000SOL     OW15898   3.304   0.329   3.486
 5000SOL    HW115899   3.354   0.379   3.415
 5000SOL    HW215900   3.207   0.330   3.464
 5001SOL     OW15901   1.191   5.028   1.756
 5001SOL    HW115902   1.240   4.943   1.740
 5001SOL    HW215903   1.099   5.021   1.718
 5002SOL     OW15904   1.016   3.875   2.286
 5002SOL    HW115905   1.105   3.829   2.287
 5002SOL    HW215906   0.993   3.902   2.193
 5003SOL     OW15907   3.502   5.624   3.100
 5003SOL    HW115908   3.424   5.563   3.112
 5003SOL    HW215909   3.580   5.589   3.152
 5004SOL     OW15910   2.330   4.741   5.139
 5004SOL    HW115911   2.333   4.805   5.063
 5004SOL    HW215912   2.403   4.673   5.130
 5005SOL     OW15913   3.429   2.829   0.211
 5005SOL    HW115914   3.509   2.866   0.258
 5005SOL    HW215915   3.413   2.735   0.242
 5006SOL     OW15916   5.367   0.930   1.667
 5006SOL    HW115917   5.307   0.996   1.622
 5006SOL    HW215918   5.356   0.936   1.766
 5007SOL     OW15919   0.100   6.711   1.253
 5007SOL    HW115920   0.164   6.782   1.283
 5007SOL    HW215921   0.123   6.624   1.298
 5008SOL     OW15922   5.243   6.365   1.986
 5008SOL    HW115923   5.176   6.384   1.914
 5008SOL    HW215924   5.303   6.291   1.957
 5009SOL     OW15925   6.939   1.894   0.576
 5009SOL    HW115926   6.939   1.847   0.487
 5009SOL    HW215927   6.856   1.948   0.585
 5010SOL     OW15928   4.102   3.031   1.556
 5010SOL    HW115929   4.076   3.072   1.644
 5010SOL    HW215930   4.142   3.102   1.497
 5011SOL     OW15931   1.562   4.916   2.035
 5011SOL    HW115932   1.581   4.873   2.124
 5011SOL    HW215933   1.467   4.946   2.033
 5012SOL     OW15934   5.341   3.268   4.995
 5012SOL    HW115935   5.255   3.260   5.044
 5012SOL    HW215936   5.379   3.360   5.009
 5013SOL     OW15937   5.101   1.331   6.680
 5013SOL    HW115938   5.179   1.369   6.729
 5013SOL    HW215939   5.068   1.249   6.727
 5014SOL     OW15940   5.860   4.488   1.175
 5014SOL    HW115941   5.887   4.393   1.159
 5014SOL    HW215942   5.874   4.542   1.092
 5015SOL     OW15943   5.135   1.552   4.999
 5015SOL    HW115944   5.190   1.611   4.941
 5015SOL    HW215945   5.112   1.600   5.084
 5016SOL     OW15946   1.944   2.803   5.618
 5016SOL    HW115947   2.025   2.852   5.649
 5016SOL    HW215948   1.924   2.728   5.681
 5017SOL     OW15949   2.394   2.147   1.082
 5017SOL    HW115950   2.395   2.096   0.996
 5017SOL    HW215951   2.476   2.124   1.135
 5018SOL     OW15952   1.307   4.739   2.619
 5018SOL    HW115953   1.319   4.658   2.561
 5018SOL    HW215954   1.235   4.720   2.687
 5019SOL     OW15955   1.029   5.195   5.799
 5019SOL    HW115956   0.943   5.220   5.757
 5019SOL    HW215957   1.011   5.138   5.879
 5020SOL     OW15958   5.417   6.915   6.529
 5020SOL    HW115959   5.494   6.959   6.575
 5020SOL    HW215960   5.411   6.948   6.435
 5021SOL     OW15961   0.759   1.261   0.000
 5021SOL    HW115962   0.713   1.346   0.027
 5021SOL    HW215963   0.695   1.185   0.008
 5022SOL     OW15964   2.249   1.573   0.916
 5022SOL    HW115965   2.152   1.574   0.940
 5022SOL    HW215966   2.260   1.547   0.820
 5023SOL     OW15967   0.012   3.141   1.587
 5023SOL    HW115968   0.051   3.115   1.675
 5023SOL    HW215969   0.041   3.234   1.564
 5024SOL     OW15970   5.960   5.328   1.824
 5024SOL    HW115971   6.049   5.328   1.778
 5024SOL    HW215972   5.925   5.235   1.828
 5025SOL     OW15973   4.135   1.999   3.542
 5025SOL    HW115974   4.055   1.965   3.592
 5025SOL    HW215975   4.171   1.926   3.484
 5026SOL     OW15976   6.458   6.176   5.253
 5026SOL    HW115977   6.449   6.098   5.191
 5026SOL    HW215978   6.443   6.145   5.347
 5027SOL     OW15979   6.611   6.251   1.831
 5027SOL    HW115980   6.621   6.163   1.785
 5027SOL    HW215981   6.685   6.262   1.898
 5028SOL     OW15982   0.355   2.330   2.177
 5028SOL    HW115983   0.402   2.417   2.192
 5028SOL    HW215984   0.405   2.257   2.223
 5029SOL     OW15985   6.354   2.154   2.326
 5029SOL    HW115986   6.383   2.127   2.417
 5029SOL    HW215987   6.297   2.082   2.286
 5030SOL     OW15988   0.279   6.051   6.394
 5030SOL    HW115989   0.183   6.055   6.423
 5030SOL    HW215990   0.283   6.026   6.298
 5031SOL     OW15991   6.198   1.041   6.428
 5031SOL    HW115992   6.103   1.071   6.418
 5031SOL    HW215993   6.259   1.106   6.384
 5032SOL     OW15994   2.212   2.613   6.358
 5032SOL    HW115995   2.278   2.545   6.325
 5032SOL    HW215996   2.241   2.645   6.449
 5033SOL     OW15997   1.935   6.960   5.620
 5033SOL    HW115998   1.978   6.956   5.529
 5033SOL    HW215999   1.954   6.876   5.670
 5034SOL     OW16000   5.689   0.036   3.704
 5034SOL    HW116001   5.731   0.029   3.614
 5034SOL    HW216002   5.738   0.104   3.759
 5035SOL     OW16003   0.248   4.069   5.845
 5035SOL    HW116004   0.242   3.972   5.823
 5035SOL    HW216005   0.190   4.088   5.925
 5036SOL     OW16006   0.561   4.875   6.841
 5036SOL    HW116007   0.464   4.876   6.866
 5036SOL    HW216008   0.576   4.806   6.770
 5037SOL     OW16009   5.564   3.847   1.639
 5037SOL    HW116010   5.536   3.932   1.594
 5037SOL    HW216011   5.645   3.810   1.592
 5038SOL     OW16012   3.715   3.670   5.710
 5038SOL    HW116013   3.762   3.587   5.680
 5038SOL    HW216014   3.630   3.645   5.757
 5039SOL     OW16015   2.488   4.591   5.853
 5039SOL    HW116016   2.455   4.519   5.791
 5039SOL    HW216017   2.419   4.662   5.862
 5040SOL     OW16018   1.607   6.631   5.901
 5040SOL    HW116019   1.535   6.647   5.833
 5040SOL    HW216020   1.568   6.581   5.979
 5041SOL     OW16021   1.708   1.713   2.724
 5041SOL    HW116022   1.621   1.707   2.771
 5041SOL    HW216023   1.714   1.641   2.655
 5042SOL     OW16024   6.130   2.919   7.002
 5042SOL    HW116025   6.215   2.885   0.020
 5042SOL    HW216026   6.095   2.995   0.033
 5043SOL     OW16027   3.460   6.936   6.115
 5043SOL    HW116028   3.389   6.981   6.170
 5043SOL    HW216029   3.546   6.985   6.126
 5044SOL     OW16030   0.770   6.387   0.081
 5044SOL    HW116031   0.858   6.430   0.063
 5044SOL    HW216032   0.745   6.326   0.006
 5045SOL     OW16033   5.683   0.070   6.136
 5045SOL    HW116034   5.707   0.140   6.203
 5045SOL    HW216035   5.747   7.017   6.143
 5046SOL     OW16036   3.229   4.105   2.651
 5046SOL    HW116037   3.252   4.129   2.745
 5046SOL    HW216038   3.224   4.006   2.641
 5047SOL     OW16039   0.849   4.026   2.840
 5047SOL    HW116040   0.922   3.982   2.893
 5047SOL    HW216041   0.806   4.097   2.895
 5048SOL     OW16042   1.142   1.266   3.237
 5048SOL    HW116043   1.174   1.211   3.314
 5048SOL    HW216044   1.045   1.250   3.222
 5049SOL     OW16045   5.072   1.864   6.252
 5049SOL    HW116046   5.059   1.949   6.202
 5049SOL    HW216047   5.122   1.798   6.195
 5050SOL     OW16048   2.217   0.652   1.395
 5050SOL    HW116049   2.253   0.706   1.471
 5050SOL    HW216050   2.277   0.663   1.315
 5051SOL     OW16051   4.129   4.398   0.858
 5051SOL    HW116052   4.048   4.345   0.884
 5051SOL    HW216053   4.101   4.483   0.814
 5052SOL     OW16054   2.646   0.961   6.047
 5052SOL    HW116055   2.698   1.033   6.093
 5052SOL    HW216056   2.550   0.988   6.042
 5053SOL     OW16057   2.014   3.610   4.165
 5053SOL    HW116058   2.053   3.687   4.215
 5053SOL    HW216059   1.952   3.644   4.094
 5054SOL     OW16060   3.514   4.980   4.653
 5054SOL    HW116061   3.530   5.079   4.652
 5054SOL    HW216062   3.500   4.950   4.747
 5055SOL     OW16063   1.914   2.230   5.359
 5055SOL    HW116064   1.945   2.136   5.372
 5055SOL    HW216065   1.847   2.254   5.430
 5056SOL     OW16066   5.430   4.411   6.480
 5056SOL    HW116067   5.349   4.452   6.522
 5056SOL    HW216068   5.463   4.337   6.539
 5057SOL     OW16069   6.504   5.882   3.713
 5057SOL    HW116070   6.555   5.848   3.792
 5057SOL    HW216071   6.525   5.979   3.699
 5058SOL     OW16072   3.255   4.028   5.437
 5058SOL    HW116073   3.223   4.112   5.394
 5058SOL    HW216074   3.235   3.950   5.378
 5059SOL     OW16075   6.675   1.099   3.444
 5059SOL    HW116076   6.702   1.189   3.410
 5059SOL    HW216077   6.711   1.028   3.384
 5060SOL     OW16078   0.641   2.328   5.721
 5060SOL    HW116079   0.614   2.374   5.637
 5060SOL    HW216080   0.736   2.299   5.715
 5061SOL     OW16081   4.330   2.875   1.584
 5061SOL    HW116082   4.249   2.931   1.598
 5061SOL    HW216083   4.303   2.779   1.576
 5062SOL     OW16084   6.079   0.703   3.330
 5062SOL    HW116085   6.166   0.660   3.308
 5062SOL    HW216086   6.020   0.637   3.378
 5063SOL     OW16087   0.796   6.989   2.227
 5063SOL    HW116088   0.882   0.015   2.236
 5063SOL    HW216089   0.804   6.898   2.268
 5064SOL     OW16090   5.027   3.609   1.385
 5064SOL    HW116091   4.983   3.531   1.340
 5064SOL    HW216092   5.085   3.576   1.460
 5065SOL     OW16093   2.302   0.862   3.716
 5065SOL    HW116094   2.391   0.836   3.753
 5065SOL    HW216095   2.232   0.797   3.747
 5066SOL     OW16096   4.820   5.084   2.247
 5066SOL    HW116097   4.730   5.119   2.223
 5066SOL    HW216098   4.853   5.128   2.330
 5067SOL     OW16099   4.828   1.034   1.966
 5067SOL    HW116100   4.851   0.985   2.050
 5067SOL    HW216101   4.905   1.032   1.903
 5068SOL     OW16102   3.306   4.506   1.188
 5068SOL    HW116103   3.211   4.505   1.219
 5068SOL    HW216104   3.314   4.454   1.102
 5069SOL     OW16105   1.823   3.751   5.906
 5069SOL    HW116106   1.829   3.658   5.869
 5069SOL    HW216107   1.900   3.805   5.872
 5070SOL     OW16108   5.276   4.129   4.433
 5070SOL    HW116109   5.260   4.051   4.372
 5070SOL    HW216110   5.208   4.128   4.506
 5071SOL     OW16111   4.273   2.362   3.811
 5071SOL    HW116112   4.341   2.435   3.821
 5071SOL    HW216113   4.320   2.276   3.786
 5072SOL     OW16114   1.324   0.144   1.085
 5072SOL    HW116115   1.368   0.134   0.996
 5072SOL    HW216116   1.292   0.239   1.096
 5073SOL     OW16117   0.121   5.693   2.361
 5073SOL    HW116118   0.105   5.719   2.456
 5073SOL    HW216119   0.084   5.764   2.301
 5074SOL     OW16120   3.206   2.991   0.906
 5074SOL    HW116121   3.118   3.037   0.912
 5074SOL    HW216122   3.239   2.970   0.998
 5075SOL     OW16123   1.220   2.109   6.670
 5075SOL    HW116124   1.224   2.017   6.632
 5075SOL    HW216125   1.131   2.124   6.713
 5076SOL     OW16126   3.856   1.414   0.776
 5076SOL    HW116127   3.807   1.328   0.786
 5076SOL    HW216128   3.932   1.417   0.841
 5077SOL     OW16129   1.097   4.406   5.108
 5077SOL    HW116130   1.026   4.341   5.083
 5077SOL    HW216131   1.172   4.401   5.041
 5078SOL     OW16132   2.329   1.569   4.065
 5078SOL    HW116133   2.348   1.609   4.155
 5078SOL    HW216134   2.265   1.493   4.075
 5079SOL     OW16135   2.651   3.807   6.116
 5079SOL    HW116136   2.750   3.808   6.107
 5079SOL    HW216137   2.613   3.891   6.077
 5080SOL     OW16138   6.402   6.449   6.011
 5080SOL    HW116139   6.420   6.527   6.071
 5080SOL    HW216140   6.376   6.482   5.920
 5081SOL     OW16141   3.426   2.918   4.465
 5081SOL    HW116142   3.398   2.955   4.376
 5081SOL    HW216143   3.522   2.890   4.461
 5082SOL     OW16144   5.091   5.942   6.681
 5082SOL    HW116145   5.145   5.921   6.762
 5082SOL    HW216146   5.026   5.868   6.664
 5083SOL     OW16147   2.564   0.128   2.864
 5083SOL    HW116148   2.649   0.171   2.836
 5083SOL    HW216149   2.553   0.041   2.818
 5084SOL     OW16150   0.358   4.545   4.222
 5084SOL    HW116151   0.319   4.601   4.295
 5084SOL    HW216152   0.285   4.517   4.159
 5085SOL     OW16153   4.629   3.645   6.471
 5085SOL    HW116154   4.591   3.610   6.556
 5085SOL    HW216155   4.585   3.731   6.447
 5086SOL     OW16156   0.312   5.134   3.569
 5086SOL    HW116157   0.269   5.160   3.656
 5086SOL    HW216158   0.398   5.184   3.558
 5087SOL     OW16159   0.349   4.869   2.920
 5087SOL    HW116160   0.406   4.803   2.970
 5087SOL    HW216161   0.268   4.892   2.975
 5088SOL     OW16162   6.277   1.385   5.146
 5088SOL    HW116163   6.280   1.473   5.099
 5088SOL    HW216164   6.334   1.319   5.096
 5089SOL     OW16165   5.279   3.165   3.589
 5089SOL    HW116166   5.308   3.124   3.675
 5089SOL    HW216167   5.183   3.192   3.595
 5090SOL     OW16168   1.701   4.023   2.757
 5090SOL    HW116169   1.746   4.000   2.671
 5090SOL    HW216170   1.623   3.962   2.771
 5091SOL     OW16171   1.013   0.114   2.225
 5091SOL    HW116172   1.000   0.193   2.285
 5091SOL    HW216173   1.110   0.089   2.224
 5092SOL     OW16174   3.624   2.968   1.382
 5092SOL    HW116175   3.723   2.979   1.391
 5092SOL    HW216176   3.593   3.015   1.299
 5093SOL     OW16177   2.715   1.518   1.043
 5093SOL    HW116178   2.763   1.433   1.026
 5093SOL    HW216179   2.618   1.499   1.062
 5094SOL     OW16180   1.643   5.938   5.410
 5094SOL    HW116181   1.736   5.942   5.446
 5094SOL    HW216182   1.632   6.005   5.336
 5095SOL     OW16183   0.226   2.782   4.800
 5095SOL    HW116184   0.176   2.815   4.881
 5095SOL    HW216185   0.189   2.826   4.718
 5096SOL     OW16186   4.179   4.036   0.770
 5096SOL    HW116187   4.224   4.031   0.681
 5096SOL    HW216188   4.231   4.097   0.830
 5097SOL     OW16189   1.092   0.677   6.864
 5097SOL    HW116190   1.153   0.612   6.819
 5097SOL    HW216191   1.074   0.753   6.801
 5098SOL     OW16192   1.300   0.973   1.235
 5098SOL    HW116193   1.236   0.934   1.301
 5098SOL    HW216194   1.325   1.066   1.263
 5099SOL     OW16195   0.715   6.259   6.860
 5099SOL    HW116196   0.696   6.276   6.764
 5099SOL    HW216197   0.661   6.181   6.892
 5100SOL     OW16198   4.085   5.773   5.242
 5100SOL    HW116199   4.152   5.802   5.310
 5100SOL    HW216200   3.998   5.751   5.288
 5101SOL     OW16201   4.254   6.748   0.527
 5101SOL    HW116202   4.275   6.823   0.464
 5101SOL    HW216203   4.156   6.750   0.549
 5102SOL     OW16204   6.089   0.929   4.768
 5102SOL    HW116205   6.159   0.858   4.775
 5102SOL    HW216206   6.024   0.919   4.843
 5103SOL     OW16207   0.325   0.857   4.348
 5103SOL    HW116208   0.342   0.902   4.260
 5103SOL    HW216209   0.386   0.778   4.357
 5104SOL     OW16210   1.943   6.614   2.725
 5104SOL    HW116211   1.890   6.591   2.643
 5104SOL    HW216212   2.008   6.687   2.704
 5105SOL     OW16213   3.417   2.499   0.011
 5105SOL    HW116214   3.494   2.474   0.069
 5105SOL    HW216215   3.440   2.582   6.982
 5106SOL     OW16216   3.377   1.031   0.854
 5106SOL    HW116217   3.430   1.074   0.781
 5106SOL    HW216218   3.286   1.074   0.858
 5107SOL     OW16219   4.234   0.785   0.821
 5107SOL    HW116220   4.203   0.690   0.821
 5107SOL    HW216221   4.274   0.807   0.732
 5108SOL     OW16222   2.917   3.762   4.291
 5108SOL    HW116223   2.951   3.848   4.327
 5108SOL    HW216224   2.829   3.741   4.333
 5109SOL     OW16225   1.377   0.978   0.967
 5109SOL    HW116226   1.309   0.954   1.037
 5109SOL    HW216227   1.362   1.073   0.937
 5110SOL     OW16228   0.592   0.605   6.468
 5110SOL    HW116229   0.510   0.653   6.436
 5110SOL    HW216230   0.588   0.509   6.439
 5111SOL     OW16231   2.154   0.732   5.482
 5111SOL    HW116232   2.160   0.784   5.397
 5111SOL    HW216233   2.147   0.634   5.460
 5112SOL     OW16234   0.748   0.044   2.559
 5112SOL    HW116235   0.699   6.981   2.543
 5112SOL    HW216236   0.739   0.071   2.654
 5113SOL     OW16237   2.366   0.002   1.838
 5113SOL    HW116238   2.279   7.007   1.791
 5113SOL    HW216239   2.438   6.970   1.795
 5114SOL     OW16240   3.165   2.205   0.203
 5114SOL    HW116241   3.069   2.222   0.179
 5114SOL    HW216242   3.222   2.218   0.122
 5115SOL     OW16243   2.166   5.153   4.988
 5115SOL    HW116244   2.180   5.193   4.897
 5115SOL    HW216245   2.076   5.110   4.993
 5116SOL     OW16246   5.847   6.349   6.367
 5116SOL    HW116247   5.922   6.285   6.385
 5116SOL    HW216248   5.815   6.388   6.453
 5117SOL     OW16249   2.239   4.673   4.660
 5117SOL    HW116250   2.233   4.701   4.564
 5117SOL    HW216251   2.334   4.671   4.688
 5118SOL     OW16252   4.735   0.343   0.563
 5118SOL    HW116253   4.717   0.282   0.486
 5118SOL    HW216254   4.674   0.422   0.558
 5119SOL     OW16255   5.435   1.185   1.763
 5119SOL    HW116256   5.339   1.205   1.746
 5119SOL    HW216257   5.444   1.132   1.848
 5120SOL     OW16258   4.291   1.151   3.931
 5120SOL    HW116259   4.321   1.128   3.839
 5120SOL    HW216260   4.217   1.218   3.926
 5121SOL     OW16261   2.190   2.568   0.299
 5121SOL    HW116262   2.173   2.562   0.201
 5121SOL    HW216263   2.188   2.476   0.339
 5122SOL     OW16264   2.982   0.342   4.109
 5122SOL    HW116265   3.071   0.386   4.105
 5122SOL    HW216266   2.961   0.301   4.020
 5123SOL     OW16267   6.086   2.204   5.314
 5123SOL    HW116268   6.037   2.198   5.401
 5123SOL    HW216269   6.102   2.300   5.291
 5124SOL     OW16270   3.102   5.134   4.638
 5124SOL    HW116271   3.032   5.196   4.673
 5124SOL    HW216272   3.071   5.039   4.648
 5125SOL     OW16273   6.037   2.759   3.857
 5125SOL    HW116274   6.104   2.686   3.845
 5125SOL    HW216275   5.952   2.722   3.892
 5126SOL     OW16276   5.992   5.144   6.126
 5126SOL    HW116277   6.003   5.220   6.062
 5126SOL    HW216278   6.030   5.061   6.086
 5127SOL     OW16279   6.735   4.289   0.319
 5127SOL    HW116280   6.749   4.201   0.365
 5127SOL    HW216281   6.765   4.363   0.379
 5128SOL     OW16282   0.219   6.746   6.600
 5128SOL    HW116283   0.318   6.739   6.610
 5128SOL    HW216284   0.175   6.681   6.662
 5129SOL     OW16285   4.241   0.195   2.641
 5129SOL    HW116286   4.166   0.182   2.705
 5129SOL    HW216287   4.316   0.243   2.685
 5130SOL     OW16288   1.499   6.099   4.569
 5130SOL    HW116289   1.507   6.009   4.526
 5130SOL    HW216290   1.471   6.089   4.664
 5131SOL     OW16291   2.905   4.849   3.881
 5131SOL    HW116292   2.828   4.900   3.843
 5131SOL    HW216293   2.918   4.764   3.829
 5132SOL     OW16294   3.363   1.342   6.189
 5132SOL    HW116295   3.447   1.382   6.225
 5132SOL    HW216296   3.342   1.258   6.238
 5133SOL     OW16297   2.392   5.421   6.520
 5133SOL    HW116298   2.461   5.423   6.592
 5133SOL    HW216299   2.313   5.368   6.552
 5134SOL     OW16300   6.467   0.327   2.156
 5134SOL    HW116301   6.451   0.230   2.142
 5134SOL    HW216302   6.562   0.341   2.184
 5135SOL     OW16303   5.296   3.349   3.898
 5135SOL    HW116304   5.198   3.352   3.883
 5135SOL    HW216305   5.319   3.270   3.955
 5136SOL     OW16306   5.430   0.867   5.936
 5136SOL    HW116307   5.528   0.871   5.958
 5136SOL    HW216308   5.380   0.931   5.994
 5137SOL     OW16309   5.140   3.522   4.905
 5137SOL    HW116310   5.077   3.447   4.887
 5137SOL    HW216311   5.088   3.608   4.913
 5138SOL     OW16312   3.367   4.185   4.703
 5138SOL    HW116313   3.365   4.210   4.606
 5138SOL    HW216314   3.350   4.266   4.759
 5139SOL     OW16315   1.034   0.187   4.510
 5139SOL    HW116316   1.087   0.252   4.456
 5139SOL    HW216317   0.940   0.182   4.475
 5140SOL     OW16318   4.177   2.333   5.725
 5140SOL    HW116319   4.122   2.412   5.702
 5140SOL    HW216320   4.209   2.288   5.642
 5141SOL     OW16321   6.708   3.711   1.088
 5141SOL    HW116322   6.797   3.678   1.054
 5141SOL    HW216323   6.702   3.810   1.075
 5142SOL     OW16324   5.518   6.904   4.832
 5142SOL    HW116325   5.502   6.841   4.756
 5142SOL    HW216326   5.562   6.855   4.907
 5143SOL     OW16327   0.493   4.156   4.621
 5143SOL    HW116328   0.587   4.158   4.654
 5143SOL    HW216329   0.458   4.062   4.624
 5144SOL     OW16330   1.979   4.556   5.978
 5144SOL    HW116331   2.039   4.610   6.036
 5144SOL    HW216332   1.934   4.617   5.912
 5145SOL     OW16333   4.287   5.947   5.977
 5145SOL    HW116334   4.281   5.965   5.879
 5145SOL    HW216335   4.267   6.031   6.028
 5146SOL     OW16336   3.518   4.205   4.946
 5146SOL    HW116337   3.572   4.133   4.989
 5146SOL    HW216338   3.510   4.187   4.848
 5147SOL     OW16339   6.107   4.974   3.674
 5147SOL    HW116340   6.014   4.946   3.701
 5147SOL    HW216341   6.138   4.917   3.599
 5148SOL     OW16342   0.318   1.225   2.135
 5148SOL    HW116343   0.323   1.300   2.201
 5148SOL    HW216344   0.223   1.201   2.119
 5149SOL     OW16345   6.090   5.544   4.742
 5149SOL    HW116346   6.061   5.549   4.646
 5149SOL    HW216347   6.149   5.464   4.755
 5150SOL     OW16348   2.225   4.450   4.000
 5150SOL    HW116349   2.297   4.519   4.000
 5150SOL    HW216350   2.139   4.491   3.969
 5151SOL     OW16351   6.847   4.301   2.088
 5151SOL    HW116352   6.848   4.397   2.060
 5151SOL    HW216353   6.802   4.247   2.018
 5152SOL     OW16354   2.368   5.506   6.870
 5152SOL    HW116355   2.358   5.604   6.857
 5152SOL    HW216356   2.294   5.458   6.823
 5153SOL     OW16357   0.553   2.123   0.727
 5153SOL    HW116358   0.481   2.102   0.792
 5153SOL    HW216359   0.513   2.169   0.647
 5154SOL     OW16360   1.304   2.994   5.737
 5154SOL    HW116361   1.369   3.011   5.811
 5154SOL    HW216362   1.212   3.020   5.766
 5155SOL     OW16363   3.833   0.748   1.799
 5155SOL    HW116364   3.825   0.847   1.814
 5155SOL    HW216365   3.824   0.700   1.886
 5156SOL     OW16366   5.860   4.737   5.441
 5156SOL    HW116367   5.868   4.669   5.369
 5156SOL    HW216368   5.929   4.808   5.428
 5157SOL     OW16369   3.236   2.122   2.427
 5157SOL    HW116370   3.254   2.026   2.409
 5157SOL    HW216371   3.157   2.152   2.374
 5158SOL     OW16372   4.320   2.520   0.841
 5158SOL    HW116373   4.298   2.529   0.938
 5158SOL    HW216374   4.253   2.459   0.797
 5159SOL     OW16375   5.857   3.369   5.915
 5159SOL    HW116376   5.890   3.309   5.987
 5159SOL    HW216377   5.929   3.434   5.890
 5160SOL     OW16378   0.114   5.112   3.370
 5160SOL    HW116379   0.075   5.197   3.335
 5160SOL    HW216380   0.176   5.132   3.446
 5161SOL     OW16381   1.360   3.909   0.289
 5161SOL    HW116382   1.391   3.983   0.349
 5161SOL    HW216383   1.342   3.827   0.344
 5162SOL     OW16384   0.985   5.414   2.835
 5162SOL    HW116385   0.971   5.362   2.751
 5162SOL    HW216386   1.063   5.476   2.823
 5163SOL     OW16387   3.659   6.127   0.492
 5163SOL    HW116388   3.660   6.208   0.551
 5163SOL    HW216389   3.565   6.103   0.469
 5164SOL     OW16390   3.304   3.101   6.840
 5164SOL    HW116391   3.373   3.154   6.890
 5164SOL    HW216392   3.347   3.022   6.798
 5165SOL     OW16393   0.454   4.253   5.836
 5165SOL    HW116394   0.441   4.312   5.916
 5165SOL    HW216395   0.388   4.178   5.838
 5166SOL     OW16396   2.330   5.015   2.746
 5166SOL    HW116397   2.319   5.109   2.712
 5166SOL    HW216398   2.301   5.010   2.841
 5167SOL     OW16399   6.239   4.166   4.870
 5167SOL    HW116400   6.183   4.136   4.792
 5167SOL    HW216401   6.272   4.085   4.919
 5168SOL     OW16402   5.341   3.203   2.964
 5168SOL    HW116403   5.358   3.296   2.932
 5168SOL    HW216404   5.287   3.154   2.895
 5169SOL     OW16405   4.128   2.271   3.556
 5169SOL    HW116406   4.096   2.318   3.638
 5169SOL    HW216407   4.140   2.173   3.576
 5170SOL     OW16408   1.436   3.589   5.161
 5170SOL    HW116409   1.458   3.541   5.246
 5170SOL    HW216410   1.497   3.668   5.151
 5171SOL     OW16411   6.736   4.398   5.913
 5171SOL    HW116412   6.669   4.368   5.980
 5171SOL    HW216413   6.827   4.365   5.940
 5172SOL     OW16414   1.502   4.268   2.999
 5172SOL    HW116415   1.466   4.176   2.984
 5172SOL    HW216416   1.561   4.268   3.080
 5173SOL     OW16417   4.574   5.243   5.195
 5173SOL    HW116418   4.508   5.305   5.153
 5173SOL    HW216419   4.543   5.149   5.185
 5174SOL     OW16420   2.222   5.040   3.741
 5174SOL    HW116421   2.231   5.094   3.658
 5174SOL    HW216422   2.270   4.953   3.730
 5175SOL     OW16423   2.358   3.634   6.831
 5175SOL    HW116424   2.356   3.711   6.766
 5175SOL    HW216425   2.394   3.666   6.918
 5176SOL     OW16426   4.750   4.382   6.110
 5176SOL    HW116427   4.656   4.353   6.129
 5176SOL    HW216428   4.795   4.406   6.195
 5177SOL     OW16429   4.746   6.668   0.718
 5177SOL    HW116430   4.694   6.753   0.708
 5177SOL    HW216431   4.798   6.670   0.803
 5178SOL     OW16432   1.412   4.593   1.981
 5178SOL    HW116433   1.474   4.582   2.059
 5178SOL    HW216434   1.365   4.680   1.988
 5179SOL     OW16435   5.189   4.480   4.226
 5179SOL    HW116436   5.090   4.492   4.237
 5179SOL    HW216437   5.236   4.562   4.259
 5180SOL     OW16438   3.544   1.098   1.524
 5180SOL    HW116439   3.511   1.161   1.454
 5180SOL    HW216440   3.526   1.137   1.615
 5181SOL     OW16441   6.364   0.759   1.834
 5181SOL    HW116442   6.338   0.842   1.883
 5181SOL    HW216443   6.383   0.686   1.900
 5182SOL     OW16444   4.590   4.599   2.277
 5182SOL    HW116445   4.635   4.668   2.220
 5182SOL    HW216446   4.498   4.582   2.242
 5183SOL     OW16447   3.729   1.906   2.917
 5183SOL    HW116448   3.732   1.980   2.850
 5183SOL    HW216449   3.713   1.944   3.008
 5184SOL     OW16450   2.094   1.981   3.546
 5184SOL    HW116451   2.063   2.002   3.639
 5184SOL    HW216452   2.176   1.924   3.550
 5185SOL     OW16453   5.139   0.713   2.852
 5185SOL    HW116454   5.152   0.622   2.811
 5185SOL    HW216455   5.181   0.715   2.943
 5186SOL     OW16456   5.949   2.425   6.532
 5186SOL    HW116457   6.032   2.438   6.478
 5186SOL    HW216458   5.895   2.510   6.531
 5187SOL     OW16459   1.055   5.776   5.539
 5187SOL    HW116460   1.031   5.738   5.450
 5187SOL    HW216461   1.038   5.875   5.539
 5188SOL     OW16462   6.027   6.321   1.862
 5188SOL    HW116463   5.932   6.322   1.892
 5188SOL    HW216464   6.087   6.328   1.941
 5189SOL     OW16465   4.826   6.289   0.290
 5189SOL    HW116466   4.778   6.233   0.357
 5189SOL    HW216467   4.763   6.355   0.250
 5190SOL     OW16468   0.861   3.647   3.707
 5190SOL    HW116469   0.830   3.697   3.626
 5190SOL    HW216470   0.932   3.700   3.754
 5191SOL     OW16471   3.399   6.170   2.173
 5191SOL    HW116472   3.406   6.072   2.193
 5191SOL    HW216473   3.308   6.203   2.201
 5192SOL     OW16474   1.554   5.974   1.204
 5192SOL    HW116475   1.518   5.886   1.237
 5192SOL    HW216476   1.583   5.964   1.109
 5193SOL     OW16477   5.138   5.836   5.719
 5193SOL    HW116478   5.126   5.821   5.621
 5193SOL    HW216479   5.048   5.847   5.762
 5194SOL     OW16480   3.682   2.423   6.861
 5194SOL    HW116481   3.770   2.465   6.837
 5194SOL    HW216482   3.667   2.431   6.959
 5195SOL     OW16483   0.601   0.342   4.445
 5195SOL    HW116484   0.651   0.424   4.473
 5195SOL    HW216485   0.515   0.370   4.402
 5196SOL     OW16486   4.840   6.924   2.249
 5196SOL    HW116487   4.823   6.975   2.165
 5196SOL    HW216488   4.796   6.971   2.326
 5197SOL     OW16489   2.212   3.937   6.862
 5197SOL    HW116490   2.124   3.892   6.879
 5197SOL    HW216491   2.279   3.906   6.928
 5198SOL     OW16492   4.620   5.906   3.206
 5198SOL    HW116493   4.534   5.916   3.157
 5198SOL    HW216494   4.605   5.855   3.291
 5199SOL     OW16495   0.955   5.998   0.907
 5199SOL    HW116496   0.886   5.941   0.953
 5199SOL    HW216497   1.029   6.019   0.971
 5200SOL     OW16498   6.868   3.604   5.026
 5200SOL    HW116499   6.835   3.616   4.932
 5200SOL    HW216500   6.914   3.687   5.056
 5201SOL     OW16501   0.769   6.654   2.799
 5201SOL    HW116502   0.811   6.710   2.871
 5201SOL    HW216503   0.809   6.678   2.711
 5202SOL     OW16504   4.988   2.818   6.358
 5202SOL    HW116505   4.961   2.879   6.285
 5202SOL    HW216506   5.075   2.849   6.397
 5203SOL     OW16507   2.111   2.120   6.296
 5203SOL    HW116508   2.089   2.178   6.217
 5203SOL    HW216509   2.064   2.032   6.286
 5204SOL     OW16510   3.460   4.861   0.247
 5204SOL    HW116511   3.383   4.882   0.187
 5204SOL    HW216512   3.426   4.822   0.332
 5205SOL     OW16513   1.470   6.519   0.710
 5205SOL    HW116514   1.463   6.617   0.731
 5205SOL    HW216515   1.389   6.490   0.659
 5206SOL     OW16516   0.472   4.645   4.877
 5206SOL    HW116517   0.511   4.568   4.828
 5206SOL    HW216518   0.523   4.660   4.962
 5207SOL     OW16519   0.986   6.235   3.737
 5207SOL    HW116520   0.985   6.333   3.754
 5207SOL    HW216521   0.940   6.187   3.812
 5208SOL     OW16522   3.706   1.983   6.739
 5208SOL    HW116523   3.631   2.049   6.749
 5208SOL    HW216524   3.791   2.032   6.717
 5209SOL     OW16525   5.422   5.859   3.442
 5209SOL    HW116526   5.397   5.763   3.455
 5209SOL    HW216527   5.397   5.888   3.350
 5210SOL     OW16528   5.599   2.464   5.718
 5210SOL    HW116529   5.693   2.491   5.700
 5210SOL    HW216530   5.537   2.523   5.667
 5211SOL     OW16531   3.488   3.303   5.300
 5211SOL    HW116532   3.508   3.235   5.370
 5211SOL    HW216533   3.570   3.357   5.281
 5212SOL     OW16534   6.372   1.553   0.696
 5212SOL    HW116535   6.377   1.531   0.794
 5212SOL    HW216536   6.413   1.478   0.643
 5213SOL     OW16537   4.869   4.017   0.060
 5213SOL    HW116538   4.934   4.042   7.011
 5213SOL    HW216539   4.839   3.922   0.046
 5214SOL     OW16540   4.848   1.438   6.139
 5214SOL    HW116541   4.815   1.495   6.063
 5214SOL    HW216542   4.784   1.362   6.154
 5215SOL     OW16543   5.860   4.750   3.468
 5215SOL    HW116544   5.861   4.846   3.495
 5215SOL    HW216545   5.766   4.716   3.470
 5216SOL     OW16546   4.157   5.024   1.788
 5216SOL    HW116547   4.067   5.055   1.820
 5216SOL    HW216548   4.212   4.995   1.866
 5217SOL     OW16549   3.468   5.429   4.114
 5217SOL    HW116550   3.412   5.477   4.181
 5217SOL    HW216551   3.422   5.431   4.025
 5218SOL     OW16552   1.007   0.863   3.340
 5218SOL    HW116553   1.012   0.844   3.242
 5218SOL    HW216554   1.099   0.881   3.375
 5219SOL     OW16555   4.098   0.548   5.609
 5219SOL    HW116556   4.028   0.482   5.584
 5219SOL    HW216557   4.088   0.630   5.553
 5220SOL     OW16558   1.439   6.005   2.630
 5220SOL    HW116559   1.526   5.997   2.582
 5220SOL    HW216560   1.365   6.016   2.564
 5221SOL     OW16561   5.446   2.050   3.995
 5221SOL    HW116562   5.449   1.967   4.051
 5221SOL    HW216563   5.395   2.031   3.911
 5222SOL     OW16564   2.962   6.898   3.384
 5222SOL    HW116565   2.899   6.877   3.459
 5222SOL    HW216566   2.912   6.895   3.297
 5223SOL     OW16567   5.399   0.875   1.036
 5223SOL    HW116568   5.456   0.852   1.114
 5223SOL    HW216569   5.389   0.975   1.031
 5224SOL     OW16570   0.081   2.304   3.845
 5224SOL    HW116571   0.064   2.283   3.941
 5224SOL    HW216572   0.126   2.393   3.838
 5225SOL     OW16573   6.799   7.003   3.457
 5225SOL    HW116574   6.788   0.072   3.419
 5225SOL    HW216575   6.885   6.964   3.426
 5226SOL     OW16576   0.468   5.687   4.784
 5226SOL    HW116577   0.378   5.730   4.784
 5226SOL    HW216578   0.507   5.691   4.876
 5227SOL     OW16579   1.968   4.573   3.919
 5227SOL    HW116580   1.936   4.521   3.841
 5227SOL    HW216581   1.895   4.580   3.987
 5228SOL     OW16582   6.431   2.161   1.015
 5228SOL    HW116583   6.521   2.163   1.059
 5228SOL    HW216584   6.370   2.225   1.061
 5229SOL     OW16585   1.662   4.118   0.315
 5229SOL    HW116586   1.690   4.038   0.261
 5229SOL    HW216587   1.695   4.201   0.270
 5230SOL     OW16588   0.391   6.531   1.167
 5230SOL    HW116589   0.345   6.480   1.095
 5230SOL    HW216590   0.414   6.623   1.135
 5231SOL     OW16591   3.947   3.617   4.990
 5231SOL    HW116592   3.946   3.571   4.901
 5231SOL    HW216593   3.981   3.711   4.979
 5232SOL     OW16594   3.174   1.774   5.775
 5232SOL    HW116595   3.123   1.724   5.845
 5232SOL    HW216596   3.229   1.845   5.819
 5233SOL     OW16597   5.345   0.464   1.493
 5233SOL    HW116598   5.331   0.537   1.559
 5233SOL    HW216599   5.329   0.499   1.401
 5234SOL     OW16600   2.256   0.289   6.969
 5234SOL    HW116601   2.167   0.294   7.015
 5234SOL    HW216602   2.287   0.381   6.946
 5235SOL     OW16603   2.113   3.066   1.460
 5235SOL    HW116604   2.016   3.078   1.438
 5235SOL    HW216605   2.162   3.152   1.443
 5236SOL     OW16606   5.931   3.545   2.244
 5236SOL    HW116607   5.990   3.613   2.288
 5236SOL    HW216608   5.872   3.590   2.177
 5237SOL     OW16609   2.480   0.857   5.657
 5237SOL    HW116610   2.531   0.821   5.735
 5237SOL    HW216611   2.510   0.811   5.573
 5238SOL     OW16612   1.259   4.588   0.577
 5238SOL    HW116613   1.282   4.681   0.606
 5238SOL    HW216614   1.167   4.587   0.539
 5239SOL     OW16615   4.058   3.687   4.367
 5239SOL    HW116616   4.010   3.761   4.413
 5239SOL    HW216617   3.994   3.635   4.310
 5240SOL     OW16618   2.684   1.741   6.579
 5240SOL    HW116619   2.615   1.813   6.581
 5240SOL    HW216620   2.736   1.741   6.665
 5241SOL     OW16621   1.297   5.114   6.400
 5241SOL    HW116622   1.206   5.148   6.424
 5241SOL    HW216623   1.358   5.191   6.384
 5242SOL     OW16624   0.236   6.782   5.409
 5242SOL    HW116625   0.201   6.713   5.472
 5242SOL    HW216626   0.203   6.872   5.436
 5243SOL     OW16627   1.210   5.659   1.784
 5243SOL    HW116628   1.162   5.746   1.798
 5243SOL    HW216629   1.303   5.666   1.820
 5244SOL     OW16630   3.424   4.014   5.853
 5244SOL    HW116631   3.349   3.987   5.914
 5244SOL    HW216632   3.499   4.052   5.908
 5245SOL     OW16633   4.648   4.466   0.272
 5245SOL    HW116634   4.684   4.375   0.251
 5245SOL    HW216635   4.583   4.494   0.202
 5246SOL     OW16636   5.973   4.756   2.806
 5246SOL    HW116637   5.907   4.832   2.816
 5246SOL    HW216638   6.054   4.789   2.757
 5247SOL     OW16639   1.307   6.151   0.736
 5247SOL    HW116640   1.225   6.112   0.693
 5247SOL    HW216641   1.319   6.245   0.705
 5248SOL     OW16642   5.940   0.098   4.805
 5248SOL    HW116643   6.032   0.060   4.799
 5248SOL    HW216644   5.904   0.110   4.712
 5249SOL     OW16645   0.582   4.903   4.607
 5249SOL    HW116646   0.553   4.971   4.540
 5249SOL    HW216647   0.578   4.942   4.699
 5250SOL     OW16648   0.754   0.928   5.537
 5250SOL    HW116649   0.655   0.935   5.534
 5250SOL    HW216650   0.786   0.938   5.632
 5251SOL     OW16651   0.492   3.272   0.875
 5251SOL    HW116652   0.505   3.273   0.974
 5251SOL    HW216653   0.571   3.228   0.832
 5252SOL     OW16654   2.057   5.702   0.975
 5252SOL    HW116655   2.115   5.627   0.944
 5252SOL    HW216656   2.101   5.789   0.956
 5253SOL     OW16657   6.064   3.990   4.699
 5253SOL    HW116658   6.002   3.977   4.776
 5253SOL    HW216659   6.014   3.984   4.613
 5254SOL     OW16660   5.547   0.654   3.678
 5254SOL    HW116661   5.489   0.606   3.612
 5254SOL    HW216662   5.504   0.740   3.705
 5255SOL     OW16663   4.334   0.223   6.108
 5255SOL    HW116664   4.383   0.199   6.025
 5255SOL    HW216665   4.384   0.188   6.188
 5256SOL     OW16666   4.592   0.585   3.356
 5256SOL    HW116667   4.586   0.685   3.353
 5256SOL    HW216668   4.624   0.556   3.447
 5257SOL     OW16669   4.723   0.074   2.406
 5257SOL    HW116670   4.715   0.130   2.323
 5257SOL    HW216671   4.779   0.123   2.474
 5258SOL     OW16672   4.994   3.135   1.008
 5258SOL    HW116673   4.935   3.110   1.085
 5258SOL    HW216674   5.061   3.203   1.037
 5259SOL     OW16675   4.409   5.624   1.315
 5259SOL    HW116676   4.342   5.635   1.389
 5259SOL    HW216677   4.394   5.694   1.246
 5260SOL     OW16678   5.640   3.668   1.390
 5260SOL    HW116679   5.669   3.596   1.327
 5260SOL    HW216680   5.546   3.694   1.369
 5261SOL     OW16681   1.537   3.260   6.251
 5261SOL    HW116682   1.620   3.306   6.219
 5261SOL    HW216683   1.559   3.165   6.274
 5262SOL     OW16684   2.967   0.115   2.585
 5262SOL    HW116685   2.918   0.202   2.595
 5262SOL    HW216686   3.032   0.105   2.661
 5263SOL     OW16687   1.204   0.802   5.473
 5263SOL    HW116688   1.209   0.706   5.501
 5263SOL    HW216689   1.177   0.807   5.377
 5264SOL     OW16690   6.570   0.517   2.685
 5264SOL    HW116691   6.514   0.592   2.650
 5264SOL    HW216692   6.653   0.555   2.726
 5265SOL     OW16693   5.112   4.758   3.140
 5265SOL    HW116694   5.099   4.844   3.189
 5265SOL    HW216695   5.111   4.682   3.205
 5266SOL     OW16696   2.494   0.377   2.130
 5266SOL    HW116697   2.451   0.348   2.045
 5266SOL    HW216698   2.424   0.388   2.201
 5267SOL     OW16699   4.657   4.576   5.896
 5267SOL    HW116700   4.732   4.627   5.854
 5267SOL    HW216701   4.691   4.526   5.975
 5268SOL     OW16702   5.832   6.550   5.691
 5268SOL    HW116703   5.884   6.497   5.624
 5268SOL    HW216704   5.896   6.600   5.750
 5269SOL     OW16705   2.236   6.856   4.110
 5269SOL    HW116706   2.184   6.787   4.160
 5269SOL    HW216707   2.176   6.902   4.044
 5270SOL     OW16708   5.108   1.546   2.259
 5270SOL    HW116709   5.121   1.644   2.245
 5270SOL    HW216710   5.092   1.528   2.357
 5271SOL     OW16711   4.870   5.107   4.827
 5271SOL    HW116712   4.839   5.043   4.897
 5271SOL    HW216713   4.970   5.104   4.820
 5272SOL     OW16714   1.833   5.843   2.759
 5272SOL    HW116715   1.824   5.921   2.821
 5272SOL    HW216716   1.761   5.776   2.779
 5273SOL     OW16717   7.020   3.220   3.132
 5273SOL    HW116718   6.938   3.253   3.083
 5273SOL    HW216719   7.015   3.121   3.141
 5274SOL     OW16720   6.221   5.811   2.454
 5274SOL    HW116721   6.156   5.793   2.528
 5274SOL    HW216722   6.230   5.909   2.440
 5275SOL     OW16723   3.654   1.650   6.355
 5275SOL    HW116724   3.616   1.559   6.373
 5275SOL    HW216725   3.621   1.683   6.266
 5276SOL     OW16726   1.526   0.198   1.259
 5276SOL    HW116727   1.463   0.179   1.183
 5276SOL    HW216728   1.615   0.225   1.222
 5277SOL     OW16729   2.008   2.837   3.115
 5277SOL    HW116730   1.943   2.853   3.189
 5277SOL    HW216731   2.090   2.794   3.152
 5278SOL     OW16732   5.072   0.153   4.380
 5278SOL    HW116733   5.130   0.207   4.319
 5278SOL    HW216734   5.098   0.171   4.475
 5279SOL     OW16735   1.915   5.376   6.522
 5279SOL    HW116736   1.992   5.366   6.460
 5279SOL    HW216737   1.910   5.296   6.582
 5280SOL     OW16738   2.863   6.167   5.573
 5280SOL    HW116739   2.946   6.223   5.578
 5280SOL    HW216740   2.801   6.194   5.647
 5281SOL     OW16741   0.817   1.796   3.368
 5281SOL    HW116742   0.802   1.894   3.373
 5281SOL    HW216743   0.774   1.751   3.447
 5282SOL     OW16744   1.983   1.223   2.706
 5282SOL    HW116745   1.975   1.283   2.627
 5282SOL    HW216746   2.006   1.277   2.787
 5283SOL     OW16747   2.966   0.401   2.000
 5283SOL    HW116748   2.922   0.411   1.911
 5283SOL    HW216749   2.903   0.432   2.071
 5284SOL     OW16750   4.886   3.015   2.648
 5284SOL    HW116751   4.800   3.038   2.602
 5284SOL    HW216752   4.935   2.946   2.596
 5285SOL     OW16753   1.411   4.278   4.298
 5285SOL    HW116754   1.340   4.345   4.275
 5285SOL    HW216755   1.414   4.207   4.228
 5286SOL     OW16756   0.183   4.072   1.376
 5286SOL    HW116757   0.222   3.990   1.417
 5286SOL    HW216758   0.185   4.147   1.441
 5287SOL     OW16759   1.392   6.012   1.671
 5287SOL    HW116760   1.418   5.938   1.609
 5287SOL    HW216761   1.464   6.024   1.740
 5288SOL     OW16762   4.013   1.108   2.525
 5288SOL    HW116763   4.109   1.081   2.512
 5288SOL    HW216764   3.966   1.040   2.581
 5289SOL     OW16765   1.969   5.033   6.298
 5289SOL    HW116766   1.970   4.954   6.236
 5289SOL    HW216767   1.951   5.116   6.245
 5290SOL     OW16768   1.685   4.011   5.957
 5290SOL    HW116769   1.719   4.049   6.042
 5290SOL    HW216770   1.701   3.912   5.955
 5291SOL     OW16771   2.789   4.822   5.980
 5291SOL    HW116772   2.717   4.800   6.045
 5291SOL    HW216773   2.860   4.876   6.026
 5292SOL     OW16774   6.230   5.079   6.557
 5292SOL    HW116775   6.290   5.000   6.541
 5292SOL    HW216776   6.155   5.078   6.491
 5293SOL     OW16777   1.384   0.298   4.287
 5293SOL    HW116778   1.472   0.283   4.332
 5293SOL    HW216779   1.396   0.298   4.188
 5294SOL     OW16780   5.858   2.891   4.917
 5294SOL    HW116781   5.915   2.900   4.834
 5294SOL    HW216782   5.764   2.915   4.895
 5295SOL     OW16783   4.058   0.800   2.844
 5295SOL    HW116784   3.986   0.842   2.900
 5295SOL    HW216785   4.104   0.871   2.790
 5296SOL     OW16786   2.848   5.283   6.841
 5296SOL    HW116787   2.859   5.363   6.784
 5296SOL    HW216788   2.751   5.271   6.863
 5297SOL     OW16789   2.494   2.618   0.490
 5297SOL    HW116790   2.448   2.532   0.511
 5297SOL    HW216791   2.557   2.642   0.564
 5298SOL     OW16792   0.893   5.658   0.227
 5298SOL    HW116793   0.972   5.616   0.183
 5298SOL    HW216794   0.862   5.599   0.302
 5299SOL     OW16795   1.904   2.885   0.857
 5299SOL    HW116796   1.922   2.896   0.955
 5299SOL    HW216797   1.940   2.797   0.827
 5300SOL     OW16798   1.049   6.319   1.400
 5300SOL    HW116799   1.069   6.275   1.312
 5300SOL    HW216800   1.122   6.383   1.423
 5301SOL     OW16801   3.397   2.361   6.595
 5301SOL    HW116802   3.320   2.415   6.561
 5301SOL    HW216803   3.404   2.276   6.542
 5302SOL     OW16804   5.907   5.552   4.013
 5302SOL    HW116805   5.849   5.502   4.077
 5302SOL    HW216806   5.978   5.491   3.977
 5303SOL     OW16807   6.740   5.620   3.334
 5303SOL    HW116808   6.722   5.699   3.275
 5303SOL    HW216809   6.822   5.636   3.387
 5304SOL     OW16810   5.259   1.079   6.894
 5304SOL    HW116811   5.163   1.098   6.877
 5304SOL    HW216812   5.283   1.107   6.987
 5305SOL     OW16813   0.819   5.279   2.992
 5305SOL    HW116814   0.887   5.209   3.015
 5305SOL    HW216815   0.860   5.347   2.931
 5306SOL     OW16816   0.744   4.113   4.717
 5306SOL    HW116817   0.818   4.081   4.776
 5306SOL    HW216818   0.744   4.060   4.632
 5307SOL     OW16819   4.648   1.731   6.997
 5307SOL    HW116820   4.683   1.742   6.904
 5307SOL    HW216821   4.692   1.798   0.035
 5308SOL     OW16822   0.826   5.887   3.660
 5308SOL    HW116823   0.801   5.959   3.725
 5308SOL    HW216824   0.746   5.861   3.606
 5309SOL     OW16825   4.376   4.408   1.374
 5309SOL    HW116826   4.470   4.388   1.348
 5309SOL    HW216827   4.361   4.507   1.368
 5310SOL     OW16828   6.308   3.741   2.309
 5310SOL    HW116829   6.359   3.729   2.223
 5310SOL    HW216830   6.370   3.726   2.386
 5311SOL     OW16831   6.377   5.811   0.116
 5311SOL    HW116832   6.290   5.769   0.088
 5311SOL    HW216833   6.453   5.752   0.090
 5312SOL     OW16834   0.115   5.350   2.023
 5312SOL    HW116835   0.100   5.253   2.003
 5312SOL    HW216836   0.043   5.404   1.980
 5313SOL     OW16837   1.736   3.973   6.651
 5313SOL    HW116838   1.783   3.901   6.600
 5313SOL    HW216839   1.690   3.934   6.730
 5314SOL     OW16840   3.262   6.494   0.482
 5314SOL    HW116841   3.249   6.410   0.535
 5314SOL    HW216842   3.340   6.545   0.519
 5315SOL     OW16843   4.700   3.322   1.459
 5315SOL    HW116844   4.682   3.368   1.546
 5315SOL    HW216845   4.722   3.391   1.389
 5316SOL     OW16846   0.992   4.121   4.859
 5316SOL    HW116847   1.039   4.054   4.917
 5316SOL    HW216848   1.059   4.180   4.815
 5317SOL     OW16849   6.667   6.681   4.776
 5317SOL    HW116850   6.719   6.596   4.773
 5317SOL    HW216851   6.700   6.743   4.705
 5318SOL     OW16852   0.122   2.750   6.438
 5318SOL    HW116853   0.042   2.802   6.408
 5318SOL    HW216854   0.120   2.741   6.537
 5319SOL     OW16855   3.847   6.688   0.123
 5319SOL    HW116856   3.804   6.765   0.171
 5319SOL    HW216857   3.783   6.650   0.057
 5320SOL     OW16858   5.991   5.093   0.042
 5320SOL    HW116859   5.958   5.113   6.972
 5320SOL    HW216860   6.087   5.065   0.037
 5321SOL     OW16861   1.259   4.694   3.973
 5321SOL    HW116862   1.346   4.712   4.017
 5321SOL    HW216863   1.271   4.624   3.902
 5322SOL     OW16864   4.809   6.068   6.507
 5322SOL    HW116865   4.820   5.971   6.485
 5322SOL    HW216866   4.759   6.077   6.593
 5323SOL     OW16867   3.928   1.910   7.016
 5323SOL    HW116868   3.882   1.997   6.996
 5323SOL    HW216869   3.985   1.883   6.939
 5324SOL     OW16870   4.184   2.392   0.639
 5324SOL    HW116871   4.087   2.405   0.621
 5324SOL    HW216872   4.201   2.296   0.662
 5325SOL     OW16873   4.831   0.743   4.419
 5325SOL    HW116874   4.857   0.808   4.490
 5325SOL    HW216875   4.857   0.650   4.448
 5326SOL     OW16876   0.667   4.814   3.344
 5326SOL    HW116877   0.759   4.819   3.382
 5326SOL    HW216878   0.630   4.722   3.356
 5327SOL     OW16879   5.707   2.881   5.673
 5327SOL    HW116880   5.692   2.923   5.584
 5327SOL    HW216881   5.666   2.789   5.674
 5328SOL     OW16882   4.622   2.787   5.148
 5328SOL    HW116883   4.624   2.879   5.186
 5328SOL    HW216884   4.659   2.788   5.055
 5329SOL     OW16885   0.070   4.864   6.686
 5329SOL    HW116886   0.026   4.885   6.599
 5329SOL    HW216887   0.021   4.790   6.731
 5330SOL     OW16888   3.245   4.123   5.702
 5330SOL    HW116889   3.319   4.074   5.748
 5330SOL    HW216890   3.236   4.088   5.608
 5331SOL     OW16891   5.243   1.337   0.699
 5331SOL    HW116892   5.332   1.300   0.671
 5331SOL    HW216893   5.244   1.354   0.798
 5332SOL     OW16894   0.543   3.699   1.591
 5332SOL    HW116895   0.502   3.716   1.681
 5332SOL    HW216896   0.499   3.757   1.523
 5333SOL     OW16897   1.122   0.680   3.758
 5333SOL    HW116898   1.132   0.594   3.707
 5333SOL    HW216899   1.211   0.708   3.794
 5334SOL     OW16900   4.185   0.180   4.083
 5334SOL    HW116901   4.145   0.240   4.153
 5334SOL    HW216902   4.149   0.088   4.094
 5335SOL     OW16903   5.840   5.896   2.387
 5335SOL    HW116904   5.780   5.976   2.382
 5335SOL    HW216905   5.845   5.853   2.297
 5336SOL     OW16906   2.696   1.762   3.163
 5336SOL    HW116907   2.663   1.842   3.113
 5336SOL    HW216908   2.769   1.789   3.225
 5337SOL     OW16909   5.308   3.866   1.732
 5337SOL    HW116910   5.406   3.851   1.720
 5337SOL    HW216911   5.260   3.845   1.647
 5338SOL     OW16912   5.529   1.188   5.814
 5338SOL    HW116913   5.610   1.131   5.805
 5338SOL    HW216914   5.491   1.179   5.905
 5339SOL     OW16915   6.631   2.190   3.776
 5339SOL    HW116916   6.534   2.168   3.783
 5339SOL    HW216917   6.663   2.170   3.684
 5340SOL     OW16918   5.569   2.489   0.887
 5340SOL    HW116919   5.484   2.484   0.939
 5340SOL    HW216920   5.576   2.408   0.827
 5341SOL     OW16921   3.401   4.538   6.503
 5341SOL    HW116922   3.470   4.466   6.496
 5341SOL    HW216923   3.446   4.627   6.512
 5342SOL     OW16924   3.789   0.151   3.641
 5342SOL    HW116925   3.705   0.141   3.588
 5342SOL    HW216926   3.863   0.101   3.596
 5343SOL     OW16927   4.030   3.337   4.215
 5343SOL    HW116928   3.943   3.366   4.175
 5343SOL    HW216929   4.104   3.361   4.153
 5344SOL     OW16930   2.310   2.050   2.152
 5344SOL    HW116931   2.313   2.099   2.065
 5344SOL    HW216932   2.366   1.967   2.146
 5345SOL     OW16933   3.478   6.618   0.624
 5345SOL    HW116934   3.515   6.704   0.590
 5345SOL    HW216935   3.469   6.622   0.723
 5346SOL     OW16936   3.505   5.792   4.473
 5346SOL    HW116937   3.534   5.883   4.443
 5346SOL    HW216938   3.433   5.799   4.541
 5347SOL     OW16939   6.801   2.714   1.612
 5347SOL    HW116940   6.710   2.689   1.579
 5347SOL    HW216941   6.868   2.702   1.539
 5348SOL     OW16942   6.641   1.944   1.111
 5348SOL    HW116943   6.681   2.036   1.116
 5348SOL    HW216944   6.627   1.918   1.016
 5349SOL     OW16945   1.952   2.767   0.350
 5349SOL    HW116946   1.868   2.714   0.347
 5349SOL    HW216947   2.030   2.705   0.357
 5350SOL     OW16948   1.852   6.759   5.302
 5350SOL    HW116949   1.805   6.730   5.218
 5350SOL    HW216950   1.810   6.715   5.381
 5351SOL     OW16951   6.699   5.131   2.312
 5351SOL    HW116952   6.630   5.162   2.247
 5351SOL    HW216953   6.782   5.186   2.301
 5352SOL     OW16954   2.308   5.056   3.379
 5352SOL    HW116955   2.224   5.003   3.393
 5352SOL    HW216956   2.320   5.120   3.455
 5353SOL     OW16957   3.933   4.922   4.269
 5353SOL    HW116958   3.874   4.897   4.345
 5353SOL    HW216959   3.889   4.897   4.183
 5354SOL     OW16960   2.455   5.244   2.030
 5354SOL    HW116961   2.488   5.164   1.979
 5354SOL    HW216962   2.529   5.280   2.087
 5355SOL     OW16963   6.960   4.121   4.268
 5355SOL    HW116964   6.890   4.080   4.210
 5355SOL    HW216965   6.922   4.139   4.359
 5356SOL     OW16966   5.905   4.759   2.423
 5356SOL    HW116967   5.883   4.669   2.386
 5356SOL    HW216968   5.963   4.749   2.504
 5357SOL     OW16969   3.162   5.990   0.717
 5357SOL    HW116970   3.219   5.918   0.680
 5357SOL    HW216971   3.144   5.972   0.814
 5358SOL     OW16972   4.658   1.415   6.929
 5358SOL    HW116973   4.622   1.329   6.964
 5358SOL    HW216974   4.757   1.418   6.940
 5359SOL     OW16975   1.117   1.319   5.397
 5359SOL    HW116976   1.209   1.335   5.361
 5359SOL    HW216977   1.079   1.404   5.431
 5360SOL     OW16978   3.791   6.487   4.572
 5360SOL    HW116979   3.878   6.452   4.605
 5360SOL    HW216980   3.770   6.573   4.617
 5361SOL     OW16981   2.566   1.094   5.384
 5361SOL    HW116982   2.578   1.053   5.475
 5361SOL    HW216983   2.656   1.122   5.348
 5362SOL     OW16984   6.997   5.912   3.157
 5362SOL    HW116985   0.043   5.851   3.196
 5362SOL    HW216986   0.018   5.978   3.096
 5363SOL     OW16987   7.014   0.488   5.985
 5363SOL    HW116988   0.074   0.542   6.002
 5363SOL    HW216989   6.988   0.439   6.069
 5364SOL     OW16990   6.561   6.512   2.545
 5364SOL    HW116991   6.661   6.509   2.545
 5364SOL    HW216992   6.530   6.599   2.584
 5365SOL     OW16993   3.833   2.696   0.157
 5365SOL    HW116994   3.776   2.772   0.190
 5365SOL    HW216995   3.926   2.708   0.190
 5366SOL     OW16996   5.410   5.823   1.695
 5366SOL    HW116997   5.393   5.751   1.763
 5366SOL    HW216998   5.506   5.821   1.667
 5367SOL     OW16999   0.524   6.545   0.588
 5367SOL    HW117000   0.621   6.530   0.607
 5367SOL    HW217001   0.469   6.501   0.659
 5368SOL     OW17002   5.681   0.685   2.769
 5368SOL    HW117003   5.727   0.654   2.852
 5368SOL    HW217004   5.664   0.606   2.709
 5369SOL     OW17005   2.933   6.758   1.809
 5369SOL    HW117006   2.901   6.666   1.833
 5369SOL    HW217007   2.959   6.760   1.712
 5370SOL     OW17008   4.492   2.577   1.394
 5370SOL    HW117009   4.433   2.496   1.394
 5370SOL    HW217010   4.570   2.561   1.455
 5371SOL     OW17011   0.702   3.966   5.156
 5371SOL    HW117012   0.628   3.929   5.100
 5371SOL    HW217013   0.668   4.042   5.212
 5372SOL     OW17014   1.758   6.113   3.544
 5372SOL    HW117015   1.674   6.156   3.510
 5372SOL    HW217016   1.777   6.031   3.490
 5373SOL     OW17017   3.649   6.731   4.386
 5373SOL    HW117018   3.688   6.680   4.311
 5373SOL    HW217019   3.594   6.670   4.444
 5374SOL     OW17020   1.992   4.319   0.396
 5374SOL    HW117021   2.058   4.273   0.337
 5374SOL    HW217022   1.949   4.252   0.457
 5375SOL     OW17023   0.893   5.639   4.541
 5375SOL    HW117024   0.900   5.541   4.523
 5375SOL    HW217025   0.799   5.669   4.523
 5376SOL     OW17026   1.680   3.007   0.777
 5376SOL    HW117027   1.664   3.087   0.835
 5376SOL    HW217028   1.766   2.964   0.805
 5377SOL     OW17029   6.711   6.808   2.604
 5377SOL    HW117030   6.738   6.743   2.676
 5377SOL    HW217031   6.755   6.782   2.518
 5378SOL     OW17032   6.731   0.715   2.456
 5378SOL    HW117033   6.811   0.770   2.430
 5378SOL    HW217034   6.755   0.618   2.451
 5379SOL     OW17035   1.245   4.638   4.812
 5379SOL    HW117036   1.329   4.681   4.781
 5379SOL    HW217037   1.186   4.706   4.856
 5380SOL     OW17038   2.640   1.455   2.853
 5380SOL    HW117039   2.734   1.432   2.878
 5380SOL    HW217040   2.581   1.441   2.933
 5381SOL     OW17041   6.654   4.743   2.055
 5381SOL    HW117042   6.709   4.770   2.134
 5381SOL    HW217043   6.606   4.823   2.020
 5382SOL     OW17044   2.709   1.178   1.618
 5382SOL    HW117045   2.807   1.195   1.607
 5382SOL    HW217046   2.694   1.119   1.697
 5383SOL     OW17047   2.491   2.182   5.292
 5383SOL    HW117048   2.533   2.208   5.205
 5383SOL    HW217049   2.447   2.262   5.333
 5384SOL     OW17050   6.193   6.533   5.518
 5384SOL    HW117051   6.193   6.488   5.429
 5384SOL    HW217052   6.125   6.607   5.517
 5385SOL     OW17053   3.276   3.264   4.075
 5385SOL    HW117054   3.315   3.352   4.103
 5385SOL    HW217055   3.177   3.266   4.087
 5386SOL     OW17056   5.098   1.735   4.492
 5386SOL    HW117057   5.150   1.651   4.502
 5386SOL    HW217058   5.152   1.803   4.442
 5387SOL     OW17059   2.418   0.560   3.616
 5387SOL    HW117060   2.469   0.485   3.572
 5387SOL    HW217061   2.385   0.623   3.546
 5388SOL     OW17062   0.231   1.886   3.779
 5388SOL    HW117063   0.263   1.977   3.804
 5388SOL    HW217064   0.193   1.888   3.686
 5389SOL     OW17065   4.398   1.154   3.673
 5389SOL    HW117066   4.459   1.227   3.642
 5389SOL    HW217067   4.436   1.065   3.647
 5390SOL     OW17068   5.029   3.718   3.686
 5390SOL    HW117069   5.072   3.656   3.752
 5390SOL    HW217070   5.002   3.667   3.604
 5391SOL     OW17071   2.189   1.689   0.630
 5391SOL    HW117072   2.180   1.757   0.703
 5391SOL    HW217073   2.245   1.613   0.662
 5392SOL     OW17074   5.294   3.482   1.309
 5392SOL    HW117075   5.268   3.481   1.406
 5392SOL    HW217076   5.351   3.562   1.291
 5393SOL     OW17077   4.453   6.687   5.621
 5393SOL    HW117078   4.519   6.692   5.695
 5393SOL    HW217079   4.501   6.683   5.533
 5394SOL     OW17080   0.235   5.068   0.467
 5394SOL    HW117081   0.250   5.005   0.543
 5394SOL    HW217082   0.157   5.127   0.487
 5395SOL     OW17083   4.445   0.893   1.032
 5395SOL    HW117084   4.353   0.930   1.044
 5395SOL    HW217085   4.460   0.820   1.098
 5396SOL     OW17086   5.228   4.182   1.512
 5396SOL    HW117087   5.182   4.182   1.423
 5396SOL    HW217088   5.166   4.216   1.582
 5397SOL     OW17089   0.291   2.993   1.242
 5397SOL    HW117090   0.223   2.953   1.304
 5397SOL    HW217091   0.377   3.007   1.291
 5398SOL     OW17092   3.450   1.532   3.334
 5398SOL    HW117093   3.400   1.594   3.393
 5398SOL    HW217094   3.428   1.552   3.238
 5399SOL     OW17095   2.866   5.946   1.184
 5399SOL    HW117096   2.820   5.980   1.266
 5399SOL    HW217097   2.826   5.859   1.157
 5400SOL     OW17098   3.179   3.716   7.009
 5400SOL    HW117099   3.178   3.808   0.025
 5400SOL    HW217100   3.105   3.707   6.942
 5401SOL     OW17101   6.071   3.932   1.454
 5401SOL    HW117102   6.126   3.931   1.371
 5401SOL    HW217103   6.050   4.026   1.480
 5402SOL     OW17104   2.812   5.477   1.820
 5402SOL    HW117105   2.820   5.380   1.838
 5402SOL    HW217106   2.863   5.529   1.888
 5403SOL     OW17107   5.699   2.616   6.079
 5403SOL    HW117108   5.645   2.541   6.040
 5403SOL    HW217109   5.658   2.645   6.165
 5404SOL     OW17110   1.167   0.730   2.287
 5404SOL    HW117111   1.220   0.671   2.347
 5404SOL    HW217112   1.090   0.679   2.249
 5405SOL     OW17113   6.127   6.174   0.068
 5405SOL    HW117114   6.090   6.249   0.123
 5405SOL    HW217115   6.126   6.090   0.121
 5406SOL     OW17116   2.142   0.191   6.180
 5406SOL    HW117117   2.182   0.283   6.180
 5406SOL    HW217118   2.177   0.139   6.103
 5407SOL     OW17119   3.985   1.999   1.500
 5407SOL    HW117120   4.007   2.057   1.421
 5407SOL    HW217121   4.070   1.963   1.539
 5408SOL     OW17122   3.390   0.992   5.524
 5408SOL    HW117123   3.311   0.993   5.462
 5408SOL    HW217124   3.407   0.898   5.554
 5409SOL     OW17125   6.613   1.710   3.519
 5409SOL    HW117126   6.567   1.769   3.453
 5409SOL    HW217127   6.701   1.750   3.544
 5410SOL     OW17128   0.718   2.795   0.016
 5410SOL    HW117129   0.760   2.752   6.959
 5410SOL    HW217130   0.627   2.829   7.013
 5411SOL     OW17131   5.733   4.826   5.088
 5411SOL    HW117132   5.750   4.728   5.078
 5411SOL    HW217133   5.813   4.870   5.128
 5412SOL     OW17134   4.011   0.596   0.086
 5412SOL    HW117135   3.918   0.575   0.116
 5412SOL    HW217136   4.056   0.654   0.155
 5413SOL     OW17137   0.692   0.128   1.414
 5413SOL    HW117138   0.695   0.035   1.377
 5413SOL    HW217139   0.735   0.130   1.504
 5414SOL     OW17140   0.014   3.393   5.384
 5414SOL    HW117141   0.048   3.408   5.291
 5414SOL    HW217142   6.963   3.326   5.383
 5415SOL     OW17143   1.044   6.308   1.928
 5415SOL    HW117144   0.993   6.393   1.915
 5415SOL    HW217145   1.142   6.328   1.928
 5416SOL     OW17146   3.816   4.962   6.531
 5416SOL    HW117147   3.881   4.886   6.527
 5416SOL    HW217148   3.845   5.034   6.469
 5417SOL     OW17149   4.437   0.027   4.491
 5417SOL    HW117150   4.377   6.991   4.546
 5417SOL    HW217151   4.381   0.080   4.427
 5418SOL     OW17152   5.347   0.654   4.269
 5418SOL    HW117153   5.425   0.691   4.320
 5418SOL    HW217154   5.380   0.599   4.192
 5419SOL     OW17155   3.144   5.650   0.489
 5419SOL    HW117156   3.230   5.676   0.446
 5419SOL    HW217157   3.150   5.555   0.520
 5420SOL     OW17158   1.804   2.796   1.826
 5420SOL    HW117159   1.876   2.733   1.855
 5420SOL    HW217160   1.839   2.855   1.753
 5421SOL     OW17161   2.374   4.344   3.143
 5421SOL    HW117162   2.459   4.391   3.121
 5421SOL    HW217163   2.320   4.333   3.059
 5422SOL     OW17164   1.181   6.036   5.585
 5422SOL    HW117165   1.155   6.070   5.675
 5422SOL    HW217166   1.271   5.993   5.589
 5423SOL     OW17167   5.461   3.350   6.739
 5423SOL    HW117168   5.405   3.349   6.821
 5423SOL    HW217169   5.461   3.442   6.699
 5424SOL     OW17170   6.167   3.347   4.380
 5424SOL    HW117171   6.187   3.421   4.444
 5424SOL    HW217172   6.141   3.386   4.292
 5425SOL     OW17173   5.362   1.356   4.091
 5425SOL    HW117174   5.366   1.448   4.053
 5425SOL    HW217175   5.416   1.294   4.034
 5426SOL     OW17176   6.847   5.058   3.938
 5426SOL    HW117177   6.844   4.959   3.945
 5426SOL    HW217178   6.788   5.088   3.862
 5427SOL     OW17179   5.309   5.303   0.615
 5427SOL    HW117180   5.366   5.345   0.686
 5427SOL    HW217181   5.354   5.220   0.582
 5428SOL     OW17182   6.784   0.045   2.238
 5428SOL    HW117183   6.786   0.144   2.222
 5428SOL    HW217184   6.742   7.022   2.159
 5429SOL     OW17185   1.504   0.849   5.153
 5429SOL    HW117186   1.523   0.751   5.152
 5429SOL    HW217187   1.539   0.889   5.238
 5430SOL     OW17188   2.407   2.636   5.599
 5430SOL    HW117189   2.459   2.653   5.682
 5430SOL    HW217190   2.413   2.716   5.539
 5431SOL     OW17191   3.427   5.093   0.017
 5431SOL    HW117192   3.376   5.009   0.036
 5431SOL    HW217193   3.416   5.118   6.943
 5432SOL     OW17194   3.989   6.098   5.673
 5432SOL    HW117195   3.956   6.040   5.747
 5432SOL    HW217196   4.079   6.135   5.697
 5433SOL     OW17197   0.052   1.822   2.816
 5433SOL    HW117198   0.024   1.754   2.749
 5433SOL    HW217199   0.087   1.776   2.898
 5434SOL     OW17200   4.289   1.439   5.091
 5434SOL    HW117201   4.230   1.377   5.040
 5434SOL    HW217202   4.259   1.533   5.077
 5435SOL     OW17203   5.932   2.020   1.148
 5435SOL    HW117204   5.863   2.075   1.103
 5435SOL    HW217205   6.009   2.005   1.086
 5436SOL     OW17206   5.603   4.441   4.754
 5436SOL    HW117207   5.536   4.368   4.764
 5436SOL    HW217208   5.605   4.472   4.659
 5437SOL     OW17209   2.593   5.002   5.546
 5437SOL    HW117210   2.647   4.920   5.527
 5437SOL    HW217211   2.593   5.020   5.644
 5438SOL     OW17212   5.522   3.995   2.457
 5438SOL    HW117213   5.482   3.917   2.507
 5438SOL    HW217214   5.621   3.996   2.471
 5439SOL     OW17215   0.018   2.036   0.340
 5439SOL    HW117216   7.004   2.076   0.424
 5439SOL    HW217217   6.968   2.029   0.272
 5440SOL     OW17218   6.899   0.221   2.531
 5440SOL    HW117219   6.813   0.194   2.488
 5440SOL    HW217220   6.909   0.174   2.618
 5441SOL     OW17221   4.781   2.737   3.484
 5441SOL    HW117222   4.705   2.673   3.499
 5441SOL    HW217223   4.860   2.708   3.538
 5442SOL     OW17224   3.198   6.961   3.343
 5442SOL    HW117225   3.105   6.927   3.355
 5442SOL    HW217226   3.243   6.967   3.432
 5443SOL     OW17227   2.836   6.121   3.878
 5443SOL    HW117228   2.919   6.069   3.859
 5443SOL    HW217229   2.846   6.214   3.843
 5444SOL     OW17230   0.441   0.796   3.039
 5444SOL    HW117231   0.477   0.705   3.019
 5444SOL    HW217232   0.378   0.824   2.967
 5445SOL     OW17233   6.490   4.265   3.867
 5445SOL    HW117234   6.567   4.243   3.807
 5445SOL    HW217235   6.466   4.184   3.921
 5446SOL     OW17236   5.589   5.174   4.679
 5446SOL    HW117237   5.523   5.183   4.604
 5446SOL    HW217238   5.594   5.078   4.708
 5447SOL     OW17239   1.321   2.209   0.920
 5447SOL    HW117240   1.400   2.209   0.981
 5447SOL    HW217241   1.282   2.116   0.916
 5448SOL     OW17242   6.058   4.490   4.406
 5448SOL    HW117243   6.120   4.554   4.361
 5448SOL    HW217244   6.016   4.430   4.337
 5449SOL     OW17245   1.668   1.865   0.212
 5449SOL    HW117246   1.758   1.894   0.246
 5449SOL    HW217247   1.648   1.773   0.246
 5450SOL     OW17248   2.812   6.909   1.444
 5450SOL    HW117249   2.755   6.983   1.478
 5450SOL    HW217250   2.822   6.917   1.345
 5451SOL     OW17251   1.770   5.801   3.275
 5451SOL    HW117252   1.689   5.782   3.331
 5451SOL    HW217253   1.814   5.715   3.249
 5452SOL     OW17254   2.226   3.837   0.493
 5452SOL    HW117255   2.300   3.901   0.514
 5452SOL    HW217256   2.260   3.743   0.498
 5453SOL     OW17257   5.462   4.211   1.272
 5453SOL    HW117258   5.467   4.233   1.175
 5453SOL    HW217259   5.523   4.271   1.324
 5454SOL     OW17260   5.991   5.007   5.451
 5454SOL    HW117261   5.938   5.052   5.522
 5454SOL    HW217262   6.077   4.974   5.489
 5455SOL     OW17263   6.611   2.580   2.210
 5455SOL    HW117264   6.569   2.598   2.299
 5455SOL    HW217265   6.654   2.490   2.211
 5456SOL     OW17266   2.828   0.386   0.349
 5456SOL    HW117267   2.892   0.309   0.350
 5456SOL    HW217268   2.734   0.351   0.351
 5457SOL     OW17269   0.197   2.396   1.109
 5457SOL    HW117270   0.107   2.432   1.136
 5457SOL    HW217271   0.269   2.453   1.148
 5458SOL     OW17272   0.505   4.845   0.520
 5458SOL    HW117273   0.489   4.773   0.588
 5458SOL    HW217274   0.470   4.815   0.431
 5459SOL     OW17275   2.734   3.418   6.559
 5459SOL    HW117276   2.752   3.338   6.503
 5459SOL    HW217277   2.732   3.391   6.656
 5460SOL     OW17278   3.756   0.095   3.254
 5460SOL    HW117279   3.714   0.142   3.333
 5460SOL    HW217280   3.694   0.101   3.176
 5461SOL     OW17281   0.592   0.241   5.994
 5461SOL    HW117282   0.669   0.296   6.028
 5461SOL    HW217283   0.619   0.193   5.911
 5462SOL     OW17284   6.228   6.821   1.239
 5462SOL    HW117285   6.165   6.779   1.305
 5462SOL    HW217286   6.197   6.913   1.218
 5463SOL     OW17287   0.351   1.644   0.204
 5463SOL    HW117288   0.412   1.569   0.228
 5463SOL    HW217289   0.303   1.675   0.286
 5464SOL     OW17290   6.171   0.303   4.632
 5464SOL    HW117291   6.174   0.212   4.674
 5464SOL    HW217292   6.264   0.338   4.620
 5465SOL     OW17293   4.885   1.092   4.720
 5465SOL    HW117294   4.953   1.032   4.762
 5465SOL    HW217295   4.798   1.084   4.769
 5466SOL     OW17296   5.604   2.935   4.818
 5466SOL    HW117297   5.513   2.909   4.851
 5466SOL    HW217298   5.625   3.029   4.847
 5467SOL     OW17299   4.813   4.003   3.533
 5467SOL    HW117300   4.811   3.923   3.474
 5467SOL    HW217301   4.862   3.981   3.617
 5468SOL     OW17302   6.886   2.606   3.723
 5468SOL    HW117303   6.917   2.517   3.692
 5468SOL    HW217304   6.923   2.678   3.663
 5469SOL     OW17305   2.875   5.893   5.470
 5469SOL    HW117306   2.876   5.978   5.522
 5469SOL    HW217307   2.781   5.870   5.445
 5470SOL     OW17308   3.786   5.248   3.154
 5470SOL    HW117309   3.811   5.208   3.242
 5470SOL    HW217310   3.723   5.186   3.107
 5471SOL     OW17311   5.938   6.917   3.193
 5471SOL    HW117312   5.895   7.005   3.176
 5471SOL    HW217313   5.960   6.873   3.105
 5472SOL     OW17314   2.570   4.192   6.971
 5472SOL    HW117315   2.555   4.154   0.039
 5472SOL    HW217316   2.549   4.290   6.971
 5473SOL     OW17317   0.761   3.710   2.081
 5473SOL    HW117318   0.817   3.630   2.060
 5473SOL    HW217319   0.763   3.728   2.179
 5474SOL     OW17320   1.127   4.292   3.473
 5474SOL    HW117321   1.227   4.301   3.472
 5474SOL    HW217322   1.099   4.246   3.557
 5475SOL     OW17323   2.274   2.830   0.950
 5475SOL    HW117324   2.194   2.770   0.951
 5475SOL    HW217325   2.299   2.850   0.855
 5476SOL     OW17326   2.417   4.553   5.450
 5476SOL    HW117327   2.371   4.514   5.530
 5476SOL    HW217328   2.427   4.482   5.380
 5477SOL     OW17329   2.234   4.582   2.381
 5477SOL    HW117330   2.241   4.489   2.417
 5477SOL    HW217331   2.284   4.588   2.294
 5478SOL     OW17332   2.805   6.047   4.158
 5478SOL    HW117333   2.706   6.062   4.158
 5478SOL    HW217334   2.842   6.066   4.067
 5479SOL     OW17335   5.276   1.075   6.586
 5479SOL    HW117336   5.221   1.126   6.520
 5479SOL    HW217337   5.216   1.019   6.643
 5480SOL     OW17338   5.537   5.289   4.186
 5480SOL    HW117339   5.468   5.303   4.257
 5480SOL    HW217340   5.501   5.321   4.098
 5481SOL     OW17341   4.378   1.580   4.806
 5481SOL    HW117342   4.281   1.600   4.795
 5481SOL    HW217343   4.393   1.481   4.799
 5482SOL     OW17344   3.625   4.280   1.824
 5482SOL    HW117345   3.645   4.330   1.908
 5482SOL    HW217346   3.636   4.341   1.745
 5483SOL     OW17347   0.197   2.206   5.246
 5483SOL    HW117348   0.104   2.237   5.266
 5483SOL    HW217349   0.262   2.270   5.285
 5484SOL     OW17350   4.095   1.041   4.340
 5484SOL    HW117351   4.005   1.032   4.298
 5484SOL    HW217352   4.096   0.992   4.427
 5485SOL     OW17353   3.971   0.480   4.669
 5485SOL    HW117354   3.954   0.383   4.652
 5485SOL    HW217355   4.024   0.518   4.594
 5486SOL     OW17356   2.625   6.187   5.367
 5486SOL    HW117357   2.660   6.095   5.385
 5486SOL    HW217358   2.679   6.254   5.419
 5487SOL     OW17359   5.533   2.736   6.785
 5487SOL    HW117360   5.533   2.818   6.727
 5487SOL    HW217361   5.611   2.739   6.847
 5488SOL     OW17362   6.155   0.497   0.762
 5488SOL    HW117363   6.077   0.472   0.705
 5488SOL    HW217364   6.233   0.520   0.704
 5489SOL     OW17365   0.069   4.225   1.772
 5489SOL    HW117366   0.099   4.304   1.825
 5489SOL    HW217367   0.064   4.145   1.832
 5490SOL     OW17368   3.112   0.564   1.620
 5490SOL    HW117369   3.188   0.579   1.683
 5490SOL    HW217370   3.041   0.510   1.665
 5491SOL     OW17371   0.941   3.762   0.147
 5491SOL    HW117372   0.908   3.670   0.123
 5491SOL    HW217373   0.919   3.782   0.242
 5492SOL     OW17374   0.674   3.640   6.238
 5492SOL    HW117375   0.593   3.688   6.203
 5492SOL    HW217376   0.698   3.677   6.328
 5493SOL     OW17377   3.078   3.977   4.389
 5493SOL    HW117378   3.111   3.903   4.448
 5493SOL    HW217379   3.039   4.049   4.445
 5494SOL     OW17380   0.410   3.301   6.058
 5494SOL    HW117381   0.507   3.291   6.038
 5494SOL    HW217382   0.398   3.361   6.137
 5495SOL     OW17383   4.719   1.385   1.053
 5495SOL    HW117384   4.632   1.433   1.042
 5495SOL    HW217385   4.701   1.289   1.076
 5496SOL     OW17386   4.090   0.994   3.127
 5496SOL    HW117387   4.021   1.067   3.127
 5496SOL    HW217388   4.057   0.917   3.181
 5497SOL     OW17389   0.037   1.338   4.823
 5497SOL    HW117390   7.007   1.273   4.877
 5497SOL    HW217391   0.090   1.290   4.754
 5498SOL     OW17392   6.619   6.264   1.409
 5498SOL    HW117393   6.696   6.299   1.461
 5498SOL    HW217394   6.607   6.319   1.326
 5499SOL     OW17395   0.358   0.442   4.686
 5499SOL    HW117396   0.284   0.425   4.620
 5499SOL    HW217397   0.379   0.358   4.736
 5500SOL     OW17398   1.123   0.310   0.355
 5500SOL    HW117399   1.087   0.227   0.312
 5500SOL    HW217400   1.143   0.378   0.284
 5501SOL     OW17401   3.445   1.909   0.034
 5501SOL    HW117402   3.508   1.863   6.994
 5501SOL    HW217403   3.494   1.979   0.085
 5502SOL     OW17404   4.961   3.532   0.298
 5502SOL    HW117405   5.060   3.525   0.311
 5502SOL    HW217406   4.922   3.583   0.375
 5503SOL     OW17407   6.763   4.410   1.546
 5503SOL    HW117408   6.687   4.451   1.597
 5503SOL    HW217409   6.805   4.480   1.488
 5504SOL     OW17410   4.810   1.638   5.605
 5504SOL    HW117411   4.772   1.713   5.550
 5504SOL    HW217412   4.741   1.606   5.669
 5505SOL     OW17413   2.294   5.227   4.375
 5505SOL    HW117414   2.211   5.182   4.407
 5505SOL    HW217415   2.291   5.239   4.276
 5506SOL     OW17416   0.199   3.575   0.649
 5506SOL    HW117417   0.148   3.495   0.619
 5506SOL    HW217418   0.228   3.563   0.744
 5507SOL     OW17419   4.479   1.254   4.732
 5507SOL    HW117420   4.540   1.318   4.686
 5507SOL    HW217421   4.391   1.252   4.684
 5508SOL     OW17422   1.463   1.133   6.994
 5508SOL    HW117423   1.462   1.052   0.030
 5508SOL    HW217424   1.374   1.142   6.949
 5509SOL     OW17425   0.721   6.268   6.601
 5509SOL    HW117426   0.627   6.292   6.577
 5509SOL    HW217427   0.766   6.226   6.522
 5510SOL     OW17428   4.475   5.369   0.277
 5510SOL    HW117429   4.547   5.419   0.326
 5510SOL    HW217430   4.499   5.272   0.272
 5511SOL     OW17431   1.568   0.778   3.635
 5511SOL    HW117432   1.546   0.836   3.714
 5511SOL    HW217433   1.646   0.818   3.585
 5512SOL     OW17434   5.191   2.289   0.853
 5512SOL    HW117435   5.100   2.329   0.836
 5512SOL    HW217436   5.194   2.197   0.814
 5513SOL     OW17437   3.579   4.737   6.055
 5513SOL    HW117438   3.632   4.773   5.978
 5513SOL    HW217439   3.642   4.701   6.125
 5514SOL     OW17440   4.034   0.348   4.267
 5514SOL    HW117441   4.010   0.434   4.312
 5514SOL    HW217442   3.981   0.273   4.308
 5515SOL     OW17443   0.762   5.650   2.168
 5515SOL    HW117444   0.810   5.640   2.081
 5515SOL    HW217445   0.689   5.718   2.159
 5516SOL     OW17446   1.719   3.662   6.151
 5516SOL    HW117447   1.766   3.703   6.073
 5516SOL    HW217448   1.623   3.646   6.128
 5517SOL     OW17449   2.159   3.166   2.086
 5517SOL    HW117450   2.062   3.145   2.072
 5517SOL    HW217451   2.181   3.252   2.040
 5518SOL     OW17452   5.921   5.890   6.902
 5518SOL    HW117453   5.897   5.828   6.827
 5518SOL    HW217454   5.941   5.981   6.865
 5519SOL     OW17455   5.484   3.577   2.993
 5519SOL    HW117456   5.539   3.523   3.057
 5519SOL    HW217457   5.544   3.618   2.924
 5520SOL     OW17458   6.065   0.058   2.523
 5520SOL    HW117459   6.119   0.104   2.593
 5520SOL    HW217460   6.070   0.110   2.437
 5521SOL     OW17461   4.960   6.681   2.134
 5521SOL    HW117462   5.046   6.717   2.098
 5521SOL    HW217463   4.911   6.754   2.182
 5522SOL     OW17464   6.043   5.016   0.724
 5522SOL    HW117465   6.066   4.924   0.754
 5522SOL    HW217466   5.957   5.045   0.767
 5523SOL     OW17467   3.642   1.458   1.862
 5523SOL    HW117468   3.590   1.414   1.935
 5523SOL    HW217469   3.585   1.526   1.817
 5524SOL     OW17470   4.505   0.642   4.043
 5524SOL    HW117471   4.410   0.631   4.071
 5524SOL    HW217472   4.563   0.650   4.124
 5525SOL     OW17473   0.532   2.006   6.937
 5525SOL    HW117474   0.525   2.105   6.929
 5525SOL    HW217475   0.519   1.979   0.010
 5526SOL     OW17476   4.797   5.350   3.149
 5526SOL    HW117477   4.731   5.426   3.149
 5526SOL    HW217478   4.750   5.266   3.121
 5527SOL     OW17479   4.894   3.558   4.056
 5527SOL    HW117480   4.805   3.588   4.021
 5527SOL    HW217481   4.947   3.639   4.082
 5528SOL     OW17482   1.408   0.613   0.314
 5528SOL    HW117483   1.339   0.685   0.301
 5528SOL    HW217484   1.498   0.655   0.323
 5529SOL     OW17485   3.803   6.954   4.235
 5529SOL    HW117486   3.739   6.881   4.257
 5529SOL    HW217487   3.851   6.933   4.150
 5530SOL     OW17488   5.737   2.166   1.038
 5530SOL    HW117489   5.725   2.258   1.074
 5530SOL    HW217490   5.651   2.115   1.046
 5531SOL     OW17491   3.587   3.454   1.774
 5531SOL    HW117492   3.668   3.513   1.762
 5531SOL    HW217493   3.604   3.391   1.850
 5532SOL     OW17494   0.984   3.097   0.946
 5532SOL    HW117495   1.020   3.072   0.856
 5532SOL    HW217496   0.884   3.093   0.944
 5533SOL     OW17497   3.969   2.125   3.018
 5533SOL    HW117498   4.008   2.033   3.015
 5533SOL    HW217499   3.881   2.122   3.065
 5534SOL     OW17500   0.980   1.719   6.962
 5534SOL    HW117501   0.957   1.623   6.973
 5534SOL    HW217502   0.905   1.776   6.996
 5535SOL     OW17503   0.362   2.200   3.688
 5535SOL    HW117504   0.384   2.194   3.785
 5535SOL    HW217505   0.303   2.279   3.671
 5536SOL     OW17506   3.717   1.484   3.948
 5536SOL    HW117507   3.753   1.558   4.005
 5536SOL    HW217508   3.629   1.512   3.910
 5537SOL     OW17509   2.601   1.144   2.020
 5537SOL    HW117510   2.507   1.163   1.989
 5537SOL    HW217511   2.607   1.160   2.119
 5538SOL     OW17512   2.944   5.641   5.468
 5538SOL    HW117513   3.016   5.651   5.537
 5538SOL    HW217514   2.893   5.726   5.461
 5539SOL     OW17515   0.830   3.598   1.671
 5539SOL    HW117516   0.837   3.521   1.734
 5539SOL    HW217517   0.734   3.613   1.647
 5540SOL     OW17518   4.653   4.330   4.169
 5540SOL    HW117519   4.631   4.375   4.083
 5540SOL    HW217520   4.619   4.384   4.246
 5541SOL     OW17521   5.403   6.669   6.394
 5541SOL    HW117522   5.380   6.745   6.456
 5541SOL    HW217523   5.336   6.595   6.407
 5542SOL     OW17524   5.010   3.474   6.192
 5542SOL    HW117525   5.038   3.564   6.158
 5542SOL    HW217526   4.951   3.485   6.272
 5543SOL     OW17527   3.684   4.051   6.371
 5543SOL    HW117528   3.670   3.952   6.379
 5543SOL    HW217529   3.609   4.091   6.318
 5544SOL     OW17530   4.948   5.328   6.928
 5544SOL    HW117531   4.863   5.348   6.879
 5544SOL    HW217532   4.975   5.409   6.981
 5545SOL     OW17533   4.460   1.040   2.459
 5545SOL    HW117534   4.411   0.984   2.392
 5545SOL    HW217535   4.515   0.981   2.518
 5546SOL     OW17536   0.521   4.436   4.689
 5546SOL    HW117537   0.510   4.479   4.599
 5546SOL    HW217538   0.486   4.343   4.686
 5547SOL     OW17539   3.241   6.782   5.194
 5547SOL    HW117540   3.243   6.865   5.138
 5547SOL    HW217541   3.263   6.804   5.289
 5548SOL     OW17542   6.209   2.373   5.526
 5548SOL    HW117543   6.128   2.328   5.565
 5548SOL    HW217544   6.266   2.304   5.481
 5549SOL     OW17545   4.790   4.830   6.700
 5549SOL    HW117546   4.837   4.906   6.745
 5549SOL    HW217547   4.767   4.761   6.768
 5550SOL     OW17548   3.045   5.219   2.698
 5550SOL    HW117549   3.137   5.257   2.690
 5550SOL    HW217550   3.032   5.148   2.628
 5551SOL     OW17551   2.550   0.972   2.558
 5551SOL    HW117552   2.562   1.005   2.652
 5551SOL    HW217553   2.512   1.045   2.502
 5552SOL     OW17554   6.969   0.924   6.878
 5552SOL    HW117555   0.018   0.977   6.925
 5552SOL    HW217556   6.941   0.847   6.936
 5553SOL     OW17557   3.620   6.543   0.334
 5553SOL    HW117558   3.705   6.491   0.344
 5553SOL    HW217559   3.640   6.641   0.336
 5554SOL     OW17560   3.224   1.711   5.254
 5554SOL    HW117561   3.250   1.618   5.278
 5554SOL    HW217562   3.306   1.765   5.234
 5555SOL     OW17563   0.418   4.312   3.631
 5555SOL    HW117564   0.377   4.267   3.711
 5555SOL    HW217565   0.397   4.409   3.632
 5556SOL     OW17566   0.216   2.453   4.270
 5556SOL    HW117567   0.145   2.382   4.276
 5556SOL    HW217568   0.301   2.412   4.238
 5557SOL     OW17569   3.836   4.894   3.120
 5557SOL    HW117570   3.898   4.895   3.199
 5557SOL    HW217571   3.888   4.881   3.036
 5558SOL     OW17572   5.175   3.375   5.874
 5558SOL    HW117573   5.177   3.473   5.852
 5558SOL    HW217574   5.087   3.337   5.846
 5559SOL     OW17575   2.546   6.852   2.104
 5559SOL    HW117576   2.550   6.791   2.025
 5559SOL    HW217577   2.617   6.923   2.095
 5560SOL     OW17578   0.501   6.810   3.444
 5560SOL    HW117579   0.571   6.878   3.421
 5560SOL    HW217580   0.506   6.733   3.380
 5561SOL     OW17581   2.449   1.705   4.304
 5561SOL    HW117582   2.370   1.751   4.344
 5561SOL    HW217583   2.501   1.770   4.249
 5562SOL     OW17584   2.381   2.446   6.942
 5562SOL    HW117585   2.445   2.499   6.997
 5562SOL    HW217586   2.324   2.508   6.888
 5563SOL     OW17587   4.619   6.378   2.648
 5563SOL    HW117588   4.622   6.325   2.564
 5563SOL    HW217589   4.562   6.459   2.634
 5564SOL     OW17590   4.938   2.136   1.404
 5564SOL    HW117591   4.886   2.208   1.449
 5564SOL    HW217592   4.875   2.067   1.367
 5565SOL     OW17593   4.255   1.668   6.048
 5565SOL    HW117594   4.312   1.728   6.104
 5565SOL    HW217595   4.306   1.642   5.966
 5566SOL     OW17596   1.657   5.242   1.386
 5566SOL    HW117597   1.639   5.251   1.288
 5566SOL    HW217598   1.574   5.265   1.437
 5567SOL     OW17599   0.496   4.801   1.228
 5567SOL    HW117600   0.533   4.708   1.236
 5567SOL    HW217601   0.558   4.857   1.173
 5568SOL     OW17602   5.350   2.451   2.139
 5568SOL    HW117603   5.363   2.542   2.100
 5568SOL    HW217604   5.431   2.427   2.194
 5569SOL     OW17605   3.728   1.899   1.597
 5569SOL    HW117606   3.644   1.930   1.552
 5569SOL    HW217607   3.806   1.945   1.556
 5570SOL     OW17608   6.134   4.698   4.730
 5570SOL    HW117609   6.113   4.752   4.812
 5570SOL    HW217610   6.050   4.685   4.677
 5571SOL     OW17611   0.322   6.399   0.092
 5571SOL    HW117612   0.239   6.342   0.095
 5571SOL    HW217613   0.322   6.461   0.171
 5572SOL     OW17614   2.362   2.933   6.186
 5572SOL    HW117615   2.447   2.931   6.238
 5572SOL    HW217616   2.284   2.933   6.250
 5573SOL     OW17617   0.837   2.962   0.188
 5573SOL    HW117618   0.781   2.929   0.111
 5573SOL    HW217619   0.898   3.034   0.156
 5574SOL     OW17620   0.119   1.428   4.139
 5574SOL    HW117621   0.176   1.474   4.070
 5574SOL    HW217622   0.149   1.455   4.230
 5575SOL     OW17623   1.329   0.985   1.942
 5575SOL    HW117624   1.256   0.962   1.878
 5575SOL    HW217625   1.389   1.054   1.902
 5576SOL     OW17626   6.305   5.536   1.871
 5576SOL    HW117627   6.217   5.570   1.904
 5576SOL    HW217628   6.375   5.551   1.941
 5577SOL     OW17629   2.561   3.038   5.775
 5577SOL    HW117630   2.526   3.109   5.836
 5577SOL    HW217631   2.489   3.009   5.713
 5578SOL     OW17632   3.866   2.846   1.202
 5578SOL    HW117633   3.859   2.867   1.300
 5578SOL    HW217634   3.842   2.750   1.187
 5579SOL     OW17635   6.184   3.829   6.017
 5579SOL    HW117636   6.261   3.839   6.080
 5579SOL    HW217637   6.124   3.755   6.049
 5580SOL     OW17638   4.999   1.863   7.020
 5580SOL    HW117639   4.969   1.863   6.925
 5580SOL    HW217640   4.919   1.864   0.058
 5581SOL     OW17641   2.759   6.970   1.198
 5581SOL    HW117642   2.669   6.943   1.161
 5581SOL    HW217643   2.785   0.036   1.161
 5582SOL     OW17644   3.222   3.329   3.657
 5582SOL    HW117645   3.180   3.274   3.729
 5582SOL    HW217646   3.283   3.397   3.697
 5583SOL     OW17647   4.130   7.001   2.242
 5583SOL    HW117648   4.114   6.927   2.176
 5583SOL    HW217649   4.053   7.007   2.305
 5584SOL     OW17650   5.292   4.079   3.864
 5584SOL    HW117651   5.343   3.993   3.869
 5584SOL    HW217652   5.229   4.085   3.942
 5585SOL     OW17653   5.522   0.448   4.121
 5585SOL    HW117654   5.536   0.349   4.112
 5585SOL    HW217655   5.567   0.480   4.204
 5586SOL     OW17656   1.356   2.354   6.620
 5586SOL    HW117657   1.327   2.400   6.536
 5586SOL    HW217658   1.310   2.266   6.628
 5587SOL     OW17659   3.923   6.772   2.457
 5587SOL    HW117660   3.935   6.675   2.433
 5587SOL    HW217661   3.957   6.788   2.550
 5588SOL     OW17662   1.528   6.691   4.165
 5588SOL    HW117663   1.490   6.717   4.254
 5588SOL    HW217664   1.627   6.686   4.171
 5589SOL     OW17665   4.654   3.263   6.213
 5589SOL    HW117666   4.656   3.169   6.246
 5589SOL    HW217667   4.730   3.277   6.149
 5590SOL     OW17668   6.778   5.244   3.054
 5590SOL    HW117669   6.855   5.308   3.049
 5590SOL    HW217670   6.727   5.248   2.968
 5591SOL     OW17671   5.825   0.366   6.581
 5591SOL    HW117672   5.802   0.276   6.619
 5591SOL    HW217673   5.923   0.370   6.561
 5592SOL     OW17674   2.075   3.834   2.967
 5592SOL    HW117675   2.062   3.739   2.936
 5592SOL    HW217676   1.987   3.881   2.964
 5593SOL     OW17677   6.870   2.887   5.872
 5593SOL    HW117678   6.863   2.980   5.906
 5593SOL    HW217679   6.967   2.862   5.863
 5594SOL     OW17680   2.381   1.622   6.530
 5594SOL    HW117681   2.281   1.616   6.535
 5594SOL    HW217682   2.421   1.551   6.587
 5595SOL     OW17683   6.797   0.485   5.013
 5595SOL    HW117684   6.857   0.565   5.023
 5595SOL    HW217685   6.716   0.498   5.070
 5596SOL     OW17686   5.871   0.130   3.028
 5596SOL    HW117687   5.785   0.081   3.043
 5596SOL    HW217688   5.891   0.134   2.930
 5597SOL     OW17689   5.317   3.038   5.224
 5597SOL    HW117690   5.311   3.138   5.227
 5597SOL    HW217691   5.301   3.001   5.315
 5598SOL     OW17692   5.138   2.210   3.656
 5598SOL    HW117693   5.112   2.115   3.673
 5598SOL    HW217694   5.111   2.266   3.735
 5599SOL     OW17695   5.609   3.992   1.877
 5599SOL    HW117696   5.603   4.004   1.778
 5599SOL    HW217697   5.555   4.063   1.923
 5600SOL     OW17698   2.493   0.183   2.488
 5600SOL    HW117699   2.404   0.141   2.468
 5600SOL    HW217700   2.554   0.113   2.525
 5601SOL     OW17701   4.639   2.889   5.682
 5601SOL    HW117702   4.652   2.813   5.619
 5601SOL    HW217703   4.550   2.933   5.664
 5602SOL     OW17704   6.915   1.660   3.348
 5602SOL    HW117705   6.875   1.742   3.389
 5602SOL    HW217706   6.974   1.614   3.415
 5603SOL     OW17707   4.472   2.594   5.072
 5603SOL    HW117708   4.537   2.655   5.118
 5603SOL    HW217709   4.494   2.591   4.974
 5604SOL     OW17710   0.665   1.153   4.299
 5604SOL    HW117711   0.761   1.138   4.275
 5604SOL    HW217712   0.607   1.114   4.228
 5605SOL     OW17713   0.963   0.411   5.170
 5605SOL    HW117714   0.929   0.473   5.240
 5605SOL    HW217715   0.907   0.419   5.087
 5606SOL     OW17716   4.340   1.616   0.286
 5606SOL    HW117717   4.363   1.559   0.365
 5606SOL    HW217718   4.254   1.663   0.303
 5607SOL     OW17719   6.125   2.284   3.050
 5607SOL    HW117720   6.126   2.283   2.950
 5607SOL    HW217721   6.146   2.193   3.084
 5608SOL     OW17722   6.431   0.758   2.970
 5608SOL    HW117723   6.369   0.747   3.047
 5608SOL    HW217724   6.405   0.695   2.897
 5609SOL     OW17725   4.902   6.577   0.389
 5609SOL    HW117726   4.833   6.529   0.443
 5609SOL    HW217727   4.953   6.511   0.334
 5610SOL     OW17728   5.413   3.935   0.176
 5610SOL    HW117729   5.457   3.966   0.261
 5610SOL    HW217730   5.471   3.866   0.132
 5611SOL     OW17731   0.419   4.675   2.428
 5611SOL    HW117732   0.358   4.662   2.350
 5611SOL    HW217733   0.408   4.767   2.464
 5612SOL     OW17734   2.951   2.987   0.699
 5612SOL    HW117735   2.932   3.004   0.795
 5612SOL    HW217736   3.015   2.911   0.690
 5613SOL     OW17737   6.731   4.851   4.314
 5613SOL    HW117738   6.742   4.868   4.412
 5613SOL    HW217739   6.669   4.774   4.301
 5614SOL     OW17740   6.452   2.172   4.294
 5614SOL    HW117741   6.362   2.134   4.316
 5614SOL    HW217742   6.506   2.103   4.244
 5615SOL     OW17743   0.098   1.806   2.229
 5615SOL    HW117744   0.040   1.846   2.158
 5615SOL    HW217745   0.190   1.845   2.223
 5616SOL     OW17746   2.252   1.430   5.072
 5616SOL    HW117747   2.259   1.527   5.045
 5616SOL    HW217748   2.157   1.410   5.094
 5617SOL     OW17749   1.502   4.995   4.644
 5617SOL    HW117750   1.501   5.094   4.660
 5617SOL    HW217751   1.595   4.965   4.624
 5618SOL     OW17752   6.093   5.450   3.500
 5618SOL    HW117753   5.998   5.465   3.528
 5618SOL    HW217754   6.149   5.527   3.531
 5619SOL     OW17755   3.240   2.987   3.910
 5619SOL    HW117756   3.236   2.954   4.004
 5619SOL    HW217757   3.320   2.948   3.864
 5620SOL     OW17758   4.491   4.270   5.718
 5620SOL    HW117759   4.400   4.267   5.758
 5620SOL    HW217760   4.499   4.349   5.657
 5621SOL     OW17761   1.483   2.826   6.628
 5621SOL    HW117762   1.578   2.852   6.644
 5621SOL    HW217763   1.471   2.729   6.652
 5622SOL     OW17764   4.220   5.832   4.998
 5622SOL    HW117765   4.264   5.921   4.985
 5622SOL    HW217766   4.197   5.821   5.095
 5623SOL     OW17767   4.849   6.872   4.667
 5623SOL    HW117768   4.853   6.852   4.765
 5623SOL    HW217769   4.942   6.883   4.632
 5624SOL     OW17770   1.157   5.258   3.110
 5624SOL    HW117771   1.245   5.296   3.139
 5624SOL    HW217772   1.173   5.182   3.047
 5625SOL     OW17773   1.182   5.555   4.578
 5625SOL    HW117774   1.259   5.606   4.615
 5625SOL    HW217775   1.109   5.619   4.553
 5626SOL     OW17776   2.037   4.330   4.468
 5626SOL    HW117777   2.045   4.311   4.370
 5626SOL    HW217778   2.129   4.336   4.508
 5627SOL     OW17779   0.301   5.492   5.999
 5627SOL    HW117780   0.209   5.458   6.016
 5627SOL    HW217781   0.304   5.591   6.017
 5628SOL     OW17782   2.789   2.895   0.431
 5628SOL    HW117783   2.706   2.855   0.391
 5628SOL    HW217784   2.764   2.978   0.482
 5629SOL     OW17785   3.583   3.182   1.220
 5629SOL    HW117786   3.645   3.236   1.276
 5629SOL    HW217787   3.506   3.239   1.190
 5630SOL     OW17788   1.356   3.964   6.154
 5630SOL    HW117789   1.433   4.023   6.179
 5630SOL    HW217790   1.391   3.877   6.120
 5631SOL     OW17791   4.939   1.498   2.043
 5631SOL    HW117792   4.967   1.473   1.950
 5631SOL    HW217793   5.018   1.495   2.104
 5632SOL     OW17794   4.893   1.070   5.988
 5632SOL    HW117795   4.973   1.080   6.046
 5632SOL    HW217796   4.812   1.102   6.037
 5633SOL     OW17797   0.273   5.401   4.330
 5633SOL    HW117798   0.260   5.330   4.399
 5633SOL    HW217799   0.356   5.452   4.351
 5634SOL     OW17800   2.377   5.329   4.825
 5634SOL    HW117801   2.359   5.326   4.924
 5634SOL    HW217802   2.471   5.298   4.808
 5635SOL     OW17803   2.972   6.593   6.439
 5635SOL    HW117804   2.906   6.519   6.435
 5635SOL    HW217805   3.049   6.566   6.497
 5636SOL     OW17806   6.227   1.631   5.499
 5636SOL    HW117807   6.209   1.711   5.443
 5636SOL    HW217808   6.190   1.646   5.591
 5637SOL     OW17809   5.717   6.805   4.448
 5637SOL    HW117810   5.685   6.898   4.429
 5637SOL    HW217811   5.776   6.774   4.373
 5638SOL     OW17812   5.277   5.792   1.354
 5638SOL    HW117813   5.183   5.791   1.323
 5638SOL    HW217814   5.333   5.735   1.294
 5639SOL     OW17815   1.191   0.991   1.488
 5639SOL    HW117816   1.183   0.955   1.581
 5639SOL    HW217817   1.190   1.091   1.491
 5640SOL     OW17818   2.581   6.635   2.579
 5640SOL    HW117819   2.521   6.698   2.530
 5640SOL    HW217820   2.646   6.595   2.515
 5641SOL     OW17821   0.655   4.771   5.784
 5641SOL    HW117822   0.585   4.775   5.713
 5641SOL    HW217823   0.745   4.784   5.743
 5642SOL     OW17824   0.987   5.066   6.045
 5642SOL    HW117825   0.919   5.029   6.108
 5642SOL    HW217826   1.079   5.044   6.077
 5643SOL     OW17827   3.317   0.967   4.592
 5643SOL    HW117828   3.398   0.950   4.535
 5643SOL    HW217829   3.314   1.064   4.617
 5644SOL     OW17830   5.093   0.691   4.034
 5644SOL    HW117831   5.158   0.675   4.109
 5644SOL    HW217832   5.028   0.762   4.061
 5645SOL     OW17833   6.290   4.608   2.605
 5645SOL    HW117834   6.336   4.657   2.678
 5645SOL    HW217835   6.297   4.660   2.520
 5646SOL     OW17836   1.696   5.460   3.701
 5646SOL    HW117837   1.601   5.490   3.697
 5646SOL    HW217838   1.756   5.539   3.688
 5647SOL     OW17839   6.564   6.320   6.708
 5647SOL    HW117840   6.476   6.330   6.662
 5647SOL    HW217841   6.638   6.327   6.641
 5648SOL     OW17842   2.180   1.041   2.648
 5648SOL    HW117843   2.102   1.104   2.650
 5648SOL    HW217844   2.243   1.068   2.575
 5649SOL     OW17845   1.300   6.320   5.613
 5649SOL    HW117846   1.394   6.295   5.634
 5649SOL    HW217847   1.238   6.281   5.681
 5650SOL     OW17848   0.617   5.245   1.158
 5650SOL    HW117849   0.607   5.221   1.255
 5650SOL    HW217850   0.702   5.296   1.145
 5651SOL     OW17851   0.044   1.729   1.495
 5651SOL    HW117852   7.020   1.653   1.449
 5651SOL    HW217853   0.043   1.810   1.436
 5652SOL     OW17854   5.095   6.455   2.193
 5652SOL    HW117855   5.065   6.548   2.171
 5652SOL    HW217856   5.162   6.425   2.124
 5653SOL     OW17857   0.507   6.475   6.536
 5653SOL    HW117858   0.462   6.457   6.623
 5653SOL    HW217859   0.512   6.574   6.520
 5654SOL     OW17860   0.235   6.709   6.037
 5654SOL    HW117861   0.197   6.737   5.949
 5654SOL    HW217862   0.177   6.745   6.110
 5655SOL     OW17863   1.041   3.195   4.292
 5655SOL    HW117864   1.072   3.101   4.302
 5655SOL    HW217865   0.995   3.224   4.375
 5656SOL     OW17866   2.774   4.553   0.449
 5656SOL    HW117867   2.810   4.468   0.489
 5656SOL    HW217868   2.693   4.532   0.395
 5657SOL     OW17869   5.134   6.897   1.394
 5657SOL    HW117870   5.130   6.816   1.335
 5657SOL    HW217871   5.089   6.974   1.349
 5658SOL     OW17872   3.315   6.166   5.782
 5658SOL    HW117873   3.314   6.243   5.845
 5658SOL    HW217874   3.351   6.195   5.694
 5659SOL     OW17875   3.022   3.968   2.951
 5659SOL    HW117876   3.122   3.974   2.948
 5659SOL    HW217877   2.989   3.919   2.870
 5660SOL     OW17878   5.307   0.713   5.730
 5660SOL    HW117879   5.293   0.629   5.783
 5660SOL    HW217880   5.345   0.784   5.789
 5661SOL     OW17881   0.042   4.895   6.360
 5661SOL    HW117882   0.060   4.993   6.369
 5661SOL    HW217883   6.969   4.880   6.337
 5662SOL     OW17884   2.842   4.755   4.296
 5662SOL    HW117885   2.884   4.760   4.387
 5662SOL    HW217886   2.815   4.847   4.267
 5663SOL     OW17887   1.279   4.233   0.058
 5663SOL    HW117888   1.328   4.286   0.127
 5663SOL    HW217889   1.184   4.264   0.052
 5664SOL     OW17890   0.111   3.807   4.332
 5664SOL    HW117891   0.022   3.819   4.288
 5664SOL    HW217892   0.172   3.883   4.307
 5665SOL     OW17893   1.914   1.414   6.424
 5665SOL    HW117894   1.886   1.478   6.353
 5665SOL    HW217895   1.836   1.394   6.484
 5666SOL     OW17896   4.796   6.119   0.907
 5666SOL    HW117897   4.769   6.084   0.818
 5666SOL    HW217898   4.837   6.210   0.897
 5667SOL     OW17899   0.947   4.987   3.718
 5667SOL    HW117900   0.876   4.917   3.724
 5667SOL    HW217901   0.909   5.070   3.676
 5668SOL     OW17902   4.770   2.269   6.135
 5668SOL    HW117903   4.764   2.169   6.132
 5668SOL    HW217904   4.865   2.296   6.149
 5669SOL     OW17905   0.011   3.461   6.404
 5669SOL    HW117906   6.944   3.504   6.399
 5669SOL    HW217907   0.075   3.521   6.453
 5670SOL     OW17908   0.514   3.076   3.230
 5670SOL    HW117909   0.421   3.110   3.242
 5670SOL    HW217910   0.573   3.117   3.300
 5671SOL     OW17911   1.018   6.394   6.530
 5671SOL    HW117912   0.993   6.360   6.620
 5671SOL    HW217913   0.962   6.474   6.507
 5672SOL     OW17914   4.125   5.066   6.726
 5672SOL    HW117915   4.221   5.089   6.743
 5672SOL    HW217916   4.066   5.137   6.767
 5673SOL     OW17917   1.154   6.642   1.984
 5673SOL    HW117918   1.056   6.652   1.967
 5673SOL    HW217919   1.196   6.590   1.909
 5674SOL     OW17920   6.703   3.742   3.144
 5674SOL    HW117921   6.707   3.833   3.186
 5674SOL    HW217922   6.613   3.728   3.103
 5675SOL     OW17923   4.196   2.098   6.331
 5675SOL    HW117924   4.295   2.084   6.326
 5675SOL    HW217925   4.156   2.085   6.241
 5676SOL     OW17926   1.716   1.719   1.266
 5676SOL    HW117927   1.802   1.673   1.241
 5676SOL    HW217928   1.736   1.813   1.296
 5677SOL     OW17929   0.533   2.009   2.571
 5677SOL    HW117930   0.612   1.969   2.616
 5677SOL    HW217931   0.543   2.109   2.568
 5678SOL     OW17932   2.825   6.864   3.127
 5678SOL    HW117933   2.865   6.956   3.128
 5678SOL    HW217934   2.733   6.868   3.087
 5679SOL     OW17935   1.275   0.811   3.513
 5679SOL    HW117936   1.346   0.775   3.574
 5679SOL    HW217937   1.272   0.757   3.429
 5680SOL     OW17938   1.279   5.172   1.133
 5680SOL    HW117939   1.272   5.073   1.141
 5680SOL    HW217940   1.376   5.199   1.137
 5681SOL     OW17941   0.444   3.754   6.618
 5681SOL    HW117942   0.516   3.706   6.569
 5681SOL    HW217943   0.363   3.762   6.560
 5682SOL     OW17944   1.831   4.704   5.254
 5682SOL    HW117945   1.821   4.766   5.332
 5682SOL    HW217946   1.922   4.661   5.258
 5683SOL     OW17947   4.151   2.058   6.793
 5683SOL    HW117948   4.154   1.961   6.819
 5683SOL    HW217949   4.221   2.076   6.724
 5684SOL     OW17950   3.862   2.968   4.768
 5684SOL    HW117951   3.775   2.932   4.803
 5684SOL    HW217952   3.921   2.891   4.743
 5685SOL     OW17953   1.045   4.354   2.077
 5685SOL    HW117954   1.034   4.425   2.008
 5685SOL    HW217955   1.140   4.321   2.076
 5686SOL     OW17956   3.150   0.604   6.810
 5686SOL    HW117957   3.126   0.687   6.759
 5686SOL    HW217958   3.157   0.527   6.746
 5687SOL     OW17959   6.946   4.039   4.922
 5687SOL    HW117960   6.995   4.022   4.836
 5687SOL    HW217961   7.008   4.027   4.999
 5688SOL     OW17962   6.799   1.525   0.060
 5688SOL    HW117963   6.743   1.506   0.141
 5688SOL    HW217964   6.757   1.482   7.003
 5689SOL     OW17965   4.130   0.920   0.020
 5689SOL    HW117966   4.098   1.003   0.067
 5689SOL    HW217967   4.069   0.901   6.965
 5690SOL     OW17968   2.435   6.186   0.768
 5690SOL    HW117969   2.520   6.203   0.718
 5690SOL    HW217970   2.401   6.095   0.746
 5691SOL     OW17971   2.923   6.506   1.937
 5691SOL    HW117972   2.889   6.539   2.025
 5691SOL    HW217973   2.974   6.421   1.950
 5692SOL     OW17974   6.622   3.239   5.994
 5692SOL    HW117975   6.652   3.248   5.899
 5692SOL    HW217976   6.574   3.322   6.022
 5693SOL     OW17977   5.736   3.140   2.320
 5693SOL    HW117978   5.706   3.161   2.227
 5693SOL    HW217979   5.707   3.048   2.345
 5694SOL     OW17980   0.455   1.219   3.851
 5694SOL    HW117981   0.544   1.174   3.857
 5694SOL    HW217982   0.428   1.251   3.941
 5695SOL     OW17983   0.728   2.543   3.008
 5695SOL    HW117984   0.669   2.588   3.074
 5695SOL    HW217985   0.728   2.595   2.922
 5696SOL     OW17986   1.774   0.321   2.991
 5696SOL    HW117987   1.851   0.331   3.054
 5696SOL    HW217988   1.719   0.242   3.019
 5697SOL     OW17989   5.878   1.860   0.785
 5697SOL    HW117990   5.894   1.958   0.780
 5697SOL    HW217991   5.942   1.812   0.725
 5698SOL     OW17992   0.476   2.919   1.640
 5698SOL    HW117993   0.483   2.968   1.552
 5698SOL    HW217994   0.436   2.980   1.708
 5699SOL     OW17995   6.379   2.375   3.155
 5699SOL    HW117996   6.303   2.354   3.094
 5699SOL    HW217997   6.354   2.452   3.214
 5700SOL     OW17998   6.644   6.319   4.493
 5700SOL    HW117999   6.657   6.383   4.417
 5700SOL    HW218000   6.669   6.227   4.463
 5701SOL     OW18001   1.307   5.927   3.335
 5701SOL    HW118002   1.241   5.966   3.399
 5701SOL    HW218003   1.361   6.001   3.293
 5702SOL     OW18004   1.904   0.252   5.501
 5702SOL    HW118005   1.919   0.348   5.527
 5702SOL    HW218006   1.956   0.231   5.419
 5703SOL     OW18007   5.073   4.474   0.698
 5703SOL    HW118008   5.147   4.467   0.765
 5703SOL    HW218009   5.043   4.569   0.692
 5704SOL     OW18010   3.944   5.525   2.246
 5704SOL    HW118011   3.874   5.534   2.174
 5704SOL    HW218012   3.928   5.441   2.298
 5705SOL     OW18013   5.488   1.001   0.429
 5705SOL    HW118014   5.491   0.906   0.458
 5705SOL    HW218015   5.402   1.042   0.460
 5706SOL     OW18016   0.909   2.098   0.463
 5706SOL    HW118017   0.891   2.084   0.365
 5706SOL    HW218018   0.857   2.177   0.496
 5707SOL     OW18019   0.632   6.743   0.337
 5707SOL    HW118020   0.640   6.842   0.326
 5707SOL    HW218021   0.671   6.716   0.425
 5708SOL     OW18022   5.147   6.125   1.131
 5708SOL    HW118023   5.156   6.178   1.047
 5708SOL    HW218024   5.236   6.085   1.154
 5709SOL     OW18025   1.276   6.978   3.463
 5709SOL    HW118026   1.216   6.993   3.541
 5709SOL    HW218027   1.260   6.886   3.426
 5710SOL     OW18028   2.842   3.497   6.085
 5710SOL    HW118029   2.855   3.555   6.005
 5710SOL    HW218030   2.763   3.528   6.137
 5711SOL     OW18031   4.629   0.642   2.989
 5711SOL    HW118032   4.652   0.614   2.895
 5711SOL    HW218033   4.612   0.560   3.044
 5712SOL     OW18034   0.669   5.961   5.943
 5712SOL    HW118035   0.667   5.948   6.043
 5712SOL    HW218036   0.728   5.892   5.902
 5713SOL     OW18037   1.164   2.130   1.369
 5713SOL    HW118038   1.100   2.179   1.310
 5713SOL    HW218039   1.193   2.045   1.325
 5714SOL     OW18040   1.496   6.047   6.839
 5714SOL    HW118041   1.494   5.948   6.824
 5714SOL    HW218042   1.468   6.067   6.932
 5715SOL     OW18043   1.224   6.267   3.228
 5715SOL    HW118044   1.232   6.300   3.322
 5715SOL    HW218045   1.146   6.312   3.184
 5716SOL     OW18046   1.127   3.810   6.194
 5716SOL    HW118047   1.203   3.868   6.166
 5716SOL    HW218048   1.052   3.820   6.129
 5717SOL     OW18049   1.893   5.433   0.562
 5717SOL    HW118050   1.846   5.389   0.638
 5717SOL    HW218051   1.838   5.422   0.479
 5718SOL     OW18052   0.869   3.877   6.651
 5718SOL    HW118053   0.927   3.900   6.573
 5718SOL    HW218054   0.926   3.846   6.727
 5719SOL     OW18055   2.412   1.312   6.179
 5719SOL    HW118056   2.343   1.383   6.161
 5719SOL    HW218057   2.413   1.291   6.277
 5720SOL     OW18058   1.020   4.576   3.962
 5720SOL    HW118059   1.093   4.642   3.978
 5720SOL    HW218060   0.944   4.596   4.024
 5721SOL     OW18061   6.928   3.716   0.925
 5721SOL    HW118062   0.005   3.718   0.921
 5721SOL    HW218063   6.890   3.721   0.833
 5722SOL     OW18064   5.712   2.409   5.269
 5722SOL    HW118065   5.775   2.401   5.191
 5722SOL    HW218066   5.704   2.321   5.315
 5723SOL     OW18067   4.194   3.722   0.070
 5723SOL    HW118068   4.101   3.687   0.056
 5723SOL    HW218069   4.217   3.720   0.167
 5724SOL     OW18070   3.979   2.500   5.382
 5724SOL    HW118071   4.023   2.458   5.461
 5724SOL    HW218072   4.048   2.522   5.313
 5725SOL     OW18073   5.806   5.377   3.551
 5725SOL    HW118074   5.758   5.335   3.474
 5725SOL    HW218075   5.739   5.401   3.622
 5726SOL     OW18076   6.248   3.468   3.687
 5726SOL    HW118077   6.171   3.472   3.750
 5726SOL    HW218078   6.226   3.405   3.612
 5727SOL     OW18079   0.492   2.830   4.043
 5727SOL    HW118080   0.513   2.807   3.947
 5727SOL    HW218081   0.452   2.921   4.047
 5728SOL     OW18082   4.395   1.218   6.324
 5728SOL    HW118083   4.302   1.196   6.294
 5728SOL    HW218084   4.407   1.317   6.326
 5729SOL     OW18085   1.280   1.402   0.413
 5729SOL    HW118086   1.300   1.484   0.358
 5729SOL    HW218087   1.202   1.420   0.472
 5730SOL     OW18088   3.766   5.008   6.053
 5730SOL    HW118089   3.787   4.913   6.031
 5730SOL    HW218090   3.820   5.070   5.996
 5731SOL     OW18091   2.117   6.540   3.614
 5731SOL    HW118092   2.099   6.623   3.668
 5731SOL    HW218093   2.048   6.471   3.635
 5732SOL     OW18094   6.478   4.528   5.159
 5732SOL    HW118095   6.533   4.516   5.242
 5732SOL    HW218096   6.485   4.446   5.102
 5733SOL     OW18097   3.182   0.253   5.743
 5733SOL    HW118098   3.095   0.212   5.718
 5733SOL    HW218099   3.242   0.183   5.781
 5734SOL     OW18100   1.710   6.171   6.382
 5734SOL    HW118101   1.709   6.079   6.342
 5734SOL    HW218102   1.705   6.164   6.482
 5735SOL     OW18103   4.231   1.294   3.037
 5735SOL    HW118104   4.238   1.202   2.998
 5735SOL    HW218105   4.322   1.334   3.045
 5736SOL     OW18106   5.530   4.644   0.241
 5736SOL    HW118107   5.465   4.601   0.303
 5736SOL    HW218108   5.596   4.576   0.209
 5737SOL     OW18109   5.898   5.967   0.137
 5737SOL    HW118110   5.936   5.890   0.190
 5737SOL    HW218111   5.886   5.939   0.042
 5738SOL     OW18112   3.667   1.793   6.913
 5738SOL    HW118113   3.746   1.817   6.969
 5738SOL    HW218114   3.657   1.859   6.839
 5739SOL     OW18115   1.025   6.248   5.467
 5739SOL    HW118116   0.954   6.274   5.533
 5739SOL    HW218117   1.109   6.225   5.515
 5740SOL     OW18118   4.491   3.782   1.029
 5740SOL    HW118119   4.587   3.808   1.036
 5740SOL    HW218120   4.445   3.798   1.116
 5741SOL     OW18121   0.188   4.045   4.259
 5741SOL    HW118122   0.090   4.063   4.268
 5741SOL    HW218123   0.239   4.130   4.269
 5742SOL     OW18124   4.640   6.032   2.887
 5742SOL    HW118125   4.607   5.941   2.913
 5742SOL    HW218126   4.692   6.025   2.802
 5743SOL     OW18127   2.090   5.984   5.152
 5743SOL    HW118128   2.065   5.969   5.056
 5743SOL    HW218129   2.102   6.082   5.168
 5744SOL     OW18130   5.239   1.243   2.067
 5744SOL    HW118131   5.287   1.283   2.145
 5744SOL    HW218132   5.197   1.316   2.013
 5745SOL     OW18133   2.384   0.931   4.083
 5745SOL    HW118134   2.444   0.956   4.007
 5745SOL    HW218135   2.410   0.983   4.164
 5746SOL     OW18136   4.866   6.315   1.593
 5746SOL    HW118137   4.936   6.288   1.526
 5746SOL    HW218138   4.788   6.356   1.545
 5747SOL     OW18139   0.836   5.035   1.949
 5747SOL    HW118140   0.860   5.119   1.899
 5747SOL    HW218141   0.825   5.057   2.046
 5748SOL     OW18142   1.338   6.914   1.396
 5748SOL    HW118143   1.429   6.955   1.385
 5748SOL    HW218144   1.273   6.962   1.336
 5749SOL     OW18145   1.779   6.565   5.105
 5749SOL    HW118146   1.751   6.519   5.020
 5749SOL    HW218147   1.879   6.559   5.114
 5750SOL     OW18148   5.899   6.380   5.222
 5750SOL    HW118149   5.895   6.421   5.131
 5750SOL    HW218150   5.954   6.297   5.218
 5751SOL     OW18151   2.516   2.552   4.958
 5751SOL    HW118152   2.555   2.535   5.048
 5751SOL    HW218153   2.473   2.643   4.957
 5752SOL     OW18154   5.690   0.056   0.365
 5752SOL    HW118155   5.689   0.135   0.427
 5752SOL    HW218156   5.785   0.029   0.348
 5753SOL     OW18157   3.408   3.926   4.766
 5753SOL    HW118158   3.353   3.915   4.849
 5753SOL    HW218159   3.416   4.023   4.743
 5754SOL     OW18160   0.476   5.063   1.385
 5754SOL    HW118161   0.450   4.974   1.347
 5754SOL    HW218162   0.564   5.054   1.432
 5755SOL     OW18163   1.365   2.301   6.241
 5755SOL    HW118164   1.463   2.307   6.224
 5755SOL    HW218165   1.316   2.365   6.182
 5756SOL     OW18166   0.551   0.826   2.632
 5756SOL    HW118167   0.469   0.773   2.610
 5756SOL    HW218168   0.618   0.766   2.675
 5757SOL     OW18169   0.799   5.253   3.826
 5757SOL    HW118170   0.840   5.249   3.917
 5757SOL    HW218171   0.709   5.209   3.828
 5758SOL     OW18172   2.401   1.183   2.801
 5758SOL    HW118173   2.306   1.161   2.776
 5758SOL    HW218174   2.426   1.272   2.762
 5759SOL     OW18175   4.791   0.530   0.129
 5759SOL    HW118176   4.824   0.464   0.061
 5759SOL    HW218177   4.820   0.500   0.220
 5760SOL     OW18178   5.910   2.133   0.608
 5760SOL    HW118179   5.810   2.134   0.609
 5760SOL    HW218180   5.941   2.070   0.536
 5761SOL     OW18181   6.111   4.929   5.988
 5761SOL    HW118182   6.102   4.843   6.039
 5761SOL    HW218183   6.086   4.914   5.892
 5762SOL     OW18184   5.107   4.239   1.091
 5762SOL    HW118185   5.116   4.243   1.191
 5762SOL    HW218186   5.089   4.331   1.057
 5763SOL     OW18187   6.010   5.900   0.896
 5763SOL    HW118188   5.951   5.851   0.960
 5763SOL    HW218189   5.957   5.925   0.814
 5764SOL     OW18190   4.693   4.630   4.684
 5764SOL    HW118191   4.754   4.552   4.702
 5764SOL    HW218192   4.716   4.706   4.745
 5765SOL     OW18193   6.431   3.390   0.427
 5765SOL    HW118194   6.491   3.312   0.445
 5765SOL    HW218195   6.360   3.362   0.361
 5766SOL     OW18196   1.306   1.870   5.476
 5766SOL    HW118197   1.306   1.941   5.406
 5766SOL    HW218198   1.216   1.826   5.479
 5767SOL     OW18199   2.275   0.376   0.729
 5767SOL    HW118200   2.212   0.326   0.669
 5767SOL    HW218201   2.223   0.424   0.800
 5768SOL     OW18202   0.615   6.886   4.162
 5768SOL    HW118203   0.628   6.985   4.161
 5768SOL    HW218204   0.535   6.863   4.106
 5769SOL     OW18205   2.475   5.485   4.240
 5769SOL    HW118206   2.574   5.485   4.226
 5769SOL    HW218207   2.429   5.449   4.159
 5770SOL     OW18208   6.892   6.309   6.053
 5770SOL    HW118209   6.922   6.227   6.005
 5770SOL    HW218210   6.808   6.289   6.103
 5771SOL     OW18211   1.459   6.872   4.369
 5771SOL    HW118212   1.420   6.843   4.456
 5771SOL    HW218213   1.531   6.939   4.385
 5772SOL     OW18214   5.206   1.358   1.421
 5772SOL    HW118215   5.275   1.285   1.420
 5772SOL    HW218216   5.127   1.330   1.366
 5773SOL     OW18217   4.311   0.815   3.264
 5773SOL    HW118218   4.256   0.897   3.278
 5773SOL    HW218219   4.253   0.742   3.229
 5774SOL     OW18220   3.109   6.829   3.775
 5774SOL    HW118221   3.161   6.896   3.722
 5774SOL    HW218222   3.156   6.812   3.861
 5775SOL     OW18223   1.636   0.441   2.336
 5775SOL    HW118224   1.707   0.377   2.308
 5775SOL    HW218225   1.603   0.416   2.428
 5776SOL     OW18226   0.541   0.733   3.961
 5776SOL    HW118227   0.544   0.766   3.867
 5776SOL    HW218228   0.604   0.656   3.972
 5777SOL     OW18229   6.904   0.069   4.979
 5777SOL    HW118230   6.812   0.057   5.016
 5777SOL    HW218231   6.961   0.118   5.045
 5778SOL     OW18232   1.437   0.189   0.519
 5778SOL    HW118233   1.505   0.121   0.546
 5778SOL    HW218234   1.475   0.281   0.532
 5779SOL     OW18235   4.562   2.359   1.077
 5779SOL    HW118236   4.466   2.387   1.078
 5779SOL    HW218237   4.621   2.440   1.081
 5780SOL     OW18238   6.440   6.412   4.009
 5780SOL    HW118239   6.428   6.396   3.911
 5780SOL    HW218240   6.392   6.342   4.061
 5781SOL     OW18241   6.848   5.114   4.312
 5781SOL    HW118242   6.932   5.100   4.365
 5781SOL    HW218243   6.811   5.025   4.284
 5782SOL     OW18244   1.748   1.718   0.893
 5782SOL    HW118245   1.655   1.757   0.892
 5782SOL    HW218246   1.765   1.670   0.807
 5783SOL     OW18247   0.962   0.829   1.352
 5783SOL    HW118248   1.033   0.894   1.381
 5783SOL    HW218249   0.995   0.736   1.366
 5784SOL     OW18250   0.047   5.995   5.661
 5784SOL    HW118251   0.051   6.020   5.565
 5784SOL    HW218252   6.975   5.983   5.689
 5785SOL     OW18253   2.300   2.172   0.118
 5785SOL    HW118254   2.395   2.177   0.085
 5785SOL    HW218255   2.244   2.122   0.052
 5786SOL     OW18256   0.627   4.482   0.482
 5786SOL    HW118257   0.592   4.445   0.568
 5786SOL    HW218258   0.567   4.456   0.407
 5787SOL     OW18259   3.201   1.774   4.716
 5787SOL    HW118260   3.176   1.852   4.659
 5787SOL    HW218261   3.123   1.749   4.774
 5788SOL     OW18262   2.818   1.611   1.310
 5788SOL    HW118263   2.770   1.595   1.223
 5788SOL    HW218264   2.754   1.649   1.376
 5789SOL     OW18265   3.097   4.552   7.004
 5789SOL    HW118266   3.047   4.504   6.932
 5789SOL    HW218267   3.165   4.490   0.022
 5790SOL     OW18268   1.552   4.055   5.315
 5790SOL    HW118269   1.593   4.081   5.227
 5790SOL    HW218270   1.455   4.077   5.315
 5791SOL     OW18271   3.773   1.910   2.497
 5791SOL    HW118272   3.685   1.950   2.468
 5791SOL    HW218273   3.837   1.984   2.517
 5792SOL     OW18274   6.175   3.446   2.462
 5792SOL    HW118275   6.124   3.526   2.492
 5792SOL    HW218276   6.120   3.364   2.479
 5793SOL     OW18277   5.169   1.318   3.873
 5793SOL    HW118278   5.200   1.308   3.967
 5793SOL    HW218279   5.127   1.232   3.843
 5794SOL     OW18280   2.531   1.509   0.447
 5794SOL    HW118281   2.444   1.553   0.427
 5794SOL    HW218282   2.531   1.478   0.543
 5795SOL     OW18283   6.628   0.430   6.982
 5795SOL    HW118284   6.545   0.445   0.013
 5795SOL    HW218285   6.612   0.457   6.887
 5796SOL     OW18286   4.658   1.258   6.643
 5796SOL    HW118287   4.660   1.357   6.625
 5796SOL    HW218288   4.564   1.231   6.666
 5797SOL     OW18289   4.578   2.769   6.186
 5797SOL    HW118290   4.614   2.676   6.182
 5797SOL    HW218291   4.604   2.818   6.102
 5798SOL     OW18292   0.751   4.722   5.431
 5798SOL    HW118293   0.827   4.664   5.401
 5798SOL    HW218294   0.788   4.807   5.471
 5799SOL     OW18295   0.649   0.302   3.147
 5799SOL    HW118296   0.649   0.373   3.217
 5799SOL    HW218297   0.726   0.317   3.085
 5800SOL     OW18298   6.061   6.330   2.149
 5800SOL    HW118299   5.992   6.397   2.124
 5800SOL    HW218300   6.106   6.358   2.234
 5801SOL     OW18301   2.119   2.263   3.518
 5801SOL    HW118302   2.121   2.163   3.525
 5801SOL    HW218303   2.058   2.299   3.589
 5802SOL     OW18304   1.180   4.092   2.335
 5802SOL    HW118305   1.102   4.030   2.342
 5802SOL    HW218306   1.211   4.116   2.427
 5803SOL     OW18307   2.334   4.851   2.373
 5803SOL    HW118308   2.414   4.880   2.425
 5803SOL    HW218309   2.307   4.759   2.402
 5804SOL     OW18310   0.443   5.502   3.908
 5804SOL    HW118311   0.534   5.537   3.885
 5804SOL    HW218312   0.383   5.579   3.931
 5805SOL     OW18313   2.795   3.331   6.804
 5805SOL    HW118314   2.789   3.361   6.899
 5805SOL    HW218315   2.891   3.312   6.781
 5806SOL     OW18316   7.011   5.360   4.895
 5806SOL    HW118317   0.085   5.339   4.879
 5806SOL    HW218318   7.001   5.455   4.925
 5807SOL     OW18319   0.380   4.075   2.510
 5807SOL    HW118320   0.356   4.014   2.586
 5807SOL    HW218321   0.299   4.129   2.485
 5808SOL     OW18322   5.751   5.555   4.948
 5808SOL    HW118323   5.733   5.546   4.850
 5808SOL    HW218324   5.733   5.468   4.993
 5809SOL     OW18325   5.414   1.792   4.144
 5809SOL    HW118326   5.483   1.797   4.215
 5809SOL    HW218327   5.329   1.834   4.177
 5810SOL     OW18328   3.727   1.688   4.873
 5810SOL    HW118329   3.774   1.699   4.960
 5810SOL    HW218330   3.634   1.726   4.880
 5811SOL     OW18331   2.963   0.985   5.168
 5811SOL    HW118332   2.884   1.045   5.181
 5811SOL    HW218333   2.972   0.962   5.072
 5812SOL     OW18334   6.394   2.746   3.965
 5812SOL    HW118335   6.336   2.705   4.035
 5812SOL    HW218336   6.389   2.692   3.881
 5813SOL     OW18337   2.017   2.102   0.791
 5813SOL    HW118338   2.080   2.025   0.798
 5813SOL    HW218339   1.951   2.098   0.866
 5814SOL     OW18340   6.510   4.576   1.518
 5814SOL    HW118341   6.473   4.648   1.577
 5814SOL    HW218342   6.517   4.610   1.424
 5815SOL     OW18343   3.779   2.092   4.215
 5815SOL    HW118344   3.704   2.073   4.152
 5815SOL    HW218345   3.843   2.156   4.173
 5816SOL     OW18346   4.538   5.117   0.205
 5816SOL    HW118347   4.590   5.148   0.125
 5816SOL    HW218348   4.486   5.035   0.181
 5817SOL     OW18349   5.582   3.463   5.891
 5817SOL    HW118350   5.661   3.402   5.887
 5817SOL    HW218351   5.548   3.467   5.985
 5818SOL     OW18352   6.459   6.048   4.793
 5818SOL    HW118353   6.491   6.030   4.700
 5818SOL    HW218354   6.509   6.126   4.830
 5819SOL     OW18355   3.643   6.622   6.951
 5819SOL    HW118356   3.575   6.659   7.013
 5819SOL    HW218357   3.639   6.522   6.953
 5820SOL     OW18358   3.971   5.386   3.841
 5820SOL    HW118359   3.944   5.292   3.860
 5820SOL    HW218360   3.940   5.412   3.749
 5821SOL     OW18361   0.240   6.956   1.303
 5821SOL    HW118362   0.322   6.919   1.345
 5821SOL    HW218363   0.244   6.943   1.204
 5822SOL     OW18364   1.527   2.310   1.623
 5822SOL    HW118365   1.490   2.382   1.682
 5822SOL    HW218366   1.624   2.327   1.607
 5823SOL     OW18367   1.764   1.017   5.666
 5823SOL    HW118368   1.772   1.109   5.628
 5823SOL    HW218369   1.693   1.015   5.737
 5824SOL     OW18370   6.538   5.549   2.054
 5824SOL    HW118371   6.488   5.481   2.108
 5824SOL    HW218372   6.636   5.526   2.055
 5825SOL     OW18373   1.119   1.675   5.817
 5825SOL    HW118374   1.075   1.655   5.729
 5825SOL    HW218375   1.217   1.654   5.811
 5826SOL     OW18376   6.777   4.899   5.245
 5826SOL    HW118377   6.816   4.938   5.162
 5826SOL    HW218378   6.679   4.886   5.233
 5827SOL     OW18379   2.198   4.330   4.815
 5827SOL    HW118380   2.152   4.395   4.875
 5827SOL    HW218381   2.152   4.242   4.820
 5828SOL     OW18382   6.436   2.008   1.287
 5828SOL    HW118383   6.501   1.978   1.217
 5828SOL    HW218384   6.473   2.089   1.333
 5829SOL     OW18385   1.927   0.844   3.304
 5829SOL    HW118386   1.917   0.770   3.238
 5829SOL    HW218387   1.889   0.928   3.266
 5830SOL     OW18388   4.921   6.544   5.648
 5830SOL    HW118389   4.990   6.547   5.721
 5830SOL    HW218390   4.963   6.509   5.564
 5831SOL     OW18391   0.786   0.936   5.263
 5831SOL    HW118392   0.788   0.927   5.363
 5831SOL    HW218393   0.783   1.032   5.238
 5832SOL     OW18394   3.084   4.635   6.638
 5832SOL    HW118395   3.020   4.712   6.645
 5832SOL    HW218396   3.135   4.642   6.552
 5833SOL     OW18397   3.545   3.426   4.636
 5833SOL    HW118398   3.477   3.388   4.698
 5833SOL    HW218399   3.533   3.386   4.545
 5834SOL     OW18400   0.191   3.240   0.009
 5834SOL    HW118401   0.208   3.235   6.933
 5834SOL    HW218402   0.164   3.333   0.034
 5835SOL     OW18403   5.113   3.010   4.076
 5835SOL    HW118404   5.188   3.068   4.108
 5835SOL    HW218405   5.144   2.915   4.070
 5836SOL     OW18406   2.908   6.641   2.576
 5836SOL    HW118407   2.986   6.581   2.593
 5836SOL    HW218408   2.870   6.622   2.486
 5837SOL     OW18409   3.960   4.185   5.965
 5837SOL    HW118410   3.971   4.190   6.064
 5837SOL    HW218411   4.006   4.102   5.931
 5838SOL     OW18412   3.056   2.673   0.179
 5838SOL    HW118413   3.086   2.706   0.269
 5838SOL    HW218414   3.121   2.603   0.147
 5839SOL     OW18415   0.767   1.758   2.361
 5839SOL    HW118416   0.752   1.812   2.278
 5839SOL    HW218417   0.863   1.733   2.367
 5840SOL     OW18418   0.716   5.574   6.595
 5840SOL    HW118419   0.729   5.593   6.692
 5840SOL    HW218420   0.800   5.535   6.557
 5841SOL     OW18421   5.273   2.236   2.485
 5841SOL    HW118422   5.198   2.291   2.521
 5841SOL    HW218423   5.343   2.226   2.555
 5842SOL     OW18424   4.495   3.130   1.455
 5842SOL    HW118425   4.579   3.185   1.457
 5842SOL    HW218426   4.518   3.036   1.428
 5843SOL     OW18427   1.803   3.943   2.982
 5843SOL    HW118428   1.751   3.989   2.910
 5843SOL    HW218429   1.739   3.904   3.049
 5844SOL     OW18430   1.961   6.525   6.120
 5844SOL    HW118431   1.928   6.528   6.214
 5844SOL    HW218432   2.002   6.613   6.096
 5845SOL     OW18433   0.055   0.787   2.275
 5845SOL    HW118434   0.140   0.815   2.318
 5845SOL    HW218435   0.033   0.851   2.201
 5846SOL     OW18436   0.236   2.566   4.652
 5846SOL    HW118437   0.187   2.483   4.676
 5846SOL    HW218438   0.205   2.641   4.710
 5847SOL     OW18439   2.446   2.378   1.942
 5847SOL    HW118440   2.399   2.439   2.005
 5847SOL    HW218441   2.523   2.426   1.900
 5848SOL     OW18442   2.318   5.842   3.247
 5848SOL    HW118443   2.277   5.921   3.202
 5848SOL    HW218444   2.307   5.761   3.190
 5849SOL     OW18445   0.146   0.233   6.158
 5849SOL    HW118446   0.110   0.265   6.245
 5849SOL    HW218447   0.073   0.190   6.105
 5850SOL     OW18448   6.851   2.677   1.882
 5850SOL    HW118449   6.835   2.702   1.787
 5850SOL    HW218450   6.802   2.742   1.942
 5851SOL     OW18451   4.869   3.833   3.331
 5851SOL    HW118452   4.852   3.837   3.233
 5851SOL    HW218453   4.867   3.738   3.362
 5852SOL     OW18454   6.739   5.798   3.148
 5852SOL    HW118455   6.724   5.780   3.050
 5852SOL    HW218456   6.833   5.829   3.162
 5853SOL     OW18457   3.550   6.039   4.367
 5853SOL    HW118458   3.626   6.100   4.391
 5853SOL    HW218459   3.540   6.037   4.268
 5854SOL     OW18460   5.324   4.811   5.753
 5854SOL    HW118461   5.281   4.732   5.798
 5854SOL    HW218462   5.423   4.804   5.764
 5855SOL     OW18463   0.145   1.226   5.178
 5855SOL    HW118464   0.232   1.201   5.135
 5855SOL    HW218465   0.074   1.235   5.108
 5856SOL     OW18466   1.774   5.727   3.704
 5856SOL    HW118467   1.684   5.769   3.709
 5856SOL    HW218468   1.845   5.797   3.714
 5857SOL     OW18469   6.675   1.888   5.990
 5857SOL    HW118470   6.582   1.890   5.956
 5857SOL    HW218471   6.692   1.800   6.036
 5858SOL     OW18472   2.506   2.180   2.343
 5858SOL    HW118473   2.433   2.156   2.279
 5858SOL    HW218474   2.470   2.182   2.436
 5859SOL     OW18475   5.839   6.526   1.334
 5859SOL    HW118476   5.773   6.597   1.358
 5859SOL    HW218477   5.826   6.499   1.238
 5860SOL     OW18478   1.244   4.063   2.073
 5860SOL    HW118479   1.152   4.097   2.050
 5860SOL    HW218480   1.263   4.081   2.169
 5861SOL     OW18481   4.531   1.959   4.460
 5861SOL    HW118482   4.466   1.917   4.396
 5861SOL    HW218483   4.539   1.902   4.541
 5862SOL     OW18484   5.375   5.003   1.476
 5862SOL    HW118485   5.297   5.057   1.508
 5862SOL    HW218486   5.387   5.016   1.378
 5863SOL     OW18487   3.089   1.393   4.954
 5863SOL    HW118488   3.185   1.420   4.945
 5863SOL    HW218489   3.030   1.470   4.932
 5864SOL     OW18490   3.990   3.641   1.983
 5864SOL    HW118491   4.048   3.610   2.058
 5864SOL    HW218492   3.959   3.562   1.930
 5865SOL     OW18493   6.057   0.649   5.184
 5865SOL    HW118494   5.973   0.700   5.204
 5865SOL    HW218495   6.136   0.706   5.206
 5866SOL     OW18496   4.000   4.168   0.435
 5866SOL    HW118497   3.921   4.138   0.489
 5866SOL    HW218498   4.006   4.268   0.437
 5867SOL     OW18499   0.967   3.652   0.877
 5867SOL    HW118500   0.902   3.680   0.807
 5867SOL    HW218501   1.003   3.561   0.854
 5868SOL     OW18502   1.002   1.527   5.585
 5868SOL    HW118503   1.046   1.446   5.625
 5868SOL    HW218504   0.903   1.516   5.590
 5869SOL     OW18505   1.934   6.321   3.680
 5869SOL    HW118506   1.894   6.247   3.626
 5869SOL    HW218507   1.874   6.343   3.756
 5870SOL     OW18508   5.173   5.912   4.640
 5870SOL    HW118509   5.209   5.838   4.583
 5870SOL    HW218510   5.118   5.974   4.584
 5871SOL     OW18511   3.863   2.570   1.193
 5871SOL    HW118512   3.832   2.554   1.100
 5871SOL    HW218513   3.811   2.513   1.257
 5872SOL     OW18514   3.907   6.042   1.163
 5872SOL    HW118515   3.857   5.995   1.090
 5872SOL    HW218516   3.843   6.095   1.219
 5873SOL     OW18517   2.968   2.105   1.565
 5873SOL    HW118518   2.898   2.091   1.635
 5873SOL    HW218519   3.005   2.198   1.573
 5874SOL     OW18520   2.771   4.014   6.886
 5874SOL    HW118521   2.746   3.963   6.803
 5874SOL    HW218522   2.700   4.082   6.905
 5875SOL     OW18523   4.548   0.988   6.333
 5875SOL    HW118524   4.498   1.074   6.344
 5875SOL    HW218525   4.546   0.961   6.237
 5876SOL     OW18526   3.282   3.563   0.672
 5876SOL    HW118527   3.285   3.644   0.614
 5876SOL    HW218528   3.242   3.487   0.620
 5877SOL     OW18529   0.428   0.375   0.790
 5877SOL    HW118530   0.413   0.391   0.887
 5877SOL    HW218531   0.349   0.326   0.752
 5878SOL     OW18532   5.939   5.158   4.212
 5878SOL    HW118533   6.034   5.187   4.223
 5878SOL    HW218534   5.900   5.136   4.301
 5879SOL     OW18535   1.413   3.597   6.958
 5879SOL    HW118536   1.339   3.596   0.002
 5879SOL    HW218537   1.381   3.558   6.871
 5880SOL     OW18538   5.463   4.590   6.803
 5880SOL    HW118539   5.445   4.646   6.722
 5880SOL    HW218540   5.531   4.635   6.861
 5881SOL     OW18541   1.319   6.860   1.965
 5881SOL    HW118542   1.253   6.785   1.963
 5881SOL    HW218543   1.316   6.910   1.879
 5882SOL     OW18544   0.916   5.904   6.314
 5882SOL    HW118545   0.982   5.839   6.277
 5882SOL    HW218546   0.829   5.858   6.332
 5883SOL     OW18547   0.617   1.552   6.709
 5883SOL    HW118548   0.579   1.463   6.685
 5883SOL    HW218549   0.650   1.551   6.803
 5884SOL     OW18550   4.517   0.958   4.352
 5884SOL    HW118551   4.512   1.028   4.280
 5884SOL    HW218552   4.556   0.874   4.314
 5885SOL     OW18553   0.433   5.673   2.620
 5885SOL    HW118554   0.489   5.590   2.618
 5885SOL    HW218555   0.478   5.745   2.566
 5886SOL     OW18556   0.911   1.791   3.802
 5886SOL    HW118557   0.839   1.818   3.738
 5886SOL    HW218558   0.962   1.872   3.831
 5887SOL     OW18559   2.269   2.052   1.324
 5887SOL    HW118560   2.342   1.984   1.326
 5887SOL    HW218561   2.287   2.119   1.252
 5888SOL     OW18562   2.018   6.711   1.084
 5888SOL    HW118563   1.964   6.789   1.116
 5888SOL    HW218564   2.011   6.705   0.985
 5889SOL     OW18565   6.413   1.798   6.299
 5889SOL    HW118566   6.336   1.766   6.354
 5889SOL    HW218567   6.493   1.811   6.357
 5890SOL     OW18568   2.563   0.490   2.460
 5890SOL    HW118569   2.547   0.395   2.485
 5890SOL    HW218570   2.569   0.546   2.543
 5891SOL     OW18571   2.446   3.808   0.272
 5891SOL    HW118572   2.380   3.752   0.323
 5891SOL    HW218573   2.522   3.833   0.332
 5892SOL     OW18574   0.989   5.307   2.162
 5892SOL    HW118575   1.007   5.338   2.068
 5892SOL    HW218576   1.019   5.378   2.226
 5893SOL     OW18577   2.244   4.254   1.821
 5893SOL    HW118578   2.192   4.182   1.865
 5893SOL    HW218579   2.183   4.330   1.797
 5894SOL     OW18580   0.841   6.066   4.833
 5894SOL    HW118581   0.875   6.004   4.763
 5894SOL    HW218582   0.790   6.141   4.790
 5895SOL     OW18583   5.755   3.463   3.640
 5895SOL    HW118584   5.711   3.515   3.566
 5895SOL    HW218585   5.686   3.415   3.693
 5896SOL     OW18586   4.728   1.648   1.266
 5896SOL    HW118587   4.807   1.619   1.320
 5896SOL    HW218588   4.650   1.589   1.287
 5897SOL     OW18589   3.814   1.059   1.537
 5897SOL    HW118590   3.826   1.129   1.608
 5897SOL    HW218591   3.718   1.053   1.511
 5898SOL     OW18592   2.478   0.641   4.798
 5898SOL    HW118593   2.544   0.582   4.845
 5898SOL    HW218594   2.515   0.669   4.710
 5899SOL     OW18595   6.395   6.172   6.887
 5899SOL    HW118596   6.311   6.206   6.930
 5899SOL    HW218597   6.440   6.246   6.838
 5900SOL     OW18598   6.908   4.617   2.869
 5900SOL    HW118599   6.992   4.583   2.910
 5900SOL    HW218600   6.873   4.694   2.922
 5901SOL     OW18601   3.559   0.503   0.917
 5901SOL    HW118602   3.467   0.502   0.878
 5901SOL    HW218603   3.554   0.475   1.013
 5902SOL     OW18604   5.756   3.263   5.681
 5902SOL    HW118605   5.788   3.319   5.604
 5902SOL    HW218606   5.796   3.297   5.766
 5903SOL     OW18607   4.491   4.264   6.148
 5903SOL    HW118608   4.535   4.190   6.198
 5903SOL    HW218609   4.418   4.227   6.090
 5904SOL     OW18610   0.774   4.153   1.364
 5904SOL    HW118611   0.685   4.199   1.352
 5904SOL    HW218612   0.844   4.222   1.381
 5905SOL     OW18613   6.803   0.191   3.288
 5905SOL    HW118614   6.771   0.215   3.196
 5905SOL    HW218615   6.889   0.239   3.307
 5906SOL     OW18616   4.487   1.620   4.417
 5906SOL    HW118617   4.517   1.552   4.351
 5906SOL    HW218618   4.429   1.687   4.372
 5907SOL     OW18619   1.057   6.282   0.546
 5907SOL    HW118620   0.969   6.330   0.543
 5907SOL    HW218621   1.047   6.197   0.598
 5908SOL     OW18622   6.457   4.060   0.058
 5908SOL    HW118623   6.453   4.159   0.067
 5908SOL    HW218624   6.445   4.018   0.148
 5909SOL     OW18625   6.474   5.005   6.246
 5909SOL    HW118626   6.437   5.047   6.164
 5909SOL    HW218627   6.564   5.043   6.265
 5910SOL     OW18628   0.487   4.403   1.635
 5910SOL    HW118629   0.483   4.438   1.729
 5910SOL    HW218630   0.572   4.353   1.621
 5911SOL     OW18631   6.676   4.850   6.574
 5911SOL    HW118632   6.751   4.848   6.507
 5911SOL    HW218633   6.589   4.852   6.525
 5912SOL     OW18634   5.980   2.860   6.787
 5912SOL    HW118635   6.053   2.897   6.845
 5912SOL    HW218636   5.905   2.926   6.782
 5913SOL     OW18637   3.485   3.001   6.489
 5913SOL    HW118638   3.489   2.910   6.450
 5913SOL    HW218639   3.428   3.060   6.431
 5914SOL     OW18640   2.701   5.866   6.101
 5914SOL    HW118641   2.800   5.852   6.105
 5914SOL    HW218642   2.659   5.794   6.046
 5915SOL     OW18643   5.726   4.291   1.766
 5915SOL    HW118644   5.731   4.388   1.742
 5915SOL    HW218645   5.652   4.277   1.832
 5916SOL     OW18646   4.527   5.963   5.412
 5916SOL    HW118647   4.574   5.984   5.327
 5916SOL    HW218648   4.429   5.985   5.403
 5917SOL     OW18649   3.924   3.606   3.869
 5917SOL    HW118650   3.919   3.507   3.865
 5917SOL    HW218651   4.000   3.633   3.928
 5918SOL     OW18652   2.101   3.750   5.470
 5918SOL    HW118653   2.140   3.664   5.503
 5918SOL    HW218654   2.172   3.820   5.470
 5919SOL     OW18655   3.802   2.500   0.929
 5919SOL    HW118656   3.742   2.551   0.867
 5919SOL    HW218657   3.795   2.403   0.909
 5920SOL     OW18658   3.808   0.002   0.354
 5920SOL    HW118659   3.755   0.048   0.425
 5920SOL    HW218660   3.794   0.048   0.267
 5921SOL     OW18661   3.368   5.255   5.783
 5921SOL    HW118662   3.445   5.199   5.815
 5921SOL    HW218663   3.401   5.346   5.757
 5922SOL     OW18664   6.766   5.355   3.350
 5922SOL    HW118665   6.713   5.285   3.303
 5922SOL    HW218666   6.745   5.445   3.311
 5923SOL     OW18667   5.406   0.076   0.992
 5923SOL    HW118668   5.358   7.013   0.972
 5923SOL    HW218669   5.353   0.131   1.056
 5924SOL     OW18670   6.591   1.901   4.569
 5924SOL    HW118671   6.661   1.967   4.543
 5924SOL    HW218672   6.632   1.827   4.623
 5925SOL     OW18673   4.468   5.506   2.918
 5925SOL    HW118674   4.403   5.548   2.981
 5925SOL    HW218675   4.553   5.560   2.918
 5926SOL     OW18676   3.857   4.858   2.000
 5926SOL    HW118677   3.766   4.832   1.966
 5926SOL    HW218678   3.923   4.851   1.926
 5927SOL     OW18679   1.630   4.195   3.247
 5927SOL    HW118680   1.713   4.139   3.256
 5927SOL    HW218681   1.560   4.161   3.310
 5928SOL     OW18682   3.261   0.510   1.233
 5928SOL    HW118683   3.316   0.505   1.317
 5928SOL    HW218684   3.320   0.535   1.156
 5929SOL     OW18685   0.820   6.209   5.907
 5929SOL    HW118686   0.808   6.241   6.001
 5929SOL    HW218687   0.769   6.124   5.893
 5930SOL     OW18688   6.837   2.216   3.330
 5930SOL    HW118689   6.935   2.194   3.331
 5930SOL    HW218690   6.799   2.192   3.240
 5931SOL     OW18691   6.066   5.565   3.161
 5931SOL    HW118692   6.147   5.593   3.212
 5931SOL    HW218693   5.984   5.588   3.213
 5932SOL     OW18694   2.491   6.943   1.095
 5932SOL    HW118695   2.443   6.959   1.182
 5932SOL    HW218696   2.451   7.002   1.024
 5933SOL     OW18697   0.615   5.926   3.075
 5933SOL    HW118698   0.624   6.024   3.053
 5933SOL    HW218699   0.639   5.911   3.171
 5934SOL     OW18700   3.880   3.929   4.044
 5934SOL    HW118701   3.810   3.862   4.021
 5934SOL    HW218702   3.836   4.013   4.075
 5935SOL     OW18703   4.217   3.635   5.842
 5935SOL    HW118704   4.117   3.626   5.849
 5935SOL    HW218705   4.248   3.596   5.755
 5936SOL     OW18706   4.112   3.606   0.603
 5936SOL    HW118707   4.185   3.538   0.601
 5936SOL    HW218708   4.106   3.647   0.694
 5937SOL     OW18709   0.799   4.731   2.673
 5937SOL    HW118710   0.809   4.685   2.762
 5937SOL    HW218711   0.830   4.670   2.600
 5938SOL     OW18712   1.113   5.285   3.917
 5938SOL    HW118713   1.148   5.370   3.956
 5938SOL    HW218714   1.135   5.280   3.820
 5939SOL     OW18715   3.431   0.042   3.231
 5939SOL    HW118716   3.410   0.059   3.134
 5939SOL    HW218717   3.349   0.009   3.277
 5940SOL     OW18718   4.190   5.278   1.353
 5940SOL    HW118719   4.206   5.293   1.451
 5940SOL    HW218720   4.148   5.360   1.313
 5941SOL     OW18721   6.271   3.261   1.761
 5941SOL    HW118722   6.221   3.304   1.836
 5941SOL    HW218723   6.369   3.269   1.777
 5942SOL     OW18724   4.633   2.953   6.865
 5942SOL    HW118725   4.690   2.926   6.787
 5942SOL    HW218726   4.547   2.902   6.862
 5943SOL     OW18727   3.129   5.443   0.709
 5943SOL    HW118728   3.073   5.501   0.768
 5943SOL    HW218729   3.224   5.474   0.713
 5944SOL     OW18730   5.905   2.518   1.240
 5944SOL    HW118731   5.860   2.603   1.269
 5944SOL    HW218732   5.994   2.511   1.284
 5945SOL     OW18733   6.190   5.312   5.398
 5945SOL    HW118734   6.223   5.224   5.363
 5945SOL    HW218735   6.269   5.370   5.420
 5946SOL     OW18736   3.199   3.459   5.861
 5946SOL    HW118737   3.167   3.514   5.783
 5946SOL    HW218738   3.154   3.370   5.859
 5947SOL     OW18739   3.999   3.094   2.217
 5947SOL    HW118740   4.017   3.135   2.307
 5947SOL    HW218741   4.078   3.041   2.188
 5948SOL     OW18742   4.198   5.086   3.377
 5948SOL    HW118743   4.156   5.155   3.437
 5948SOL    HW218744   4.239   5.014   3.433
 5949SOL     OW18745   3.780   3.275   1.426
 5949SOL    HW118746   3.776   3.223   1.511
 5949SOL    HW218747   3.861   3.247   1.374
 5950SOL     OW18748   4.953   2.547   5.638
 5950SOL    HW118749   4.977   2.498   5.722
 5950SOL    HW218750   4.952   2.483   5.561
 5951SOL     OW18751   0.114   5.541   4.580
 5951SOL    HW118752   0.153   5.482   4.510
 5951SOL    HW218753   0.123   5.636   4.552
 5952SOL     OW18754   5.377   5.291   3.965
 5952SOL    HW118755   5.365   5.315   3.868
 5952SOL    HW218756   5.401   5.195   3.973
 5953SOL     OW18757   6.712   2.680   5.413
 5953SOL    HW118758   6.616   2.653   5.418
 5953SOL    HW218759   6.726   2.740   5.334
 5954SOL     OW18760   6.983   4.320   6.018
 5954SOL    HW118761   7.008   4.372   5.936
 5954SOL    HW218762   7.016   4.369   6.099
 5955SOL     OW18763   5.018   5.455   2.753
 5955SOL    HW118764   5.046   5.425   2.844
 5955SOL    HW218765   5.030   5.554   2.745
 5956SOL     OW18766   3.486   1.131   5.783
 5956SOL    HW118767   3.563   1.100   5.729
 5956SOL    HW218768   3.517   1.195   5.853
 5957SOL     OW18769   4.257   0.734   5.752
 5957SOL    HW118770   4.357   0.739   5.756
 5957SOL    HW218771   4.230   0.652   5.702
 5958SOL     OW18772   6.277   6.130   2.437
 5958SOL    HW118773   6.271   6.097   2.343
 5958SOL    HW218774   6.365   6.104   2.476
 5959SOL     OW18775   3.926   2.183   5.845
 5959SOL    HW118776   4.007   2.132   5.876
 5959SOL    HW218777   3.913   2.263   5.904
 5960SOL     OW18778   4.465   6.292   4.766
 5960SOL    HW118779   4.490   6.207   4.811
 5960SOL    HW218780   4.426   6.273   4.676
 5961SOL     OW18781   5.078   1.526   3.111
 5961SOL    HW118782   5.034   1.437   3.098
 5961SOL    HW218783   5.171   1.523   3.073
 5962SOL     OW18784   4.586   5.430   1.248
 5962SOL    HW118785   4.551   5.336   1.255
 5962SOL    HW218786   4.521   5.493   1.289
 5963SOL     OW18787   3.297   2.887   4.938
 5963SOL    HW118788   3.244   2.805   4.961
 5963SOL    HW218789   3.245   2.969   4.964
 5964SOL     OW18790   0.139   5.298   5.501
 5964SOL    HW118791   0.170   5.211   5.463
 5964SOL    HW218792   0.048   5.318   5.466
 5965SOL     OW18793   1.055   2.706   6.987
 5965SOL    HW118794   1.029   2.654   0.045
 5965SOL    HW218795   1.070   2.801   7.012
 5966SOL     OW18796   2.275   6.019   4.852
 5966SOL    HW118797   2.177   5.998   4.858
 5966SOL    HW218798   2.305   6.059   4.939
 5967SOL     OW18799   4.315   5.953   0.315
 5967SOL    HW118800   4.312   5.941   0.216
 5967SOL    HW218801   4.271   6.039   0.340
 5968SOL     OW18802   4.744   0.949   1.545
 5968SOL    HW118803   4.752   0.877   1.615
 5968SOL    HW218804   4.740   0.907   1.454
 5969SOL     OW18805   6.592   0.763   6.363
 5969SOL    HW118806   6.640   0.850   6.375
 5969SOL    HW218807   6.655   0.688   6.381
 5970SOL     OW18808   0.727   3.997   2.583
 5970SOL    HW118809   0.783   4.009   2.665
 5970SOL    HW218810   0.635   3.967   2.610
 5971SOL     OW18811   1.704   1.512   3.318
 5971SOL    HW118812   1.658   1.583   3.369
 5971SOL    HW218813   1.659   1.499   3.230
 5972SOL     OW18814   5.467   6.315   6.873
 5972SOL    HW118815   5.408   6.256   6.817
 5972SOL    HW218816   5.555   6.270   6.886
 5973SOL     OW18817   1.753   3.721   2.324
 5973SOL    HW118818   1.833   3.737   2.266
 5973SOL    HW218819   1.672   3.708   2.267
 5974SOL     OW18820   5.432   4.748   6.573
 5974SOL    HW118821   5.475   4.757   6.483
 5974SOL    HW218822   5.335   4.725   6.562
 5975SOL     OW18823   3.301   1.977   0.747
 5975SOL    HW118824   3.385   1.922   0.750
 5975SOL    HW218825   3.324   2.072   0.724
 5976SOL     OW18826   3.309   3.893   5.006
 5976SOL    HW118827   3.374   3.883   5.081
 5976SOL    HW218828   3.269   3.804   4.983
 5977SOL     OW18829   2.114   4.836   1.155
 5977SOL    HW118830   2.067   4.754   1.122
 5977SOL    HW218831   2.090   4.852   1.251
 5978SOL     OW18832   4.965   5.870   3.520
 5978SOL    HW118833   4.999   5.787   3.476
 5978SOL    HW218834   5.010   5.950   3.479
 5979SOL     OW18835   6.284   0.089   2.776
 5979SOL    HW118836   6.362   0.148   2.798
 5979SOL    HW218837   6.204   0.146   2.756
 5980SOL     OW18838   3.808   3.600   0.327
 5980SOL    HW118839   3.873   3.661   0.283
 5980SOL    HW218840   3.795   3.627   0.422
 5981SOL     OW18841   6.201   1.122   2.367
 5981SOL    HW118842   6.235   1.158   2.280
 5981SOL    HW218843   6.155   1.196   2.418
 5982SOL     OW18844   6.690   2.589   1.258
 5982SOL    HW118845   6.702   2.682   1.291
 5982SOL    HW218846   6.607   2.550   1.297
 5983SOL     OW18847   1.283   0.983   4.322
 5983SOL    HW118848   1.372   0.988   4.366
 5983SOL    HW218849   1.235   0.900   4.352
 5984SOL     OW18850   6.471   6.835   5.032
 5984SOL    HW118851   6.411   6.760   5.059
 5984SOL    HW218852   6.537   6.803   4.965
 5985SOL     OW18853   6.445   3.325   4.218
 5985SOL    HW118854   6.543   3.324   4.237
 5985SOL    HW218855   6.410   3.231   4.219
 5986SOL     OW18856   3.182   3.410   4.384
 5986SOL    HW118857   3.222   3.484   4.329
 5986SOL    HW218858   3.255   3.358   4.427
 5987SOL     OW18859   4.684   0.682   5.101
 5987SOL    HW118860   4.689   0.650   5.196
 5987SOL    HW218861   4.767   0.655   5.052
 5988SOL     OW18862   5.008   6.844   5.616
 5988SOL    HW118863   5.087   6.857   5.556
 5988SOL    HW218864   4.975   6.750   5.608
 5989SOL     OW18865   2.969   5.835   0.591
 5989SOL    HW118866   3.005   5.750   0.554
 5989SOL    HW218867   3.043   5.887   0.634
 5990SOL     OW18868   3.789   4.480   0.651
 5990SOL    HW118869   3.774   4.571   0.613
 5990SOL    HW218870   3.862   4.484   0.719
 5991SOL     OW18871   3.940   5.169   5.933
 5991SOL    HW118872   4.019   5.194   5.989
 5991SOL    HW218873   3.882   5.250   5.920
 5992SOL     OW18874   3.237   0.580   3.243
 5992SOL    HW118875   3.168   0.599   3.312
 5992SOL    HW218876   3.293   0.661   3.227
 5993SOL     OW18877   3.709   6.051   5.665
 5993SOL    HW118878   3.739   5.956   5.664
 5993SOL    HW218879   3.713   6.086   5.759
 5994SOL     OW18880   6.614   2.249   2.076
 5994SOL    HW118881   6.601   2.248   2.175
 5994SOL    HW218882   6.615   2.344   2.044
 5995SOL     OW18883   5.694   5.110   2.634
 5995SOL    HW118884   5.755   5.065   2.569
 5995SOL    HW218885   5.603   5.067   2.630
 5996SOL     OW18886   1.057   6.034   0.663
 5996SOL    HW118887   1.066   5.955   0.602
 5996SOL    HW218888   0.993   6.012   0.737
 5997SOL     OW18889   1.155   6.188   2.871
 5997SOL    HW118890   1.101   6.123   2.816
 5997SOL    HW218891   1.128   6.181   2.967
 5998SOL     OW18892   6.423   2.252   1.804
 5998SOL    HW118893   6.439   2.296   1.892
 5998SOL    HW218894   6.510   2.220   1.767
 5999SOL     OW18895   1.777   1.363   2.311
 5999SOL    HW118896   1.783   1.462   2.306
 5999SOL    HW218897   1.682   1.334   2.312
 6000SOL     OW18898   3.982   6.772   1.798
 6000SOL    HW118899   3.917   6.702   1.771
 6000SOL    HW218900   3.951   6.861   1.764
 6001SOL     OW18901   0.054   3.840   6.249
 6001SOL    HW118902   0.043   3.923   6.194
 6001SOL    HW218903   0.041   3.760   6.192
 6002SOL     OW18904   6.837   0.272   1.178
 6002SOL    HW118905   6.880   0.208   1.242
 6002SOL    HW218906   6.906   0.308   1.115
 6003SOL     OW18907   0.358   2.064   3.967
 6003SOL    HW118908   0.286   2.006   4.004
 6003SOL    HW218909   0.422   2.088   4.041
 6004SOL     OW18910   0.234   4.578   3.180
 6004SOL    HW118911   0.299   4.506   3.205
 6004SOL    HW218912   0.273   4.667   3.201
 6005SOL     OW18913   4.830   5.334   4.472
 6005SOL    HW118914   4.798   5.422   4.436
 6005SOL    HW218915   4.777   5.310   4.553
 6006SOL     OW18916   2.284   0.898   6.553
 6006SOL    HW118917   2.223   0.960   6.602
 6006SOL    HW218918   2.368   0.947   6.529
 6007SOL     OW18919   4.946   3.714   4.886
 6007SOL    HW118920   4.967   3.786   4.951
 6007SOL    HW218921   4.886   3.647   4.929
 6008SOL     OW18922   1.868   5.090   5.475
 6008SOL    HW118923   1.836   5.132   5.390
 6008SOL    HW218924   1.893   4.995   5.458
 6009SOL     OW18925   4.188   0.960   4.590
 6009SOL    HW118926   4.145   0.953   4.680
 6009SOL    HW218927   4.287   0.952   4.599
 6010SOL     OW18928   1.426   3.846   3.600
 6010SOL    HW118929   1.338   3.803   3.578
 6010SOL    HW218930   1.412   3.921   3.664
 6011SOL     OW18931   4.755   2.912   2.959
 6011SOL    HW118932   4.804   2.991   2.920
 6011SOL    HW218933   4.734   2.930   3.055
 6012SOL     OW18934   5.528   0.903   0.186
 6012SOL    HW118935   5.519   0.949   0.274
 6012SOL    HW218936   5.554   0.808   0.201
 6013SOL     OW18937   5.841   2.659   2.364
 6013SOL    HW118938   5.886   2.729   2.308
 6013SOL    HW218939   5.791   2.597   2.304
 6014SOL     OW18940   4.074   2.808   0.605
 6014SOL    HW118941   3.979   2.803   0.576
 6014SOL    HW218942   4.133   2.765   0.537
 6015SOL     OW18943   5.852   2.316   5.054
 6015SOL    HW118944   5.844   2.217   5.058
 6015SOL    HW218945   5.824   2.348   4.963
 6016SOL     OW18946   0.002   1.608   6.360
 6016SOL    HW118947   0.024   1.640   6.452
 6016SOL    HW218948   0.081   1.562   6.320
 6017SOL     OW18949   0.134   4.498   2.932
 6017SOL    HW118950   0.152   4.504   3.030
 6017SOL    HW218951   0.112   4.404   2.907
 6018SOL     OW18952   3.314   1.168   6.864
 6018SOL    HW118953   3.353   1.135   6.778
 6018SOL    HW218954   3.287   1.090   6.920
 6019SOL     OW18955   6.583   1.978   4.170
 6019SOL    HW118956   6.681   1.967   4.157
 6019SOL    HW218957   6.534   1.912   4.114
 6020SOL     OW18958   2.229   5.006   1.787
 6020SOL    HW118959   2.281   5.089   1.804
 6020SOL    HW218960   2.291   4.928   1.784
 6021SOL     OW18961   4.311   1.204   2.170
 6021SOL    HW118962   4.376   1.255   2.226
 6021SOL    HW218963   4.323   1.106   2.185
 6022SOL     OW18964   4.476   1.722   5.069
 6022SOL    HW118965   4.473   1.679   4.979
 6022SOL    HW218966   4.553   1.785   5.074
 6023SOL     OW18967   5.794   1.096   1.897
 6023SOL    HW118968   5.873   1.140   1.940
 6023SOL    HW218969   5.825   1.040   1.820
 6024SOL     OW18970   0.629   4.415   3.167
 6024SOL    HW118971   0.585   4.461   3.090
 6024SOL    HW218972   0.672   4.483   3.227
 6025SOL     OW18973   3.688   1.604   2.510
 6025SOL    HW118974   3.689   1.700   2.482
 6025SOL    HW218975   3.778   1.579   2.546
 6026SOL     OW18976   7.010   4.387   4.501
 6026SOL    HW118977   0.075   4.431   4.480
 6026SOL    HW218978   6.939   4.457   4.509
 6027SOL     OW18979   1.226   3.569   6.305
 6027SOL    HW118980   1.192   3.659   6.276
 6027SOL    HW218981   1.209   3.502   6.232
 6028SOL     OW18982   0.854   4.346   0.429
 6028SOL    HW118983   0.772   4.401   0.447
 6028SOL    HW218984   0.839   4.290   0.347
 6029SOL     OW18985   2.038   6.531   5.114
 6029SOL    HW118986   2.074   6.492   5.030
 6029SOL    HW218987   2.112   6.544   5.180
 6030SOL     OW18988   4.198   6.433   3.088
 6030SOL    HW118989   4.216   6.423   2.990
 6030SOL    HW218990   4.238   6.519   3.121
 6031SOL     OW18991   3.633   4.938   3.293
 6031SOL    HW118992   3.674   4.895   3.373
 6031SOL    HW218993   3.684   4.910   3.211
 6032SOL     OW18994   2.166   3.958   3.191
 6032SOL    HW118995   2.165   3.904   3.276
 6032SOL    HW218996   2.137   3.900   3.115
 6033SOL     OW18997   3.003   1.685   2.066
 6033SOL    HW118998   3.081   1.623   2.069
 6033SOL    HW218999   2.919   1.633   2.054
 6034SOL     OW19000   1.587   5.739   4.681
 6034SOL    HW119001   1.650   5.749   4.758
 6034SOL    HW219002   1.627   5.677   4.613
 6035SOL     OW19003   0.369   0.491   2.721
 6035SOL    HW119004   0.295   0.424   2.722
 6035SOL    HW219005   0.353   0.556   2.647
 6036SOL     OW19006   6.278   6.270   4.202
 6036SOL    HW119007   6.281   6.280   4.301
 6036SOL    HW219008   6.207   6.203   4.177
 6037SOL     OW19009   4.184   4.941   5.802
 6037SOL    HW119010   4.238   5.020   5.831
 6037SOL    HW219011   4.114   4.970   5.738
 6038SOL     OW19012   1.206   2.946   6.286
 6038SOL    HW119013   1.281   2.890   6.252
 6038SOL    HW219014   1.216   3.040   6.252
 6039SOL     OW19015   3.314   2.896   2.661
 6039SOL    HW119016   3.320   2.993   2.637
 6039SOL    HW219017   3.303   2.842   2.578
 6040SOL     OW19018   0.524   2.017   6.489
 6040SOL    HW119019   0.470   2.053   6.565
 6040SOL    HW219020   0.588   1.948   6.523
 6041SOL     OW19021   2.253   0.386   4.943
 6041SOL    HW119022   2.288   0.459   5.002
 6041SOL    HW219023   2.264   0.413   4.847
 6042SOL     OW19024   5.147   5.790   2.451
 6042SOL    HW119025   5.184   5.883   2.460
 6042SOL    HW219026   5.108   5.778   2.360
 6043SOL     OW19027   0.928   4.531   5.350
 6043SOL    HW119028   0.999   4.576   5.404
 6043SOL    HW219029   0.968   4.454   5.299
 6044SOL     OW19030   1.792   1.984   1.303
 6044SOL    HW119031   1.881   1.953   1.336
 6044SOL    HW219032   1.788   2.084   1.305
 6045SOL     OW19033   6.495   5.212   1.029
 6045SOL    HW119034   6.494   5.113   1.012
 6045SOL    HW219035   6.427   5.256   0.971
 6046SOL     OW19036   3.211   1.928   0.212
 6046SOL    HW119037   3.192   2.025   0.223
 6046SOL    HW219038   3.293   1.916   0.156
 6047SOL     OW19039   6.003   2.322   2.126
 6047SOL    HW119040   6.080   2.384   2.138
 6047SOL    HW219041   6.035   2.238   2.080
 6048SOL     OW19042   4.503   6.399   3.897
 6048SOL    HW119043   4.574   6.423   3.831
 6048SOL    HW219044   4.544   6.375   3.985
 6049SOL     OW19045   6.139   3.430   5.713
 6049SOL    HW119046   6.098   3.499   5.771
 6049SOL    HW219047   6.103   3.438   5.620
 6050SOL     OW19048   2.892   5.033   5.306
 6050SOL    HW119049   2.897   5.126   5.269
 6050SOL    HW219050   2.836   4.976   5.246
 6051SOL     OW19051   2.055   1.623   4.365
 6051SOL    HW119052   2.126   1.658   4.427
 6051SOL    HW219053   2.073   1.657   4.272
 6052SOL     OW19054   6.376   6.451   0.402
 6052SOL    HW119055   6.409   6.506   0.325
 6052SOL    HW219056   6.276   6.451   0.402
 6053SOL     OW19057   2.740   0.846   6.288
 6053SOL    HW119058   2.732   0.933   6.239
 6053SOL    HW219059   2.826   0.802   6.263
 6054SOL     OW19060   2.527   3.734   0.721
 6054SOL    HW119061   2.624   3.753   0.732
 6054SOL    HW219062   2.473   3.810   0.759
 6055SOL     OW19063   5.216   1.335   5.977
 6055SOL    HW119064   5.288   1.386   6.023
 6055SOL    HW219065   5.139   1.322   6.040
 6056SOL     OW19066   5.146   2.873   4.371
 6056SOL    HW119067   5.129   2.859   4.469
 6056SOL    HW219068   5.108   2.961   4.343
 6057SOL     OW19069   5.412   2.776   4.433
 6057SOL    HW119070   5.398   2.678   4.416
 6057SOL    HW219071   5.329   2.826   4.405
 6058SOL     OW19072   5.082   2.817   1.668
 6058SOL    HW119073   5.110   2.760   1.745
 6058SOL    HW219074   5.002   2.871   1.693
 6059SOL     OW19075   4.747   5.507   4.824
 6059SOL    HW119076   4.758   5.419   4.777
 6059SOL    HW219077   4.649   5.528   4.831
 6060SOL     OW19078   3.084   4.112   6.493
 6060SOL    HW119079   3.176   4.142   6.519
 6060SOL    HW219080   3.016   4.159   6.550
 6061SOL     OW19081   4.080   2.096   1.258
 6061SOL    HW119082   4.115   2.170   1.201
 6061SOL    HW219083   4.149   2.024   1.264
 6062SOL     OW19084   1.541   1.394   5.071
 6062SOL    HW119085   1.549   1.295   5.083
 6062SOL    HW219086   1.603   1.424   4.999
 6063SOL     OW19087   3.355   1.389   6.570
 6063SOL    HW119088   3.272   1.350   6.529
 6063SOL    HW219089   3.331   1.436   6.655
 6064SOL     OW19090   2.549   5.955   1.741
 6064SOL    HW119091   2.591   5.875   1.784
 6064SOL    HW219092   2.548   5.943   1.641
 6065SOL     OW19093   5.805   7.012   1.845
 6065SOL    HW119094   5.783   0.085   1.826
 6065SOL    HW219095   5.884   7.008   1.906
 6066SOL     OW19096   4.467   1.935   6.610
 6066SOL    HW119097   4.555   1.976   6.583
 6066SOL    HW219098   4.478   1.888   6.698
 6067SOL     OW19099   5.435   1.446   6.097
 6067SOL    HW119100   5.513   1.507   6.086
 6067SOL    HW219101   5.418   1.430   6.194
 6068SOL     OW19102   5.719   2.568   4.550
 6068SOL    HW119103   5.784   2.556   4.624
 6068SOL    HW219104   5.658   2.645   4.570
 6069SOL     OW19105   6.997   3.380   5.102
 6069SOL    HW119106   6.976   3.298   5.048
 6069SOL    HW219107   6.938   3.455   5.072
 6070SOL     OW19108   2.656   2.075   6.410
 6070SOL    HW119109   2.729   2.008   6.422
 6070SOL    HW219110   2.570   2.037   6.445
 6071SOL     OW19111   5.679   4.898   4.514
 6071SOL    HW119112   5.643   4.865   4.601
 6071SOL    HW219113   5.732   4.826   4.470
 6072SOL     OW19114   0.116   0.363   2.436
 6072SOL    HW119115   0.132   0.422   2.357
 6072SOL    HW219116   0.043   0.298   2.414
 6073SOL     OW19117   6.231   4.283   0.202
 6073SOL    HW119118   6.272   4.314   0.116
 6073SOL    HW219119   6.225   4.360   0.265
 6074SOL     OW19120   1.108   6.541   4.410
 6074SOL    HW119121   1.144   6.529   4.503
 6074SOL    HW219122   1.155   6.616   4.365
 6075SOL     OW19123   6.902   2.080   6.865
 6075SOL    HW119124   6.945   1.991   6.877
 6075SOL    HW219125   6.822   2.070   6.806
 6076SOL     OW19126   2.306   5.865   4.216
 6076SOL    HW119127   2.237   5.929   4.248
 6076SOL    HW219128   2.305   5.784   4.274
 6077SOL     OW19129   4.764   5.780   2.195
 6077SOL    HW119130   4.720   5.860   2.155
 6077SOL    HW219131   4.720   5.697   2.162
 6078SOL     OW19132   3.978   4.774   1.758
 6078SOL    HW119133   4.031   4.715   1.697
 6078SOL    HW219134   3.886   4.786   1.720
 6079SOL     OW19135   3.300   2.826   6.164
 6079SOL    HW119136   3.246   2.910   6.163
 6079SOL    HW219137   3.270   2.768   6.241
 6080SOL     OW19138   6.917   0.997   1.660
 6080SOL    HW119139   6.862   0.920   1.628
 6080SOL    HW219140   6.864   1.052   1.724
 6081SOL     OW19141   6.329   3.123   5.076
 6081SOL    HW119142   6.428   3.134   5.083
 6081SOL    HW219143   6.300   3.046   5.133
 6082SOL     OW19144   2.476   1.609   3.066
 6082SOL    HW119145   2.488   1.521   3.111
 6082SOL    HW219146   2.561   1.661   3.072
 6083SOL     OW19147   0.573   5.160   6.600
 6083SOL    HW119148   0.548   5.255   6.582
 6083SOL    HW219149   0.627   5.124   6.523
 6084SOL     OW19150   0.167   5.534   3.643
 6084SOL    HW119151   0.146   5.437   3.634
 6084SOL    HW219152   0.266   5.547   3.642
 6085SOL     OW19153   0.513   4.169   0.447
 6085SOL    HW119154   0.480   4.082   0.410
 6085SOL    HW219155   0.589   4.153   0.509
 6086SOL     OW19156   3.013   1.373   5.311
 6086SOL    HW119157   2.940   1.441   5.321
 6086SOL    HW219158   3.100   1.420   5.301
 6087SOL     OW19159   4.260   5.532   0.353
 6087SOL    HW119160   4.338   5.471   0.363
 6087SOL    HW219161   4.269   5.585   0.270
 6088SOL     OW19162   5.930   6.417   4.972
 6088SOL    HW119163   5.895   6.325   4.951
 6088SOL    HW219164   6.030   6.417   4.962
 6089SOL     OW19165   6.932   3.208   1.304
 6089SOL    HW119166   6.883   3.284   1.262
 6089SOL    HW219167   6.894   3.190   1.395
 6090SOL     OW19168   1.937   6.483   5.671
 6090SOL    HW119169   1.931   6.572   5.625
 6090SOL    HW219170   1.913   6.495   5.767
 6091SOL     OW19171   2.108   1.836   2.009
 6091SOL    HW119172   2.079   1.918   2.058
 6091SOL    HW219173   2.033   1.770   2.006
 6092SOL     OW19174   2.884   0.535   3.315
 6092SOL    HW119175   2.953   0.608   3.312
 6092SOL    HW219176   2.834   0.540   3.401
 6093SOL     OW19177   0.802   2.802   2.864
 6093SOL    HW119178   0.790   2.895   2.829
 6093SOL    HW219179   0.776   2.737   2.792
 6094SOL     OW19180   4.238   1.075   1.644
 6094SOL    HW119181   4.271   1.141   1.577
 6094SOL    HW219182   4.160   1.025   1.607
 6095SOL     OW19183   4.263   3.972   7.018
 6095SOL    HW119184   4.268   4.028   0.077
 6095SOL    HW219185   4.270   3.875   0.020
 6096SOL     OW19186   5.921   0.563   4.349
 6096SOL    HW119187   5.990   0.603   4.289
 6096SOL    HW219188   5.910   0.619   4.430
 6097SOL     OW19189   1.838   0.246   2.254
 6097SOL    HW119190   1.931   0.282   2.253
 6097SOL    HW219191   1.840   0.149   2.281
 6098SOL     OW19192   1.514   2.093   6.664
 6098SOL    HW119193   1.571   2.175   6.667
 6098SOL    HW219194   1.434   2.105   6.723
 6099SOL     OW19195   0.334   6.140   0.537
 6099SOL    HW119196   0.264   6.187   0.484
 6099SOL    HW219197   0.424   6.181   0.518
 6100SOL     OW19198   4.789   3.286   0.269
 6100SOL    HW119199   4.854   3.211   0.282
 6100SOL    HW219200   4.833   3.373   0.291
 6101SOL     OW19201   6.425   2.054   4.997
 6101SOL    HW119202   6.378   1.988   5.055
 6101SOL    HW219203   6.359   2.100   4.938
 6102SOL     OW19204   3.635   0.650   3.774
 6102SOL    HW119205   3.539   0.658   3.748
 6102SOL    HW219206   3.665   0.555   3.763
 6103SOL     OW19207   0.652   2.309   2.426
 6103SOL    HW119208   0.738   2.360   2.423
 6103SOL    HW219209   0.577   2.371   2.449
 6104SOL     OW19210   6.110   1.764   5.725
 6104SOL    HW119211   6.011   1.775   5.719
 6104SOL    HW219212   6.135   1.734   5.817
 6105SOL     OW19213   1.922   0.527   5.531
 6105SOL    HW119214   1.996   0.521   5.598
 6105SOL    HW219215   1.887   0.621   5.530
 6106SOL     OW19216   1.420   3.989   5.889
 6106SOL    HW119217   1.519   3.998   5.899
 6106SOL    HW219218   1.376   4.007   5.977
 6107SOL     OW19219   2.746   4.677   4.023
 6107SOL    HW119220   2.814   4.744   3.995
 6107SOL    HW219221   2.775   4.634   4.108
 6108SOL     OW19222   0.864   2.866   2.255
 6108SOL    HW119223   0.817   2.787   2.215
 6108SOL    HW219224   0.864   2.941   2.189
 6109SOL     OW19225   4.927   3.021   6.215
 6109SOL    HW119226   4.838   3.046   6.253
 6109SOL    HW219227   4.974   3.103   6.182
 6110SOL     OW19228   3.687   2.486   0.094
 6110SOL    HW119229   3.668   2.442   0.182
 6110SOL    HW219230   3.748   2.564   0.109
 6111SOL     OW19231   2.235   4.268   2.227
 6111SOL    HW119232   2.280   4.287   2.314
 6111SOL    HW219233   2.162   4.201   2.242
 6112SOL     OW19234   3.337   0.527   3.698
 6112SOL    HW119235   3.348   0.464   3.621
 6112SOL    HW219236   3.274   0.600   3.673
 6113SOL     OW19237   0.743   0.903   6.030
 6113SOL    HW119238   0.787   0.817   6.056
 6113SOL    HW219239   0.774   0.976   6.091
 6114SOL     OW19240   5.106   4.811   1.018
 6114SOL    HW119241   5.204   4.813   1.040
 6114SOL    HW219242   5.062   4.893   1.054
 6115SOL     OW19243   5.505   6.792   2.990
 6115SOL    HW119244   5.441   6.801   2.914
 6115SOL    HW219245   5.531   6.883   3.023
 6116SOL     OW19246   2.632   1.171   0.212
 6116SOL    HW119247   2.671   1.260   0.189
 6116SOL    HW219248   2.703   1.101   0.208
 6117SOL     OW19249   6.598   0.676   6.103
 6117SOL    HW119250   6.591   0.718   6.194
 6117SOL    HW219251   6.680   0.709   6.057
 6118SOL     OW19252   6.784   0.534   1.367
 6118SOL    HW119253   6.811   0.533   1.271
 6118SOL    HW219254   6.799   0.444   1.408
 6119SOL     OW19255   0.557   3.575   4.880
 6119SOL    HW119256   0.544   3.648   4.813
 6119SOL    HW219257   0.624   3.604   4.948
 6120SOL     OW19258   4.163   0.054   3.745
 6120SOL    HW119259   4.200   0.134   3.697
 6120SOL    HW219260   4.104   0.002   3.683
 6121SOL     OW19261   0.209   3.243   4.720
 6121SOL    HW119262   0.117   3.205   4.726
 6121SOL    HW219263   0.272   3.187   4.774
 6122SOL     OW19264   3.666   6.889   1.685
 6122SOL    HW119265   3.627   6.963   1.738
 6122SOL    HW219266   3.639   6.898   1.589
 6123SOL     OW19267   6.867   0.169   6.599
 6123SOL    HW119268   6.961   0.198   6.620
 6123SOL    HW219269   6.826   0.130   6.681
 6124SOL     OW19270   2.162   1.036   6.763
 6124SOL    HW119271   2.215   1.119   6.782
 6124SOL    HW219272   2.127   0.998   6.849
 6125SOL     OW19273   3.037   5.585   0.198
 6125SOL    HW119274   3.133   5.599   0.172
 6125SOL    HW219275   3.032   5.512   0.267
 6126SOL     OW19276   6.919   6.602   3.901
 6126SOL    HW119277   6.955   6.525   3.953
 6126SOL    HW219278   6.823   6.586   3.880
 6127SOL     OW19279   2.822   0.163   2.332
 6127SOL    HW119280   2.816   0.263   2.332
 6127SOL    HW219281   2.913   0.135   2.364
 6128SOL     OW19282   6.117   3.671   0.480
 6128SOL    HW119283   6.178   3.637   0.552
 6128SOL    HW219284   6.155   3.647   0.390
 6129SOL     OW19285   6.239   3.791   3.219
 6129SOL    HW119286   6.235   3.824   3.314
 6129SOL    HW219287   6.328   3.748   3.204
 6130SOL     OW19288   6.227   2.181   3.863
 6130SOL    HW119289   6.279   2.235   3.929
 6130SOL    HW219290   6.291   2.128   3.806
 6131SOL     OW19291   6.661   1.489   5.154
 6131SOL    HW119292   6.761   1.491   5.161
 6131SOL    HW219293   6.629   1.394   5.150
 6132SOL     OW19294   5.110   1.417   0.467
 6132SOL    HW119295   5.134   1.379   0.557
 6132SOL    HW219296   5.170   1.379   0.397
 6133SOL     OW19297   0.882   2.310   2.796
 6133SOL    HW119298   0.933   2.225   2.800
 6133SOL    HW219299   0.942   2.386   2.821
 6134SOL     OW19300   3.940   4.364   6.906
 6134SOL    HW119301   3.954   4.278   6.954
 6134SOL    HW219302   4.024   4.419   6.912
 6135SOL     OW19303   0.333   6.974   1.691
 6135SOL    HW119304   0.412   7.017   1.736
 6135SOL    HW219305   0.296   0.014   1.622
 6136SOL     OW19306   1.103   2.632   1.791
 6136SOL    HW119307   1.061   2.561   1.734
 6136SOL    HW219308   1.134   2.590   1.877
 6137SOL     OW19309   5.632   2.001   4.282
 6137SOL    HW119310   5.722   2.030   4.315
 6137SOL    HW219311   5.627   2.012   4.183
 6138SOL     OW19312   4.306   6.165   2.143
 6138SOL    HW119313   4.302   6.216   2.229
 6138SOL    HW219314   4.325   6.228   2.068
 6139SOL     OW19315   2.107   2.410   5.415
 6139SOL    HW119316   2.098   2.509   5.410
 6139SOL    HW219317   2.017   2.368   5.413
 6140SOL     OW19318   0.203   6.007   1.908
 6140SOL    HW119319   0.117   5.976   1.867
 6140SOL    HW219320   0.253   6.065   1.843
 6141SOL     OW19321   6.099   5.889   6.229
 6141SOL    HW119322   6.054   5.972   6.261
 6141SOL    HW219323   6.142   5.842   6.307
 6142SOL     OW19324   6.837   5.229   1.000
 6142SOL    HW119325   6.807   5.297   0.932
 6142SOL    HW219326   6.770   5.155   1.004
 6143SOL     OW19327   6.343   5.107   0.376
 6143SOL    HW119328   6.247   5.097   0.400
 6143SOL    HW219329   6.400   5.084   0.455
 6144SOL     OW19330   6.167   4.862   2.662
 6144SOL    HW119331   6.202   4.853   2.569
 6144SOL    HW219332   6.179   4.956   2.693
 6145SOL     OW19333   4.843   5.602   4.355
 6145SOL    HW119334   4.911   5.589   4.427
 6145SOL    HW219335   4.852   5.694   4.316
 6146SOL     OW19336   3.786   1.214   3.392
 6146SOL    HW119337   3.686   1.219   3.403
 6146SOL    HW219338   3.818   1.124   3.421
 6147SOL     OW19339   1.663   4.039   3.860
 6147SOL    HW119340   1.644   3.941   3.858
 6147SOL    HW219341   1.746   4.057   3.807
 6148SOL     OW19342   0.165   0.206   4.722
 6148SOL    HW119343   0.124   0.281   4.773
 6148SOL    HW219344   0.146   0.218   4.624
 6149SOL     OW19345   3.557   5.145   2.107
 6149SOL    HW119346   3.542   5.129   2.010
 6149SOL    HW219347   3.533   5.240   2.129
 6150SOL     OW19348   3.719   4.636   6.509
 6150SOL    HW119349   3.648   4.706   6.506
 6150SOL    HW219350   3.722   4.597   6.601
 6151SOL     OW19351   6.029   3.642   5.247
 6151SOL    HW119352   6.090   3.652   5.326
 6151SOL    HW219353   6.025   3.729   5.197
 6152SOL     OW19354   5.800   5.787   5.407
 6152SOL    HW119355   5.776   5.746   5.495
 6152SOL    HW219356   5.877   5.737   5.367
 6153SOL     OW19357   4.654   3.497   1.653
 6153SOL    HW119358   4.556   3.480   1.665
 6153SOL    HW219359   4.672   3.595   1.663
 6154SOL     OW19360   5.791   1.478   2.756
 6154SOL    HW119361   5.824   1.563   2.716
 6154SOL    HW219362   5.734   1.498   2.836
 6155SOL     OW19363   1.923   2.086   4.559
 6155SOL    HW119364   1.973   2.007   4.595
 6155SOL    HW219365   1.846   2.054   4.504
 6156SOL     OW19366   4.750   4.922   2.541
 6156SOL    HW119367   4.725   5.003   2.594
 6156SOL    HW219368   4.688   4.847   2.563
 6157SOL     OW19369   1.410   1.644   4.512
 6157SOL    HW119370   1.353   1.725   4.524
 6157SOL    HW219371   1.364   1.580   4.451
 6158SOL     OW19372   4.144   1.002   5.808
 6158SOL    HW119373   4.189   0.915   5.788
 6158SOL    HW219374   4.157   1.065   5.731
 6159SOL     OW19375   4.790   2.348   1.533
 6159SOL    HW119376   4.697   2.310   1.537
 6159SOL    HW219377   4.786   2.447   1.541
 6160SOL     OW19378   4.661   6.625   6.739
 6160SOL    HW119379   4.663   6.677   6.654
 6160SOL    HW219380   4.752   6.627   6.782
 6161SOL     OW19381   6.331   1.901   5.216
 6161SOL    HW119382   6.396   1.842   5.264
 6161SOL    HW219383   6.241   1.895   5.259
 6162SOL     OW19384   1.139   6.076   3.497
 6162SOL    HW119385   1.041   6.094   3.505
 6162SOL    HW219386   1.188   6.162   3.483
 6163SOL     OW19387   5.379   6.008   1.483
 6163SOL    HW119388   5.331   5.954   1.414
 6163SOL    HW219389   5.375   5.961   1.571
 6164SOL     OW19390   2.838   3.026   1.584
 6164SOL    HW119391   2.785   2.999   1.503
 6164SOL    HW219392   2.935   3.020   1.564
 6165SOL     OW19393   4.768   0.170   6.525
 6165SOL    HW119394   4.832   0.154   6.451
 6165SOL    HW219395   4.717   0.085   6.544
 6166SOL     OW19396   3.854   0.722   6.001
 6166SOL    HW119397   3.951   0.741   6.013
 6166SOL    HW219398   3.808   0.728   6.090
 6167SOL     OW19399   1.070   4.209   2.797
 6167SOL    HW119400   1.092   4.231   2.892
 6167SOL    HW219401   1.016   4.125   2.794
 6168SOL     OW19402   0.625   3.355   1.118
 6168SOL    HW119403   0.558   3.396   1.180
 6168SOL    HW219404   0.688   3.426   1.085
 6169SOL     OW19405   1.464   3.198   1.723
 6169SOL    HW119406   1.555   3.157   1.714
 6169SOL    HW219407   1.396   3.125   1.733
 6170SOL     OW19408   0.849   3.929   5.561
 6170SOL    HW119409   0.894   3.953   5.475
 6170SOL    HW219410   0.783   4.000   5.585
 6171SOL     OW19411   0.672   2.502   0.382
 6171SOL    HW119412   0.720   2.560   0.448
 6171SOL    HW219413   0.713   2.515   0.291
 6172SOL     OW19414   1.385   3.179   2.621
 6172SOL    HW119415   1.403   3.277   2.609
 6172SOL    HW219416   1.288   3.166   2.641
 6173SOL     OW19417   6.630   5.031   2.736
 6173SOL    HW119418   6.572   5.068   2.809
 6173SOL    HW219419   6.706   5.093   2.720
 6174SOL     OW19420   5.402   5.951   3.773
 6174SOL    HW119421   5.418   6.006   3.855
 6174SOL    HW219422   5.304   5.931   3.765
 6175SOL     OW19423   4.234   0.370   3.880
 6175SOL    HW119424   4.185   0.442   3.930
 6175SOL    HW219425   4.190   0.282   3.896
 6176SOL     OW19426   5.390   3.936   6.000
 6176SOL    HW119427   5.384   3.977   6.091
 6176SOL    HW219428   5.472   3.880   5.993
 6177SOL     OW19429   5.765   1.768   1.823
 6177SOL    HW119430   5.832   1.791   1.752
 6177SOL    HW219431   5.803   1.698   1.884
 6178SOL     OW19432   5.257   4.633   2.323
 6178SOL    HW119433   5.238   4.537   2.303
 6178SOL    HW219434   5.345   4.641   2.369
 6179SOL     OW19435   6.742   4.446   2.706
 6179SOL    HW119436   6.774   4.532   2.746
 6179SOL    HW219437   6.753   4.450   2.607
 6180SOL     OW19438   2.355   4.744   1.162
 6180SOL    HW119439   2.378   4.819   1.224
 6180SOL    HW219440   2.257   4.745   1.142
 6181SOL     OW19441   5.224   6.729   6.153
 6181SOL    HW119442   5.182   6.817   6.131
 6181SOL    HW219443   5.265   6.734   6.245
 6182SOL     OW19444   4.362   3.186   6.347
 6182SOL    HW119445   4.385   3.145   6.259
 6182SOL    HW219446   4.353   3.285   6.336
 6183SOL     OW19447   1.662   2.330   2.503
 6183SOL    HW119448   1.652   2.334   2.404
 6183SOL    HW219449   1.741   2.273   2.527
 6184SOL     OW19450   3.126   6.669   6.197
 6184SOL    HW119451   3.121   6.573   6.169
 6184SOL    HW219452   3.125   6.675   6.297
 6185SOL     OW19453   0.686   3.978   6.085
 6185SOL    HW119454   0.688   4.076   6.108
 6185SOL    HW219455   0.607   3.935   6.130
 6186SOL     OW19456   6.062   0.974   0.866
 6186SOL    HW119457   6.006   1.026   0.802
 6186SOL    HW219458   6.004   0.925   0.930
 6187SOL     OW19459   4.761   2.818   4.098
 6187SOL    HW119460   4.781   2.916   4.089
 6187SOL    HW219461   4.757   2.793   4.195
 6188SOL     OW19462   1.437   1.597   6.082
 6188SOL    HW119463   1.428   1.548   5.996
 6188SOL    HW219464   1.430   1.533   6.159
 6189SOL     OW19465   4.066   4.803   3.283
 6189SOL    HW119466   4.119   4.873   3.330
 6189SOL    HW219467   4.126   4.729   3.255
 6190SOL     OW19468   7.011   3.740   5.270
 6190SOL    HW119469   7.009   3.815   5.205
 6190SOL    HW219470   0.080   3.700   5.273
 6191SOL     OW19471   3.041   2.982   6.169
 6191SOL    HW119472   2.974   2.956   6.099
 6191SOL    HW219473   3.052   3.081   6.169
 6192SOL     OW19474   2.874   1.917   6.413
 6192SOL    HW119475   2.830   1.833   6.380
 6192SOL    HW219476   2.950   1.892   6.473
 6193SOL     OW19477   4.469   5.924   1.493
 6193SOL    HW119478   4.465   5.844   1.434
 6193SOL    HW219479   4.528   5.993   1.451
 6194SOL     OW19480   6.606   0.177   6.470
 6194SOL    HW119481   6.700   0.167   6.505
 6194SOL    HW219482   6.569   0.087   6.448
 6195SOL     OW19483   5.102   6.180   3.985
 6195SOL    HW119484   5.195   6.144   3.974
 6195SOL    HW219485   5.106   6.271   4.026
 6196SOL     OW19486   4.861   3.928   2.449
 6196SOL    HW119487   4.946   3.948   2.497
 6196SOL    HW219488   4.875   3.852   2.385
 6197SOL     OW19489   2.344   5.268   1.789
 6197SOL    HW119490   2.399   5.291   1.868
 6197SOL    HW219491   2.253   5.311   1.797
 6198SOL     OW19492   4.363   6.625   1.308
 6198SOL    HW119493   4.292   6.690   1.282
 6198SOL    HW219494   4.438   6.673   1.354
 6199SOL     OW19495   0.562   1.059   0.336
 6199SOL    HW119496   0.477   1.108   0.354
 6199SOL    HW219497   0.597   1.083   0.246
 6200SOL     OW19498   0.835   2.009   4.961
 6200SOL    HW119499   0.810   1.912   4.966
 6200SOL    HW219500   0.921   2.019   4.911
 6201SOL     OW19501   0.690   3.400   5.086
 6201SOL    HW119502   0.779   3.413   5.042
 6201SOL    HW219503   0.653   3.488   5.117
 6202SOL     OW19504   5.577   1.132   2.197
 6202SOL    HW119505   5.581   1.129   2.297
 6202SOL    HW219506   5.647   1.194   2.163
 6203SOL     OW19507   5.431   5.691   2.010
 6203SOL    HW119508   5.409   5.754   2.084
 6203SOL    HW219509   5.527   5.702   1.984
 6204SOL     OW19510   0.978   5.788   4.962
 6204SOL    HW119511   0.981   5.845   4.880
 6204SOL    HW219512   0.886   5.752   4.974
 6205SOL     OW19513   6.260   4.751   1.102
 6205SOL    HW119514   6.247   4.837   1.152
 6205SOL    HW219515   6.223   4.675   1.155
 6206SOL     OW19516   5.848   1.375   2.324
 6206SOL    HW119517   5.789   1.455   2.307
 6206SOL    HW219518   5.890   1.345   2.239
 6207SOL     OW19519   2.204   6.577   5.337
 6207SOL    HW119520   2.199   6.670   5.303
 6207SOL    HW219521   2.223   6.578   5.436
 6208SOL     OW19522   3.544   2.378   5.752
 6208SOL    HW119523   3.619   2.332   5.704
 6208SOL    HW219524   3.541   2.474   5.725
 6209SOL     OW19525   3.333   5.547   0.131
 6209SOL    HW119526   3.378   5.458   0.140
 6209SOL    HW219527   3.348   5.582   0.038
 6210SOL     OW19528   4.897   3.884   3.043
 6210SOL    HW119529   4.886   3.786   3.027
 6210SOL    HW219530   4.867   3.935   2.963
 6211SOL     OW19531   3.358   6.639   5.703
 6211SOL    HW119532   3.379   6.580   5.625
 6211SOL    HW219533   3.270   6.685   5.687
 6212SOL     OW19534   2.357   4.879   4.180
 6212SOL    HW119535   2.427   4.824   4.225
 6212SOL    HW219536   2.378   4.976   4.191
 6213SOL     OW19537   4.349   6.576   0.116
 6213SOL    HW119538   4.410   6.606   0.043
 6213SOL    HW219539   4.331   6.653   0.178
 6214SOL     OW19540   5.776   6.061   5.465
 6214SOL    HW119541   5.682   6.092   5.479
 6214SOL    HW219542   5.775   5.974   5.415
 6215SOL     OW19543   3.427   2.799   6.849
 6215SOL    HW119544   3.332   2.819   6.869
 6215SOL    HW219545   3.432   2.733   6.774
 6216SOL     OW19546   6.233   1.922   2.236
 6216SOL    HW119547   6.137   1.899   2.257
 6216SOL    HW219548   6.247   1.919   2.137
 6217SOL     OW19549   0.721   4.190   3.022
 6217SOL    HW119550   0.742   4.271   3.077
 6217SOL    HW219551   0.629   4.199   2.983
 6218SOL     OW19552   3.759   0.084   0.101
 6218SOL    HW119553   3.710   0.021   0.040
 6218SOL    HW219554   3.834   0.128   0.050
 6219SOL     OW19555   1.357   0.976   4.957
 6219SOL    HW119556   1.265   0.942   4.935
 6219SOL    HW219557   1.386   0.938   5.045
 6220SOL     OW19558   3.357   1.355   5.577
 6220SOL    HW119559   3.317   1.270   5.611
 6220SOL    HW219560   3.357   1.424   5.649
 6221SOL     OW19561   6.486   6.694   0.266
 6221SOL    HW119562   6.451   6.786   0.251
 6221SOL    HW219563   6.548   6.694   0.345
 6222SOL     OW19564   0.697   0.501   2.449
 6222SOL    HW119565   0.706   0.560   2.529
 6222SOL    HW219566   0.740   0.412   2.468
 6223SOL     OW19567   1.564   5.530   3.389
 6223SOL    HW119568   1.558   5.623   3.426
 6223SOL    HW219569   1.645   5.522   3.331
 6224SOL     OW19570   3.582   1.330   5.956
 6224SOL    HW119571   3.525   1.360   6.033
 6224SOL    HW219572   3.606   1.409   5.900
 6225SOL     OW19573   3.998   2.749   6.416
 6225SOL    HW119574   3.980   2.730   6.319
 6225SOL    HW219575   4.087   2.794   6.424
 6226SOL     OW19576   1.171   1.491   3.898
 6226SOL    HW119577   1.146   1.528   3.808
 6226SOL    HW219578   1.175   1.391   3.893
 6227SOL     OW19579   3.329   5.301   5.309
 6227SOL    HW119580   3.343   5.230   5.377
 6227SOL    HW219581   3.233   5.330   5.311
 6228SOL     OW19582   0.621   2.282   2.718
 6228SOL    HW119583   0.625   2.292   2.619
 6228SOL    HW219584   0.704   2.320   2.759
 6229SOL     OW19585   0.892   3.101   4.823
 6229SOL    HW119586   0.922   3.186   4.779
 6229SOL    HW219587   0.970   3.055   4.865
 6230SOL     OW19588   1.023   2.376   3.429
 6230SOL    HW119589   1.009   2.368   3.330
 6230SOL    HW219590   1.121   2.379   3.448
 6231SOL     OW19591   5.741   5.434   0.358
 6231SOL    HW119592   5.661   5.376   0.342
 6231SOL    HW219593   5.720   5.528   0.332
 6232SOL     OW19594   6.401   1.360   0.518
 6232SOL    HW119595   6.417   1.267   0.486
 6232SOL    HW219596   6.320   1.398   0.474
 6233SOL     OW19597   6.309   2.979   1.931
 6233SOL    HW119598   6.359   3.056   1.973
 6233SOL    HW219599   6.318   2.984   1.832
 6234SOL     OW19600   6.923   0.059   5.342
 6234SOL    HW119601   6.869   0.144   5.334
 6234SOL    HW219602   6.861   7.003   5.339
 6235SOL     OW19603   0.232   0.579   1.767
 6235SOL    HW119604   0.313   0.522   1.752
 6235SOL    HW219605   0.200   0.566   1.861
 6236SOL     OW19606   6.843   5.050   0.697
 6236SOL    HW119607   6.815   5.066   0.792
 6236SOL    HW219608   6.765   5.066   0.636
 6237SOL     OW19609   3.580   0.339   6.842
 6237SOL    HW119610   3.667   0.317   6.798
 6237SOL    HW219611   3.583   0.313   6.938
 6238SOL     OW19612   4.683   6.698   3.549
 6238SOL    HW119613   4.758   6.671   3.489
 6238SOL    HW219614   4.709   6.780   3.600
 6239SOL     OW19615   3.802   0.837   1.136
 6239SOL    HW119616   3.847   0.816   1.049
 6239SOL    HW219617   3.751   0.923   1.126
 6240SOL     OW19618   3.371   3.665   5.468
 6240SOL    HW119619   3.412   3.609   5.395
 6240SOL    HW219620   3.427   3.746   5.484
 6241SOL     OW19621   4.200   0.589   3.462
 6241SOL    HW119622   4.261   0.654   3.506
 6241SOL    HW219623   4.249   0.539   3.390
 6242SOL     OW19624   2.945   0.457   3.045
 6242SOL    HW119625   2.941   0.457   3.145
 6242SOL    HW219626   2.980   0.545   3.013
 6243SOL     OW19627   6.561   0.330   5.850
 6243SOL    HW119628   6.497   0.254   5.857
 6243SOL    HW219629   6.580   0.349   5.753
 6244SOL     OW19630   4.965   3.563   3.477
 6244SOL    HW119631   5.025   3.576   3.399
 6244SOL    HW219632   4.984   3.475   3.520
 6245SOL     OW19633   0.782   4.282   2.144
 6245SOL    HW119634   0.778   4.217   2.220
 6245SOL    HW219635   0.876   4.291   2.112
 6246SOL     OW19636   0.608   0.873   4.870
 6246SOL    HW119637   0.645   0.964   4.887
 6246SOL    HW219638   0.683   0.811   4.848
 6247SOL     OW19639   1.597   6.486   3.446
 6247SOL    HW119640   1.649   6.542   3.511
 6247SOL    HW219641   1.648   6.478   3.361
 6248SOL     OW19642   3.356   4.080   0.281
 6248SOL    HW119643   3.310   4.168   0.291
 6248SOL    HW219644   3.455   4.093   0.294
 6249SOL     OW19645   6.854   2.638   0.789
 6249SOL    HW119646   6.809   2.598   0.710
 6249SOL    HW219647   6.816   2.729   0.806
 6250SOL     OW19648   6.665   6.694   0.792
 6250SOL    HW119649   6.760   6.665   0.777
 6250SOL    HW219650   6.654   6.725   0.887
 6251SOL     OW19651   3.708   6.027   4.653
 6251SOL    HW119652   3.738   6.013   4.559
 6251SOL    HW219653   3.782   6.000   4.715
 6252SOL     OW19654   2.499   4.462   6.963
 6252SOL    HW119655   2.453   4.548   6.939
 6252SOL    HW219656   2.598   4.478   6.967
 6253SOL     OW19657   2.237   5.107   4.688
 6253SOL    HW119658   2.286   5.187   4.721
 6253SOL    HW219659   2.215   5.120   4.591
 6254SOL     OW19660   6.887   0.096   0.826
 6254SOL    HW119661   6.916   0.080   0.920
 6254SOL    HW219662   6.925   0.026   0.766
 6255SOL     OW19663   2.458   1.849   0.601
 6255SOL    HW119664   2.367   1.846   0.643
 6255SOL    HW219665   2.451   1.882   0.506
 6256SOL     OW19666   4.278   4.824   2.546
 6256SOL    HW119667   4.287   4.812   2.447
 6256SOL    HW219668   4.292   4.736   2.592
 6257SOL     OW19669   3.697   2.916   0.267
 6257SOL    HW119670   3.692   2.916   0.367
 6257SOL    HW219671   3.739   3.001   0.236
 6258SOL     OW19672   3.485   6.745   4.851
 6258SOL    HW119673   3.539   6.828   4.843
 6258SOL    HW219674   3.541   6.665   4.826
 6259SOL     OW19675   1.916   0.828   6.386
 6259SOL    HW119676   2.004   0.799   6.348
 6259SOL    HW219677   1.861   0.869   6.314
 6260SOL     OW19678   3.410   0.241   0.610
 6260SOL    HW119679   3.344   0.180   0.655
 6260SOL    HW219680   3.378   0.336   0.616
 6261SOL     OW19681   4.333   6.477   0.787
 6261SOL    HW119682   4.352   6.489   0.884
 6261SOL    HW219683   4.389   6.402   0.751
 6262SOL     OW19684   1.778   5.931   2.089
 6262SOL    HW119685   1.737   5.965   2.174
 6262SOL    HW219686   1.711   5.875   2.040
 6263SOL     OW19687   0.789   6.412   5.325
 6263SOL    HW119688   0.726   6.346   5.367
 6263SOL    HW219689   0.882   6.375   5.326
 6264SOL     OW19690   1.655   0.170   1.544
 6264SOL    HW119691   1.594   0.187   1.467
 6264SOL    HW219692   1.733   0.116   1.514
 6265SOL     OW19693   4.244   3.200   1.038
 6265SOL    HW119694   4.224   3.109   1.002
 6265SOL    HW219695   4.281   3.257   0.964
 6266SOL     OW19696   4.283   6.674   3.185
 6266SOL    HW119697   4.374   6.646   3.215
 6266SOL    HW219698   4.292   6.739   3.109
 6267SOL     OW19699   1.638   0.032   4.407
 6267SOL    HW119700   1.648   0.124   4.368
 6267SOL    HW219701   1.702   0.020   4.483
 6268SOL     OW19702   2.905   0.832   1.740
 6268SOL    HW119703   2.937   0.749   1.786
 6268SOL    HW219704   2.877   0.900   1.808
 6269SOL     OW19705   5.882   0.022   1.458
 6269SOL    HW119706   5.902   0.120   1.452
 6269SOL    HW219707   5.804   0.001   1.398
 6270SOL     OW19708   0.643   6.910   6.951
 6270SOL    HW119709   0.599   6.958   0.005
 6270SOL    HW219710   0.710   6.845   6.986
 6271SOL     OW19711   6.633   2.690   6.554
 6271SOL    HW119712   6.653   2.781   6.591
 6271SOL    HW219713   6.557   2.696   6.490
 6272SOL     OW19714   0.827   1.385   0.388
 6272SOL    HW119715   0.877   1.468   0.412
 6272SOL    HW219716   0.885   1.325   0.334
 6273SOL     OW19717   0.411   5.252   3.227
 6273SOL    HW119718   0.413   5.311   3.146
 6273SOL    HW219719   0.330   5.272   3.282
 6274SOL     OW19720   3.242   0.109   4.758
 6274SOL    HW119721   3.216   0.179   4.824
 6274SOL    HW219722   3.217   0.019   4.794
 6275SOL     OW19723   2.554   5.776   0.547
 6275SOL    HW119724   2.464   5.819   0.533
 6275SOL    HW219725   2.606   5.782   0.462
 6276SOL     OW19726   3.412   5.418   3.482
 6276SOL    HW119727   3.355   5.458   3.553
 6276SOL    HW219728   3.477   5.486   3.449
 6277SOL     OW19729   4.923   2.075   0.956
 6277SOL    HW119730   4.900   2.024   1.039
 6277SOL    HW219731   4.848   2.137   0.933
 6278SOL     OW19732   4.382   0.769   5.216
 6278SOL    HW119733   4.331   0.684   5.206
 6278SOL    HW219734   4.392   0.791   5.313
 6279SOL     OW19735   3.991   5.914   0.634
 6279SOL    HW119736   4.069   5.854   0.647
 6279SOL    HW219737   4.011   6.005   0.671
 6280SOL     OW19738   6.860   1.298   6.540
 6280SOL    HW119739   6.861   1.214   6.595
 6280SOL    HW219740   6.865   1.274   6.443
 6281SOL     OW19741   6.748   4.445   3.935
 6281SOL    HW119742   6.727   4.509   3.862
 6281SOL    HW219743   6.663   4.410   3.974
 6282SOL     OW19744   6.005   2.820   5.148
 6282SOL    HW119745   5.985   2.894   5.212
 6282SOL    HW219746   5.960   2.839   5.061
 6283SOL     OW19747   1.188   4.182   4.084
 6283SOL    HW119748   1.139   4.256   4.130
 6283SOL    HW219749   1.204   4.108   4.149
 6284SOL     OW19750   1.502   5.649   6.460
 6284SOL    HW119751   1.475   5.646   6.363
 6284SOL    HW219752   1.558   5.569   6.481
 6285SOL     OW19753   1.468   3.231   3.623
 6285SOL    HW119754   1.489   3.284   3.705
 6285SOL    HW219755   1.545   3.234   3.559
 6286SOL     OW19756   0.177   3.544   4.282
 6286SOL    HW119757   0.121   3.620   4.315
 6286SOL    HW219758   0.135   3.457   4.309
 6287SOL     OW19759   4.179   4.924   5.450
 6287SOL    HW119760   4.135   4.850   5.400
 6287SOL    HW219761   4.128   5.009   5.435
 6288SOL     OW19762   5.096   4.745   1.743
 6288SOL    HW119763   5.190   4.778   1.737
 6288SOL    HW219764   5.049   4.761   1.657
 6289SOL     OW19765   2.625   4.585   6.583
 6289SOL    HW119766   2.588   4.499   6.617
 6289SOL    HW219767   2.551   4.641   6.546
 6290SOL     OW19768   5.848   5.214   6.529
 6290SOL    HW119769   5.756   5.215   6.492
 6290SOL    HW219770   5.887   5.305   6.524
 6291SOL     OW19771   3.609   3.731   3.529
 6291SOL    HW119772   3.634   3.702   3.622
 6291SOL    HW219773   3.588   3.650   3.474
 6292SOL     OW19774   2.513   1.800   4.950
 6292SOL    HW119775   2.447   1.875   4.947
 6292SOL    HW219776   2.596   1.830   4.995
 6293SOL     OW19777   4.584   1.844   0.575
 6293SOL    HW119778   4.641   1.815   0.653
 6293SOL    HW219779   4.488   1.821   0.594
 6294SOL     OW19780   4.329   0.111   2.984
 6294SOL    HW119781   4.344   0.143   3.077
 6294SOL    HW219782   4.232   0.120   2.961
 6295SOL     OW19783   5.157   4.807   4.898
 6295SOL    HW119784   5.088   4.741   4.927
 6295SOL    HW219785   5.183   4.865   4.975
 6296SOL     OW19786   0.377   4.410   5.645
 6296SOL    HW119787   0.459   4.437   5.595
 6296SOL    HW219788   0.398   4.333   5.705
 6297SOL     OW19789   5.903   0.148   5.791
 6297SOL    HW119790   5.968   0.176   5.862
 6297SOL    HW219791   5.940   0.170   5.701
 6298SOL     OW19792   6.621   4.240   6.451
 6298SOL    HW119793   6.686   4.255   6.377
 6298SOL    HW219794   6.532   4.277   6.424
 6299SOL     OW19795   6.200   2.664   1.613
 6299SOL    HW119796   6.237   2.757   1.617
 6299SOL    HW219797   6.177   2.641   1.519
 6300SOL     OW19798   5.555   0.365   6.379
 6300SOL    HW119799   5.536   0.367   6.477
 6300SOL    HW219800   5.647   0.328   6.364
 6301SOL     OW19801   3.393   6.495   6.363
 6301SOL    HW119802   3.364   6.587   6.390
 6301SOL    HW219803   3.430   6.497   6.270
 6302SOL     OW19804   2.226   1.214   5.615
 6302SOL    HW119805   2.181   1.293   5.657
 6302SOL    HW219806   2.269   1.241   5.529
 6303SOL     OW19807   0.458   6.375   5.895
 6303SOL    HW119808   0.450   6.275   5.894
 6303SOL    HW219809   0.494   6.405   5.984
 6304SOL     OW19810   4.021   1.610   3.461
 6304SOL    HW119811   4.051   1.514   3.464
 6304SOL    HW219812   4.046   1.655   3.547
 6305SOL     OW19813   6.089   6.017   0.528
 6305SOL    HW119814   6.134   5.948   0.470
 6305SOL    HW219815   6.157   6.063   0.584
 6306SOL     OW19816   0.335   3.587   4.043
 6306SOL    HW119817   0.372   3.677   4.020
 6306SOL    HW219818   0.257   3.598   4.105
 6307SOL     OW19819   3.308   3.031   4.238
 6307SOL    HW119820   3.282   3.112   4.186
 6307SOL    HW219821   3.372   2.976   4.183
 6308SOL     OW19822   0.907   2.248   5.746
 6308SOL    HW119823   0.981   2.225   5.809
 6308SOL    HW219824   0.922   2.201   5.659
 6309SOL     OW19825   0.139   0.507   4.158
 6309SOL    HW119826   0.064   0.464   4.107
 6309SOL    HW219827   0.180   0.579   4.103
 6310SOL     OW19828   2.196   6.372   2.731
 6310SOL    HW119829   2.163   6.425   2.809
 6310SOL    HW219830   2.296   6.365   2.735
 6311SOL     OW19831   4.784   1.694   6.352
 6311SOL    HW119832   4.875   1.654   6.345
 6311SOL    HW219833   4.739   1.690   6.262
 6312SOL     OW19834   1.124   6.816   6.373
 6312SOL    HW119835   1.178   6.894   6.341
 6312SOL    HW219836   1.028   6.843   6.380
 6313SOL     OW19837   6.051   6.834   2.904
 6313SOL    HW119838   6.121   6.874   2.963
 6313SOL    HW219839   6.032   6.740   2.932
 6314SOL     OW19840   3.406   0.370   2.169
 6314SOL    HW119841   3.460   0.376   2.253
 6314SOL    HW219842   3.327   0.311   2.185
 6315SOL     OW19843   2.317   1.470   4.587
 6315SOL    HW119844   2.243   1.419   4.629
 6315SOL    HW219845   2.322   1.448   4.489
 6316SOL     OW19846   4.954   1.941   5.298
 6316SOL    HW119847   5.034   1.883   5.284
 6316SOL    HW219848   4.979   2.037   5.283
 6317SOL     OW19849   4.980   3.643   2.401
 6317SOL    HW119850   4.923   3.578   2.353
 6317SOL    HW219851   5.040   3.690   2.336
 6318SOL     OW19852   4.630   6.946   6.612
 6318SOL    HW119853   4.722   6.915   6.638
 6318SOL    HW219854   4.586   6.876   6.556
 6319SOL     OW19855   6.892   2.067   4.948
 6319SOL    HW119856   6.848   2.096   4.863
 6319SOL    HW219857   6.871   1.971   4.965
 6320SOL     OW19858   6.871   6.701   4.536
 6320SOL    HW119859   6.849   6.741   4.447
 6320SOL    HW219860   6.815   6.619   4.550
 6321SOL     OW19861   4.725   3.036   0.426
 6321SOL    HW119862   4.651   3.000   0.482
 6321SOL    HW219863   4.688   3.065   0.338
 6322SOL     OW19864   3.303   1.790   0.495
 6322SOL    HW119865   3.207   1.820   0.496
 6322SOL    HW219866   3.340   1.793   0.587
 6323SOL     OW19867   1.340   1.826   1.495
 6323SOL    HW119868   1.376   1.915   1.522
 6323SOL    HW219869   1.414   1.759   1.498
 6324SOL     OW19870   4.206   1.755   0.892
 6324SOL    HW119871   4.107   1.761   0.906
 6324SOL    HW219872   4.230   1.792   0.803
 6325SOL     OW19873   2.264   2.715   3.178
 6325SOL    HW119874   2.264   2.789   3.245
 6325SOL    HW219875   2.352   2.669   3.179
 6326SOL     OW19876   5.325   5.476   6.115
 6326SOL    HW119877   5.248   5.414   6.132
 6326SOL    HW219878   5.324   5.506   6.020
 6327SOL     OW19879   0.173   1.693   3.951
 6327SOL    HW119880   0.165   1.774   3.894
 6327SOL    HW219881   0.085   1.675   3.997
 6328SOL     OW19882   4.289   3.622   6.853
 6328SOL    HW119883   4.277   3.634   6.951
 6328SOL    HW219884   4.229   3.685   6.804
 6329SOL     OW19885   0.982   3.326   5.405
 6329SOL    HW119886   1.056   3.261   5.423
 6329SOL    HW219887   0.975   3.391   5.480
 6330SOL     OW19888   5.747   6.649   1.677
 6330SOL    HW119889   5.703   6.721   1.731
 6330SOL    HW219890   5.719   6.657   1.581
 6331SOL     OW19891   6.381   3.196   4.740
 6331SOL    HW119892   6.433   3.257   4.800
 6331SOL    HW219893   6.409   3.211   4.645
 6332SOL     OW19894   0.820   2.748   1.158
 6332SOL    HW119895   0.808   2.783   1.251
 6332SOL    HW219896   0.910   2.775   1.124
 6333SOL     OW19897   4.591   0.160   5.940
 6333SOL    HW119898   4.634   0.216   6.011
 6333SOL    HW219899   4.659   0.138   5.870
 6334SOL     OW19900   3.068   1.236   1.868
 6334SOL    HW119901   3.070   1.329   1.904
 6334SOL    HW219902   3.139   1.181   1.915
 6335SOL     OW19903   4.822   1.026   0.068
 6335SOL    HW119904   4.918   1.019   0.098
 6335SOL    HW219905   4.795   0.940   0.025
 6336SOL     OW19906   0.272   3.574   6.244
 6336SOL    HW119907   0.228   3.639   6.307
 6336SOL    HW219908   0.234   3.483   6.259
 6337SOL     OW19909   3.834   5.781   4.805
 6337SOL    HW119910   3.889   5.724   4.866
 6337SOL    HW219911   3.793   5.723   4.734
 6338SOL     OW19912   3.292   2.023   4.614
 6338SOL    HW119913   3.226   2.068   4.675
 6338SOL    HW219914   3.385   2.048   4.640
 6339SOL     OW19915   1.067   3.817   3.785
 6339SOL    HW119916   1.122   3.759   3.724
 6339SOL    HW219917   1.113   3.905   3.797
 6340SOL     OW19918   2.244   3.716   1.074
 6340SOL    HW119919   2.152   3.746   1.097
 6340SOL    HW219920   2.248   3.617   1.072
 6341SOL     OW19921   0.670   3.769   3.518
 6341SOL    HW119922   0.733   3.845   3.508
 6341SOL    HW219923   0.673   3.712   3.435
 6342SOL     OW19924   3.596   1.558   0.737
 6342SOL    HW119925   3.690   1.529   0.756
 6342SOL    HW219926   3.550   1.487   0.684
 6343SOL     OW19927   4.171   6.953   6.751
 6343SOL    HW119928   4.116   6.892   6.807
 6343SOL    HW219929   4.262   6.963   6.792
 6344SOL     OW19930   5.666   2.018   3.779
 6344SOL    HW119931   5.739   1.959   3.744
 6344SOL    HW219932   5.606   1.964   3.837
 6345SOL     OW19933   4.568   2.816   1.682
 6345SOL    HW119934   4.469   2.814   1.668
 6345SOL    HW219935   4.589   2.876   1.759
 6346SOL     OW19936   6.895   4.856   4.855
 6346SOL    HW119937   6.812   4.806   4.880
 6346SOL    HW219938   6.954   4.864   4.935
 6347SOL     OW19939   1.957   1.470   0.920
 6347SOL    HW119940   1.940   1.439   0.827
 6347SOL    HW219941   1.902   1.552   0.939
 6348SOL     OW19942   1.036   2.662   5.913
 6348SOL    HW119943   0.966   2.727   5.883
 6348SOL    HW219944   1.063   2.604   5.837
 6349SOL     OW19945   1.650   0.834   0.645
 6349SOL    HW119946   1.572   0.812   0.704
 6349SOL    HW219947   1.676   0.752   0.593
 6350SOL     OW19948   0.982   5.107   3.395
 6350SOL    HW119949   1.049   5.040   3.426
 6350SOL    HW219950   0.945   5.079   3.307
 6351SOL     OW19951   6.646   3.692   3.730
 6351SOL    HW119952   6.581   3.617   3.739
 6351SOL    HW219953   6.698   3.682   3.645
 6352SOL     OW19954   2.383   0.297   4.454
 6352SOL    HW119955   2.392   0.394   4.433
 6352SOL    HW219956   2.458   0.268   4.513
 6353SOL     OW19957   2.080   6.106   6.978
 6353SOL    HW119958   2.050   6.013   6.996
 6353SOL    HW219959   2.180   6.108   6.971
 6354SOL     OW19960   3.640   5.996   3.316
 6354SOL    HW119961   3.637   6.096   3.325
 6354SOL    HW219962   3.728   5.968   3.278
 6355SOL     OW19963   2.780   5.915   0.031
 6355SOL    HW119964   2.838   5.926   0.112
 6355SOL    HW219965   2.781   5.819   0.002
 6356SOL     OW19966   5.510   5.288   0.328
 6356SOL    HW119967   5.491   5.194   0.300
 6356SOL    HW219968   5.424   5.339   0.335
 6357SOL     OW19969   6.172   2.823   2.125
 6357SOL    HW119970   6.222   2.888   2.067
 6357SOL    HW219971   6.079   2.811   2.089
 6358SOL     OW19972   0.320   1.781   6.819
 6358SOL    HW119973   0.345   1.754   6.726
 6358SOL    HW219974   0.376   1.859   6.847
 6359SOL     OW19975   6.172   6.355   0.724
 6359SOL    HW119976   6.079   6.366   0.689
 6359SOL    HW219977   6.204   6.443   0.759
 6360SOL     OW19978   0.523   3.512   4.240
 6360SOL    HW119979   0.438   3.537   4.196
 6360SOL    HW219980   0.512   3.517   4.339
 6361SOL     OW19981   1.059   0.835   1.004
 6361SOL    HW119982   1.141   0.822   0.948
 6361SOL    HW219983   0.983   0.782   0.965
 6362SOL     OW19984   1.847   6.085   6.832
 6362SOL    HW119985   1.921   6.096   6.899
 6362SOL    HW219986   1.885   6.054   6.745
 6363SOL     OW19987   3.250   5.259   4.430
 6363SOL    HW119988   3.206   5.212   4.506
 6363SOL    HW219989   3.242   5.203   4.348
 6364SOL     OW19990   2.674   2.662   5.466
 6364SOL    HW119991   2.663   2.756   5.434
 6364SOL    HW219992   2.705   2.605   5.390
 6365SOL     OW19993   5.744   6.198   4.677
 6365SOL    HW119994   5.836   6.190   4.639
 6365SOL    HW219995   5.749   6.196   4.777
 6366SOL     OW19996   0.536   6.164   4.933
 6366SOL    HW119997   0.567   6.103   4.860
 6366SOL    HW219998   0.449   6.205   4.908
 6367SOL     OW19999   3.078   2.074   2.683
 6367SOL    HW120000   3.099   2.150   2.622
 6367SOL    HW220001   3.090   1.988   2.634
 6368SOL     OW20002   4.212   4.839   4.343
 6368SOL    HW120003   4.126   4.852   4.294
 6368SOL    HW220004   4.196   4.777   4.421
 6369SOL     OW20005   1.916   0.159   4.272
 6369SOL    HW120006   1.970   0.135   4.353
 6369SOL    HW220007   1.831   0.205   4.300
 6370SOL     OW20008   5.531   3.923   3.522
 6370SOL    HW120009   5.556   3.953   3.614
 6370SOL    HW220010   5.436   3.891   3.522
 6371SOL     OW20011   5.389   4.042   2.173
 6371SOL    HW120012   5.299   4.069   2.206
 6371SOL    HW220013   5.449   4.021   2.250
 6372SOL     OW20014   1.095   1.883   2.099
 6372SOL    HW120015   1.141   1.819   2.038
 6372SOL    HW220016   1.156   1.910   2.173
 6373SOL     OW20017   5.715   4.414   2.544
 6373SOL    HW120018   5.776   4.452   2.474
 6373SOL    HW220019   5.733   4.459   2.632
 6374SOL     OW20020   4.721   3.377   0.898
 6374SOL    HW120021   4.642   3.403   0.842
 6374SOL    HW220022   4.770   3.301   0.853
 6375SOL     OW20023   0.779   2.279   1.574
 6375SOL    HW120024   0.829   2.337   1.638
 6375SOL    HW220025   0.801   2.306   1.480
 6376SOL     OW20026   3.848   1.395   5.877
 6376SOL    HW120027   3.817   1.316   5.930
 6376SOL    HW220028   3.892   1.364   5.793
 6377SOL     OW20029   0.010   1.469   5.471
 6377SOL    HW120030   0.056   1.425   5.548
 6377SOL    HW220031   6.955   1.523   5.505
 6378SOL     OW20032   5.222   5.527   3.214
 6378SOL    HW120033   5.315   5.560   3.204
 6378SOL    HW220034   5.187   5.497   3.125
 6379SOL     OW20035   0.563   5.105   5.579
 6379SOL    HW120036   0.583   5.127   5.675
 6379SOL    HW220037   0.523   5.013   5.574
 6380SOL     OW20038   0.075   2.659   4.156
 6380SOL    HW120039   0.139   2.584   4.175
 6380SOL    HW220040   0.001   2.625   4.097
 6381SOL     OW20041   4.251   2.613   0.484
 6381SOL    HW120042   4.348   2.603   0.460
 6381SOL    HW220043   4.226   2.542   0.550
 6382SOL     OW20044   3.252   1.530   1.118
 6382SOL    HW120045   3.222   1.465   1.187
 6382SOL    HW220046   3.179   1.546   1.052
 6383SOL     OW20047   2.034   2.526   2.190
 6383SOL    HW120048   1.946   2.483   2.211
 6383SOL    HW220049   2.097   2.458   2.153
 6384SOL     OW20050   5.946   3.306   2.148
 6384SOL    HW120051   5.946   3.403   2.173
 6384SOL    HW220052   5.912   3.252   2.226
 6385SOL     OW20053   6.767   4.162   1.873
 6385SOL    HW120054   6.708   4.081   1.867
 6385SOL    HW220055   6.851   4.145   1.821
 6386SOL     OW20056   1.741   3.674   6.916
 6386SOL    HW120057   1.783   3.585   6.933
 6386SOL    HW220058   1.812   3.741   6.895
 6387SOL     OW20059   6.128   1.283   0.337
 6387SOL    HW120060   6.054   1.224   0.306
 6387SOL    HW220061   6.098   1.337   0.415
 6388SOL     OW20062   5.961   5.190   2.078
 6388SOL    HW120063   5.864   5.182   2.099
 6388SOL    HW220064   5.998   5.273   2.119
 6389SOL     OW20065   1.066   6.993   1.278
 6389SOL    HW120066   1.023   0.061   1.288
 6389SOL    HW220067   1.020   6.928   1.338
 6390SOL     OW20068   6.372   0.125   5.873
 6390SOL    HW120069   6.306   0.125   5.798
 6390SOL    HW220070   6.410   0.033   5.883
 6391SOL     OW20071   1.330   1.001   5.861
 6391SOL    HW120072   1.313   1.028   5.956
 6391SOL    HW220073   1.261   0.936   5.831
 6392SOL     OW20074   2.942   5.986   3.442
 6392SOL    HW120075   2.962   6.070   3.493
 6392SOL    HW220076   3.021   5.925   3.445
 6393SOL     OW20077   5.871   5.914   1.802
 6393SOL    HW120078   5.865   6.013   1.803
 6393SOL    HW220079   5.947   5.884   1.860
 6394SOL     OW20080   1.934   5.035   1.063
 6394SOL    HW120081   1.963   5.059   0.970
 6394SOL    HW220082   1.999   4.970   1.102
 6395SOL     OW20083   6.906   2.993   1.964
 6395SOL    HW120084   6.858   3.074   1.999
 6395SOL    HW220085   6.849   2.948   1.895
 6396SOL     OW20086   6.350   4.175   5.650
 6396SOL    HW120087   6.296   4.247   5.693
 6396SOL    HW220088   6.447   4.198   5.655
 6397SOL     OW20089   6.511   1.448   2.284
 6397SOL    HW120090   6.574   1.387   2.236
 6397SOL    HW220091   6.549   1.540   2.287
 6398SOL     OW20092   1.998   6.950   2.121
 6398SOL    HW120093   1.923   6.915   2.065
 6398SOL    HW220094   2.077   6.889   2.114
 6399SOL     OW20095   1.570   0.147   6.838
 6399SOL    HW120096   1.470   0.151   6.846
 6399SOL    HW220097   1.597   0.070   6.780
 6400SOL     OW20098   2.037   4.970   2.550
 6400SOL    HW120099   2.018   5.011   2.639
 6400SOL    HW220100   1.960   4.988   2.488
 6401SOL     OW20101   5.433   5.171   3.248
 6401SOL    HW120102   5.477   5.234   3.184
 6401SOL    HW220103   5.492   5.092   3.264
 6402SOL     OW20104   1.992   3.130   3.944
 6402SOL    HW120105   1.958   3.043   3.909
 6402SOL    HW220106   2.054   3.114   4.021
 6403SOL     OW20107   6.317   6.050   6.357
 6403SOL    HW120108   6.415   6.036   6.373
 6403SOL    HW220109   6.305   6.104   6.273
 6404SOL     OW20110   3.956   1.533   2.575
 6404SOL    HW120111   3.971   1.626   2.608
 6404SOL    HW220112   4.001   1.468   2.637
 6405SOL     OW20113   4.263   1.269   4.315
 6405SOL    HW120114   4.196   1.195   4.324
 6405SOL    HW220115   4.345   1.234   4.270
 6406SOL     OW20116   1.675   3.053   2.011
 6406SOL    HW120117   1.637   3.139   2.044
 6406SOL    HW220118   1.692   3.059   1.912
 6407SOL     OW20119   2.289   0.149   3.403
 6407SOL    HW120120   2.286   0.078   3.332
 6407SOL    HW220121   2.354   0.220   3.376
 6408SOL     OW20122   5.736   0.324   0.508
 6408SOL    HW120123   5.835   0.335   0.498
 6408SOL    HW220124   5.712   0.328   0.605
 6409SOL     OW20125   0.025   4.928   2.671
 6409SOL    HW120126   7.018   5.019   2.645
 6409SOL    HW220127   0.024   4.920   2.771
 6410SOL     OW20128   2.111   1.266   6.309
 6410SOL    HW120129   2.034   1.303   6.362
 6410SOL    HW220130   2.190   1.255   6.369
 6411SOL     OW20131   1.267   2.915   2.182
 6411SOL    HW120132   1.255   2.915   2.083
 6411SOL    HW220133   1.239   2.827   2.219
 6412SOL     OW20134   2.324   0.612   6.677
 6412SOL    HW120135   2.324   0.696   6.623
 6412SOL    HW220136   2.413   0.568   6.669
 6413SOL     OW20137   3.765   4.942   4.495
 6413SOL    HW120138   3.756   4.895   4.582
 6413SOL    HW220139   3.677   4.983   4.470
 6414SOL     OW20140   6.352   0.017   0.002
 6414SOL    HW120141   6.314   0.019   6.933
 6414SOL    HW220142   6.441   0.064   0.003
 6415SOL     OW20143   1.723   3.361   4.191
 6415SOL    HW120144   1.746   3.264   4.187
 6415SOL    HW220145   1.654   3.375   4.262
 6416SOL     OW20146   2.664   6.976   6.519
 6416SOL    HW120147   2.582   6.932   6.482
 6416SOL    HW220148   2.743   6.918   6.500
 6417SOL     OW20149   4.869   2.792   0.500
 6417SOL    HW120150   4.869   2.770   0.597
 6417SOL    HW220151   4.849   2.890   0.488
 6418SOL     OW20152   5.078   4.355   2.789
 6418SOL    HW120153   5.060   4.291   2.863
 6418SOL    HW220154   5.052   4.447   2.818
 6419SOL     OW20155   1.111   5.106   4.325
 6419SOL    HW120156   1.119   5.077   4.230
 6419SOL    HW220157   1.157   5.040   4.384
 6420SOL     OW20158   2.044   1.281   3.953
 6420SOL    HW120159   1.970   1.321   3.898
 6420SOL    HW220160   2.105   1.229   3.893
 6421SOL     OW20161   4.431   0.669   1.221
 6421SOL    HW120162   4.466   0.691   1.312
 6421SOL    HW220163   4.355   0.604   1.230
 6422SOL     OW20164   6.620   1.859   5.100
 6422SOL    HW120165   6.553   1.800   5.145
 6422SOL    HW220166   6.572   1.925   5.042
 6423SOL     OW20167   4.509   5.749   4.610
 6423SOL    HW120168   4.594   5.721   4.654
 6423SOL    HW220169   4.516   5.735   4.512
 6424SOL     OW20170   1.725   3.813   4.977
 6424SOL    HW120171   1.743   3.720   5.007
 6424SOL    HW220172   1.772   3.831   4.891
 6425SOL     OW20173   0.168   5.608   3.087
 6425SOL    HW120174   0.186   5.689   3.031
 6425SOL    HW220175   0.079   5.570   3.063
 6426SOL     OW20176   5.692   5.320   3.830
 6426SOL    HW120177   5.790   5.304   3.845
 6426SOL    HW220178   5.668   5.411   3.862
 6427SOL     OW20179   2.924   3.776   3.346
 6427SOL    HW120180   2.866   3.777   3.428
 6427SOL    HW220181   2.952   3.870   3.325
 6428SOL     OW20182   5.223   3.466   0.355
 6428SOL    HW120183   5.254   3.468   0.260
 6428SOL    HW220184   5.213   3.371   0.384
 6429SOL     OW20185   0.713   0.618   5.864
 6429SOL    HW120186   0.792   0.668   5.829
 6429SOL    HW220187   0.745   0.540   5.918
 6430SOL     OW20188   6.544   0.745   4.557
 6430SOL    HW120189   6.464   0.703   4.602
 6430SOL    HW220190   6.554   0.708   4.465
 6431SOL     OW20191   4.716   5.629   2.938
 6431SOL    HW120192   4.781   5.697   2.972
 6431SOL    HW220193   4.763   5.565   2.877
 6432SOL     OW20194   3.480   4.446   6.176
 6432SOL    HW120195   3.550   4.474   6.242
 6432SOL    HW220196   3.512   4.464   6.083
 6433SOL     OW20197   3.170   4.997   0.225
 6433SOL    HW120198   3.140   5.090   0.204
 6433SOL    HW220199   3.151   4.937   0.147
 6434SOL     OW20200   2.608   6.719   6.028
 6434SOL    HW120201   2.668   6.729   6.107
 6434SOL    HW220202   2.653   6.756   5.947
 6435SOL     OW20203   6.218   0.166   0.923
 6435SOL    HW120204   6.194   0.263   0.925
 6435SOL    HW220205   6.311   0.155   0.888
 6436SOL     OW20206   1.182   3.672   3.570
 6436SOL    HW120207   1.198   3.574   3.576
 6436SOL    HW220208   1.145   3.695   3.479
 6437SOL     OW20209   1.495   2.560   6.746
 6437SOL    HW120210   1.571   2.555   6.680
 6437SOL    HW220211   1.427   2.490   6.723
 6438SOL     OW20212   0.924   4.894   6.237
 6438SOL    HW120213   0.836   4.852   6.217
 6438SOL    HW220214   0.987   4.879   6.161
 6439SOL     OW20215   5.292   0.903   2.732
 6439SOL    HW120216   5.235   0.956   2.668
 6439SOL    HW220217   5.240   0.823   2.763
 6440SOL     OW20218   2.691   0.369   6.025
 6440SOL    HW120219   2.775   0.416   6.054
 6440SOL    HW220220   2.677   0.383   5.927
 6441SOL     OW20221   0.815   1.026   1.503
 6441SOL    HW120222   0.803   1.084   1.422
 6441SOL    HW220223   0.768   0.939   1.490
 6442SOL     OW20224   2.828   1.742   4.650
 6442SOL    HW120225   2.891   1.704   4.582
 6442SOL    HW220226   2.734   1.719   4.624
 6443SOL     OW20227   3.660   2.325   5.993
 6443SOL    HW120228   3.625   2.240   6.032
 6443SOL    HW220229   3.615   2.342   5.905
 6444SOL     OW20230   6.218   2.535   4.472
 6444SOL    HW120231   6.201   2.618   4.525
 6444SOL    HW220232   6.232   2.458   4.535
 6445SOL     OW20233   3.867   3.311   3.298
 6445SOL    HW120234   3.767   3.312   3.309
 6445SOL    HW220235   3.906   3.238   3.354
 6446SOL     OW20236   0.283   2.129   0.207
 6446SOL    HW120237   0.371   2.084   0.191
 6446SOL    HW220238   0.209   2.072   0.170
 6447SOL     OW20239   6.135   4.357   1.615
 6447SOL    HW120240   6.168   4.431   1.673
 6447SOL    HW220241   6.203   4.337   1.544
 6448SOL     OW20242   5.039   4.696   1.452
 6448SOL    HW120243   4.971   4.746   1.399
 6448SOL    HW220244   5.117   4.675   1.394
 6449SOL     OW20245   2.876   5.216   1.839
 6449SOL    HW120246   2.825   5.153   1.781
 6449SOL    HW220247   2.932   5.164   1.904
 6450SOL     OW20248   0.828   4.179   0.131
 6450SOL    HW120249   0.754   4.116   0.105
 6450SOL    HW220250   0.904   4.126   0.168
 6451SOL     OW20251   2.710   1.454   6.110
 6451SOL    HW120252   2.750   1.420   6.195
 6451SOL    HW220253   2.674   1.378   6.056
 6452SOL     OW20254   4.700   4.229   2.495
 6452SOL    HW120255   4.670   4.271   2.409
 6452SOL    HW220256   4.707   4.130   2.484
 6453SOL     OW20257   2.383   0.095   1.380
 6453SOL    HW120258   2.366   0.181   1.429
 6453SOL    HW220259   2.354   0.106   1.285
 6454SOL     OW20260   0.653   1.471   2.787
 6454SOL    HW120261   0.561   1.433   2.778
 6454SOL    HW220262   0.680   1.470   2.884
 6455SOL     OW20263   6.564   3.003   3.473
 6455SOL    HW120264   6.627   3.004   3.551
 6455SOL    HW220265   6.585   3.081   3.413
 6456SOL     OW20266   1.612   1.039   2.824
 6456SOL    HW120267   1.691   0.985   2.854
 6456SOL    HW220268   1.616   1.053   2.725
 6457SOL     OW20269   5.162   6.524   1.439
 6457SOL    HW120270   5.088   6.553   1.499
 6457SOL    HW220271   5.206   6.443   1.477
 6458SOL     OW20272   1.531   5.126   4.984
 6458SOL    HW120273   1.523   5.042   5.038
 6458SOL    HW220274   1.628   5.150   4.975
 6459SOL     OW20275   6.267   2.742   2.641
 6459SOL    HW120276   6.354   2.790   2.645
 6459SOL    HW220277   6.247   2.716   2.546
 6460SOL     OW20278   5.708   5.662   5.992
 6460SOL    HW120279   5.804   5.692   5.995
 6460SOL    HW220280   5.656   5.708   6.063
 6461SOL     OW20281   2.727   4.174   0.311
 6461SOL    HW120282   2.775   4.091   0.283
 6461SOL    HW220283   2.771   4.254   0.271
 6462SOL     OW20284   0.488   2.913   4.618
 6462SOL    HW120285   0.530   2.904   4.528
 6462SOL    HW220286   0.442   2.827   4.642
 6463SOL     OW20287   4.926   6.700   0.916
 6463SOL    HW120288   4.955   6.697   0.820
 6463SOL    HW220289   4.998   6.662   0.974
 6464SOL     OW20290   1.840   5.789   5.119
 6464SOL    HW120291   1.814   5.880   5.152
 6464SOL    HW220292   1.846   5.726   5.196
 6465SOL     OW20293   6.854   3.210   2.559
 6465SOL    HW120294   6.939   3.256   2.534
 6465SOL    HW220295   6.846   3.125   2.507
 6466SOL     OW20296   6.594   1.932   0.063
 6466SOL    HW120297   6.531   1.926   7.008
 6466SOL    HW220298   6.611   1.841   0.100
 6467SOL     OW20299   3.937   0.251   1.002
 6467SOL    HW120300   4.013   0.203   0.958
 6467SOL    HW220301   3.964   0.281   1.093
 6468SOL     OW20302   3.366   6.612   1.822
 6468SOL    HW120303   3.355   6.702   1.865
 6468SOL    HW220304   3.359   6.540   1.891
 6469SOL     OW20305   3.683   2.112   3.690
 6469SOL    HW120306   3.608   2.063   3.733
 6469SOL    HW220307   3.660   2.209   3.684
 6470SOL     OW20308   6.186   2.772   0.497
 6470SOL    HW120309   6.118   2.708   0.533
 6470SOL    HW220310   6.166   2.864   0.531
 6471SOL     OW20311   0.793   6.362   5.656
 6471SOL    HW120312   0.829   6.454   5.669
 6471SOL    HW220313   0.794   6.314   5.745
 6472SOL     OW20314   6.457   5.624   2.770
 6472SOL    HW120315   6.448   5.717   2.735
 6472SOL    HW220316   6.378   5.602   2.827
 6473SOL     OW20317   1.735   1.747   5.553
 6473SOL    HW120318   1.678   1.741   5.471
 6473SOL    HW220319   1.830   1.724   5.529
 6474SOL     OW20320   3.811   5.399   5.892
 6474SOL    HW120321   3.820   5.457   5.973
 6474SOL    HW220322   3.723   5.417   5.848
 6475SOL     OW20323   5.943   4.462   3.958
 6475SOL    HW120324   5.951   4.536   3.891
 6475SOL    HW220325   6.033   4.441   3.995
 6476SOL     OW20326   4.510   3.089   6.561
 6476SOL    HW120327   4.486   2.995   6.586
 6476SOL    HW220328   4.445   3.124   6.494
 6477SOL     OW20329   5.874   5.267   1.067
 6477SOL    HW120330   5.943   5.195   1.071
 6477SOL    HW220331   5.888   5.331   1.142
 6478SOL     OW20332   3.481   6.778   2.431
 6478SOL    HW120333   3.545   6.735   2.366
 6478SOL    HW220334   3.532   6.836   2.494
 6479SOL     OW20335   3.606   5.229   4.623
 6479SOL    HW120336   3.663   5.254   4.545
 6479SOL    HW220337   3.558   5.310   4.657
 6480SOL     OW20338   2.119   1.504   6.596
 6480SOL    HW120339   2.056   1.461   6.531
 6480SOL    HW220340   2.096   1.473   6.688
 6481SOL     OW20341   3.377   2.601   1.663
 6481SOL    HW120342   3.350   2.507   1.684
 6481SOL    HW220343   3.475   2.612   1.682
 6482SOL     OW20344   6.576   2.548   6.776
 6482SOL    HW120345   6.561   2.605   6.696
 6482SOL    HW220346   6.499   2.559   6.840
 6483SOL     OW20347   0.502   6.571   3.897
 6483SOL    HW120348   0.421   6.519   3.869
 6483SOL    HW220349   0.501   6.583   3.996
 6484SOL     OW20350   3.203   0.968   2.408
 6484SOL    HW120351   3.108   0.975   2.440
 6484SOL    HW220352   3.241   1.060   2.395
 6485SOL     OW20353   1.990   5.861   3.728
 6485SOL    HW120354   2.024   5.853   3.822
 6485SOL    HW220355   2.046   5.927   3.678
 6486SOL     OW20356   0.809   5.550   2.419
 6486SOL    HW120357   0.733   5.511   2.471
 6486SOL    HW220358   0.781   5.565   2.324
 6487SOL     OW20359   0.909   6.620   5.666
 6487SOL    HW120360   1.006   6.641   5.657
 6487SOL    HW220361   0.858   6.672   5.598
 6488SOL     OW20362   4.044   5.785   4.593
 6488SOL    HW120363   4.126   5.843   4.595
 6488SOL    HW220364   4.001   5.786   4.683
 6489SOL     OW20365   3.322   3.165   6.347
 6489SOL    HW120366   3.387   3.206   6.284
 6489SOL    HW220367   3.238   3.219   6.349
 6490SOL     OW20368   2.842   1.123   6.241
 6490SOL    HW120369   2.933   1.105   6.204
 6490SOL    HW220370   2.842   1.211   6.288
 6491SOL     OW20371   2.940   0.748   1.478
 6491SOL    HW120372   2.931   0.789   1.569
 6491SOL    HW220373   2.980   0.657   1.486
 6492SOL     OW20374   3.776   3.228   4.898
 6492SOL    HW120375   3.810   3.143   4.856
 6492SOL    HW220376   3.805   3.306   4.844
 6493SOL     OW20377   0.984   4.310   6.437
 6493SOL    HW120378   1.055   4.359   6.489
 6493SOL    HW220379   1.014   4.298   6.342
 6494SOL     OW20380   6.818   6.477   2.596
 6494SOL    HW120381   6.905   6.485   2.548
 6494SOL    HW220382   6.823   6.528   2.682
 6495SOL     OW20383   6.653   0.982   4.471
 6495SOL    HW120384   6.569   1.027   4.441
 6495SOL    HW220385   6.631   0.894   4.513
 6496SOL     OW20386   5.753   0.269   1.818
 6496SOL    HW120387   5.657   0.294   1.805
 6496SOL    HW220388   5.808   0.352   1.824
 6497SOL     OW20389   1.493   0.591   1.179
 6497SOL    HW120390   1.466   0.522   1.245
 6497SOL    HW220391   1.412   0.638   1.144
 6498SOL     OW20392   0.752   3.923   4.516
 6498SOL    HW120393   0.838   3.873   4.506
 6498SOL    HW220394   0.692   3.874   4.580
 6499SOL     OW20395   5.753   3.866   4.614
 6499SOL    HW120396   5.794   3.948   4.576
 6499SOL    HW220397   5.729   3.882   4.710
 6500SOL     OW20398   0.168   4.096   2.686
 6500SOL    HW120399   0.139   4.177   2.738
 6500SOL    HW220400   0.229   4.040   2.743
 6501SOL     OW20401   0.337   0.979   0.968
 6501SOL    HW120402   0.295   1.040   0.901
 6501SOL    HW220403   0.392   0.910   0.920
 6502SOL     OW20404   0.288   3.494   1.677
 6502SOL    HW120405   0.341   3.517   1.759
 6502SOL    HW220406   0.256   3.577   1.633
 6503SOL     OW20407   5.700   0.921   3.825
 6503SOL    HW120408   5.653   1.009   3.835
 6503SOL    HW220409   5.791   0.927   3.865
 6504SOL     OW20410   3.489   6.283   6.521
 6504SOL    HW120411   3.456   6.372   6.488
 6504SOL    HW220412   3.411   6.221   6.531
 6505SOL     OW20413   4.595   6.354   5.862
 6505SOL    HW120414   4.568   6.377   5.956
 6505SOL    HW220415   4.629   6.260   5.860
 6506SOL     OW20416   0.096   2.625   3.476
 6506SOL    HW120417   0.063   2.543   3.524
 6506SOL    HW220418   0.090   2.610   3.377
 6507SOL     OW20419   2.713   5.824   5.792
 6507SOL    HW120420   2.616   5.810   5.808
 6507SOL    HW220421   2.748   5.750   5.734
 6508SOL     OW20422   1.835   0.513   2.717
 6508SOL    HW120423   1.881   0.447   2.777
 6508SOL    HW220424   1.880   0.514   2.628
 6509SOL     OW20425   4.762   1.719   4.835
 6509SOL    HW120426   4.826   1.784   4.792
 6509SOL    HW220427   4.679   1.714   4.780
 6510SOL     OW20428   5.185   5.045   6.694
 6510SOL    HW120429   5.271   5.018   6.738
 6510SOL    HW220430   5.173   5.144   6.704
 6511SOL     OW20431   4.886   1.423   5.278
 6511SOL    HW120432   4.967   1.375   5.312
 6511SOL    HW220433   4.843   1.369   5.206
 6512SOL     OW20434   3.209   6.712   2.515
 6512SOL    HW120435   3.163   6.672   2.436
 6512SOL    HW220436   3.295   6.754   2.485
 6513SOL     OW20437   1.543   5.982   3.930
 6513SOL    HW120438   1.520   5.979   4.027
 6513SOL    HW220439   1.545   6.077   3.898
 6514SOL     OW20440   5.878   1.332   4.526
 6514SOL    HW120441   5.936   1.307   4.604
 6514SOL    HW220442   5.935   1.371   4.454
 6515SOL     OW20443   1.456   3.669   3.000
 6515SOL    HW120444   1.504   3.581   2.998
 6515SOL    HW220445   1.378   3.663   3.061
 6516SOL     OW20446   6.689   2.859   1.295
 6516SOL    HW120447   6.697   2.921   1.373
 6516SOL    HW220448   6.729   2.903   1.214
 6517SOL     OW20449   0.165   1.932   1.092
 6517SOL    HW120450   0.133   1.851   1.140
 6517SOL    HW220451   0.087   1.992   1.073
 6518SOL     OW20452   0.375   0.519   2.078
 6518SOL    HW120453   0.395   0.551   2.171
 6518SOL    HW220454   0.448   0.547   2.016
 6519SOL     OW20455   0.282   2.012   2.847
 6519SOL    HW120456   0.354   1.961   2.894
 6519SOL    HW220457   0.212   1.948   2.813
 6520SOL     OW20458   0.400   5.671   6.798
 6520SOL    HW120459   0.360   5.592   6.752
 6520SOL    HW220460   0.411   5.746   6.732
 6521SOL     OW20461   2.198   2.615   4.189
 6521SOL    HW120462   2.100   2.599   4.182
 6521SOL    HW220463   2.227   2.601   4.283
 6522SOL     OW20464   2.447   4.492   4.757
 6522SOL    HW120465   2.485   4.506   4.666
 6522SOL    HW220466   2.356   4.450   4.749
 6523SOL     OW20467   3.659   0.583   6.486
 6523SOL    HW120468   3.627   0.674   6.458
 6523SOL    HW220469   3.614   0.556   6.571
 6524SOL     OW20470   2.969   2.741   1.368
 6524SOL    HW120471   3.006   2.650   1.354
 6524SOL    HW220472   2.872   2.734   1.395
 6525SOL     OW20473   2.024   4.870   2.925
 6525SOL    HW120474   1.934   4.848   2.963
 6525SOL    HW220475   2.083   4.789   2.931
 6526SOL     OW20476   0.915   0.204   1.263
 6526SOL    HW120477   0.836   0.185   1.322
 6526SOL    HW220478   0.916   0.301   1.240
 6527SOL     OW20479   6.853   1.980   0.149
 6527SOL    HW120480   6.900   2.052   0.099
 6527SOL    HW220481   6.755   1.981   0.126
 6528SOL     OW20482   6.488   1.663   5.294
 6528SOL    HW120483   6.545   1.595   5.250
 6528SOL    HW220484   6.470   1.636   5.389
 6529SOL     OW20485   1.340   0.274   2.483
 6529SOL    HW120486   1.357   0.176   2.475
 6529SOL    HW220487   1.427   0.323   2.488
 6530SOL     OW20488   0.427   1.731   0.990
 6530SOL    HW120489   0.409   1.824   0.957
 6530SOL    HW220490   0.444   1.734   1.089
 6531SOL     OW20491   4.886   3.402   5.258
 6531SOL    HW120492   4.917   3.336   5.190
 6531SOL    HW220493   4.805   3.450   5.224
 6532SOL     OW20494   1.604   1.393   1.300
 6532SOL    HW120495   1.641   1.439   1.220
 6532SOL    HW220496   1.567   1.461   1.363
 6533SOL     OW20497   4.201   5.713   0.535
 6533SOL    HW120498   4.196   5.791   0.473
 6533SOL    HW220499   4.200   5.628   0.482
 6534SOL     OW20500   5.198   5.131   1.620
 6534SOL    HW120501   5.102   5.157   1.614
 6534SOL    HW220502   5.225   5.124   1.716
 6535SOL     OW20503   6.198   4.656   4.238
 6535SOL    HW120504   6.124   4.709   4.196
 6535SOL    HW220505   6.250   4.713   4.301
 6536SOL     OW20506   0.196   1.630   4.953
 6536SOL    HW120507   0.101   1.604   4.968
 6536SOL    HW220508   0.206   1.729   4.964
 6537SOL     OW20509   6.616   4.504   5.383
 6537SOL    HW120510   6.560   4.557   5.447
 6537SOL    HW220511   6.711   4.536   5.388
 6538SOL     OW20512   1.549   3.506   5.982
 6538SOL    HW120513   1.488   3.435   5.946
 6538SOL    HW220514   1.632   3.510   5.927
 6539SOL     OW20515   5.283   0.317   6.782
 6539SOL    HW120516   5.252   0.301   6.875
 6539SOL    HW220517   5.306   0.413   6.770
 6540SOL     OW20518   3.573   2.886   6.226
 6540SOL    HW120519   3.576   2.805   6.285
 6540SOL    HW220520   3.489   2.885   6.172
 6541SOL     OW20521   5.425   1.844   5.792
 6541SOL    HW120522   5.349   1.898   5.757
 6541SOL    HW220523   5.418   1.750   5.760
 6542SOL     OW20524   1.176   3.255   3.941
 6542SOL    HW120525   1.076   3.251   3.953
 6542SOL    HW220526   1.220   3.202   4.013
 6543SOL     OW20527   4.417   2.529   5.758
 6543SOL    HW120528   4.336   2.502   5.706
 6543SOL    HW220529   4.421   2.478   5.844
 6544SOL     OW20530   1.289   6.696   3.323
 6544SOL    HW120531   1.195   6.663   3.337
 6544SOL    HW220532   1.336   6.636   3.258
 6545SOL     OW20533   4.538   0.627   0.214
 6545SOL    HW120534   4.615   0.583   0.169
 6545SOL    HW220535   4.452   0.593   0.175
 6546SOL     OW20536   3.120   4.069   6.219
 6546SOL    HW120537   3.142   4.157   6.177
 6546SOL    HW220538   3.105   4.081   6.317
 6547SOL     OW20539   4.959   0.539   6.721
 6547SOL    HW120540   4.950   0.444   6.749
 6547SOL    HW220541   4.960   0.598   6.802
 6548SOL     OW20542   1.165   2.865   0.743
 6548SOL    HW120543   1.255   2.843   0.705
 6548SOL    HW220544   1.164   2.961   0.771
 6549SOL     OW20545   4.287   0.509   2.264
 6549SOL    HW120546   4.233   0.520   2.180
 6549SOL    HW220547   4.234   0.457   2.331
 6550SOL     OW20548   0.376   0.013   4.157
 6550SOL    HW120549   0.409   0.012   4.063
 6550SOL    HW220550   0.452   0.034   4.218
 6551SOL     OW20551   2.066   3.592   1.897
 6551SOL    HW120552   1.971   3.562   1.895
 6551SOL    HW220553   2.124   3.517   1.931
 6552SOL     OW20554   2.309   6.622   0.148
 6552SOL    HW120555   2.265   6.692   0.205
 6552SOL    HW220556   2.245   6.593   0.076
 6553SOL     OW20557   0.594   2.643   3.210
 6553SOL    HW120558   0.573   2.545   3.212
 6553SOL    HW220559   0.516   2.694   3.247
 6554SOL     OW20560   1.692   0.295   4.351
 6554SOL    HW120561   1.669   0.379   4.301
 6554SOL    HW220562   1.689   0.312   4.449
 6555SOL     OW20563   5.797   2.086   2.996
 6555SOL    HW120564   5.868   2.102   3.065
 6555SOL    HW220565   5.733   2.162   2.997
 6556SOL     OW20566   5.969   3.622   3.159
 6556SOL    HW120567   5.918   3.536   3.172
 6556SOL    HW220568   6.065   3.607   3.180
 6557SOL     OW20569   2.551   0.848   3.503
 6557SOL    HW120570   2.486   0.918   3.476
 6557SOL    HW220571   2.624   0.889   3.559
 6558SOL     OW20572   6.058   5.529   6.892
 6558SOL    HW120573   6.045   5.583   6.809
 6558SOL    HW220574   5.980   5.467   6.904
 6559SOL     OW20575   0.102   4.465   6.672
 6559SOL    HW120576   0.070   4.487   6.579
 6559SOL    HW220577   0.028   4.420   6.723
 6560SOL     OW20578   3.829   4.513   1.507
 6560SOL    HW120579   3.800   4.550   1.419
 6560SOL    HW220580   3.750   4.504   1.568
 6561SOL     OW20581   3.354   4.223   1.338
 6561SOL    HW120582   3.432   4.197   1.281
 6561SOL    HW220583   3.269   4.202   1.289
 6562SOL     OW20584   5.443   2.120   1.073
 6562SOL    HW120585   5.457   2.066   1.157
 6562SOL    HW220586   5.429   2.216   1.097
 6563SOL     OW20587   5.314   6.247   6.146
 6563SOL    HW120588   5.260   6.330   6.132
 6563SOL    HW220589   5.411   6.269   6.141
 6564SOL     OW20590   6.601   3.947   1.937
 6564SOL    HW120591   6.560   3.857   1.922
 6564SOL    HW220592   6.672   3.940   2.007
 6565SOL     OW20593   6.319   0.544   3.182
 6565SOL    HW120594   6.416   0.541   3.205
 6565SOL    HW220595   6.282   0.451   3.179
 6566SOL     OW20596   3.714   6.420   3.066
 6566SOL    HW120597   3.742   6.390   2.975
 6566SOL    HW220598   3.615   6.436   3.067
 6567SOL     OW20599   5.060   0.725   2.140
 6567SOL    HW120600   5.140   0.679   2.101
 6567SOL    HW220601   5.079   0.823   2.148
 6568SOL     OW20602   3.636   1.755   3.739
 6568SOL    HW120603   3.595   1.831   3.689
 6568SOL    HW220604   3.687   1.697   3.676
 6569SOL     OW20605   2.769   3.030   0.171
 6569SOL    HW120606   2.674   3.051   0.150
 6569SOL    HW220607   2.774   2.981   0.258
 6570SOL     OW20608   3.563   1.042   2.078
 6570SOL    HW120609   3.658   1.052   2.109
 6570SOL    HW220610   3.562   0.999   1.988
 6571SOL     OW20611   2.971   4.936   2.495
 6571SOL    HW120612   2.909   4.897   2.562
 6571SOL    HW220613   3.025   4.863   2.452
 6572SOL     OW20614   0.180   4.453   4.030
 6572SOL    HW120615   0.163   4.363   3.991
 6572SOL    HW220616   0.096   4.489   4.070
 6573SOL     OW20617   0.552   2.143   2.252
 6573SOL    HW120618   0.618   2.078   2.213
 6573SOL    HW220619   0.600   2.203   2.316
 6574SOL     OW20620   2.567   5.785   2.880
 6574SOL    HW120621   2.570   5.689   2.853
 6574SOL    HW220622   2.541   5.841   2.801
 6575SOL     OW20623   0.780   0.061   3.924
 6575SOL    HW120624   0.816   6.993   3.901
 6575SOL    HW220625   0.846   0.108   3.983
 6576SOL     OW20626   3.142   6.277   0.651
 6576SOL    HW120627   3.112   6.181   0.648
 6576SOL    HW220628   3.063   6.336   0.666
 6577SOL     OW20629   1.182   1.811   3.462
 6577SOL    HW120630   1.264   1.827   3.407
 6577SOL    HW220631   1.131   1.897   3.472
 6578SOL     OW20632   0.817   6.166   1.925
 6578SOL    HW120633   0.775   6.170   1.834
 6578SOL    HW220634   0.905   6.214   1.923
 6579SOL     OW20635   6.606   2.604   3.691
 6579SOL    HW120636   6.587   2.547   3.771
 6579SOL    HW220637   6.700   2.638   3.696
 6580SOL     OW20638   0.799   1.995   0.719
 6580SOL    HW120639   0.715   2.046   0.736
 6580SOL    HW220640   0.839   2.023   0.632
 6581SOL     OW20641   2.791   0.664   0.678
 6581SOL    HW120642   2.735   0.688   0.757
 6581SOL    HW220643   2.761   0.716   0.598
 6582SOL     OW20644   0.251   0.976   3.382
 6582SOL    HW120645   0.263   1.027   3.297
 6582SOL    HW220646   0.164   1.002   3.425
 6583SOL     OW20647   4.765   6.384   5.374
 6583SOL    HW120648   4.764   6.311   5.305
 6583SOL    HW220649   4.686   6.374   5.434
 6584SOL     OW20650   4.159   1.567   6.965
 6584SOL    HW120651   4.159   1.490   0.006
 6584SOL    HW220652   4.250   1.577   6.924
 6585SOL     OW20653   6.281   5.896   0.363
 6585SOL    HW120654   6.324   5.868   0.277
 6585SOL    HW220655   6.352   5.929   0.426
 6586SOL     OW20656   6.305   1.549   5.890
 6586SOL    HW120657   6.376   1.505   5.945
 6586SOL    HW220658   6.239   1.479   5.860
 6587SOL     OW20659   1.188   4.720   6.597
 6587SOL    HW120660   1.249   4.770   6.659
 6587SOL    HW220661   1.109   4.686   6.648
 6588SOL     OW20662   0.749   2.840   1.425
 6588SOL    HW120663   0.723   2.794   1.510
 6588SOL    HW220664   0.834   2.891   1.438
 6589SOL     OW20665   4.486   0.377   1.908
 6589SOL    HW120666   4.584   0.393   1.919
 6589SOL    HW220667   4.437   0.464   1.917
 6590SOL     OW20668   0.135   1.085   6.369
 6590SOL    HW120669   0.166   1.128   6.453
 6590SOL    HW220670   0.094   0.996   6.389
 6591SOL     OW20671   5.146   5.873   3.820
 6591SOL    HW120672   5.137   5.776   3.796
 6591SOL    HW220673   5.093   5.928   3.756
 6592SOL     OW20674   5.590   6.556   3.122
 6592SOL    HW120675   5.684   6.556   3.155
 6592SOL    HW220676   5.574   6.637   3.066
 6593SOL     OW20677   2.588   2.428   2.497
 6593SOL    HW120678   2.641   2.375   2.563
 6593SOL    HW220679   2.619   2.408   2.404
 6594SOL     OW20680   3.489   1.343   5.111
 6594SOL    HW120681   3.582   1.325   5.079
 6594SOL    HW220682   3.446   1.412   5.053
 6595SOL     OW20683   1.040   3.924   6.447
 6595SOL    HW120684   1.127   3.943   6.493
 6595SOL    HW220685   1.058   3.889   6.355
 6596SOL     OW20686   3.607   0.273   4.443
 6596SOL    HW120687   3.537   0.269   4.372
 6596SOL    HW220688   3.577   0.221   4.523
 6597SOL     OW20689   1.724   5.144   1.737
 6597SOL    HW120690   1.823   5.145   1.752
 6597SOL    HW220691   1.682   5.073   1.794
 6598SOL     OW20692   1.831   4.777   3.675
 6598SOL    HW120693   1.904   4.778   3.607
 6598SOL    HW220694   1.856   4.835   3.752
 6599SOL     OW20695   4.218   6.319   6.315
 6599SOL    HW120696   4.183   6.325   6.222
 6599SOL    HW220697   4.315   6.342   6.316
 6600SOL     OW20698   3.633   6.493   5.234
 6600SOL    HW120699   3.730   6.515   5.228
 6600SOL    HW220700   3.581   6.553   5.173
 6601SOL     OW20701   0.830   2.541   4.372
 6601SOL    HW120702   0.834   2.520   4.275
 6601SOL    HW220703   0.736   2.562   4.398
 6602SOL     OW20704   1.790   0.283   1.206
 6602SOL    HW120705   1.879   0.237   1.199
 6602SOL    HW220706   1.785   0.333   1.292
 6603SOL     OW20707   0.963   2.770   3.518
 6603SOL    HW120708   0.963   2.753   3.617
 6603SOL    HW220709   0.897   2.709   3.474
 6604SOL     OW20710   1.624   6.621   1.465
 6604SOL    HW120711   1.720   6.596   1.452
 6604SOL    HW220712   1.615   6.680   1.546
 6605SOL     OW20713   5.384   4.951   2.068
 6605SOL    HW120714   5.482   4.947   2.087
 6605SOL    HW220715   5.343   5.023   2.124
 6606SOL     OW20716   6.817   5.502   1.962
 6606SOL    HW120717   6.886   5.573   1.974
 6606SOL    HW220718   6.861   5.413   1.957
 6607SOL     OW20719   1.184   4.539   3.371
 6607SOL    HW120720   1.161   4.448   3.407
 6607SOL    HW220721   1.196   4.603   3.447
 6608SOL     OW20722   0.133   6.401   6.694
 6608SOL    HW120723   0.135   6.424   6.791
 6608SOL    HW220724   0.082   6.315   6.682
 6609SOL     OW20725   5.631   0.672   6.911
 6609SOL    HW120726   5.635   0.576   6.939
 6609SOL    HW220727   5.535   0.701   6.905
 6610SOL     OW20728   2.826   6.537   6.906
 6610SOL    HW120729   2.890   6.491   6.844
 6610SOL    HW220730   2.876   6.566   6.988
 6611SOL     OW20731   4.748   2.922   3.268
 6611SOL    HW120732   4.826   2.973   3.232
 6611SOL    HW220733   4.777   2.866   3.346
 6612SOL     OW20734   6.756   2.411   6.505
 6612SOL    HW120735   6.828   2.425   6.573
 6612SOL    HW220736   6.695   2.491   6.504
 6613SOL     OW20737   6.673   6.579   5.473
 6613SOL    HW120738   6.650   6.604   5.378
 6613SOL    HW220739   6.677   6.480   5.482
 6614SOL     OW20740   4.389   6.310   6.881
 6614SOL    HW120741   4.462   6.378   6.871
 6614SOL    HW220742   4.389   6.249   6.801
 6615SOL     OW20743   1.306   5.838   1.295
 6615SOL    HW120744   1.358   5.833   1.380
 6615SOL    HW220745   1.318   5.753   1.243
 6616SOL     OW20746   4.382   0.329   6.891
 6616SOL    HW120747   4.409   0.415   6.848
 6616SOL    HW220748   4.464   0.277   6.916
 6617SOL     OW20749   4.219   5.735   3.528
 6617SOL    HW120750   4.222   5.823   3.480
 6617SOL    HW220751   4.188   5.750   3.622
 6618SOL     OW20752   1.973   1.759   2.637
 6618SOL    HW120753   2.001   1.723   2.549
 6618SOL    HW220754   1.885   1.719   2.663
 6619SOL     OW20755   5.621   0.014   4.357
 6619SOL    HW120756   5.656   0.040   4.267
 6619SOL    HW220757   5.560   0.086   4.391
 6620SOL     OW20758   2.236   3.290   5.277
 6620SOL    HW120759   2.325   3.267   5.315
 6620SOL    HW220760   2.179   3.333   5.347
 6621SOL     OW20761   3.674   3.201   5.704
 6621SOL    HW120762   3.663   3.103   5.688
 6621SOL    HW220763   3.703   3.216   5.799
 6622SOL     OW20764   5.684   6.128   2.356
 6622SOL    HW120765   5.678   6.180   2.441
 6622SOL    HW220766   5.593   6.093   2.332
 6623SOL     OW20767   4.157   3.060   5.342
 6623SOL    HW120768   4.060   3.075   5.323
 6623SOL    HW220769   4.181   2.966   5.321
 6624SOL     OW20770   0.595   4.504   5.512
 6624SOL    HW120771   0.623   4.587   5.464
 6624SOL    HW220772   0.670   4.473   5.571
 6625SOL     OW20773   5.571   2.008   5.062
 6625SOL    HW120774   5.594   1.960   4.978
 6625SOL    HW220775   5.548   2.103   5.042
 6626SOL     OW20776   3.024   6.867   5.653
 6626SOL    HW120777   2.958   6.902   5.719
 6626SOL    HW220778   3.112   6.913   5.667
 6627SOL     OW20779   1.752   6.633   3.612
 6627SOL    HW120780   1.812   6.556   3.635
 6627SOL    HW220781   1.801   6.698   3.554
 6628SOL     OW20782   5.869   5.121   4.494
 6628SOL    HW120783   5.797   5.052   4.487
 6628SOL    HW220784   5.880   5.148   4.590
 6629SOL     OW20785   4.459   5.733   6.449
 6629SOL    HW120786   4.455   5.829   6.477
 6629SOL    HW220787   4.389   5.716   6.380
 6630SOL     OW20788   3.551   1.707   1.386
 6630SOL    HW120789   3.492   1.647   1.441
 6630SOL    HW220790   3.542   1.801   1.419
 6631SOL     OW20791   2.107   6.155   3.836
 6631SOL    HW120792   2.161   6.082   3.793
 6631SOL    HW220793   2.045   6.194   3.769
 6632SOL     OW20794   0.889   0.625   0.898
 6632SOL    HW120795   0.987   0.636   0.883
 6632SOL    HW220796   0.854   0.551   0.840
 6633SOL     OW20797   1.948   5.232   6.097
 6633SOL    HW120798   2.016   5.240   6.023
 6633SOL    HW220799   1.858   5.214   6.058
 6634SOL     OW20800   5.595   1.510   5.525
 6634SOL    HW120801   5.518   1.574   5.524
 6634SOL    HW220802   5.623   1.494   5.620
 6635SOL     OW20803   4.974   4.566   3.934
 6635SOL    HW120804   4.944   4.482   3.980
 6635SOL    HW220805   4.895   4.626   3.920
 6636SOL     OW20806   4.829   1.539   0.127
 6636SOL    HW120807   4.734   1.569   0.111
 6636SOL    HW220808   4.891   1.592   0.069
 6637SOL     OW20809   1.581   6.860   6.977
 6637SOL    HW120810   1.602   6.887   6.882
 6637SOL    HW220811   1.579   6.760   6.983
 6638SOL     OW20812   2.999   3.672   3.053
 6638SOL    HW120813   2.960   3.748   3.002
 6638SOL    HW220814   3.032   3.705   3.142
 6639SOL     OW20815   4.364   4.515   0.071
 6639SOL    HW120816   4.425   4.438   0.054
 6639SOL    HW220817   4.285   4.510   0.010
 6640SOL     OW20818   6.629   2.228   5.257
 6640SOL    HW120819   6.654   2.256   5.164
 6640SOL    HW220820   6.688   2.152   5.286
 6641SOL     OW20821   3.309   1.517   6.812
 6641SOL    HW120822   3.227   1.526   6.869
 6641SOL    HW220823   3.391   1.525   6.869
 6642SOL     OW20824   2.601   5.993   6.318
 6642SOL    HW120825   2.639   5.941   6.242
 6642SOL    HW220826   2.527   5.941   6.360
 6643SOL     OW20827   5.408   6.071   0.060
 6643SOL    HW120828   5.317   6.101   0.030
 6643SOL    HW220829   5.410   6.069   0.160
 6644SOL     OW20830   2.314   5.893   1.208
 6644SOL    HW120831   2.257   5.973   1.228
 6644SOL    HW220832   2.270   5.811   1.245
 6645SOL     OW20833   5.227   3.885   0.980
 6645SOL    HW120834   5.185   3.947   0.914
 6645SOL    HW220835   5.156   3.835   1.030
 6646SOL     OW20836   4.803   1.297   5.058
 6646SOL    HW120837   4.862   1.219   5.078
 6646SOL    HW220838   4.830   1.337   4.970
 6647SOL     OW20839   4.359   6.919   0.134
 6647SOL    HW120840   4.274   6.966   0.109
 6647SOL    HW220841   4.437   6.974   0.104
 6648SOL     OW20842   3.310   6.719   4.570
 6648SOL    HW120843   3.366   6.659   4.513
 6648SOL    HW220844   3.339   6.711   4.666
 6649SOL     OW20845   6.071   1.657   6.068
 6649SOL    HW120846   6.007   1.622   5.999
 6649SOL    HW220847   6.046   1.751   6.091
 6650SOL     OW20848   4.071   1.609   5.506
 6650SOL    HW120849   4.050   1.581   5.412
 6650SOL    HW220850   3.986   1.624   5.556
 6651SOL     OW20851   1.620   0.917   5.883
 6651SOL    HW120852   1.661   0.925   5.974
 6651SOL    HW220853   1.524   0.942   5.888
 6652SOL     OW20854   0.233   4.586   6.886
 6652SOL    HW120855   0.254   4.679   6.858
 6652SOL    HW220856   0.188   4.538   6.811
 6653SOL     OW20857   4.006   3.272   1.224
 6653SOL    HW120858   4.030   3.209   1.151
 6653SOL    HW220859   4.081   3.277   1.290
 6654SOL     OW20860   1.480   5.393   1.546
 6654SOL    HW120861   1.554   5.455   1.521
 6654SOL    HW220862   1.393   5.443   1.549
 6655SOL     OW20863   7.009   6.475   3.185
 6655SOL    HW120864   0.081   6.476   3.154
 6655SOL    HW220865   6.983   6.382   3.211
 6656SOL     OW20866   5.756   1.998   2.462
 6656SOL    HW120867   5.803   2.085   2.442
 6656SOL    HW220868   5.799   1.925   2.409
 6657SOL     OW20869   6.234   3.691   4.958
 6657SOL    HW120870   6.330   3.666   4.970
 6657SOL    HW220871   6.186   3.619   4.907
 6658SOL     OW20872   5.295   0.874   5.083
 6658SOL    HW120873   5.229   0.812   5.125
 6658SOL    HW220874   5.305   0.956   5.140
 6659SOL     OW20875   1.955   2.904   1.618
 6659SOL    HW120876   2.038   2.881   1.669
 6659SOL    HW220877   1.966   2.994   1.576
 6660SOL     OW20878   1.373   5.034   1.470
 6660SOL    HW120879   1.364   4.941   1.505
 6660SOL    HW220880   1.287   5.084   1.485
 6661SOL     OW20881   2.425   0.427   5.364
 6661SOL    HW120882   2.454   0.341   5.322
 6661SOL    HW220883   2.501   0.466   5.416
 6662SOL     OW20884   1.441   0.984   0.403
 6662SOL    HW120885   1.370   0.949   0.463
 6662SOL    HW220886   1.479   1.068   0.443
 6663SOL     OW20887   6.780   6.433   4.687
 6663SOL    HW120888   6.877   6.409   4.682
 6663SOL    HW220889   6.727   6.372   4.627
 6664SOL     OW20890   2.115   6.966   0.748
 6664SOL    HW120891   2.118   6.977   0.649
 6664SOL    HW220892   2.034   7.012   0.785
 6665SOL     OW20893   1.787   6.551   4.685
 6665SOL    HW120894   1.766   6.503   4.770
 6665SOL    HW220895   1.796   6.649   4.703
 6666SOL     OW20896   6.666   5.880   5.642
 6666SOL    HW120897   6.658   5.915   5.735
 6666SOL    HW220898   6.633   5.785   5.639
 6667SOL     OW20899   6.993   6.558   5.361
 6667SOL    HW120900   6.959   6.466   5.340
 6667SOL    HW220901   7.008   6.608   5.276
 6668SOL     OW20902   6.432   5.865   1.104
 6668SOL    HW120903   6.365   5.925   1.060
 6668SOL    HW220904   6.477   5.914   1.179
 6669SOL     OW20905   2.687   2.199   1.974
 6669SOL    HW120906   2.775   2.234   2.006
 6669SOL    HW220907   2.618   2.271   1.981
 6670SOL     OW20908   3.189   1.048   5.355
 6670SOL    HW120909   3.202   1.144   5.379
 6670SOL    HW220910   3.098   1.035   5.316
 6671SOL     OW20911   4.350   6.970   0.397
 6671SOL    HW120912   4.270   0.007   0.391
 6671SOL    HW220913   4.374   6.937   0.306
 6672SOL     OW20914   6.560   1.702   0.553
 6672SOL    HW120915   6.488   1.722   0.620
 6672SOL    HW220916   6.612   1.623   0.584
 6673SOL     OW20917   4.933   4.324   4.070
 6673SOL    HW120918   4.840   4.342   4.102
 6673SOL    HW220919   4.929   4.262   3.991
 6674SOL     OW20920   0.078   4.162   0.213
 6674SOL    HW120921   0.079   4.189   0.309
 6674SOL    HW220922   7.008   4.136   0.186
 6675SOL     OW20923   6.027   3.138   0.103
 6675SOL    HW120924   5.959   3.085   0.154
 6675SOL    HW220925   5.992   3.157   0.011
 6676SOL     OW20926   0.378   3.944   5.151
 6676SOL    HW120927   0.430   3.988   5.079
 6676SOL    HW220928   0.403   3.984   5.240
 6677SOL     OW20929   0.705   1.298   6.341
 6677SOL    HW120930   0.742   1.351   6.264
 6677SOL    HW220931   0.621   1.340   6.373
 6678SOL     OW20932   2.993   3.919   0.647
 6678SOL    HW120933   2.963   3.886   0.557
 6678SOL    HW220934   3.093   3.929   0.647
 6679SOL     OW20935   3.573   0.227   3.864
 6679SOL    HW120936   3.524   0.140   3.865
 6679SOL    HW220937   3.572   0.264   3.771
 6680SOL     OW20938   4.483   0.148   6.320
 6680SOL    HW120939   4.448   0.146   6.414
 6680SOL    HW220940   4.562   0.209   6.315
 6681SOL     OW20941   4.523   5.874   0.502
 6681SOL    HW120942   4.519   5.781   0.539
 6681SOL    HW220943   4.445   5.889   0.441
 6682SOL     OW20944   2.180   4.991   0.074
 6682SOL    HW120945   2.186   5.091   0.078
 6682SOL    HW220946   2.257   4.952   0.123
 6683SOL     OW20947   6.069   3.185   5.505
 6683SOL    HW120948   5.983   3.164   5.551
 6683SOL    HW220949   6.146   3.151   5.559
 6684SOL     OW20950   3.893   6.334   2.670
 6684SOL    HW120951   3.943   6.247   2.676
 6684SOL    HW220952   3.821   6.325   2.601
 6685SOL     OW20953   4.339   3.459   6.430
 6685SOL    HW120954   4.371   3.447   6.524
 6685SOL    HW220955   4.326   3.557   6.411
 6686SOL     OW20956   5.218   5.839   4.119
 6686SOL    HW120957   5.181   5.748   4.136
 6686SOL    HW220958   5.179   5.876   4.034
 6687SOL     OW20959   0.885   3.317   2.223
 6687SOL    HW120960   0.906   3.222   2.198
 6687SOL    HW220961   0.808   3.319   2.287
 6688SOL     OW20962   4.619   4.690   1.528
 6688SOL    HW120963   4.674   4.615   1.564
 6688SOL    HW220964   4.607   4.760   1.598
 6689SOL     OW20965   4.650   3.966   5.735
 6689SOL    HW120966   4.683   3.902   5.804
 6689SOL    HW220967   4.591   3.918   5.670
 6690SOL     OW20968   0.628   0.227   0.444
 6690SOL    HW120969   0.549   0.172   0.418
 6690SOL    HW220970   0.670   0.188   0.526
 6691SOL     OW20971   2.019   0.262   2.667
 6691SOL    HW120972   1.951   0.314   2.614
 6691SOL    HW220973   2.023   0.168   2.633
 6692SOL     OW20974   3.857   3.842   3.392
 6692SOL    HW120975   3.897   3.917   3.444
 6692SOL    HW220976   3.768   3.818   3.429
 6693SOL     OW20977   4.331   2.244   5.336
 6693SOL    HW120978   4.365   2.176   5.271
 6693SOL    HW220979   4.317   2.200   5.425
 6694SOL     OW20980   4.064   5.800   1.326
 6694SOL    HW120981   4.112   5.839   1.406
 6694SOL    HW220982   3.998   5.867   1.292
 6695SOL     OW20983   2.789   2.596   6.409
 6695SOL    HW120984   2.699   2.589   6.451
 6695SOL    HW220985   2.806   2.691   6.383
 6696SOL     OW20986   3.768   3.033   4.238
 6696SOL    HW120987   3.713   3.116   4.242
 6696SOL    HW220988   3.799   3.008   4.330
 6697SOL     OW20989   4.800   1.451   2.888
 6697SOL    HW120990   4.851   1.534   2.866
 6697SOL    HW220991   4.750   1.421   2.807
 6698SOL     OW20992   3.104   2.578   0.834
 6698SOL    HW120993   3.060   2.642   0.898
 6698SOL    HW220994   3.181   2.534   0.880
 6699SOL     OW20995   2.362   6.238   5.390
 6699SOL    HW120996   2.335   6.188   5.472
 6699SOL    HW220997   2.459   6.222   5.373
 6700SOL     OW20998   0.321   1.512   1.339
 6700SOL    HW120999   0.260   1.481   1.267
 6700SOL    HW221000   0.379   1.586   1.305
 6701SOL     OW21001   5.912   5.030   1.833
 6701SOL    HW121002   5.922   5.037   1.932
 6701SOL    HW221003   5.823   4.991   1.812
 6702SOL     OW21004   2.017   2.173   1.076
 6702SOL    HW121005   2.113   2.147   1.086
 6702SOL    HW221006   1.961   2.091   1.068
 6703SOL     OW21007   6.660   6.964   0.786
 6703SOL    HW121008   6.654   6.864   0.791
 6703SOL    HW221009   6.744   6.995   0.830
 6704SOL     OW21010   4.173   2.271   2.904
 6704SOL    HW121011   4.094   2.226   2.943
 6704SOL    HW221012   4.167   2.269   2.804
 6705SOL     OW21013   6.174   3.116   0.593
 6705SOL    HW121014   6.115   3.040   0.621
 6705SOL    HW221015   6.208   3.100   0.501
 6706SOL     OW21016   0.777   5.617   1.141
 6706SOL    HW121017   0.772   5.553   1.064
 6706SOL    HW221018   0.869   5.656   1.146
 6707SOL     OW21019   5.803   6.919   3.448
 6707SOL    HW121020   5.838   6.832   3.484
 6707SOL    HW221021   5.829   6.927   3.352
 6708SOL     OW21022   5.456   5.427   0.800
 6708SOL    HW121023   5.435   5.402   0.895
 6708SOL    HW221024   5.553   5.412   0.783
 6709SOL     OW21025   1.436   6.129   3.161
 6709SOL    HW121026   1.368   6.201   3.176
 6709SOL    HW221027   1.485   6.147   3.076
 6710SOL     OW21028   3.575   0.828   6.169
 6710SOL    HW121029   3.603   0.896   6.101
 6710SOL    HW221030   3.651   0.810   6.232
 6711SOL     OW21031   5.380   6.967   5.722
 6711SOL    HW121032   5.467   6.931   5.688
 6711SOL    HW221033   5.305   6.917   5.680
 6712SOL     OW21034   5.360   3.358   0.911
 6712SOL    HW121035   5.451   3.400   0.911
 6712SOL    HW221036   5.334   3.335   0.817
 6713SOL     OW21037   1.774   1.018   3.086
 6713SOL    HW121038   1.727   1.107   3.083
 6713SOL    HW221039   1.818   1.001   2.998
 6714SOL     OW21040   6.426   1.572   6.751
 6714SOL    HW121041   6.446   1.529   6.664
 6714SOL    HW221042   6.420   1.671   6.739
 6715SOL     OW21043   1.480   0.500   0.851
 6715SOL    HW121044   1.486   0.479   0.753
 6715SOL    HW221045   1.566   0.475   0.896
 6716SOL     OW21046   0.304   5.685   1.915
 6716SOL    HW121047   0.354   5.601   1.892
 6716SOL    HW221048   0.291   5.740   1.833
 6717SOL     OW21049   2.920   2.829   6.334
 6717SOL    HW121050   2.963   2.852   6.422
 6717SOL    HW221051   2.970   2.875   6.260
 6718SOL     OW21052   4.929   6.993   0.893
 6718SOL    HW121053   4.890   6.902   0.881
 6718SOL    HW221054   4.859   0.032   0.929
 6719SOL     OW21055   3.188   6.692   6.902
 6719SOL    HW121056   3.148   6.782   6.891
 6719SOL    HW221057   3.186   6.643   6.814
 6720SOL     OW21058   2.184   0.561   3.221
 6720SOL    HW121059   2.173   0.625   3.296
 6720SOL    HW221060   2.196   0.611   3.135
 6721SOL     OW21061   0.049   6.430   0.021
 6721SOL    HW121062   6.994   6.479   0.062
 6721SOL    HW221063   0.028   6.332   0.020
 6722SOL     OW21064   6.374   2.646   0.906
 6722SOL    HW121065   6.283   2.636   0.947
 6722SOL    HW221066   6.437   2.582   0.949
 6723SOL     OW21067   1.439   0.267   4.715
 6723SOL    HW121068   1.496   0.316   4.650
 6723SOL    HW221069   1.390   0.193   4.669
 6724SOL     OW21070   2.081   3.312   6.313
 6724SOL    HW121071   2.004   3.257   6.345
 6724SOL    HW221072   2.134   3.343   6.391
 6725SOL     OW21073   6.463   2.745   1.854
 6725SOL    HW121074   6.377   2.796   1.866
 6725SOL    HW221075   6.491   2.751   1.758
 6726SOL     OW21076   1.175   2.972   4.418
 6726SOL    HW121077   1.090   2.929   4.447
 6726SOL    HW221078   1.218   3.016   4.497
 6727SOL     OW21079   0.166   4.866   5.718
 6727SOL    HW121080   0.163   4.936   5.790
 6727SOL    HW221081   0.231   4.795   5.744
 6728SOL     OW21082   4.069   2.179   2.627
 6728SOL    HW121083   4.047   2.232   2.545
 6728SOL    HW221084   4.144   2.115   2.607
 6729SOL     OW21085   6.943   0.449   0.721
 6729SOL    HW121086   6.966   0.388   0.645
 6729SOL    HW221087   6.991   0.536   0.709
 6730SOL     OW21088   1.671   6.874   1.592
 6730SOL    HW121089   1.745   6.936   1.616
 6730SOL    HW221090   1.643   6.890   1.497
 6731SOL     OW21091   1.254   6.617   1.428
 6731SOL    HW121092   1.299   6.559   1.359
 6731SOL    HW221093   1.311   6.696   1.448
 6732SOL     OW21094   6.129   4.227   4.197
 6732SOL    HW121095   6.176   4.268   4.118
 6732SOL    HW221096   6.109   4.131   4.177
 6733SOL     OW21097   3.676   5.542   6.669
 6733SOL    HW121098   3.703   5.629   6.627
 6733SOL    HW221099   3.626   5.487   6.602
 6734SOL     OW21100   6.262   2.314   4.620
 6734SOL    HW121101   6.345   2.276   4.661
 6734SOL    HW221102   6.231   2.254   4.546
 6735SOL     OW21103   6.568   3.837   4.761
 6735SOL    HW121104   6.475   3.819   4.728
 6735SOL    HW221105   6.630   3.846   4.683
 6736SOL     OW21106   2.726   3.061   6.747
 6736SOL    HW121107   2.801   3.021   6.694
 6736SOL    HW221108   2.751   3.153   6.777
 6737SOL     OW21109   1.683   3.282   1.131
 6737SOL    HW121110   1.636   3.237   1.207
 6737SOL    HW221111   1.617   3.309   1.062
 6738SOL     OW21112   1.561   5.787   3.447
 6738SOL    HW121113   1.615   5.806   3.528
 6738SOL    HW221114   1.475   5.838   3.451
 6739SOL     OW21115   4.808   6.259   4.012
 6739SOL    HW121116   4.894   6.307   4.001
 6739SOL    HW221117   4.780   6.220   3.924
 6740SOL     OW21118   6.789   6.918   5.795
 6740SOL    HW121119   6.797   6.909   5.696
 6740SOL    HW221120   6.826   7.006   5.824
 6741SOL     OW21121   3.563   2.640   5.626
 6741SOL    HW121122   3.518   2.708   5.684
 6741SOL    HW221123   3.655   2.672   5.602
 6742SOL     OW21124   5.872   5.423   2.998
 6742SOL    HW121125   5.902   5.476   3.077
 6742SOL    HW221126   5.915   5.458   2.916
 6743SOL     OW21127   3.752   4.614   6.232
 6743SOL    HW121128   3.747   4.619   6.332
 6743SOL    HW221129   3.846   4.595   6.204
 6744SOL     OW21130   6.157   4.515   5.547
 6744SOL    HW121131   6.209   4.522   5.462
 6744SOL    HW221132   6.135   4.419   5.565
 6745SOL     OW21133   0.223   6.840   3.453
 6745SOL    HW121134   0.192   6.867   3.545
 6745SOL    HW221135   0.320   6.817   3.456
 6746SOL     OW21136   0.667   1.082   4.014
 6746SOL    HW121137   0.720   1.167   4.007
 6746SOL    HW221138   0.716   1.008   3.968
 6747SOL     OW21139   5.627   1.599   6.022
 6747SOL    HW121140   5.703   1.567   6.078
 6747SOL    HW221141   5.650   1.687   5.981
 6748SOL     OW21142   3.722   1.635   2.830
 6748SOL    HW121143   3.631   1.671   2.810
 6748SOL    HW221144   3.778   1.705   2.873
 6749SOL     OW21145   3.642   4.065   0.717
 6749SOL    HW121146   3.612   4.006   0.792
 6749SOL    HW221147   3.563   4.116   0.681
 6750SOL     OW21148   3.369   2.159   4.288
 6750SOL    HW121149   3.303   2.113   4.347
 6750SOL    HW221150   3.394   2.247   4.328
 6751SOL     OW21151   5.492   0.442   2.746
 6751SOL    HW121152   5.549   0.456   2.827
 6751SOL    HW221153   5.512   0.352   2.708
 6752SOL     OW21154   2.210   6.968   3.257
 6752SOL    HW121155   2.209   6.928   3.349
 6752SOL    HW221156   2.304   6.988   3.230
 6753SOL     OW21157   3.226   1.155   5.757
 6753SOL    HW121158   3.174   1.070   5.766
 6753SOL    HW221159   3.324   1.136   5.762
 6754SOL     OW21160   0.013   0.895   0.945
 6754SOL    HW121161   6.988   0.863   1.027
 6754SOL    HW221162   0.079   0.965   0.971
 6755SOL     OW21163   4.505   1.747   2.292
 6755SOL    HW121164   4.499   1.691   2.210
 6755SOL    HW221165   4.438   1.821   2.286
 6756SOL     OW21166   3.994   6.017   4.829
 6756SOL    HW121167   3.924   5.945   4.826
 6756SOL    HW221168   3.992   6.063   4.917
 6757SOL     OW21169   2.861   2.515   0.414
 6757SOL    HW121170   2.819   2.600   0.382
 6757SOL    HW221171   2.847   2.506   0.513
 6758SOL     OW21172   5.726   2.092   1.629
 6758SOL    HW121173   5.776   2.110   1.544
 6758SOL    HW221174   5.678   2.005   1.622
 6759SOL     OW21175   1.477   3.548   3.401
 6759SOL    HW121176   1.385   3.509   3.409
 6759SOL    HW221177   1.516   3.561   3.492
 6760SOL     OW21178   6.929   3.777   2.741
 6760SOL    HW121179   6.901   3.793   2.646
 6760SOL    HW221180   6.964   3.684   2.751
 6761SOL     OW21181   6.812   2.279   5.667
 6761SOL    HW121182   6.798   2.345   5.740
 6761SOL    HW221183   6.811   2.186   5.705
 6762SOL     OW21184   0.809   4.351   4.600
 6762SOL    HW121185   0.727   4.409   4.603
 6762SOL    HW221186   0.790   4.263   4.644
 6763SOL     OW21187   6.247   5.688   3.482
 6763SOL    HW121188   6.309   5.624   3.438
 6763SOL    HW221189   6.293   5.731   3.560
 6764SOL     OW21190   1.551   5.259   1.134
 6764SOL    HW121191   1.599   5.174   1.113
 6764SOL    HW221192   1.600   5.336   1.095
 6765SOL     OW21193   5.475   5.048   3.963
 6765SOL    HW121194   5.567   5.083   3.947
 6765SOL    HW221195   5.462   4.962   3.914
 6766SOL     OW21196   4.873   6.828   5.867
 6766SOL    HW121197   4.931   6.804   5.790
 6766SOL    HW221198   4.827   6.915   5.849
 6767SOL     OW21199   1.738   1.206   0.743
 6767SOL    HW121200   1.804   1.268   0.702
 6767SOL    HW221201   1.784   1.120   0.766
 6768SOL     OW21202   1.468   6.524   4.686
 6768SOL    HW121203   1.487   6.575   4.770
 6768SOL    HW221204   1.553   6.481   4.654
 6769SOL     OW21205   2.588   0.548   6.571
 6769SOL    HW121206   2.686   0.530   6.582
 6769SOL    HW221207   2.576   0.627   6.512
 6770SOL     OW21208   6.474   1.258   3.238
 6770SOL    HW121209   6.423   1.185   3.191
 6770SOL    HW221210   6.411   1.327   3.271
 6771SOL     OW21211   4.367   1.804   3.503
 6771SOL    HW121212   4.434   1.875   3.526
 6771SOL    HW221213   4.409   1.714   3.518
 6772SOL     OW21214   4.423   2.406   2.550
 6772SOL    HW121215   4.421   2.395   2.650
 6772SOL    HW221216   4.483   2.482   2.527
 6773SOL     OW21217   6.058   5.657   2.274
 6773SOL    HW121218   6.127   5.684   2.341
 6773SOL    HW221219   6.055   5.724   2.200
 6774SOL     OW21220   0.960   3.912   5.289
 6774SOL    HW121221   1.022   3.867   5.225
 6774SOL    HW221222   0.869   3.919   5.248
 6775SOL     OW21223   2.697   2.359   2.254
 6775SOL    HW121224   2.788   2.357   2.213
 6775SOL    HW221225   2.659   2.267   2.256
 6776SOL     OW21226   5.257   4.077   0.011
 6776SOL    HW121227   5.192   4.034   6.970
 6776SOL    HW221228   5.296   4.007   0.070
 6777SOL     OW21229   4.990   4.725   0.771
 6777SOL    HW121230   4.979   4.804   0.709
 6777SOL    HW221231   5.037   4.755   0.854
 6778SOL     OW21232   5.714   5.270   2.151
 6778SOL    HW121233   5.695   5.269   2.249
 6778SOL    HW221234   5.636   5.307   2.101
 6779SOL     OW21235   5.623   5.708   6.499
 6779SOL    HW121236   5.683   5.681   6.424
 6779SOL    HW221237   5.584   5.799   6.479
 6780SOL     OW21238   1.416   2.389   2.190
 6780SOL    HW121239   1.475   2.310   2.172
 6780SOL    HW221240   1.470   2.463   2.229
 6781SOL     OW21241   6.965   2.227   4.108
 6781SOL    HW121242   6.881   2.270   4.074
 6781SOL    HW221243   6.982   2.257   4.202
 6782SOL     OW21244   0.244   0.706   2.843
 6782SOL    HW121245   0.294   0.631   2.799
 6782SOL    HW221246   0.184   0.750   2.776
 6783SOL     OW21247   6.379   1.432   5.396
 6783SOL    HW121248   6.317   1.384   5.333
 6783SOL    HW221249   6.325   1.492   5.455
 6784SOL     OW21250   1.463   3.186   0.614
 6784SOL    HW121251   1.400   3.170   0.689
 6784SOL    HW221252   1.516   3.103   0.596
 6785SOL     OW21253   5.969   5.472   4.514
 6785SOL    HW121254   5.881   5.494   4.555
 6785SOL    HW221255   5.962   5.477   4.414
 6786SOL     OW21256   1.786   2.332   0.098
 6786SOL    HW121257   1.819   2.423   0.075
 6786SOL    HW221258   1.711   2.307   0.036
 6787SOL     OW21259   2.041   3.045   6.928
 6787SOL    HW121260   1.965   3.092   6.972
 6787SOL    HW221261   2.011   2.956   6.893
 6788SOL     OW21262   1.041   4.194   1.453
 6788SOL    HW121263   1.011   4.104   1.421
 6788SOL    HW221264   1.057   4.190   1.552
 6789SOL     OW21265   0.280   5.187   2.678
 6789SOL    HW121266   0.308   5.263   2.618
 6789SOL    HW221267   0.361   5.135   2.705
 6790SOL     OW21268   0.139   3.645   1.105
 6790SOL    HW121269   0.207   3.635   1.177
 6790SOL    HW221270   0.055   3.684   1.143
 6791SOL     OW21271   3.713   1.652   2.149
 6791SOL    HW121272   3.758   1.571   2.111
 6791SOL    HW221273   3.739   1.732   2.096
 6792SOL     OW21274   6.056   6.919   5.051
 6792SOL    HW121275   6.012   6.938   5.139
 6792SOL    HW221276   5.993   6.868   4.993
 6793SOL     OW21277   1.917   1.844   0.620
 6793SOL    HW121278   1.994   1.871   0.678
 6793SOL    HW221279   1.837   1.901   0.642
 6794SOL     OW21280   4.374   0.881   5.468
 6794SOL    HW121281   4.393   0.977   5.448
 6794SOL    HW221282   4.285   0.873   5.512
 6795SOL     OW21283   2.484   6.364   0.485
 6795SOL    HW121284   2.534   6.396   0.404
 6795SOL    HW221285   2.549   6.324   0.550
 6796SOL     OW21286   6.490   0.292   2.856
 6796SOL    HW121287   6.488   0.366   2.789
 6796SOL    HW221288   6.583   0.260   2.868
 6797SOL     OW21289   6.633   2.098   1.644
 6797SOL    HW121290   6.603   2.168   1.579
 6797SOL    HW221291   6.688   2.142   1.716
 6798SOL     OW21292   5.314   6.945   2.214
 6798SOL    HW121293   5.408   6.946   2.247
 6798SOL    HW221294   5.252   6.928   2.291
 6799SOL     OW21295   6.586   6.802   1.975
 6799SOL    HW121296   6.547   6.837   1.889
 6799SOL    HW221297   6.531   6.724   2.007
 6800SOL     OW21298   2.077   3.498   2.182
 6800SOL    HW121299   2.136   3.471   2.106
 6800SOL    HW221300   2.125   3.481   2.268
 6801SOL     OW21301   0.735   0.141   2.815
 6801SOL    HW121302   0.678   0.223   2.807
 6801SOL    HW221303   0.815   0.162   2.871
 6802SOL     OW21304   2.931   6.059   1.573
 6802SOL    HW121305   2.975   6.148   1.563
 6802SOL    HW221306   2.995   5.986   1.547
 6803SOL     OW21307   4.643   3.044   5.250
 6803SOL    HW121308   4.717   3.077   5.309
 6803SOL    HW221309   4.555   3.078   5.283
 6804SOL     OW21310   3.336   4.958   3.934
 6804SOL    HW121311   3.325   5.028   3.863
 6804SOL    HW221312   3.393   4.995   4.008
 6805SOL     OW21313   0.583   4.719   6.618
 6805SOL    HW121314   0.544   4.778   6.548
 6805SOL    HW221315   0.672   4.686   6.588
 6806SOL     OW21316   6.158   0.721   3.805
 6806SOL    HW121317   6.155   0.766   3.716
 6806SOL    HW221318   6.138   0.623   3.794
 6807SOL     OW21319   3.398   3.575   1.329
 6807SOL    HW121320   3.324   3.639   1.349
 6807SOL    HW221321   3.433   3.537   1.415
 6808SOL     OW21322   0.136   2.213   5.659
 6808SOL    HW121323   0.052   2.173   5.624
 6808SOL    HW221324   0.134   2.213   5.759
 6809SOL     OW21325   0.675   3.088   1.152
 6809SOL    HW121326   0.633   3.177   1.133
 6809SOL    HW221327   0.769   3.102   1.184
 6810SOL     OW21328   1.905   0.983   2.852
 6810SOL    HW121329   1.912   1.057   2.784
 6810SOL    HW221330   1.874   0.899   2.807
 6811SOL     OW21331   5.702   3.478   1.202
 6811SOL    HW121332   5.800   3.481   1.184
 6811SOL    HW221333   5.656   3.438   1.123
 6812SOL     OW21334   3.070   3.482   4.653
 6812SOL    HW121335   3.116   3.463   4.567
 6812SOL    HW221336   2.977   3.445   4.650
 6813SOL     OW21337   4.954   2.656   3.003
 6813SOL    HW121338   4.902   2.740   2.990
 6813SOL    HW221339   4.909   2.599   3.072
 6814SOL     OW21340   3.480   1.683   6.128
 6814SOL    HW121341   3.543   1.681   6.051
 6814SOL    HW221342   3.392   1.644   6.099
 6815SOL     OW21343   3.706   6.353   1.049
 6815SOL    HW121344   3.700   6.269   1.103
 6815SOL    HW221345   3.628   6.412   1.069
 6816SOL     OW21346   6.798   7.010   6.342
 6816SOL    HW121347   6.831   0.068   6.294
 6816SOL    HW221348   6.813   7.020   6.440
 6817SOL     OW21349   2.480   2.560   3.213
 6817SOL    HW121350   2.443   2.504   3.287
 6817SOL    HW221351   2.549   2.507   3.162
 6818SOL     OW21352   2.649   6.379   1.965
 6818SOL    HW121353   2.608   6.292   1.938
 6818SOL    HW221354   2.747   6.366   1.982
 6819SOL     OW21355   4.770   1.823   3.261
 6819SOL    HW121356   4.727   1.742   3.221
 6819SOL    HW221357   4.868   1.822   3.241
 6820SOL     OW21358   2.039   6.035   2.107
 6820SOL    HW121359   2.069   5.982   2.027
 6820SOL    HW221360   1.941   6.026   2.118
 6821SOL     OW21361   3.829   2.063   5.060
 6821SOL    HW121362   3.919   2.091   5.095
 6821SOL    HW221363   3.828   2.071   4.961
 6822SOL     OW21364   5.297   2.535   5.918
 6822SOL    HW121365   5.333   2.619   5.879
 6822SOL    HW221366   5.197   2.537   5.914
 6823SOL     OW21367   4.341   3.469   5.634
 6823SOL    HW121368   4.385   3.458   5.544
 6823SOL    HW221369   4.410   3.495   5.701
 6824SOL     OW21370   1.316   2.354   0.683
 6824SOL    HW121371   1.291   2.290   0.610
 6824SOL    HW221372   1.314   2.306   0.771
 6825SOL     OW21373   4.733   6.577   1.199
 6825SOL    HW121374   4.679   6.632   1.135
 6825SOL    HW221375   4.780   6.637   1.264
 6826SOL     OW21376   1.815   3.270   2.921
 6826SOL    HW121377   1.779   3.363   2.912
 6826SOL    HW221378   1.801   3.220   2.836
 6827SOL     OW21379   4.433   5.277   6.736
 6827SOL    HW121380   4.417   5.227   6.651
 6827SOL    HW221381   4.498   5.226   6.793
 6828SOL     OW21382   3.028   1.616   1.750
 6828SOL    HW121383   3.010   1.709   1.782
 6828SOL    HW221384   3.125   1.595   1.766
 6829SOL     OW21385   5.006   6.117   5.341
 6829SOL    HW121386   5.045   6.163   5.420
 6829SOL    HW221387   5.031   6.166   5.258
 6830SOL     OW21388   5.251   1.125   3.612
 6830SOL    HW121389   5.184   1.064   3.656
 6830SOL    HW221390   5.229   1.220   3.633
 6831SOL     OW21391   1.432   0.509   6.927
 6831SOL    HW121392   1.495   0.584   6.907
 6831SOL    HW221393   1.343   0.529   6.885
 6832SOL     OW21394   2.342   3.881   0.860
 6832SOL    HW121395   2.252   3.918   0.837
 6832SOL    HW221396   2.333   3.814   0.934
 6833SOL     OW21397   3.179   4.618   6.355
 6833SOL    HW121398   3.264   4.580   6.391
 6833SOL    HW221399   3.166   4.587   6.261
 6834SOL     OW21400   4.144   6.310   1.124
 6834SOL    HW121401   4.076   6.376   1.092
 6834SOL    HW221402   4.231   6.327   1.078
 6835SOL     OW21403   3.872   0.824   4.472
 6835SOL    HW121404   3.814   0.840   4.392
 6835SOL    HW221405   3.815   0.796   4.549
 6836SOL     OW21406   2.364   4.649   0.364
 6836SOL    HW121407   2.396   4.672   0.456
 6836SOL    HW221408   2.414   4.569   0.330
 6837SOL     OW21409   0.728   1.948   2.167
 6837SOL    HW121410   0.699   1.960   2.072
 6837SOL    HW221411   0.810   2.002   2.184
 6838SOL     OW21412   3.422   6.382   6.994
 6838SOL    HW121413   3.487   6.306   7.003
 6838SOL    HW221414   3.394   6.414   0.062
 6839SOL     OW21415   6.015   1.050   6.654
 6839SOL    HW121416   6.037   1.004   6.740
 6839SOL    HW221417   5.971   0.986   6.592
 6840SOL     OW21418   3.355   1.194   4.729
 6840SOL    HW121419   3.384   1.285   4.756
 6840SOL    HW221420   3.274   1.167   4.782
 6841SOL     OW21421   4.378   4.377   6.812
 6841SOL    HW121422   4.426   4.371   6.899
 6841SOL    HW221423   4.392   4.292   6.761
 6842SOL     OW21424   2.827   4.114   0.759
 6842SOL    HW121425   2.747   4.101   0.819
 6842SOL    HW221426   2.852   4.027   0.717
 6843SOL     OW21427   6.060   6.379   1.399
 6843SOL    HW121428   5.984   6.444   1.402
 6843SOL    HW221429   6.031   6.296   1.351
 6844SOL     OW21430   5.267   0.386   3.757
 6844SOL    HW121431   5.344   0.357   3.699
 6844SOL    HW221432   5.275   0.342   3.847
 6845SOL     OW21433   6.432   4.122   2.876
 6845SOL    HW121434   6.395   4.178   2.802
 6845SOL    HW221435   6.365   4.113   2.949
 6846SOL     OW21436   3.618   2.934   7.012
 6846SOL    HW121437   3.541   2.898   6.958
 6846SOL    HW221438   3.634   2.873   0.068
 6847SOL     OW21439   0.325   3.322   4.136
 6847SOL    HW121440   0.304   3.413   4.101
 6847SOL    HW221441   0.267   3.302   4.216
 6848SOL     OW21442   4.939   5.945   3.976
 6848SOL    HW121443   4.957   6.034   4.019
 6848SOL    HW221444   5.020   5.915   3.927
 6849SOL     OW21445   4.146   5.103   5.125
 6849SOL    HW121446   4.091   5.026   5.095
 6849SOL    HW221447   4.243   5.077   5.127
 6850SOL     OW21448   5.858   4.263   2.191
 6850SOL    HW121449   5.887   4.172   2.219
 6850SOL    HW221450   5.765   4.258   2.154
 6851SOL     OW21451   0.735   1.948   2.803
 6851SOL    HW121452   0.764   1.870   2.748
 6851SOL    HW221453   0.806   2.018   2.801
 6852SOL     OW21454   2.381   4.444   1.053
 6852SOL    HW121455   2.431   4.425   0.969
 6852SOL    HW221456   2.445   4.469   1.125
 6853SOL     OW21457   5.869   4.919   0.210
 6853SOL    HW121458   5.922   5.000   0.183
 6853SOL    HW221459   5.893   4.842   0.151
 6854SOL     OW21460   4.110   1.101   6.369
 6854SOL    HW121461   4.122   1.063   6.277
 6854SOL    HW221462   4.082   1.197   6.362
 6855SOL     OW21463   4.255   6.104   4.075
 6855SOL    HW121464   4.193   6.175   4.042
 6855SOL    HW221465   4.277   6.041   4.000
 6856SOL     OW21466   6.479   2.735   5.087
 6856SOL    HW121467   6.459   2.676   5.165
 6856SOL    HW221468   6.532   2.814   5.117
 6857SOL     OW21469   3.202   2.151   6.516
 6857SOL    HW121470   3.203   2.136   6.614
 6857SOL    HW221471   3.151   2.234   6.494
 6858SOL     OW21472   4.078   3.653   3.038
 6858SOL    HW121473   4.150   3.718   3.062
 6858SOL    HW221474   4.046   3.606   3.121
 6859SOL     OW21475   1.140   1.556   0.854
 6859SOL    HW121476   1.134   1.607   0.940
 6859SOL    HW221477   1.050   1.519   0.831
 6860SOL     OW21478   6.877   5.118   1.256
 6860SOL    HW121479   6.952   5.053   1.249
 6860SOL    HW221480   6.898   5.199   1.200
 6861SOL     OW21481   3.948   4.881   0.353
 6861SOL    HW121482   4.008   4.905   0.429
 6861SOL    HW221483   4.004   4.858   0.273
 6862SOL     OW21484   1.518   5.204   6.262
 6862SOL    HW121485   1.519   5.255   6.176
 6862SOL    HW221486   1.543   5.109   6.245
 6863SOL     OW21487   5.107   6.648   5.835
 6863SOL    HW121488   5.151   6.735   5.815
 6863SOL    HW221489   5.107   6.633   5.934
 6864SOL     OW21490   2.521   4.953   4.658
 6864SOL    HW121491   2.590   5.014   4.620
 6864SOL    HW221492   2.432   4.970   4.615
 6865SOL     OW21493   1.045   6.199   4.127
 6865SOL    HW121494   1.088   6.183   4.038
 6865SOL    HW221495   1.113   6.238   4.190
 6866SOL     OW21496   5.855   4.966   3.784
 6866SOL    HW121497   5.801   4.951   3.868
 6866SOL    HW221498   5.799   4.942   3.705
 6867SOL     OW21499   2.435   4.354   2.019
 6867SOL    HW121500   2.407   4.341   2.114
 6867SOL    HW221501   2.376   4.300   1.959
 6868SOL     OW21502   1.929   5.641   6.621
 6868SOL    HW121503   1.915   5.549   6.584
 6868SOL    HW221504   1.883   5.650   6.709
 6869SOL     OW21505   5.434   0.863   6.476
 6869SOL    HW121506   5.403   0.957   6.487
 6869SOL    HW221507   5.391   0.805   6.545
 6870SOL     OW21508   0.471   4.498   1.893
 6870SOL    HW121509   0.475   4.593   1.864
 6870SOL    HW221510   0.513   4.489   1.984
 6871SOL     OW21511   6.294   4.193   3.150
 6871SOL    HW121512   6.232   4.256   3.102
 6871SOL    HW221513   6.249   4.158   3.232
 6872SOL     OW21514   0.561   2.301   1.100
 6872SOL    HW121515   0.475   2.258   1.128
 6872SOL    HW221516   0.567   2.393   1.139
 6873SOL     OW21517   6.654   3.702   4.347
 6873SOL    HW121518   6.655   3.802   4.338
 6873SOL    HW221519   6.737   3.665   4.305
 6874SOL     OW21520   6.755   5.253   2.673
 6874SOL    HW121521   6.694   5.272   2.597
 6874SOL    HW221522   6.848   5.235   2.639
 6875SOL     OW21523   2.353   2.544   2.567
 6875SOL    HW121524   2.429   2.498   2.522
 6875SOL    HW221525   2.305   2.603   2.502
 6876SOL     OW21526   4.022   0.515   3.670
 6876SOL    HW121527   4.064   0.528   3.581
 6876SOL    HW221528   4.093   0.497   3.738
 6877SOL     OW21529   2.674   3.796   1.237
 6877SOL    HW121530   2.708   3.765   1.326
 6877SOL    HW221531   2.689   3.724   1.169
 6878SOL     OW21532   3.891   1.014   4.172
 6878SOL    HW121533   3.847   0.927   4.150
 6878SOL    HW221534   3.822   1.086   4.181
 6879SOL     OW21535   0.888   2.881   0.786
 6879SOL    HW121536   0.979   2.869   0.745
 6879SOL    HW221537   0.850   2.792   0.810
 6880SOL     OW21538   2.601   5.439   5.160
 6880SOL    HW121539   2.543   5.361   5.179
 6880SOL    HW221540   2.684   5.433   5.216
 6881SOL     OW21541   1.664   4.688   0.699
 6881SOL    HW121542   1.761   4.665   0.693
 6881SOL    HW221543   1.644   4.725   0.790
 6882SOL     OW21544   2.800   0.782   0.294
 6882SOL    HW121545   2.893   0.781   0.333
 6882SOL    HW221546   2.740   0.837   0.351
 6883SOL     OW21547   4.886   1.836   6.747
 6883SOL    HW121548   4.967   1.835   6.689
 6883SOL    HW221549   4.834   1.752   6.734
 6884SOL     OW21550   1.194   4.053   3.822
 6884SOL    HW121551   1.177   4.066   3.920
 6884SOL    HW221552   1.118   4.092   3.770
 6885SOL     OW21553   4.527   4.513   4.340
 6885SOL    HW121554   4.553   4.601   4.380
 6885SOL    HW221555   4.449   4.476   4.391
 6886SOL     OW21556   6.854   0.824   4.075
 6886SOL    HW121557   6.909   0.826   4.158
 6886SOL    HW221558   6.759   0.802   4.098
 6887SOL     OW21559   5.142   5.803   6.286
 6887SOL    HW121560   5.194   5.773   6.366
 6887SOL    HW221561   5.150   5.902   6.276
 6888SOL     OW21562   5.306   5.612   6.401
 6888SOL    HW121563   5.402   5.599   6.426
 6888SOL    HW221564   5.298   5.616   6.301
 6889SOL     OW21565   1.577   2.824   5.717
 6889SOL    HW121566   1.504   2.788   5.775
 6889SOL    HW221567   1.604   2.755   5.651
 6890SOL     OW21568   3.909   6.409   2.121
 6890SOL    HW121569   3.811   6.428   2.107
 6890SOL    HW221570   3.938   6.447   2.208
 6891SOL     OW21571   1.819   4.029   2.496
 6891SOL    HW121572   1.769   4.111   2.472
 6891SOL    HW221573   1.811   3.962   2.422
 6892SOL     OW21574   3.726   2.090   3.419
 6892SOL    HW121575   3.721   2.090   3.519
 6892SOL    HW221576   3.800   2.149   3.389
 6893SOL     OW21577   4.811   4.631   0.409
 6893SOL    HW121578   4.899   4.659   0.371
 6893SOL    HW221579   4.764   4.572   0.343
 6894SOL     OW21580   6.090   5.081   0.455
 6894SOL    HW121581   6.074   5.049   0.549
 6894SOL    HW221582   6.034   5.162   0.438
 6895SOL     OW21583   2.787   4.939   1.302
 6895SOL    HW121584   2.724   4.996   1.250
 6895SOL    HW221585   2.743   4.910   1.387
 6896SOL     OW21586   2.466   0.675   4.097
 6896SOL    HW121587   2.491   0.669   4.000
 6896SOL    HW221588   2.393   0.743   4.108
 6897SOL     OW21589   5.109   3.565   5.238
 6897SOL    HW121590   5.172   3.489   5.226
 6897SOL    HW221591   5.018   3.529   5.262
 6898SOL     OW21592   4.293   1.602   1.596
 6898SOL    HW121593   4.320   1.698   1.602
 6898SOL    HW221594   4.289   1.563   1.688
 6899SOL     OW21595   4.516   6.210   1.930
 6899SOL    HW121596   4.585   6.273   1.895
 6899SOL    HW221597   4.482   6.153   1.856
 6900SOL     OW21598   6.076   5.669   4.976
 6900SOL    HW121599   6.038   5.602   5.039
 6900SOL    HW221600   6.095   5.625   4.888
 6901SOL     OW21601   6.438   6.129   6.081
 6901SOL    HW121602   6.394   6.040   6.093
 6901SOL    HW221603   6.376   6.190   6.032
 6902SOL     OW21604   6.958   6.196   0.006
 6902SOL    HW121605   6.890   6.257   6.988
 6902SOL    HW221606   6.911   6.118   0.048
 6903SOL     OW21607   2.879   5.176   5.685
 6903SOL    HW121608   2.894   5.133   5.595
 6903SOL    HW221609   2.811   5.123   5.736
 6904SOL     OW21610   6.799   0.587   4.595
 6904SOL    HW121611   6.709   0.629   4.602
 6904SOL    HW221612   6.789   0.488   4.585
 6905SOL     OW21613   5.813   5.866   6.646
 6905SOL    HW121614   5.775   5.957   6.659
 6905SOL    HW221615   5.739   5.799   6.640
 6906SOL     OW21616   4.283   1.476   4.508
 6906SOL    HW121617   4.372   1.519   4.493
 6906SOL    HW221618   4.260   1.417   4.430
 6907SOL     OW21619   5.604   2.897   1.921
 6907SOL    HW121620   5.700   2.919   1.937
 6907SOL    HW221621   5.551   2.982   1.912
 6908SOL     OW21622   1.654   5.548   6.861
 6908SOL    HW121623   1.695   5.462   6.831
 6908SOL    HW221624   1.557   5.548   6.839
 6909SOL     OW21625   5.114   4.368   1.347
 6909SOL    HW121626   5.186   4.352   1.416
 6909SOL    HW221627   5.026   4.379   1.393
 6910SOL     OW21628   0.784   2.594   3.381
 6910SOL    HW121629   0.726   2.626   3.306
 6910SOL    HW221630   0.846   2.524   3.348
 6911SOL     OW21631   4.195   6.833   4.297
 6911SOL    HW121632   4.130   6.865   4.228
 6911SOL    HW221633   4.289   6.848   4.264
 6912SOL     OW21634   3.347   3.577   6.356
 6912SOL    HW121635   3.425   3.520   6.330
 6912SOL    HW221636   3.299   3.606   6.273
 6913SOL     OW21637   5.475   6.150   3.497
 6913SOL    HW121638   5.470   6.051   3.513
 6913SOL    HW221639   5.394   6.194   3.535
 6914SOL     OW21640   6.005   4.269   3.613
 6914SOL    HW121641   6.071   4.338   3.641
 6914SOL    HW221642   5.998   4.199   3.684
 6915SOL     OW21643   5.977   2.793   1.758
 6915SOL    HW121644   6.067   2.785   1.714
 6915SOL    HW221645   5.923   2.860   1.708
 6916SOL     OW21646   5.474   1.671   6.856
 6916SOL    HW121647   5.464   1.752   6.797
 6916SOL    HW221648   5.454   1.589   6.802
 6917SOL     OW21649   3.263   0.090   1.649
 6917SOL    HW121650   3.311   0.003   1.652
 6917SOL    HW221651   3.255   0.127   1.742
 6918SOL     OW21652   0.460   2.697   4.917
 6918SOL    HW121653   0.424   2.659   5.003
 6918SOL    HW221654   0.388   2.748   4.870
 6919SOL     OW21655   5.593   5.779   3.744
 6919SOL    HW121656   5.566   5.694   3.699
 6919SOL    HW221657   5.512   5.836   3.760
 6920SOL     OW21658   4.248   6.217   6.021
 6920SOL    HW121659   4.156   6.245   6.047
 6920SOL    HW221660   4.254   6.210   5.922
 6921SOL     OW21661   4.854   5.804   4.193
 6921SOL    HW121662   4.754   5.797   4.203
 6921SOL    HW221663   4.876   5.864   4.116
 6922SOL     OW21664   1.678   6.419   4.912
 6922SOL    HW121665   1.706   6.324   4.899
 6922SOL    HW221666   1.583   6.421   4.944
 6923SOL     OW21667   5.048   5.353   3.011
 6923SOL    HW121668   4.965   5.342   3.066
 6923SOL    HW221669   5.119   5.291   3.045
 6924SOL     OW21670   1.763   4.493   6.475
 6924SOL    HW121671   1.736   4.399   6.496
 6924SOL    HW221672   1.861   4.504   6.491
 6925SOL     OW21673   5.000   6.173   3.725
 6925SOL    HW121674   5.038   6.167   3.817
 6925SOL    HW221675   4.908   6.135   3.724
 6926SOL     OW21676   2.858   2.478   0.675
 6926SOL    HW121677   2.930   2.484   0.744
 6926SOL    HW221678   2.785   2.418   0.707
 6927SOL     OW21679   3.992   2.933   5.969
 6927SOL    HW121680   4.059   2.918   5.897
 6927SOL    HW221681   4.030   2.996   6.037
 6928SOL     OW21682   5.749   5.979   1.203
 6928SOL    HW121683   5.781   5.892   1.165
 6928SOL    HW221684   5.720   6.039   1.129
 6929SOL     OW21685   5.017   5.700   1.386
 6929SOL    HW121686   4.975   5.787   1.363
 6929SOL    HW221687   4.947   5.630   1.396
 6930SOL     OW21688   1.115   0.923   1.777
 6930SOL    HW121689   1.082   0.833   1.805
 6930SOL    HW221690   1.040   0.988   1.780
 6931SOL     OW21691   2.129   0.919   2.317
 6931SOL    HW121692   2.204   0.898   2.254
 6931SOL    HW221693   2.136   0.861   2.398
 6932SOL     OW21694   4.020   6.787   6.939
 6932SOL    HW121695   3.979   6.751   7.023
 6932SOL    HW221696   4.001   6.726   6.863
 6933SOL     OW21697   3.563   5.645   5.478
 6933SOL    HW121698   3.602   5.554   5.463
 6933SOL    HW221699   3.479   5.654   5.425
 6934SOL     OW21700   4.507   3.869   6.433
 6934SOL    HW121701   4.495   3.941   6.501
 6934SOL    HW221702   4.424   3.862   6.377
 6935SOL     OW21703   4.848   5.690   2.601
 6935SOL    HW121704   4.762   5.730   2.636
 6935SOL    HW221705   4.921   5.758   2.608
 6936SOL     OW21706   6.228   1.926   3.438
 6936SOL    HW121707   6.220   1.888   3.347
 6936SOL    HW221708   6.219   2.026   3.434
 6937SOL     OW21709   6.694   6.304   6.964
 6937SOL    HW121710   6.628   6.310   6.889
 6937SOL    HW221711   6.650   6.336   0.026
 6938SOL     OW21712   6.456   2.580   5.341
 6938SOL    HW121713   6.472   2.481   5.343
 6938SOL    HW221714   6.358   2.599   5.348
 6939SOL     OW21715   0.689   5.026   2.430
 6939SOL    HW121716   0.729   5.013   2.521
 6939SOL    HW221717   0.606   5.082   2.437
 6940SOL     OW21718   3.512   0.269   5.999
 6940SOL    HW121719   3.603   0.291   5.964
 6940SOL    HW221720   3.510   0.286   6.097
 6941SOL     OW21721   2.991   3.999   1.779
 6941SOL    HW121722   2.939   4.079   1.749
 6941SOL    HW221723   3.076   4.029   1.823
 6942SOL     OW21724   6.087   0.198   1.651
 6942SOL    HW121725   6.041   0.286   1.653
 6942SOL    HW221726   6.021   0.125   1.668
 6943SOL     OW21727   3.408   5.690   0.358
 6943SOL    HW121728   3.363   5.656   0.276
 6943SOL    HW221729   3.462   5.771   0.335
 6944SOL     OW21730   0.560   4.481   6.366
 6944SOL    HW121731   0.478   4.452   6.416
 6944SOL    HW221732   0.641   4.465   6.423
 6945SOL     OW21733   6.255   1.431   0.141
 6945SOL    HW121734   6.253   1.366   0.217
 6945SOL    HW221735   6.177   1.493   0.148
 6946SOL     OW21736   4.158   6.744   1.145
 6946SOL    HW121737   4.121   6.651   1.151
 6946SOL    HW221738   4.092   6.803   1.099
 6947SOL     OW21739   3.748   5.777   6.549
 6947SOL    HW121740   3.659   5.817   6.526
 6947SOL    HW221741   3.815   5.850   6.564
 6948SOL     OW21742   0.923   0.066   0.477
 6948SOL    HW121743   1.005   0.080   0.421
 6948SOL    HW221744   0.949   0.065   0.574
 6949SOL     OW21745   3.728   0.522   3.463
 6949SOL    HW121746   3.715   0.454   3.535
 6949SOL    HW221747   3.714   0.613   3.501
 6950SOL     OW21748   1.125   2.010   4.948
 6950SOL    HW121749   1.159   1.939   4.886
 6950SOL    HW221750   1.080   1.967   5.026
 6951SOL     OW21751   6.287   5.179   5.727
 6951SOL    HW121752   6.217   5.233   5.775
 6951SOL    HW221753   6.369   5.234   5.716
 6952SOL     OW21754   0.554   6.224   3.101
 6952SOL    HW121755   0.520   6.294   3.163
 6952SOL    HW221756   0.648   6.200   3.126
 6953SOL     OW21757   3.892   6.425   1.409
 6953SOL    HW121758   3.940   6.431   1.496
 6953SOL    HW221759   3.870   6.517   1.377
 6954SOL     OW21760   6.891   3.744   2.456
 6954SOL    HW121761   6.811   3.782   2.410
 6954SOL    HW221762   6.910   3.653   2.420
 6955SOL     OW21763   5.448   0.240   1.786
 6955SOL    HW121764   5.405   0.206   1.703
 6955SOL    HW221765   5.408   0.194   1.866
 6956SOL     OW21766   5.756   5.830   3.385
 6956SOL    HW121767   5.788   5.870   3.471
 6956SOL    HW221768   5.659   5.849   3.374
 6957SOL     OW21769   6.413   5.600   1.110
 6957SOL    HW121770   6.449   5.693   1.111
 6957SOL    HW221771   6.316   5.602   1.085
 6958SOL     OW21772   4.029   3.244   4.478
 6958SOL    HW121773   4.002   3.247   4.382
 6958SOL    HW221774   4.102   3.311   4.494
 6959SOL     OW21775   2.024   3.483   3.388
 6959SOL    HW121776   2.051   3.449   3.478
 6959SOL    HW221777   2.066   3.426   3.317
 6960SOL     OW21778   1.246   4.369   1.051
 6960SOL    HW121779   1.332   4.371   1.102
 6960SOL    HW221780   1.192   4.290   1.081
 6961SOL     OW21781   5.437   0.921   4.042
 6961SOL    HW121782   5.373   0.959   4.110
 6961SOL    HW221783   5.492   0.850   4.085
 6962SOL     OW21784   4.785   6.168   1.803
 6962SOL    HW121785   4.789   6.222   1.719
 6962SOL    HW221786   4.761   6.226   1.880
 6963SOL     OW21787   4.941   5.965   1.071
 6963SOL    HW121788   5.015   6.031   1.081
 6963SOL    HW221789   4.866   6.007   1.020
 6964SOL     OW21790   3.744   1.073   5.654
 6964SOL    HW121791   3.783   0.985   5.682
 6964SOL    HW221792   3.816   1.142   5.651
 6965SOL     OW21793   1.743   0.977   0.008
 6965SOL    HW121794   1.707   0.887   0.031
 6965SOL    HW221795   1.700   1.046   0.066
 6966SOL     OW21796   1.208   2.212   2.786
 6966SOL    HW121797   1.255   2.286   2.737
 6966SOL    HW221798   1.276   2.157   2.835
 6967SOL     OW21799   2.774   1.123   5.801
 6967SOL    HW121800   2.864   1.133   5.843
 6967SOL    HW221801   2.708   1.181   5.848
 6968SOL     OW21802   3.573   0.409   3.255
 6968SOL    HW121803   3.621   0.475   3.313
 6968SOL    HW221804   3.636   0.374   3.185
 6969SOL     OW21805   3.074   2.316   1.670
 6969SOL    HW121806   3.029   2.352   1.752
 6969SOL    HW221807   3.149   2.255   1.697
 6970SOL     OW21808   4.326   4.487   5.507
 6970SOL    HW121809   4.307   4.416   5.574
 6970SOL    HW221810   4.390   4.553   5.545
 6971SOL     OW21811   6.566   4.527   0.915
 6971SOL    HW121812   6.620   4.611   0.916
 6971SOL    HW221813   6.602   4.464   0.984
 6972SOL     OW21814   5.530   4.705   2.962
 6972SOL    HW121815   5.570   4.650   3.035
 6972SOL    HW221816   5.558   4.800   2.972
 6973SOL     OW21817   1.217   3.239   3.232
 6973SOL    HW121818   1.234   3.230   3.134
 6973SOL    HW221819   1.128   3.199   3.255
 6974SOL     OW21820   2.948   3.786   2.739
 6974SOL    HW121821   2.924   3.786   2.642
 6974SOL    HW221822   2.995   3.700   2.761
 6975SOL     OW21823   1.352   6.108   5.965
 6975SOL    HW121824   1.324   6.121   6.060
 6975SOL    HW221825   1.443   6.145   5.951
 6976SOL     OW21826   5.809   5.146   5.603
 6976SOL    HW121827   5.732   5.209   5.611
 6976SOL    HW221828   5.776   5.052   5.605
 6977SOL     OW21829   3.874   2.835   1.485
 6977SOL    HW121830   3.932   2.874   1.556
 6977SOL    HW221831   3.832   2.751   1.518
 6978SOL     OW21832   5.718   1.606   2.283
 6978SOL    HW121833   5.651   1.644   2.219
 6978SOL    HW221834   5.692   1.632   2.377
 6979SOL     OW21835   1.015   4.153   1.737
 6979SOL    HW121836   1.003   4.238   1.788
 6979SOL    HW221837   0.989   4.076   1.795
 6980SOL     OW21838   2.078   1.773   4.152
 6980SOL    HW121839   1.983   1.744   4.138
 6980SOL    HW221840   2.093   1.860   4.103
 6981SOL     OW21841   3.809   3.233   5.994
 6981SOL    HW121842   3.908   3.243   5.982
 6981SOL    HW221843   3.790   3.178   6.075
 6982SOL     OW21844   0.765   1.082   4.937
 6982SOL    HW121845   0.777   1.153   5.007
 6982SOL    HW221846   0.831   1.009   4.954
 6983SOL     OW21847   3.928   1.991   3.839
 6983SOL    HW121848   3.844   2.028   3.800
 6983SOL    HW221849   3.986   2.066   3.873
 6984SOL     OW21850   1.788   1.346   3.533
 6984SOL    HW121851   1.850   1.284   3.485
 6984SOL    HW221852   1.742   1.405   3.467
 6985SOL     OW21853   6.083   5.082   1.121
 6985SOL    HW121854   6.158   5.073   1.186
 6985SOL    HW221855   6.019   5.006   1.132
 6986SOL     OW21856   2.294   6.969   6.343
 6986SOL    HW121857   2.362   6.961   6.270
 6986SOL    HW221858   2.278   0.043   6.363
 6987SOL     OW21859   5.903   1.341   6.396
 6987SOL    HW121860   5.844   1.270   6.435
 6987SOL    HW221861   5.989   1.344   6.446
 6988SOL     OW21862   1.200   6.551   6.755
 6988SOL    HW121863   1.186   6.487   6.679
 6988SOL    HW221864   1.193   6.501   6.842
 6989SOL     OW21865   1.064   4.167   3.241
 6989SOL    HW121866   1.086   4.211   3.328
 6989SOL    HW221867   1.126   4.202   3.170
 6990SOL     OW21868   4.641   2.872   1.419
 6990SOL    HW121869   4.623   2.873   1.517
 6990SOL    HW221870   4.560   2.839   1.371
 6991SOL     OW21871   4.576   4.375   3.714
 6991SOL    HW121872   4.586   4.414   3.805
 6991SOL    HW221873   4.503   4.306   3.714
 6992SOL     OW21874   5.658   6.766   6.542
 6992SOL    HW121875   5.709   6.797   6.622
 6992SOL    HW221876   5.568   6.810   6.540
 6993SOL     OW21877   6.247   0.304   3.041
 6993SOL    HW121878   6.337   0.312   2.999
 6993SOL    HW221879   6.191   0.239   2.988
 6994SOL     OW21880   0.479   2.542   4.051
 6994SOL    HW121881   0.505   2.634   4.082
 6994SOL    HW221882   0.467   2.482   4.130
 6995SOL     OW21883   0.504   4.868   6.199
 6995SOL    HW121884   0.498   4.893   6.295
 6995SOL    HW221885   0.414   4.839   6.166
 6996SOL     OW21886   1.728   0.368   6.937
 6996SOL    HW121887   1.668   0.290   6.922
 6996SOL    HW221888   1.708   0.440   6.870
 6997SOL     OW21889   0.378   5.482   5.686
 6997SOL    HW121890   0.323   5.539   5.626
 6997SOL    HW221891   0.324   5.457   5.767
 6998SOL     OW21892   2.042   0.508   1.565
 6998SOL    HW121893   2.051   0.607   1.576
 6998SOL    HW221894   1.958   0.487   1.515
 6999SOL     OW21895   2.477   2.327   6.553
 6999SOL    HW121896   2.490   2.413   6.503
 6999SOL    HW221897   2.450   2.256   6.488
 7000SOL     OW21898   5.288   6.532   1.763
 7000SOL    HW121899   5.358   6.469   1.796
 7000SOL    HW221900   5.332   6.613   1.722
 7001SOL     OW21901   2.297   3.189   6.190
 7001SOL    HW121902   2.272   3.094   6.168
 7001SOL    HW221903   2.216   3.239   6.221
 7002SOL     OW21904   1.509   5.415   3.951
 7002SOL    HW121905   1.532   5.327   3.993
 7002SOL    HW221906   1.463   5.400   3.864
 7003SOL     OW21907   4.254   5.625   0.974
 7003SOL    HW121908   4.326   5.667   1.029
 7003SOL    HW221909   4.165   5.659   1.005
 7004SOL     OW21910   0.693   5.477   1.768
 7004SOL    HW121911   0.710   5.477   1.669
 7004SOL    HW221912   0.594   5.475   1.785
 7005SOL     OW21913   0.773   6.879   0.559
 7005SOL    HW121914   0.819   6.844   0.641
 7005SOL    HW221915   0.839   6.925   0.501
 7006SOL     OW21916   4.771   5.285   3.844
 7006SOL    HW121917   4.697   5.343   3.879
 7006SOL    HW221918   4.831   5.259   3.920
 7007SOL     OW21919   4.561   0.681   4.328
 7007SOL    HW121920   4.540   0.584   4.344
 7007SOL    HW221921   4.647   0.704   4.375
 7008SOL     OW21922   0.350   4.271   4.250
 7008SOL    HW121923   0.427   4.244   4.191
 7008SOL    HW221924   0.320   4.362   4.224
 7009SOL     OW21925   4.600   6.267   2.991
 7009SOL    HW121926   4.530   6.304   2.929
 7009SOL    HW221927   4.621   6.173   2.965
 7010SOL     OW21928   5.426   4.266   3.714
 7010SOL    HW121929   5.494   4.304   3.777
 7010SOL    HW221930   5.384   4.186   3.755
 7011SOL     OW21931   3.272   6.125   6.502
 7011SOL    HW121932   3.194   6.181   6.476
 7011SOL    HW221933   3.240   6.038   6.540
 7012SOL     OW21934   0.950   1.663   1.443
 7012SOL    HW121935   0.939   1.762   1.451
 7012SOL    HW221936   0.863   1.617   1.462
 7013SOL     OW21937   0.903   6.812   0.215
 7013SOL    HW121938   0.892   6.775   0.123
 7013SOL    HW221939   0.839   6.888   0.228
 7014SOL     OW21940   4.350   3.115   0.700
 7014SOL    HW121941   4.354   3.126   0.601
 7014SOL    HW221942   4.351   3.205   0.744
 7015SOL     OW21943   6.181   4.071   0.969
 7015SOL    HW121944   6.249   4.016   0.920
 7015SOL    HW221945   6.138   4.015   1.040
 7016SOL     OW21946   3.439   5.090   1.525
 7016SOL    HW121947   3.383   5.092   1.607
 7016SOL    HW221948   3.454   4.995   1.498
 7017SOL     OW21949   2.602   5.020   3.423
 7017SOL    HW121950   2.659   5.080   3.366
 7017SOL    HW221951   2.506   5.038   3.404
 7018SOL     OW21952   5.212   3.471   4.181
 7018SOL    HW121953   5.220   3.402   4.110
 7018SOL    HW221954   5.296   3.475   4.234
 7019SOL     OW21955   3.468   4.556   0.254
 7019SOL    HW121956   3.405   4.586   0.326
 7019SOL    HW221957   3.544   4.621   0.248
 7020SOL     OW21958   6.646   4.201   5.710
 7020SOL    HW121959   6.706   4.269   5.751
 7020SOL    HW221960   6.696   4.150   5.640
 7021SOL     OW21961   1.737   2.079   5.230
 7021SOL    HW121962   1.811   2.132   5.271
 7021SOL    HW221963   1.748   1.982   5.253
 7022SOL     OW21964   4.547   6.719   6.485
 7022SOL    HW121965   4.477   6.650   6.506
 7022SOL    HW221966   4.570   6.713   6.388
 7023SOL     OW21967   1.541   2.497   3.376
 7023SOL    HW121968   1.525   2.547   3.461
 7023SOL    HW221969   1.633   2.458   3.377
 7024SOL     OW21970   3.054   3.786   5.286
 7024SOL    HW121971   3.133   3.739   5.247
 7024SOL    HW221972   3.005   3.835   5.215
 7025SOL     OW21973   3.379   0.664   0.439
 7025SOL    HW121974   3.300   0.623   0.394
 7025SOL    HW221975   3.350   0.712   0.522
 7026SOL     OW21976   3.296   1.968   2.089
 7026SOL    HW121977   3.288   1.923   2.000
 7026SOL    HW221978   3.390   2.001   2.101
 7027SOL     OW21979   2.025   5.368   3.971
 7027SOL    HW121980   1.975   5.454   3.973
 7027SOL    HW221981   1.984   5.304   4.036
 7028SOL     OW21982   2.929   1.555   3.205
 7028SOL    HW121983   2.853   1.618   3.194
 7028SOL    HW221984   3.015   1.606   3.209
 7029SOL     OW21985   4.605   4.680   5.269
 7029SOL    HW121986   4.554   4.751   5.316
 7029SOL    HW221987   4.671   4.639   5.332
 7030SOL     OW21988   1.063   0.828   5.219
 7030SOL    HW121989   0.970   0.826   5.254
 7030SOL    HW221990   1.077   0.913   5.168
 7031SOL     OW21991   3.855   5.860   6.235
 7031SOL    HW121992   3.921   5.846   6.309
 7031SOL    HW221993   3.808   5.947   6.248
 7032SOL     OW21994   4.249   1.792   3.902
 7032SOL    HW121995   4.167   1.778   3.846
 7032SOL    HW221996   4.305   1.864   3.860
 7033SOL     OW21997   1.833   2.460   3.402
 7033SOL    HW121998   1.919   2.427   3.361
 7033SOL    HW221999   1.829   2.433   3.498
 7034SOL     OW22000   0.233   1.125   3.164
 7034SOL    HW122001   0.254   1.100   3.070
 7034SOL    HW222002   0.257   1.221   3.180
 7035SOL     OW22003   1.447   6.807   0.474
 7035SOL    HW122004   1.457   6.849   0.384
 7035SOL    HW222005   1.473   6.711   0.469
 7036SOL     OW22006   0.050   0.834   2.704
 7036SOL    HW122007   0.093   0.923   2.714
 7036SOL    HW222008   6.974   0.843   2.718
 7037SOL     OW22009   1.396   1.737   6.779
 7037SOL    HW122010   1.344   1.792   6.844
 7037SOL    HW222011   1.486   1.777   6.766
 7038SOL     OW22012   2.104   3.857   5.072
 7038SOL    HW122013   2.136   3.777   5.123
 7038SOL    HW222014   2.182   3.901   5.027
 7039SOL     OW22015   1.139   5.521   3.040
 7039SOL    HW122016   1.173   5.563   3.124
 7039SOL    HW222017   1.117   5.424   3.058
 7040SOL     OW22018   5.324   2.330   5.704
 7040SOL    HW122019   5.237   2.336   5.656
 7040SOL    HW222020   5.325   2.397   5.778
 7041SOL     OW22021   6.771   1.135   1.953
 7041SOL    HW122022   6.745   1.093   2.040
 7041SOL    HW222023   6.690   1.144   1.895
 7042SOL     OW22024   4.027   5.642   4.960
 7042SOL    HW122025   4.014   5.579   5.036
 7042SOL    HW222026   4.096   5.710   4.985
 7043SOL     OW22027   2.241   5.045   3.008
 7043SOL    HW122028   2.163   4.985   2.989
 7043SOL    HW222029   2.213   5.118   3.070
 7044SOL     OW22030   5.799   5.190   4.858
 7044SOL    HW122031   5.727   5.202   4.791
 7044SOL    HW222032   5.759   5.190   4.950
 7045SOL     OW22033   5.122   5.014   2.860
 7045SOL    HW122034   5.168   4.925   2.854
 7045SOL    HW222035   5.126   5.060   2.772
 7046SOL     OW22036   3.222   1.579   3.724
 7046SOL    HW122037   3.138   1.632   3.735
 7046SOL    HW222038   3.201   1.482   3.736
 7047SOL     OW22039   6.479   0.738   2.535
 7047SOL    HW122040   6.440   0.825   2.506
 7047SOL    HW222041   6.571   0.729   2.497
 7048SOL     OW22042   5.853   6.689   4.232
 7048SOL    HW122043   5.881   6.612   4.290
 7048SOL    HW222044   5.822   6.654   4.143
 7049SOL     OW22045   3.712   1.842   1.078
 7049SOL    HW122046   3.744   1.822   1.171
 7049SOL    HW222047   3.612   1.835   1.074
 7050SOL     OW22048   3.993   3.508   1.412
 7050SOL    HW122049   3.913   3.557   1.447
 7050SOL    HW222050   3.962   3.431   1.356
 7051SOL     OW22051   6.625   0.118   1.357
 7051SOL    HW122052   6.693   0.144   1.425
 7051SOL    HW222053   6.588   0.200   1.314
 7052SOL     OW22054   6.282   1.462   3.314
 7052SOL    HW122055   6.198   1.489   3.266
 7052SOL    HW222056   6.307   1.532   3.380
 7053SOL     OW22057   1.873   3.252   4.892
 7053SOL    HW122058   1.844   3.178   4.952
 7053SOL    HW222059   1.961   3.229   4.850
 7054SOL     OW22060   6.986   6.897   0.700
 7054SOL    HW122061   0.063   6.883   0.700
 7054SOL    HW222062   6.941   6.815   0.663
 7055SOL     OW22063   2.970   0.193   6.699
 7055SOL    HW122064   2.891   0.193   6.638
 7055SOL    HW222065   2.951   0.252   6.777
 7056SOL     OW22066   6.550   5.250   1.635
 7056SOL    HW122067   6.617   5.211   1.572
 7056SOL    HW222068   6.555   5.350   1.632
 7057SOL     OW22069   2.711   5.062   3.779
 7057SOL    HW122070   2.746   5.149   3.742
 7057SOL    HW222071   2.617   5.048   3.748
 7058SOL     OW22072   5.512   2.794   5.985
 7058SOL    HW122073   5.587   2.741   6.023
 7058SOL    HW222074   5.545   2.885   5.959
 7059SOL     OW22075   0.701   1.624   4.010
 7059SOL    HW122076   0.799   1.624   4.029
 7059SOL    HW222077   0.680   1.693   3.941
 7060SOL     OW22078   3.193   0.291   1.848
 7060SOL    HW122079   3.099   0.322   1.837
 7060SOL    HW222080   3.232   0.331   1.931
 7061SOL     OW22081   0.516   3.268   3.564
 7061SOL    HW122082   0.519   3.216   3.650
 7061SOL    HW222083   0.422   3.278   3.534
 7062SOL     OW22084   3.287   2.302   5.434
 7062SOL    HW122085   3.199   2.276   5.474
 7062SOL    HW222086   3.272   2.352   5.349
 7063SOL     OW22087   1.546   6.705   1.832
 7063SOL    HW122088   1.487   6.757   1.894
 7063SOL    HW222089   1.535   6.739   1.739
 7064SOL     OW22090   4.109   1.894   0.202
 7064SOL    HW122091   4.098   1.826   0.275
 7064SOL    HW222092   4.041   1.878   0.130
 7065SOL     OW22093   3.954   3.466   5.837
 7065SOL    HW122094   3.877   3.497   5.893
 7065SOL    HW222095   4.023   3.423   5.896
 7066SOL     OW22096   3.692   0.019   6.162
 7066SOL    HW122097   3.663   0.096   6.219
 7066SOL    HW222098   3.784   7.013   6.188
 7067SOL     OW22099   1.338   3.441   5.660
 7067SOL    HW122100   1.366   3.536   5.670
 7067SOL    HW222101   1.342   3.396   5.750
 7068SOL     OW22102   6.080   4.345   4.673
 7068SOL    HW122103   6.176   4.330   4.697
 7068SOL    HW222104   6.073   4.369   4.577
 7069SOL     OW22105   5.629   2.332   4.805
 7069SOL    HW122106   5.582   2.346   4.718
 7069SOL    HW222107   5.694   2.407   4.820
 7070SOL     OW22108   1.079   0.125   4.789
 7070SOL    HW122109   1.176   0.146   4.806
 7070SOL    HW222110   1.066   0.112   4.690
 7071SOL     OW22111   3.999   6.293   6.093
 7071SOL    HW122112   3.949   6.366   6.139
 7071SOL    HW222113   3.939   6.215   6.080
 7072SOL     OW22114   2.131   5.787   0.251
 7072SOL    HW122115   2.097   5.804   0.159
 7072SOL    HW222116   2.182   5.867   0.284
 7073SOL     OW22117   5.290   6.873   3.672
 7073SOL    HW122118   5.281   6.973   3.670
 7073SOL    HW222119   5.229   6.835   3.742
 7074SOL     OW22120   6.257   2.970   1.637
 7074SOL    HW122121   6.192   3.038   1.605
 7074SOL    HW222122   6.350   3.004   1.623
 7075SOL     OW22123   1.835   4.081   4.829
 7075SOL    HW122124   1.935   4.078   4.827
 7075SOL    HW222125   1.802   4.152   4.767
 7076SOL     OW22126   5.435   3.113   0.439
 7076SOL    HW122127   5.516   3.090   0.493
 7076SOL    HW222128   5.378   3.031   0.428
 7077SOL     OW22129   2.256   4.189   3.931
 7077SOL    HW122130   2.251   4.285   3.958
 7077SOL    HW222131   2.163   4.152   3.926
 7078SOL     OW22132   6.472   6.152   2.091
 7078SOL    HW122133   6.525   6.082   2.045
 7078SOL    HW222134   6.461   6.231   2.031
 7079SOL     OW22135   0.926   0.267   4.098
 7079SOL    HW122136   1.014   0.251   4.052
 7079SOL    HW222137   0.942   0.287   4.195
 7080SOL     OW22138   3.249   1.663   4.431
 7080SOL    HW122139   3.334   1.678   4.483
 7080SOL    HW222140   3.264   1.591   4.364
 7081SOL     OW22141   1.956   5.861   0.497
 7081SOL    HW122142   2.010   5.777   0.507
 7081SOL    HW222143   1.997   5.933   0.553
 7082SOL     OW22144   6.487   4.825   7.022
 7082SOL    HW122145   6.549   4.860   0.069
 7082SOL    HW222146   6.512   4.862   6.932
 7083SOL     OW22147   1.442   1.329   2.040
 7083SOL    HW122148   1.349   1.331   2.004
 7083SOL    HW222149   1.475   1.422   2.051
 7084SOL     OW22150   0.823   5.305   5.669
 7084SOL    HW122151   0.844   5.324   5.573
 7084SOL    HW222152   0.742   5.357   5.696
 7085SOL     OW22153   0.301   2.006   1.933
 7085SOL    HW122154   0.220   1.969   1.887
 7085SOL    HW222155   0.382   1.953   1.907
 7086SOL     OW22156   5.737   1.010   5.686
 7086SOL    HW122157   5.750   1.074   5.610
 7086SOL    HW222158   5.822   1.000   5.737
 7087SOL     OW22159   6.162   4.380   3.014
 7087SOL    HW122160   6.138   4.431   2.932
 7087SOL    HW222161   6.078   4.352   3.062
 7088SOL     OW22162   5.023   2.499   4.382
 7088SOL    HW122163   4.990   2.483   4.289
 7088SOL    HW222164   4.949   2.480   4.447
 7089SOL     OW22165   2.252   2.555   4.453
 7089SOL    HW122166   2.227   2.612   4.531
 7089SOL    HW222167   2.302   2.474   4.485
 7090SOL     OW22168   2.403   1.043   0.136
 7090SOL    HW122169   2.322   1.080   0.091
 7090SOL    HW222170   2.450   1.115   0.186
 7091SOL     OW22171   0.887   1.411   0.850
 7091SOL    HW122172   0.793   1.442   0.863
 7091SOL    HW222173   0.892   1.351   0.770
 7092SOL     OW22174   4.412   3.166   5.745
 7092SOL    HW122175   4.398   3.082   5.691
 7092SOL    HW222176   4.325   3.193   5.786
 7093SOL     OW22177   3.718   4.138   2.241
 7093SOL    HW122178   3.787   4.072   2.268
 7093SOL    HW222179   3.655   4.154   2.317
 7094SOL     OW22180   0.245   6.257   5.583
 7094SOL    HW122181   0.228   6.312   5.664
 7094SOL    HW222182   0.158   6.233   5.540
 7095SOL     OW22183   2.632   4.460   6.047
 7095SOL    HW122184   2.579   4.528   5.997
 7095SOL    HW222185   2.587   4.371   6.040
 7096SOL     OW22186   6.404   0.096   2.052
 7096SOL    HW122187   6.335   0.138   1.992
 7096SOL    HW222188   6.378   0.001   2.072
 7097SOL     OW22189   4.752   0.419   1.821
 7097SOL    HW122190   4.825   0.351   1.809
 7097SOL    HW222191   4.754   0.484   1.745
 7098SOL     OW22192   1.910   5.519   5.552
 7098SOL    HW122193   1.833   5.504   5.489
 7098SOL    HW222194   1.924   5.438   5.608
 7099SOL     OW22195   3.756   1.786   5.123
 7099SOL    HW122196   3.808   1.871   5.130
 7099SOL    HW222197   3.687   1.782   5.194
 7100SOL     OW22198   6.516   3.523   0.103
 7100SOL    HW122199   6.475   3.570   0.181
 7100SOL    HW222200   6.445   3.493   0.040
 7101SOL     OW22201   2.680   1.444   5.139
 7101SOL    HW122202   2.707   1.437   5.043
 7101SOL    HW222203   2.587   1.480   5.145
 7102SOL     OW22204   5.769   0.358   0.770
 7102SOL    HW122205   5.782   0.305   0.854
 7102SOL    HW222206   5.753   0.454   0.793
 7103SOL     OW22207   5.752   5.692   2.194
 7103SOL    HW122208   5.831   5.632   2.180
 7103SOL    HW222209   5.705   5.707   2.107
 7104SOL     OW22210   6.464   3.726   2.991
 7104SOL    HW122211   6.522   3.757   2.915
 7104SOL    HW222212   6.374   3.769   2.984
 7105SOL     OW22213   2.989   2.970   5.244
 7105SOL    HW122214   2.933   3.051   5.262
 7105SOL    HW222215   2.931   2.898   5.204
 7106SOL     OW22216   3.384   2.923   1.844
 7106SOL    HW122217   3.435   2.893   1.764
 7106SOL    HW222218   3.403   3.020   1.862
 7107SOL     OW22219   4.894   0.301   0.794
 7107SOL    HW122220   4.831   0.241   0.843
 7107SOL    HW222221   4.860   0.316   0.701
 7108SOL     OW22222   3.209   5.496   2.457
 7108SOL    HW122223   3.209   5.447   2.544
 7108SOL    HW222224   3.115   5.502   2.422
 7109SOL     OW22225   1.922   0.100   6.001
 7109SOL    HW122226   1.903   0.058   6.090
 7109SOL    HW222227   1.978   0.038   5.946
 7110SOL     OW22228   3.203   5.913   4.348
 7110SOL    HW122229   3.279   5.903   4.412
 7110SOL    HW222230   3.134   5.843   4.368
 7111SOL     OW22231   1.057   2.590   4.931
 7111SOL    HW122232   1.080   2.663   4.867
 7111SOL    HW222233   1.141   2.546   4.964
 7112SOL     OW22234   1.746   4.930   4.592
 7112SOL    HW122235   1.822   4.895   4.648
 7112SOL    HW222236   1.779   5.006   4.536
 7113SOL     OW22237   3.707   3.908   5.081
 7113SOL    HW122238   3.695   3.850   5.001
 7113SOL    HW222239   3.623   3.907   5.136
 7114SOL     OW22240   4.855   5.742   0.785
 7114SOL    HW122241   4.866   5.667   0.851
 7114SOL    HW222242   4.939   5.751   0.732
 7115SOL     OW22243   4.210   2.967   0.290
 7115SOL    HW122244   4.300   2.930   0.313
 7115SOL    HW222245   4.216   3.018   0.204
 7116SOL     OW22246   5.330   4.480   3.252
 7116SOL    HW122247   5.359   4.387   3.229
 7116SOL    HW222248   5.241   4.498   3.210
 7117SOL     OW22249   0.021   6.476   4.883
 7117SOL    HW122250   0.091   6.486   4.954
 7117SOL    HW222251   7.019   6.566   4.847
 7118SOL     OW22252   3.359   4.895   6.107
 7118SOL    HW122253   3.343   4.931   6.015
 7118SOL    HW222254   3.442   4.838   6.106
 7119SOL     OW22255   5.426   0.891   4.479
 7119SOL    HW122256   5.358   0.931   4.540
 7119SOL    HW222257   5.503   0.955   4.470
 7120SOL     OW22258   3.555   2.000   1.819
 7120SOL    HW122259   3.621   1.955   1.758
 7120SOL    HW222260   3.605   2.050   1.890
 7121SOL     OW22261   0.847   6.845   3.852
 7121SOL    HW122262   0.893   6.781   3.913
 7121SOL    HW222263   0.758   6.808   3.825
 7122SOL     OW22264   1.436   0.737   5.646
 7122SOL    HW122265   1.461   0.820   5.697
 7122SOL    HW222266   1.368   0.761   5.576
 7123SOL     OW22267   1.092   5.019   4.066
 7123SOL    HW122268   1.092   5.095   4.001
 7123SOL    HW222269   1.048   4.940   4.025
 7124SOL     OW22270   0.189   2.504   1.432
 7124SOL    HW122271   0.243   2.573   1.481
 7124SOL    HW222272   0.182   2.421   1.488
 7125SOL     OW22273   1.205   0.132   0.627
 7125SOL    HW122274   1.277   0.168   0.568
 7125SOL    HW222275   1.175   0.043   0.592
 7126SOL     OW22276   2.971   4.968   0.854
 7126SOL    HW122277   3.020   5.055   0.849
 7126SOL    HW222278   2.903   4.963   0.780
 7127SOL     OW22279   2.875   5.623   6.745
 7127SOL    HW122280   2.828   5.673   6.673
 7127SOL    HW222281   2.971   5.650   6.747
 7128SOL     OW22282   3.268   3.953   6.752
 7128SOL    HW122283   3.199   3.889   6.718
 7128SOL    HW222284   3.240   3.987   6.842
 7129SOL     OW22285   2.052   1.039   0.568
 7129SOL    HW122286   2.115   0.962   0.572
 7129SOL    HW222287   1.975   1.022   0.630
 7130SOL     OW22288   3.134   6.352   4.390
 7130SOL    HW122289   3.075   6.281   4.352
 7130SOL    HW222290   3.223   6.314   4.413
 7131SOL     OW22291   2.865   1.170   1.294
 7131SOL    HW122292   2.897   1.084   1.255
 7131SOL    HW222293   2.873   1.166   1.394
 7132SOL     OW22294   4.265   4.023   0.412
 7132SOL    HW122295   4.272   3.926   0.385
 7132SOL    HW222296   4.168   4.049   0.415
 7133SOL     OW22297   3.998   4.495   5.281
 7133SOL    HW122298   3.947   4.447   5.353
 7133SOL    HW222299   4.071   4.436   5.247
 7134SOL     OW22300   4.453   0.114   2.064
 7134SOL    HW122301   4.470   0.198   2.013
 7134SOL    HW222302   4.516   0.108   2.141
 7135SOL     OW22303   1.993   2.310   3.249
 7135SOL    HW122304   2.036   2.242   3.308
 7135SOL    HW222305   2.045   2.318   3.164
 7136SOL     OW22306   3.343   1.649   0.196
 7136SOL    HW122307   3.426   1.674   0.146
 7136SOL    HW222308   3.310   1.727   0.249
 7137SOL     OW22309   2.974   1.785   0.410
 7137SOL    HW122310   3.054   1.816   0.359
 7137SOL    HW222311   2.930   1.862   0.454
 7138SOL     OW22312   1.991   1.748   1.021
 7138SOL    HW122313   1.899   1.774   0.992
 7138SOL    HW222314   1.998   1.756   1.121
 7139SOL     OW22315   4.952   5.159   1.997
 7139SOL    HW122316   4.922   5.086   1.935
 7139SOL    HW222317   4.901   5.154   2.082
 7140SOL     OW22318   6.165   3.944   0.614
 7140SOL    HW122319   6.147   3.853   0.577
 7140SOL    HW222320   6.233   3.937   0.688
 7141SOL     OW22321   3.517   6.492   1.168
 7141SOL    HW122322   3.437   6.446   1.207
 7141SOL    HW222323   3.486   6.557   1.098
 7142SOL     OW22324   4.029   6.948   3.545
 7142SOL    HW122325   4.024   6.965   3.447
 7142SOL    HW222326   4.108   6.890   3.565
 7143SOL     OW22327   2.340   3.330   0.077
 7143SOL    HW122328   2.264   3.378   0.034
 7143SOL    HW222329   2.381   3.268   0.011
 7144SOL     OW22330   1.648   1.116   3.382
 7144SOL    HW122331   1.656   1.096   3.284
 7144SOL    HW222332   1.699   1.048   3.434
 7145SOL     OW22333   3.618   0.856   6.475
 7145SOL    HW122334   3.534   0.910   6.476
 7145SOL    HW222335   3.660   0.858   6.565
 7146SOL     OW22336   1.581   0.744   6.255
 7146SOL    HW122337   1.632   0.820   6.215
 7146SOL    HW222338   1.640   0.664   6.263
 7147SOL     OW22339   6.923   6.041   2.790
 7147SOL    HW122340   6.839   6.032   2.844
 7147SOL    HW222341   6.911   6.114   2.722
 7148SOL     OW22342   6.229   6.056   1.786
 7148SOL    HW122343   6.164   6.125   1.817
 7148SOL    HW222344   6.300   6.099   1.730
 7149SOL     OW22345   0.242   5.270   3.785
 7149SOL    HW122346   0.264   5.308   3.874
 7149SOL    HW222347   0.143   5.275   3.770
 7150SOL     OW22348   3.491   3.104   0.472
 7150SOL    HW122349   3.427   3.158   0.417
 7150SOL    HW222350   3.456   3.011   0.483
 7151SOL     OW22351   3.090   6.788   1.280
 7151SOL    HW122352   3.040   6.790   1.193
 7151SOL    HW222353   3.130   6.698   1.294
 7152SOL     OW22354   6.604   0.369   6.112
 7152SOL    HW122355   6.570   0.456   6.146
 7152SOL    HW222356   6.584   0.360   6.014
 7153SOL     OW22357   3.788   5.060   1.694
 7153SOL    HW122358   3.867   5.074   1.754
 7153SOL    HW222359   3.767   4.963   1.689
 7154SOL     OW22360   4.784   6.123   3.239
 7154SOL    HW122361   4.720   6.047   3.244
 7154SOL    HW222362   4.802   6.147   3.144
 7155SOL     OW22363   3.010   3.510   1.791
 7155SOL    HW122364   3.004   3.606   1.815
 7155SOL    HW222365   2.967   3.495   1.701
 7156SOL     OW22366   5.769   3.979   2.520
 7156SOL    HW122367   5.776   3.912   2.447
 7156SOL    HW222368   5.817   3.946   2.601
 7157SOL     OW22369   0.103   5.060   2.044
 7157SOL    HW122370   0.104   5.027   2.139
 7157SOL    HW222371   0.049   4.998   1.988
 7158SOL     OW22372   1.219   0.343   3.602
 7158SOL    HW122373   1.120   0.361   3.603
 7158SOL    HW222374   1.243   0.294   3.519
 7159SOL     OW22375   1.527   4.936   4.228
 7159SOL    HW122376   1.537   5.035   4.220
 7159SOL    HW222377   1.430   4.914   4.241
 7160SOL     OW22378   6.288   6.950   3.009
 7160SOL    HW122379   6.283   7.013   2.931
 7160SOL    HW222380   6.381   6.915   3.017
 7161SOL     OW22381   3.273   3.850   2.903
 7161SOL    HW122382   3.309   3.772   2.956
 7161SOL    HW222383   3.257   3.821   2.809
 7162SOL     OW22384   1.427   5.253   6.009
 7162SOL    HW122385   1.438   5.194   5.930
 7162SOL    HW222386   1.455   5.346   5.985
 7163SOL     OW22387   2.767   0.393   2.177
 7163SOL    HW122388   2.798   0.488   2.190
 7163SOL    HW222389   2.667   0.391   2.178
 7164SOL     OW22390   2.664   0.486   4.934
 7164SOL    HW122391   2.760   0.464   4.954
 7164SOL    HW222392   2.604   0.424   4.984
 7165SOL     OW22393   5.581   6.185   1.578
 7165SOL    HW122394   5.569   6.268   1.524
 7165SOL    HW222395   5.530   6.110   1.535
 7166SOL     OW22396   5.669   1.800   0.310
 7166SOL    HW122397   5.611   1.719   0.310
 7166SOL    HW222398   5.631   1.869   0.248
 7167SOL     OW22399   4.908   3.347   4.820
 7167SOL    HW122400   4.859   3.264   4.844
 7167SOL    HW222401   4.870   3.424   4.872
 7168SOL     OW22402   2.791   2.141   3.125
 7168SOL    HW122403   2.839   2.144   3.037
 7168SOL    HW222404   2.857   2.147   3.200
 7169SOL     OW22405   6.666   4.246   5.321
 7169SOL    HW122406   6.615   4.331   5.335
 7169SOL    HW222407   6.606   4.178   5.279
 7170SOL     OW22408   4.880   0.322   2.619
 7170SOL    HW122409   4.844   0.250   2.680
 7170SOL    HW222410   4.963   0.289   2.574
 7171SOL     OW22411   5.661   3.990   0.649
 7171SOL    HW122412   5.711   3.905   0.637
 7171SOL    HW222413   5.699   4.061   0.589
 7172SOL     OW22414   1.760   0.375   4.917
 7172SOL    HW122415   1.763   0.437   4.839
 7172SOL    HW222416   1.786   0.424   5.000
 7173SOL     OW22417   6.471   4.959   6.769
 7173SOL    HW122418   6.522   4.887   6.723
 7173SOL    HW222419   6.491   5.047   6.726
 7174SOL     OW22420   0.015   4.293   0.436
 7174SOL    HW122421   6.990   4.257   0.516
 7174SOL    HW222422   0.002   4.392   0.432
 7175SOL     OW22423   6.340   2.807   5.528
 7175SOL    HW122424   6.350   2.758   5.615
 7175SOL    HW222425   6.315   2.742   5.457
 7176SOL     OW22426   0.081   1.870   3.533
 7176SOL    HW122427   0.063   1.946   3.470
 7176SOL    HW222428   0.134   1.800   3.485
 7177SOL     OW22429   1.489   4.875   5.130
 7177SOL    HW122430   1.525   4.801   5.073
 7177SOL    HW222431   1.392   4.859   5.148
 7178SOL     OW22432   0.014   1.844   5.808
 7178SOL    HW122433   7.006   1.750   5.825
 7178SOL    HW222434   0.112   1.844   5.788
 7179SOL     OW22435   1.362   3.683   4.616
 7179SOL    HW122436   1.403   3.607   4.666
 7179SOL    HW222437   1.402   3.769   4.648
 7180SOL     OW22438   2.052   3.824   0.084
 7180SOL    HW122439   2.021   3.889   0.014
 7180SOL    HW222440   1.976   3.798   0.142
 7181SOL     OW22441   2.579   0.288   0.357
 7181SOL    HW122442   2.582   0.229   0.276
 7181SOL    HW222443   2.582   0.231   0.439
 7182SOL     OW22444   0.427   3.902   3.663
 7182SOL    HW122445   0.364   3.833   3.698
 7182SOL    HW222446   0.461   3.874   3.573
 7183SOL     OW22447   1.907   5.690   1.946
 7183SOL    HW122448   1.886   5.735   2.033
 7183SOL    HW222449   1.828   5.638   1.915
 7184SOL     OW22450   6.813   1.399   4.016
 7184SOL    HW122451   6.808   1.336   3.939
 7184SOL    HW222452   6.855   1.354   4.094
 7185SOL     OW22453   5.669   1.420   5.763
 7185SOL    HW122454   5.604   1.344   5.760
 7185SOL    HW222455   5.633   1.492   5.823
 7186SOL     OW22456   6.471   1.613   1.391
 7186SOL    HW122457   6.385   1.663   1.381
 7186SOL    HW222458   6.456   1.530   1.445
 7187SOL     OW22459   2.902   3.950   5.090
 7187SOL    HW122460   2.851   3.926   5.007
 7187SOL    HW222461   2.840   3.950   5.169
 7188SOL     OW22462   4.636   6.000   0.164
 7188SOL    HW122463   4.650   6.066   0.090
 7188SOL    HW222464   4.540   5.971   0.165
 7189SOL     OW22465   6.974   2.225   6.043
 7189SOL    HW122466   6.944   2.268   6.128
 7189SOL    HW222467   6.896   2.208   5.984
 7190SOL     OW22468   6.323   5.654   1.423
 7190SOL    HW122469   6.305   5.740   1.470
 7190SOL    HW222470   6.413   5.658   1.379
 7191SOL     OW22471   1.657   4.831   2.764
 7191SOL    HW122472   1.563   4.811   2.738
 7191SOL    HW222473   1.671   4.930   2.766
 7192SOL     OW22474   1.951   4.283   6.056
 7192SOL    HW122475   1.942   4.382   6.049
 7192SOL    HW222476   1.980   4.246   5.967
 7193SOL     OW22477   1.852   2.136   2.051
 7193SOL    HW122478   1.890   2.173   1.966
 7193SOL    HW222479   1.865   2.203   2.125
 7194SOL     OW22480   1.747   2.939   6.562
 7194SOL    HW122481   1.771   2.991   6.644
 7194SOL    HW222482   1.830   2.909   6.516
 7195SOL     OW22483   6.765   4.025   0.452
 7195SOL    HW122484   6.709   4.027   0.534
 7195SOL    HW222485   6.848   3.971   0.470
 7196SOL     OW22486   2.371   3.581   1.625
 7196SOL    HW122487   2.455   3.630   1.601
 7196SOL    HW222488   2.384   3.533   1.712
 7197SOL     OW22489   1.137   3.395   6.066
 7197SOL    HW122490   1.073   3.318   6.071
 7197SOL    HW222491   1.088   3.476   6.035
 7198SOL     OW22492   0.303   1.129   0.341
 7198SOL    HW122493   0.233   1.160   0.405
 7198SOL    HW222494   0.263   1.066   0.275
 7199SOL     OW22495   0.453   0.173   2.446
 7199SOL    HW122496   0.458   0.174   2.546
 7199SOL    HW222497   0.383   0.239   2.416
 7200SOL     OW22498   2.322   2.705   6.594
 7200SOL    HW122499   2.235   2.687   6.638
 7200SOL    HW222500   2.362   2.789   6.631
 7201SOL     OW22501   0.837   6.067   3.899
 7201SOL    HW122502   0.748   6.097   3.934
 7201SOL    HW222503   0.874   5.996   3.960
 7202SOL     OW22504   4.467   6.969   6.838
 7202SOL    HW122505   4.506   7.019   6.915
 7202SOL    HW222506   4.527   6.978   6.758
 7203SOL     OW22507   6.813   1.093   1.261
 7203SOL    HW122508   6.895   1.100   1.318
 7203SOL    HW222509   6.808   1.002   1.220
 7204SOL     OW22510   0.209   1.113   5.966
 7204SOL    HW122511   0.241   1.091   5.874
 7204SOL    HW222512   0.199   1.029   6.019
 7205SOL     OW22513   1.525   4.487   5.577
 7205SOL    HW122514   1.458   4.482   5.651
 7205SOL    HW222515   1.570   4.398   5.566
 7206SOL     OW22516   1.219   1.020   2.206
 7206SOL    HW122517   1.261   1.018   2.115
 7206SOL    HW222518   1.196   0.927   2.234
 7207SOL     OW22519   4.079   0.540   4.045
 7207SOL    HW122520   4.139   0.595   4.103
 7207SOL    HW222521   4.042   0.463   4.099
 7208SOL     OW22522   4.535   0.150   3.621
 7208SOL    HW122523   4.630   0.182   3.623
 7208SOL    HW222524   4.475   0.226   3.600
 7209SOL     OW22525   2.549   3.046   1.419
 7209SOL    HW122526   2.532   2.998   1.505
 7209SOL    HW222527   2.542   3.145   1.433
 7210SOL     OW22528   3.649   1.592   3.521
 7210SOL    HW122529   3.717   1.633   3.459
 7210SOL    HW222530   3.589   1.532   3.469
 7211SOL     OW22531   1.745   6.060   5.172
 7211SOL    HW122532   1.821   6.101   5.121
 7211SOL    HW222533   1.695   6.132   5.220
 7212SOL     OW22534   0.676   6.619   5.495
 7212SOL    HW122535   0.729   6.541   5.463
 7212SOL    HW222536   0.608   6.644   5.425
 7213SOL     OW22537   3.934   6.589   6.792
 7213SOL    HW122538   3.909   6.528   6.867
 7213SOL    HW222539   3.882   6.564   6.711
 7214SOL     OW22540   6.514   0.400   5.062
 7214SOL    HW122541   6.463   0.400   4.975
 7214SOL    HW222542   6.450   0.410   5.138
 7215SOL     OW22543   6.546   2.977   3.891
 7215SOL    HW122544   6.505   3.027   3.814
 7215SOL    HW222545   6.478   2.914   3.929
 7216SOL     OW22546   2.880   0.419   1.730
 7216SOL    HW122547   2.782   0.422   1.712
 7216SOL    HW222548   2.918   0.331   1.701
 7217SOL     OW22549   1.850   3.428   3.159
 7217SOL    HW122550   1.897   3.348   3.122
 7217SOL    HW222551   1.885   3.447   3.251
 7218SOL     OW22552   6.126   2.955   4.362
 7218SOL    HW122553   6.038   2.929   4.321
 7218SOL    HW222554   6.113   3.036   4.418
 7219SOL     OW22555   3.824   1.086   2.880
 7219SOL    HW122556   3.855   1.127   2.965
 7219SOL    HW222557   3.778   1.155   2.824
 7220SOL     OW22558   6.506   3.997   4.274
 7220SOL    HW122559   6.491   4.074   4.336
 7220SOL    HW222560   6.427   3.936   4.278
 7221SOL     OW22561   3.831   5.682   5.274
 7221SOL    HW122562   3.762   5.753   5.292
 7221SOL    HW222563   3.800   5.626   5.197
 7222SOL     OW22564   6.325   6.324   3.354
 7222SOL    HW122565   6.416   6.290   3.377
 7222SOL    HW222566   6.320   6.342   3.256
 7223SOL     OW22567   2.993   1.600   0.979
 7223SOL    HW122568   2.930   1.522   0.981
 7223SOL    HW222569   3.007   1.629   0.884
 7224SOL     OW22570   5.185   2.444   3.883
 7224SOL    HW122571   5.235   2.502   3.948
 7224SOL    HW222572   5.093   2.427   3.918
 7225SOL     OW22573   1.347   6.069   0.264
 7225SOL    HW122574   1.249   6.051   0.265
 7225SOL    HW222575   1.396   5.989   0.300
 7226SOL     OW22576   5.680   0.229   1.263
 7226SOL    HW122577   5.608   0.296   1.281
 7226SOL    HW222578   5.758   0.248   1.322
 7227SOL     OW22579   2.633   1.993   1.171
 7227SOL    HW122580   2.709   2.050   1.204
 7227SOL    HW222581   2.670   1.912   1.125
 7228SOL     OW22582   1.243   1.527   2.751
 7228SOL    HW122583   1.230   1.461   2.676
 7228SOL    HW222584   1.157   1.576   2.766
 7229SOL     OW22585   1.308   5.866   5.825
 7229SOL    HW122586   1.330   5.936   5.893
 7229SOL    HW222587   1.371   5.874   5.747
 7230SOL     OW22588   3.729   5.578   4.591
 7230SOL    HW122589   3.639   5.539   4.612
 7230SOL    HW222590   3.722   5.635   4.509
 7231SOL     OW22591   3.437   0.376   6.253
 7231SOL    HW122592   3.349   0.340   6.285
 7231SOL    HW222593   3.439   0.475   6.267
 7232SOL     OW22594   5.014   5.915   2.852
 7232SOL    HW122595   4.968   5.890   2.937
 7232SOL    HW222596   4.946   5.935   2.782
 7233SOL     OW22597   1.709   1.687   4.504
 7233SOL    HW122598   1.766   1.605   4.496
 7233SOL    HW222599   1.613   1.660   4.514
 7234SOL     OW22600   6.163   2.833   2.876
 7234SOL    HW122601   6.190   2.791   2.789
 7234SOL    HW222602   6.210   2.920   2.887
 7235SOL     OW22603   6.998   4.550   2.399
 7235SOL    HW122604   6.990   4.456   2.434
 7235SOL    HW222605   0.005   4.610   2.474
 7236SOL     OW22606   2.676   1.955   2.083
 7236SOL    HW122607   2.758   1.951   2.141
 7236SOL    HW222608   2.669   2.046   2.042
 7237SOL     OW22609   4.456   0.211   4.776
 7237SOL    HW122610   4.530   0.149   4.751
 7237SOL    HW222611   4.432   0.267   4.697
 7238SOL     OW22612   4.179   2.443   6.712
 7238SOL    HW122613   4.225   2.465   6.798
 7238SOL    HW222614   4.232   2.376   6.661
 7239SOL     OW22615   0.414   1.928   1.496
 7239SOL    HW122616   0.365   1.843   1.516
 7239SOL    HW222617   0.419   1.941   1.397
 7240SOL     OW22618   0.714   1.086   5.804
 7240SOL    HW122619   0.750   1.037   5.884
 7240SOL    HW222620   0.734   1.184   5.813
 7241SOL     OW22621   2.461   0.476   0.934
 7241SOL    HW122622   2.368   0.444   0.912
 7241SOL    HW222623   2.527   0.405   0.909
 7242SOL     OW22624   6.391   5.743   6.659
 7242SOL    HW122625   6.367   5.668   6.721
 7242SOL    HW222626   6.443   5.707   6.582
 7243SOL     OW22627   6.378   4.362   6.756
 7243SOL    HW122628   6.325   4.353   6.672
 7243SOL    HW222629   6.373   4.457   6.788
 7244SOL     OW22630   6.617   0.877   1.854
 7244SOL    HW122631   6.537   0.816   1.853
 7244SOL    HW222632   6.587   0.971   1.837
 7245SOL     OW22633   1.770   2.886   4.954
 7245SOL    HW122634   1.672   2.905   4.949
 7245SOL    HW222635   1.803   2.904   5.047
 7246SOL     OW22636   0.961   0.431   3.614
 7246SOL    HW122637   0.892   0.369   3.651
 7246SOL    HW222638   0.921   0.522   3.601
 7247SOL     OW22639   2.049   1.788   4.900
 7247SOL    HW122640   2.010   1.785   4.808
 7247SOL    HW222641   1.997   1.728   4.961
 7248SOL     OW22642   2.890   1.422   2.923
 7248SOL    HW122643   2.894   1.482   3.003
 7248SOL    HW222644   2.970   1.363   2.921
 7249SOL     OW22645   5.230   5.062   1.876
 7249SOL    HW122646   5.291   5.017   1.942
 7249SOL    HW222647   5.148   5.006   1.863
 7250SOL     OW22648   6.001   6.202   5.961
 7250SOL    HW122649   5.921   6.248   5.922
 7250SOL    HW222650   5.972   6.123   6.015
 7251SOL     OW22651   0.232   6.998   5.732
 7251SOL    HW122652   0.193   0.050   5.786
 7251SOL    HW222653   0.214   7.014   5.635
 7252SOL     OW22654   3.663   3.277   2.000
 7252SOL    HW122655   3.734   3.206   1.995
 7252SOL    HW222656   3.573   3.235   1.984
 7253SOL     OW22657   1.923   6.275   0.230
 7253SOL    HW122658   1.859   6.274   0.307
 7253SOL    HW222659   1.901   6.352   0.169
 7254SOL     OW22660   5.158   5.033   4.630
 7254SOL    HW122661   5.216   5.039   4.711
 7254SOL    HW222662   5.133   4.938   4.613
 7255SOL     OW22663   4.160   3.743   0.373
 7255SOL    HW122664   4.134   3.700   0.459
 7255SOL    HW222665   4.087   3.804   0.343
 7256SOL     OW22666   2.813   5.965   4.546
 7256SOL    HW122667   2.803   5.870   4.573
 7256SOL    HW222668   2.783   5.977   4.451
 7257SOL     OW22669   6.414   1.525   3.612
 7257SOL    HW122670   6.491   1.584   3.588
 7257SOL    HW222671   6.331   1.580   3.620
 7258SOL     OW22672   4.945   1.291   3.044
 7258SOL    HW122673   4.895   1.339   2.973
 7258SOL    HW222674   4.887   1.219   3.083
 7259SOL     OW22675   1.661   3.557   1.285
 7259SOL    HW122676   1.676   3.491   1.212
 7259SOL    HW222677   1.692   3.518   1.372
 7260SOL     OW22678   4.953   1.557   1.433
 7260SOL    HW122679   5.045   1.589   1.409
 7260SOL    HW222680   4.941   1.463   1.401
 7261SOL     OW22681   1.556   3.836   1.910
 7261SOL    HW122682   1.653   3.861   1.920
 7261SOL    HW222683   1.500   3.918   1.921
 7262SOL     OW22684   5.322   2.478   6.188
 7262SOL    HW122685   5.288   2.508   6.099
 7262SOL    HW222686   5.250   2.487   6.256
 7263SOL     OW22687   0.999   6.508   7.004
 7263SOL    HW122688   0.970   6.455   6.925
 7263SOL    HW222689   1.082   6.468   0.020
 7264SOL     OW22690   5.072   1.788   6.514
 7264SOL    HW122691   5.031   1.818   6.428
 7264SOL    HW222692   5.158   1.837   6.530
 7265SOL     OW22693   5.552   5.339   5.610
 7265SOL    HW122694   5.535   5.414   5.674
 7265SOL    HW222695   5.516   5.254   5.648
 7266SOL     OW22696   5.439   0.638   2.292
 7266SOL    HW122697   5.517   0.696   2.270
 7266SOL    HW222698   5.428   0.632   2.391
 7267SOL     OW22699   6.399   6.636   5.197
 7267SOL    HW122700   6.498   6.641   5.182
 7267SOL    HW222701   6.378   6.556   5.254
 7268SOL     OW22702   6.412   5.279   4.014
 7268SOL    HW122703   6.329   5.327   3.987
 7268SOL    HW222704   6.487   5.345   4.024
 7269SOL     OW22705   0.863   6.186   6.383
 7269SOL    HW122706   0.866   6.091   6.352
 7269SOL    HW222707   0.956   6.222   6.387
 7270SOL     OW22708   0.907   3.486   4.936
 7270SOL    HW122709   0.968   3.444   5.003
 7270SOL    HW222710   0.920   3.443   4.847
 7271SOL     OW22711   0.955   5.678   4.257
 7271SOL    HW122712   1.009   5.753   4.296
 7271SOL    HW222713   0.935   5.611   4.329
 7272SOL     OW22714   6.237   5.116   2.160
 7272SOL    HW122715   6.187   5.030   2.149
 7272SOL    HW222716   6.182   5.191   2.125
 7273SOL     OW22717   6.198   4.502   1.194
 7273SOL    HW122718   6.157   4.501   1.103
 7273SOL    HW222719   6.171   4.421   1.244
 7274SOL     OW22720   0.203   5.531   6.608
 7274SOL    HW122721   0.136   5.540   6.534
 7274SOL    HW222722   0.244   5.440   6.606
 7275SOL     OW22723   0.666   6.408   2.742
 7275SOL    HW122724   0.720   6.485   2.776
 7275SOL    HW222725   0.661   6.412   2.643
 7276SOL     OW22726   4.917   1.054   3.191
 7276SOL    HW122727   5.014   1.078   3.191
 7276SOL    HW222728   4.905   0.964   3.149
 7277SOL     OW22729   4.978   0.889   4.225
 7277SOL    HW122730   4.943   0.981   4.245
 7277SOL    HW222731   4.966   0.831   4.305
 7278SOL     OW22732   3.775   2.245   1.618
 7278SOL    HW122733   3.873   2.238   1.638
 7278SOL    HW222734   3.729   2.289   1.695
 7279SOL     OW22735   4.222   4.487   5.788
 7279SOL    HW122736   4.147   4.428   5.758
 7279SOL    HW222737   4.233   4.562   5.722
 7280SOL     OW22738   0.638   1.709   3.720
 7280SOL    HW122739   0.649   1.615   3.755
 7280SOL    HW222740   0.592   1.707   3.632
 7281SOL     OW22741   2.314   1.679   6.958
 7281SOL    HW122742   2.340   1.771   6.929
 7281SOL    HW222743   2.215   1.674   6.968
 7282SOL     OW22744   5.924   5.199   2.384
 7282SOL    HW122745   5.916   5.288   2.340
 7282SOL    HW222746   6.019   5.166   2.376
 7283SOL     OW22747   4.872   0.822   2.746
 7283SOL    HW122748   4.903   0.870   2.664
 7283SOL    HW222749   4.943   0.828   2.816
 7284SOL     OW22750   0.129   2.548   6.018
 7284SOL    HW122751   0.194   2.501   5.958
 7284SOL    HW222752   0.081   2.619   5.966
 7285SOL     OW22753   5.619   2.958   2.494
 7285SOL    HW122754   5.591   2.987   2.586
 7285SOL    HW222755   5.716   2.936   2.494
 7286SOL     OW22756   2.200   0.763   0.612
 7286SOL    HW122757   2.250   0.799   0.690
 7286SOL    HW222758   2.264   0.723   0.546
 7287SOL     OW22759   0.838   2.807   5.835
 7287SOL    HW122760   0.821   2.896   5.878
 7287SOL    HW222761   0.803   2.808   5.741
 7288SOL     OW22762   1.836   1.289   1.396
 7288SOL    HW122763   1.736   1.289   1.396
 7288SOL    HW222764   1.869   1.301   1.302
 7289SOL     OW22765   5.417   2.306   4.066
 7289SOL    HW122766   5.344   2.300   4.134
 7289SOL    HW222767   5.452   2.215   4.045
 7290SOL     OW22768   3.757   1.266   4.975
 7290SOL    HW122769   3.727   1.181   4.932
 7290SOL    HW222770   3.769   1.337   4.905
 7291SOL     OW22771   1.791   6.468   0.582
 7291SOL    HW122772   1.742   6.474   0.669
 7291SOL    HW222773   1.765   6.385   0.534
 7292SOL     OW22774   3.473   1.365   3.634
 7292SOL    HW122775   3.437   1.324   3.718
 7292SOL    HW222776   3.512   1.454   3.655
 7293SOL     OW22777   1.466   2.084   4.484
 7293SOL    HW122778   1.479   2.149   4.559
 7293SOL    HW222779   1.407   2.124   4.415
 7294SOL     OW22780   2.798   4.976   6.814
 7294SOL    HW122781   2.716   5.025   6.844
 7294SOL    HW222782   2.877   5.037   6.821
 7295SOL     OW22783   5.789   2.928   1.616
 7295SOL    HW122784   5.722   2.855   1.629
 7295SOL    HW222785   5.751   3.014   1.648
 7296SOL     OW22786   3.405   5.907   2.262
 7296SOL    HW122787   3.369   5.885   2.353
 7296SOL    HW222788   3.465   5.833   2.232
 7297SOL     OW22789   4.278   0.103   1.347
 7297SOL    HW122790   4.372   0.123   1.377
 7297SOL    HW222791   4.275   0.010   1.311
 7298SOL     OW22792   5.046   5.381   6.194
 7298SOL    HW122793   5.033   5.350   6.288
 7298SOL    HW222794   4.957   5.388   6.149
 7299SOL     OW22795   1.039   2.331   1.016
 7299SOL    HW122796   1.134   2.326   0.985
 7299SOL    HW222797   1.035   2.316   1.114
 7300SOL     OW22798   0.607   6.799   2.519
 7300SOL    HW122799   0.588   6.721   2.460
 7300SOL    HW222800   0.522   6.852   2.533
 7301SOL     OW22801   6.033   1.407   4.308
 7301SOL    HW122802   6.072   1.315   4.301
 7301SOL    HW222803   5.942   1.408   4.265
 7302SOL     OW22804   1.171   2.635   5.333
 7302SOL    HW122805   1.147   2.678   5.420
 7302SOL    HW222806   1.242   2.689   5.288
 7303SOL     OW22807   3.824   0.943   0.130
 7303SOL    HW122808   3.828   0.916   0.226
 7303SOL    HW222809   3.739   0.911   0.089
 7304SOL     OW22810   3.278   5.606   2.190
 7304SOL    HW122811   3.239   5.693   2.159
 7304SOL    HW222812   3.266   5.599   2.289
 7305SOL     OW22813   4.894   0.532   0.381
 7305SOL    HW122814   4.832   0.503   0.453
 7305SOL    HW222815   4.986   0.545   0.419
 7306SOL     OW22816   4.916   1.686   0.740
 7306SOL    HW122817   4.837   1.690   0.801
 7306SOL    HW222818   4.902   1.614   0.672
 7307SOL     OW22819   2.735   6.631   2.830
 7307SOL    HW122820   2.825   6.658   2.863
 7307SOL    HW222821   2.731   6.640   2.731
 7308SOL     OW22822   6.849   3.202   5.389
 7308SOL    HW122823   6.764   3.230   5.433
 7308SOL    HW222824   6.888   3.124   5.438
 7309SOL     OW22825   3.863   4.807   0.781
 7309SOL    HW122826   3.899   4.900   0.780
 7309SOL    HW222827   3.803   4.793   0.702
 7310SOL     OW22828   2.040   3.918   0.763
 7310SOL    HW122829   2.014   3.886   0.672
 7310SOL    HW222830   1.957   3.942   0.814
 7311SOL     OW22831   2.061   1.877   1.296
 7311SOL    HW122832   2.111   1.800   1.337
 7311SOL    HW222833   2.117   1.960   1.301
 7312SOL     OW22834   1.205   3.896   4.988
 7312SOL    HW122835   1.297   3.935   4.978
 7312SOL    HW222836   1.201   3.844   5.074
 7313SOL     OW22837   1.913   0.934   0.333
 7313SOL    HW122838   1.948   0.948   0.426
 7313SOL    HW222839   1.922   1.019   0.281
 7314SOL     OW22840   0.199   5.171   6.136
 7314SOL    HW122841   0.205   5.156   6.235
 7314SOL    HW222842   0.291   5.181   6.098
 7315SOL     OW22843   6.463   6.455   2.300
 7315SOL    HW122844   6.518   6.457   2.383
 7315SOL    HW222845   6.366   6.444   2.324
 7316SOL     OW22846   3.690   3.583   6.666
 7316SOL    HW122847   3.601   3.629   6.666
 7316SOL    HW222848   3.734   3.597   6.755
 7317SOL     OW22849   5.221   1.232   2.964
 7317SOL    HW122850   5.125   1.246   2.986
 7317SOL    HW222851   5.244   1.135   2.973
 7318SOL     OW22852   2.109   0.332   2.280
 7318SOL    HW122853   2.162   0.263   2.330
 7318SOL    HW222854   2.157   0.420   2.283
 7319SOL     OW22855   6.863   3.441   6.788
 7319SOL    HW122856   6.901   3.350   6.775
 7319SOL    HW222857   6.772   3.434   6.828
 7320SOL     OW22858   0.591   3.715   3.107
 7320SOL    HW122859   0.530   3.766   3.167
 7320SOL    HW222860   0.664   3.674   3.161
 7321SOL     OW22861   1.832   0.687   6.076
 7321SOL    HW122862   1.786   0.620   6.135
 7321SOL    HW222863   1.921   0.651   6.047
 7322SOL     OW22864   6.752   2.786   3.191
 7322SOL    HW122865   6.805   2.826   3.116
 7322SOL    HW222866   6.779   2.828   3.277
 7323SOL     OW22867   1.813   2.711   1.469
 7323SOL    HW122868   1.881   2.667   1.411
 7323SOL    HW222869   1.860   2.768   1.537
 7324SOL     OW22870   4.863   5.898   1.782
 7324SOL    HW122871   4.862   5.868   1.877
 7324SOL    HW222872   4.849   5.997   1.779
 7325SOL     OW22873   2.849   0.468   6.923
 7325SOL    HW122874   2.825   0.541   6.986
 7325SOL    HW222875   2.843   0.502   6.829
 7326SOL     OW22876   2.611   6.066   5.930
 7326SOL    HW122877   2.516   6.075   5.961
 7326SOL    HW222878   2.658   5.998   5.987
 7327SOL     OW22879   6.251   1.505   6.212
 7327SOL    HW122880   6.198   1.570   6.158
 7327SOL    HW222881   6.339   1.487   6.167
 7328SOL     OW22882   3.344   0.490   5.722
 7328SOL    HW122883   3.429   0.459   5.764
 7328SOL    HW222884   3.287   0.411   5.700
 7329SOL     OW22885   6.995   4.127   1.221
 7329SOL    HW122886   6.924   4.183   1.263
 7329SOL    HW222887   0.047   4.114   1.286
 7330SOL     OW22888   2.053   2.676   6.677
 7330SOL    HW122889   2.038   2.579   6.660
 7330SOL    HW222890   2.042   2.695   6.775
 7331SOL     OW22891   4.972   6.214   1.375
 7331SOL    HW122892   5.071   6.219   1.363
 7331SOL    HW222893   4.927   6.240   1.289
 7332SOL     OW22894   3.396   6.191   0.242
 7332SOL    HW122895   3.340   6.182   0.159
 7332SOL    HW222896   3.381   6.282   0.281
 7333SOL     OW22897   6.829   3.213   2.101
 7333SOL    HW122898   6.734   3.224   2.130
 7333SOL    HW222899   6.865   3.302   2.070
 7334SOL     OW22900   2.434   5.842   6.460
 7334SOL    HW122901   2.385   5.778   6.401
 7334SOL    HW222902   2.380   5.858   6.543
 7335SOL     OW22903   1.516   2.631   3.604
 7335SOL    HW122904   1.512   2.730   3.600
 7335SOL    HW222905   1.562   2.602   3.687
 7336SOL     OW22906   1.527   6.632   2.629
 7336SOL    HW122907   1.558   6.727   2.638
 7336SOL    HW222908   1.480   6.605   2.713
 7337SOL     OW22909   0.980   3.234   1.180
 7337SOL    HW122910   1.064   3.217   1.232
 7337SOL    HW222911   0.977   3.173   1.101
 7338SOL     OW22912   5.207   1.962   1.731
 7338SOL    HW122913   5.283   1.958   1.797
 7338SOL    HW222914   5.221   2.041   1.671
 7339SOL     OW22915   6.208   0.420   4.048
 7339SOL    HW122916   6.273   0.478   4.097
 7339SOL    HW222917   6.119   0.424   4.094
 7340SOL     OW22918   3.244   1.411   0.328
 7340SOL    HW122919   3.333   1.369   0.347
 7340SOL    HW222920   3.257   1.504   0.296
 7341SOL     OW22921   0.635   4.116   5.692
 7341SOL    HW122922   0.659   4.033   5.742
 7341SOL    HW222923   0.577   4.174   5.750
 7342SOL     OW22924   0.397   1.183   6.865
 7342SOL    HW122925   0.339   1.244   6.919
 7342SOL    HW222926   0.449   1.123   6.926
 7343SOL     OW22927   5.977   3.999   1.140
 7343SOL    HW122928   5.917   4.005   1.220
 7343SOL    HW222929   5.969   3.907   1.100
 7344SOL     OW22930   1.231   1.335   5.988
 7344SOL    HW122931   1.188   1.258   5.942
 7344SOL    HW222932   1.279   1.392   5.921
 7345SOL     OW22933   4.860   4.981   5.062
 7345SOL    HW122934   4.842   5.054   5.128
 7345SOL    HW222935   4.911   4.908   5.107
 7346SOL     OW22936   4.496   4.801   1.991
 7346SOL    HW122937   4.501   4.705   1.962
 7346SOL    HW222938   4.400   4.829   1.993
 7347SOL     OW22939   7.000   2.381   0.161
 7347SOL    HW122940   6.958   2.360   0.249
 7347SOL    HW222941   0.076   2.392   0.173
 7348SOL     OW22942   1.793   3.698   4.564
 7348SOL    HW122943   1.714   3.638   4.579
 7348SOL    HW222944   1.877   3.650   4.592
 7349SOL     OW22945   4.702   1.513   1.649
 7349SOL    HW122946   4.794   1.538   1.679
 7349SOL    HW222947   4.688   1.415   1.664
 7350SOL     OW22948   2.269   3.288   5.638
 7350SOL    HW122949   2.320   3.283   5.724
 7350SOL    HW222950   2.331   3.268   5.562
 7351SOL     OW22951   5.562   6.538   5.314
 7351SOL    HW122952   5.582   6.526   5.411
 7351SOL    HW222953   5.630   6.489   5.259
 7352SOL     OW22954   2.434   1.335   3.054
 7352SOL    HW122955   2.395   1.316   3.144
 7352SOL    HW222956   2.394   1.272   2.987
 7353SOL     OW22957   0.907   0.189   6.361
 7353SOL    HW122958   0.878   0.135   6.281
 7353SOL    HW222959   0.828   0.203   6.421
 7354SOL     OW22960   0.859   2.249   5.101
 7354SOL    HW122961   0.816   2.337   5.118
 7354SOL    HW222962   0.794   2.187   5.057
 7355SOL     OW22963   1.444   0.778   0.815
 7355SOL    HW122964   1.412   0.686   0.839
 7355SOL    HW222965   1.412   0.843   0.885
 7356SOL     OW22966   3.660   4.130   5.983
 7356SOL    HW122967   3.757   4.112   5.966
 7356SOL    HW222968   3.651   4.215   6.035
 7357SOL     OW22969   3.421   6.830   1.392
 7357SOL    HW122970   3.506   6.883   1.395
 7357SOL    HW222971   3.390   6.821   1.297
 7358SOL     OW22972   5.905   3.698   2.899
 7358SOL    HW122973   5.829   3.646   2.862
 7358SOL    HW222974   5.924   3.668   2.993
 7359SOL     OW22975   3.418   1.937   6.189
 7359SOL    HW122976   3.321   1.948   6.207
 7359SOL    HW222977   3.442   1.840   6.192
 7360SOL     OW22978   3.070   3.542   5.453
 7360SOL    HW122979   3.107   3.450   5.469
 7360SOL    HW222980   3.145   3.606   5.439
 7361SOL     OW22981   4.198   0.213   2.092
 7361SOL    HW122982   4.297   0.203   2.097
 7361SOL    HW222983   4.153   0.135   2.136
 7362SOL     OW22984   1.482   4.578   5.306
 7362SOL    HW122985   1.529   4.654   5.259
 7362SOL    HW222986   1.513   4.573   5.401
 7363SOL     OW22987   4.753   2.025   1.651
 7363SOL    HW122988   4.722   2.020   1.746
 7363SOL    HW222989   4.714   2.106   1.607
 7364SOL     OW22990   4.741   0.787   1.287
 7364SOL    HW122991   4.655   0.760   1.244
 7364SOL    HW222992   4.781   0.708   1.333
 7365SOL     OW22993   0.310   5.723   1.633
 7365SOL    HW122994   0.282   5.817   1.615
 7365SOL    HW222995   0.403   5.709   1.601
 7366SOL     OW22996   2.844   6.076   6.810
 7366SOL    HW122997   2.799   5.999   6.855
 7366SOL    HW222998   2.779   6.150   6.798
 7367SOL     OW22999   4.896   2.808   1.030
 7367SOL    HW123000   4.874   2.716   1.062
 7367SOL    HW223001   4.914   2.867   1.108
 7368SOL     OW23002   3.643   2.987   2.742
 7368SOL    HW123003   3.580   2.915   2.770
 7368SOL    HW223004   3.729   2.979   2.793
 7369SOL     OW23005   3.556   2.104   0.191
 7369SOL    HW123006   3.578   2.174   0.258
 7369SOL    HW223007   3.553   2.145   0.099
 7370SOL     OW23008   2.403   0.586   4.427
 7370SOL    HW123009   2.480   0.638   4.464
 7370SOL    HW223010   2.328   0.648   4.405
 7371SOL     OW23011   2.559   6.583   3.422
 7371SOL    HW123012   2.505   6.507   3.387
 7371SOL    HW223013   2.512   6.624   3.500
 7372SOL     OW23014   4.646   1.397   4.563
 7372SOL    HW123015   4.692   1.486   4.558
 7372SOL    HW223016   4.700   1.329   4.514
 7373SOL     OW23017   6.034   1.413   3.677
 7373SOL    HW123018   6.103   1.423   3.749
 7373SOL    HW223019   6.073   1.359   3.602
 7374SOL     OW23020   2.287   1.684   5.040
 7374SOL    HW123021   2.204   1.730   5.011
 7374SOL    HW223022   2.366   1.723   4.992
 7375SOL     OW23023   2.508   2.139   2.794
 7375SOL    HW123024   2.533   2.230   2.828
 7375SOL    HW223025   2.490   2.078   2.871
 7376SOL     OW23026   2.601   2.012   0.756
 7376SOL    HW123027   2.589   1.941   0.687
 7376SOL    HW223028   2.680   1.989   0.814
 7377SOL     OW23029   5.678   4.485   0.833
 7377SOL    HW123030   5.700   4.429   0.753
 7377SOL    HW223031   5.761   4.532   0.864
 7378SOL     OW23032   0.435   1.037   6.244
 7378SOL    HW123033   0.346   1.075   6.269
 7378SOL    HW223034   0.449   1.048   6.146
 7379SOL     OW23035   3.154   1.587   2.777
 7379SOL    HW123036   3.188   1.498   2.806
 7379SOL    HW223037   3.189   1.608   2.685
 7380SOL     OW23038   6.833   4.730   3.999
 7380SOL    HW123039   6.855   4.677   4.082
 7380SOL    HW223040   6.741   4.769   4.008
 7381SOL     OW23041   3.859   3.351   0.970
 7381SOL    HW123042   3.896   3.273   1.021
 7381SOL    HW223043   3.839   3.323   0.876
 7382SOL     OW23044   0.623   6.886   5.592
 7382SOL    HW123045   0.646   6.898   5.689
 7382SOL    HW223046   0.625   6.789   5.569
 7383SOL     OW23047   2.150   6.701   0.823
 7383SOL    HW123048   2.206   6.770   0.777
 7383SOL    HW223049   2.173   6.611   0.786
 7384SOL     OW23050   6.248   6.630   2.781
 7384SOL    HW123051   6.205   6.695   2.718
 7384SOL    HW223052   6.177   6.585   2.835
 7385SOL     OW23053   3.814   6.035   2.409
 7385SOL    HW123054   3.790   6.087   2.327
 7385SOL    HW223055   3.839   5.941   2.384
 7386SOL     OW23056   0.221   2.433   6.827
 7386SOL    HW123057   0.152   2.376   6.872
 7386SOL    HW223058   0.202   2.438   6.729
 7387SOL     OW23059   6.269   6.380   5.246
 7387SOL    HW123060   6.343   6.313   5.251
 7387SOL    HW223061   6.187   6.336   5.209
 7388SOL     OW23062   1.197   5.739   2.373
 7388SOL    HW123063   1.294   5.730   2.397
 7388SOL    HW223064   1.146   5.768   2.454
 7389SOL     OW23065   6.016   3.913   6.735
 7389SOL    HW123066   6.051   3.976   6.665
 7389SOL    HW223067   5.976   3.966   6.810
 7390SOL     OW23068   1.230   1.964   0.835
 7390SOL    HW123069   1.159   1.945   0.903
 7390SOL    HW223070   1.193   1.949   0.743
 7391SOL     OW23071   4.117   3.386   3.691
 7391SOL    HW123072   4.137   3.338   3.605
 7391SOL    HW223073   4.104   3.483   3.673
 7392SOL     OW23074   2.948   6.880   6.513
 7392SOL    HW123075   2.959   6.905   6.609
 7392SOL    HW223076   2.939   6.781   6.505
 7393SOL     OW23077   6.126   4.521   2.798
 7393SOL    HW123078   6.076   4.608   2.794
 7393SOL    HW223079   6.209   4.528   2.742
 7394SOL     OW23080   2.528   2.739   5.842
 7394SOL    HW123081   2.589   2.815   5.820
 7394SOL    HW223082   2.577   2.673   5.900
 7395SOL     OW23083   1.847   3.100   1.370
 7395SOL    HW123084   1.763   3.046   1.364
 7395SOL    HW223085   1.828   3.194   1.343
 7396SOL     OW23086   1.626   6.336   1.522
 7396SOL    HW123087   1.673   6.343   1.610
 7396SOL    HW223088   1.608   6.427   1.486
 7397SOL     OW23089   4.300   5.404   4.570
 7397SOL    HW123090   4.251   5.427   4.654
 7397SOL    HW223091   4.283   5.475   4.501
 7398SOL     OW23092   2.083   4.901   4.231
 7398SOL    HW123093   2.011   4.912   4.162
 7398SOL    HW223094   2.168   4.874   4.186
 7399SOL     OW23095   0.420   3.089   4.811
 7399SOL    HW123096   0.475   3.170   4.790
 7399SOL    HW223097   0.453   3.012   4.756
 7400SOL     OW23098   4.232   2.651   6.131
 7400SOL    HW123099   4.292   2.691   6.200
 7400SOL    HW223100   4.138   2.682   6.148
 7401SOL     OW23101   1.416   2.543   4.364
 7401SOL    HW123102   1.414   2.507   4.271
 7401SOL    HW223103   1.506   2.524   4.405
 7402SOL     OW23104   3.042   5.777   6.300
 7402SOL    HW123105   3.024   5.867   6.260
 7402SOL    HW223106   3.140   5.767   6.317
 7403SOL     OW23107   1.896   3.485   2.436
 7403SOL    HW123108   1.813   3.530   2.405
 7403SOL    HW223109   1.878   3.436   2.521
 7404SOL     OW23110   2.693   5.104   1.645
 7404SOL    HW123111   2.681   5.016   1.600
 7404SOL    HW223112   2.639   5.106   1.729
 7405SOL     OW23113   3.730   5.222   5.212
 7405SOL    HW123114   3.687   5.192   5.127
 7405SOL    HW223115   3.661   5.232   5.283
 7406SOL     OW23116   0.261   2.826   3.540
 7406SOL    HW123117   0.206   2.743   3.528
 7406SOL    HW223118   0.251   2.860   3.633
 7407SOL     OW23119   0.875   6.930   5.326
 7407SOL    HW123120   0.922   6.956   5.241
 7407SOL    HW223121   0.780   6.905   5.305
 7408SOL     OW23122   3.110   4.265   0.107
 7408SOL    HW123123   3.077   4.218   0.025
 7408SOL    HW223124   3.195   4.313   0.086
 7409SOL     OW23125   5.119   3.209   0.110
 7409SOL    HW123126   5.116   3.204   0.210
 7409SOL    HW223127   5.147   3.120   0.072
 7410SOL     OW23128   0.697   7.015   0.230
 7410SOL    HW123129   0.728   0.076   0.185
 7410SOL    HW223130   0.661   0.014   0.321
 7411SOL     OW23131   1.942   0.196   6.547
 7411SOL    HW123132   1.911   0.285   6.579
 7411SOL    HW223133   1.922   0.127   6.616
 7412SOL     OW23134   5.130   0.279   1.885
 7412SOL    HW123135   5.174   0.368   1.878
 7412SOL    HW223136   5.188   0.217   1.939
 7413SOL     OW23137   4.749   5.439   4.170
 7413SOL    HW123138   4.792   5.499   4.238
 7413SOL    HW223139   4.678   5.384   4.214
 7414SOL     OW23140   0.895   0.711   3.607
 7414SOL    HW123141   0.940   0.750   3.527
 7414SOL    HW223142   0.959   0.710   3.684
 7415SOL     OW23143   1.500   4.645   4.100
 7415SOL    HW123144   1.555   4.562   4.088
 7415SOL    HW223145   1.556   4.717   4.139
 7416SOL     OW23146   1.844   0.971   2.317
 7416SOL    HW123147   1.939   0.940   2.322
 7416SOL    HW223148   1.835   1.038   2.243
 7417SOL     OW23149   2.155   1.883   0.841
 7417SOL    HW123150   2.241   1.909   0.884
 7417SOL    HW223151   2.108   1.815   0.898
 7418SOL     OW23152   2.640   5.764   0.267
 7418SOL    HW123153   2.722   5.807   0.229
 7418SOL    HW223154   2.647   5.665   0.258
 7419SOL     OW23155   6.835   2.935   4.314
 7419SOL    HW123156   6.738   2.926   4.337
 7419SOL    HW223157   6.887   2.861   4.357
 7420SOL     OW23158   0.538   6.475   1.396
 7420SOL    HW123159   0.501   6.508   1.309
 7420SOL    HW223160   0.578   6.552   1.446
 7421SOL     OW23161   4.174   4.072   1.132
 7421SOL    HW123162   4.089   4.107   1.093
 7421SOL    HW223163   4.153   4.011   1.208
 7422SOL     OW23164   0.257   4.408   2.517
 7422SOL    HW123165   0.251   4.506   2.538
 7422SOL    HW223166   0.353   4.381   2.508
 7423SOL     OW23167   6.276   2.532   5.742
 7423SOL    HW123168   6.236   2.478   5.668
 7423SOL    HW223169   6.370   2.559   5.717
 7424SOL     OW23170   6.675   0.333   5.597
 7424SOL    HW123171   6.709   0.426   5.583
 7424SOL    HW223172   6.752   0.269   5.602
 7425SOL     OW23173   4.282   6.453   0.478
 7425SOL    HW123174   4.351   6.415   0.540
 7425SOL    HW223175   4.255   6.544   0.509
 7426SOL     OW23176   3.072   1.988   5.543
 7426SOL    HW123177   3.155   1.933   5.542
 7426SOL    HW223178   3.022   1.970   5.629
 7427SOL     OW23179   5.097   0.859   3.624
 7427SOL    HW123180   5.169   0.857   3.694
 7427SOL    HW223181   5.012   0.823   3.663
 7428SOL     OW23182   4.771   1.901   5.495
 7428SOL    HW123183   4.845   1.917   5.431
 7428SOL    HW223184   4.802   1.920   5.588
 7429SOL     OW23185   0.331   6.414   4.182
 7429SOL    HW123186   0.413   6.357   4.178
 7429SOL    HW223187   0.266   6.383   4.113
 7430SOL     OW23188   1.094   3.395   0.888
 7430SOL    HW123189   1.091   3.323   0.958
 7430SOL    HW223190   1.033   3.370   0.813
 7431SOL     OW23191   1.664   2.794   2.928
 7431SOL    HW123192   1.752   2.808   2.883
 7431SOL    HW223193   1.619   2.714   2.888
 7432SOL     OW23194   1.030   0.988   3.046
 7432SOL    HW123195   1.097   0.996   2.973
 7432SOL    HW223196   0.986   1.077   3.060
 7433SOL     OW23197   4.167   5.322   6.486
 7433SOL    HW123198   4.081   5.309   6.537
 7433SOL    HW223199   4.205   5.233   6.463
 7434SOL     OW23200   4.921   5.476   5.021
 7434SOL    HW123201   4.836   5.495   4.971
 7434SOL    HW223202   4.969   5.562   5.039
 7435SOL     OW23203   4.062   5.529   1.303
 7435SOL    HW123204   4.066   5.501   1.207
 7435SOL    HW223205   4.043   5.627   1.308
 7436SOL     OW23206   4.175   4.129   6.390
 7436SOL    HW123207   4.204   4.040   6.354
 7436SOL    HW223208   4.253   4.192   6.390
 7437SOL     OW23209   2.067   5.827   7.012
 7437SOL    HW123210   2.148   5.799   6.960
 7437SOL    HW223211   1.987   5.777   6.978
 7438SOL     OW23212   1.177   5.586   0.489
 7438SOL    HW123213   1.168   5.518   0.562
 7438SOL    HW223214   1.096   5.582   0.431
 7439SOL     OW23215   1.775   6.712   5.574
 7439SOL    HW123216   1.821   6.800   5.561
 7439SOL    HW223217   1.715   6.717   5.654
 7440SOL     OW23218   0.154   2.921   4.256
 7440SOL    HW123219   0.184   2.899   4.348
 7440SOL    HW223220   0.161   2.840   4.198
 7441SOL     OW23221   5.184   6.718   4.439
 7441SOL    HW123222   5.261   6.676   4.487
 7441SOL    HW223223   5.207   6.812   4.414
 7442SOL     OW23224   6.620   1.250   6.080
 7442SOL    HW123225   6.708   1.241   6.035
 7442SOL    HW223226   6.562   1.172   6.056
 7443SOL     OW23227   6.190   6.345   1.655
 7443SOL    HW123228   6.144   6.395   1.582
 7443SOL    HW223229   6.122   6.314   1.722
 7444SOL     OW23230   5.639   2.395   6.514
 7444SOL    HW123231   5.700   2.464   6.554
 7444SOL    HW223232   5.551   2.437   6.493
 7445SOL     OW23233   3.939   0.319   1.275
 7445SOL    HW123234   3.892   0.401   1.242
 7445SOL    HW223235   4.023   0.345   1.322
 7446SOL     OW23236   5.761   3.216   0.353
 7446SOL    HW123237   5.780   3.128   0.308
 7446SOL    HW223238   5.718   3.200   0.441
 7447SOL     OW23239   6.176   3.810   0.017
 7447SOL    HW123240   6.232   3.832   6.960
 7447SOL    HW223241   6.089   3.771   7.009
 7448SOL     OW23242   6.752   6.886   5.266
 7448SOL    HW123243   6.796   6.841   5.188
 7448SOL    HW223244   6.659   6.912   5.240
 7449SOL     OW23245   0.582   4.456   2.164
 7449SOL    HW123246   0.610   4.484   2.256
 7449SOL    HW223247   0.647   4.388   2.129
 7450SOL     OW23248   5.466   2.724   5.619
 7450SOL    HW123249   5.384   2.766   5.579
 7450SOL    HW223250   5.529   2.700   5.546
 7451SOL     OW23251   6.710   5.791   2.889
 7451SOL    HW123252   6.736   5.698   2.864
 7451SOL    HW223253   6.638   5.823   2.827
 7452SOL     OW23254   6.122   6.029   4.107
 7452SOL    HW123255   6.054   6.057   4.039
 7452SOL    HW223256   6.079   5.966   4.172
 7453SOL     OW23257   5.543   5.851   5.479
 7453SOL    HW123258   5.458   5.821   5.434
 7453SOL    HW223259   5.619   5.844   5.414
 7454SOL     OW23260   1.448   2.050   1.637
 7454SOL    HW123261   1.355   2.072   1.667
 7454SOL    HW223262   1.508   2.127   1.658
 7455SOL     OW23263   6.518   2.685   1.546
 7455SOL    HW123264   6.482   2.592   1.559
 7455SOL    HW223265   6.452   2.740   1.496
 7456SOL     OW23266   1.340   0.991   4.673
 7456SOL    HW123267   1.349   0.993   4.773
 7456SOL    HW223268   1.291   1.072   4.642
 7457SOL     OW23269   3.451   0.885   5.116
 7457SOL    HW123270   3.368   0.914   5.067
 7457SOL    HW223271   3.477   0.794   5.086
 7458SOL     OW23272   1.969   6.737   5.812
 7458SOL    HW123273   2.013   6.741   5.902
 7458SOL    HW223274   1.884   6.686   5.818
 7459SOL     OW23275   4.927   0.458   2.199
 7459SOL    HW123276   4.848   0.459   2.260
 7459SOL    HW223277   4.936   0.547   2.154
 7460SOL     OW23278   0.770   4.942   0.507
 7460SOL    HW123279   0.683   4.897   0.490
 7460SOL    HW223280   0.775   5.027   0.454
 7461SOL     OW23281   6.248   0.075   6.765
 7461SOL    HW123282   6.175   0.069   6.696
 7461SOL    HW223283   6.335   0.045   6.724
 7462SOL     OW23284   1.653   4.234   2.411
 7462SOL    HW123285   1.692   4.325   2.402
 7462SOL    HW223286   1.614   4.204   2.324
 7463SOL     OW23287   2.858   4.808   1.055
 7463SOL    HW123288   2.827   4.847   1.142
 7463SOL    HW223289   2.917   4.873   1.008
 7464SOL     OW23290   5.625   6.316   6.165
 7464SOL    HW123291   5.589   6.367   6.087
 7464SOL    HW223292   5.713   6.355   6.192
 7465SOL     OW23293   2.856   5.586   6.307
 7465SOL    HW123294   2.936   5.645   6.320
 7465SOL    HW223295   2.833   5.584   6.210
 7466SOL     OW23296   0.431   0.182   4.799
 7466SOL    HW123297   0.337   0.157   4.778
 7466SOL    HW223298   0.492   0.107   4.772
 7467SOL     OW23299   0.595   1.556   0.313
 7467SOL    HW123300   0.644   1.468   0.315
 7467SOL    HW223301   0.566   1.579   0.406
 7468SOL     OW23302   5.851   2.401   3.851
 7468SOL    HW123303   5.798   2.344   3.788
 7468SOL    HW223304   5.802   2.487   3.867
 7469SOL     OW23305   6.767   0.733   6.946
 7469SOL    HW123306   6.692   0.762   6.887
 7469SOL    HW223307   6.744   0.751   0.019
 7470SOL     OW23308   6.109   4.099   3.350
 7470SOL    HW123309   6.015   4.078   3.325
 7470SOL    HW223310   6.111   4.144   3.439
 7471SOL     OW23311   5.316   0.107   5.963
 7471SOL    HW123312   5.383   0.179   5.977
 7471SOL    HW223313   5.336   0.058   5.878
 7472SOL     OW23314   6.091   0.724   6.097
 7472SOL    HW123315   6.096   0.824   6.086
 7472SOL    HW223316   6.176   0.683   6.067
 7473SOL     OW23317   5.795   5.397   4.206
 7473SOL    HW123318   5.699   5.370   4.215
 7473SOL    HW223319   5.854   5.317   4.222
 7474SOL     OW23320   0.300   1.576   5.873
 7474SOL    HW123321   0.325   1.588   5.777
 7474SOL    HW223322   0.335   1.652   5.927
 7475SOL     OW23323   4.674   2.509   2.460
 7475SOL    HW123324   4.686   2.533   2.364
 7475SOL    HW223325   4.730   2.429   2.482
 7476SOL     OW23326   3.567   0.950   3.843
 7476SOL    HW123327   3.660   0.987   3.841
 7476SOL    HW223328   3.549   0.901   3.757
 7477SOL     OW23329   0.353   1.603   5.604
 7477SOL    HW123330   0.266   1.629   5.562
 7477SOL    HW223331   0.381   1.513   5.571
 7478SOL     OW23332   5.777   3.579   5.214
 7478SOL    HW123333   5.871   3.613   5.221
 7478SOL    HW223334   5.737   3.612   5.129
 7479SOL     OW23335   4.194   2.323   2.370
 7479SOL    HW123336   4.236   2.334   2.280
 7479SOL    HW223337   4.251   2.369   2.439
 7480SOL     OW23338   1.815   4.343   2.725
 7480SOL    HW123339   1.752   4.419   2.708
 7480SOL    HW223340   1.768   4.257   2.708
 7481SOL     OW23341   5.546   5.725   0.922
 7481SOL    HW123342   5.538   5.824   0.911
 7481SOL    HW223343   5.497   5.679   0.847
 7482SOL     OW23344   4.512   2.558   3.037
 7482SOL    HW123345   4.560   2.625   2.981
 7482SOL    HW223346   4.555   2.553   3.127
 7483SOL     OW23347   4.944   3.495   4.454
 7483SOL    HW123348   4.986   3.575   4.410
 7483SOL    HW223349   4.895   3.525   4.536
 7484SOL     OW23350   1.165   6.643   4.012
 7484SOL    HW123351   1.201   6.710   4.077
 7484SOL    HW223352   1.239   6.606   3.957
 7485SOL     OW23353   3.847   0.175   4.332
 7485SOL    HW123354   3.835   0.082   4.299
 7485SOL    HW223355   3.763   0.205   4.378
 7486SOL     OW23356   1.710   5.948   0.454
 7486SOL    HW123357   1.808   5.929   0.452
 7486SOL    HW223358   1.664   5.887   0.518
 7487SOL     OW23359   2.348   0.307   2.929
 7487SOL    HW123360   2.395   0.389   2.961
 7487SOL    HW223361   2.415   0.236   2.910
 7488SOL     OW23362   2.500   6.114   4.500
 7488SOL    HW123363   2.544   6.144   4.585
 7488SOL    HW223364   2.460   6.024   4.513
 7489SOL     OW23365   6.060   2.935   6.082
 7489SOL    HW123366   6.026   2.843   6.099
 7489SOL    HW223367   6.150   2.930   6.039
 7490SOL     OW23368   1.558   0.129   3.066
 7490SOL    HW123369   1.482   0.178   3.109
 7490SOL    HW223370   1.569   0.040   3.109
 7491SOL     OW23371   4.149   3.376   6.868
 7491SOL    HW123372   4.188   3.318   6.939
 7491SOL    HW223373   4.208   3.455   6.852
 7492SOL     OW23374   1.465   0.525   3.313
 7492SOL    HW123375   1.412   0.605   3.339
 7492SOL    HW223376   1.490   0.531   3.217
 7493SOL     OW23377   0.496   3.391   6.675
 7493SOL    HW123378   0.434   3.320   6.640
 7493SOL    HW223379   0.442   3.469   6.707
 7494SOL     OW23380   5.521   1.734   2.794
 7494SOL    HW123381   5.508   1.638   2.817
 7494SOL    HW223382   5.599   1.770   2.844
 7495SOL     OW23383   1.735   2.346   6.835
 7495SOL    HW123384   1.738   2.438   6.798
 7495SOL    HW223385   1.759   2.280   6.763
 7496SOL     OW23386   6.731   3.032   3.680
 7496SOL    HW123387   6.673   3.013   3.759
 7496SOL    HW223388   6.827   3.016   3.705
 7497SOL     OW23389   2.422   4.738   0.614
 7497SOL    HW123390   2.432   4.837   0.623
 7497SOL    HW223391   2.427   4.695   0.704
 7498SOL     OW23392   3.250   0.932   4.928
 7498SOL    HW123393   3.196   1.008   4.893
 7498SOL    HW223394   3.192   0.851   4.939
 7499SOL     OW23395   4.475   1.514   3.482
 7499SOL    HW123396   4.393   1.495   3.429
 7499SOL    HW223397   4.556   1.485   3.431
 7500SOL     OW23398   3.173   5.769   3.430
 7500SOL    HW123399   3.230   5.822   3.367
 7500SOL    HW223400   3.220   5.683   3.452
 7501SOL     OW23401   5.143   4.015   4.666
 7501SOL    HW123402   5.049   3.995   4.639
 7501SOL    HW223403   5.144   4.095   4.726
 7502SOL     OW23404   3.115   1.078   4.210
 7502SOL    HW123405   3.072   1.070   4.120
 7502SOL    HW223406   3.212   1.053   4.203
 7503SOL     OW23407   1.916   6.640   1.368
 7503SOL    HW123408   1.964   6.675   1.449
 7503SOL    HW223409   1.978   6.639   1.290
 7504SOL     OW23410   0.746   6.327   3.551
 7504SOL    HW123411   0.715   6.320   3.646
 7504SOL    HW223412   0.669   6.352   3.492
 7505SOL     OW23413   1.978   3.129   5.825
 7505SOL    HW123414   1.940   3.059   5.885
 7505SOL    HW223415   1.905   3.170   5.771
 7506SOL     OW23416   5.608   1.545   2.992
 7506SOL    HW123417   5.567   1.632   3.022
 7506SOL    HW223418   5.621   1.485   3.070
 7507SOL     OW23419   0.027   1.870   2.470
 7507SOL    HW123420   0.108   1.926   2.487
 7507SOL    HW223421   0.039   1.818   2.386
 7508SOL     OW23422   1.327   6.302   1.581
 7508SOL    HW123423   1.412   6.354   1.580
 7508SOL    HW223424   1.346   6.207   1.605
 7509SOL     OW23425   5.997   3.833   0.314
 7509SOL    HW123426   6.061   3.879   0.252
 7509SOL    HW223427   6.049   3.784   0.385
 7510SOL     OW23428   3.261   3.604   5.217
 7510SOL    HW123429   3.344   3.595   5.161
 7510SOL    HW223430   3.194   3.536   5.188
 7511SOL     OW23431   2.674   6.088   3.601
 7511SOL    HW123432   2.760   6.039   3.586
 7511SOL    HW223433   2.630   6.054   3.684
 7512SOL     OW23434   2.711   0.221   6.584
 7512SOL    HW123435   2.682   0.264   6.669
 7512SOL    HW223436   2.678   0.127   6.581
 7513SOL     OW23437   1.497   1.141   1.820
 7513SOL    HW123438   1.578   1.190   1.852
 7513SOL    HW223439   1.425   1.206   1.796
 7514SOL     OW23440   2.523   4.902   2.576
 7514SOL    HW123441   2.446   4.915   2.639
 7514SOL    HW223442   2.603   4.950   2.610
 7515SOL     OW23443   6.668   5.631   4.221
 7515SOL    HW123444   6.746   5.669   4.172
 7515SOL    HW223445   6.684   5.534   4.241
 7516SOL     OW23446   6.314   5.515   5.970
 7516SOL    HW123447   6.372   5.590   5.938
 7516SOL    HW223448   6.261   5.546   6.049
 7517SOL     OW23449   0.015   1.720   0.796
 7517SOL    HW123450   0.089   1.660   0.765
 7517SOL    HW223451   7.006   1.775   0.718
 7518SOL     OW23452   5.037   3.996   4.297
 7518SOL    HW123453   4.945   4.034   4.291
 7518SOL    HW223454   5.039   3.906   4.254
 7519SOL     OW23455   0.837   6.399   4.239
 7519SOL    HW123456   0.926   6.373   4.201
 7519SOL    HW223457   0.835   6.498   4.253
 7520SOL     OW23458   2.372   6.844   2.483
 7520SOL    HW123459   2.463   6.878   2.507
 7520SOL    HW223460   2.379   6.779   2.407
 7521SOL     OW23461   4.891   2.445   5.376
 7521SOL    HW123462   4.885   2.515   5.304
 7521SOL    HW223463   4.798   2.425   5.409
 7522SOL     OW23464   1.667   1.315   6.161
 7522SOL    HW123465   1.729   1.390   6.183
 7522SOL    HW223466   1.668   1.299   6.062
 7523SOL     OW23467   5.329   0.187   6.560
 7523SOL    HW123468   5.290   0.229   6.642
 7523SOL    HW223469   5.379   0.256   6.507
 7524SOL     OW23470   1.150   3.042   4.964
 7524SOL    HW123471   1.211   3.011   5.037
 7524SOL    HW223472   1.151   2.975   4.889
 7525SOL     OW23473   3.395   0.994   6.401
 7525SOL    HW123474   3.329   1.069   6.402
 7525SOL    HW223475   3.427   0.978   6.308
 7526SOL     OW23476   3.000   3.094   1.237
 7526SOL    HW123477   3.063   3.017   1.252
 7526SOL    HW223478   3.034   3.175   1.284
 7527SOL     OW23479   2.977   6.253   3.590
 7527SOL    HW123480   3.063   6.282   3.632
 7527SOL    HW223481   2.922   6.333   3.567
 7528SOL     OW23482   6.187   2.203   0.448
 7528SOL    HW123483   6.127   2.158   0.514
 7528SOL    HW223484   6.154   2.184   0.356
 7529SOL     OW23485   5.677   1.713   4.255
 7529SOL    HW123486   5.634   1.668   4.333
 7529SOL    HW223487   5.714   1.801   4.283
 7530SOL     OW23488   0.127   2.835   2.567
 7530SOL    HW123489   0.204   2.859   2.508
 7530SOL    HW223490   0.145   2.748   2.612
 7531SOL     OW23491   5.630   2.813   4.590
 7531SOL    HW123492   5.610   2.872   4.669
 7531SOL    HW223493   5.553   2.815   4.527
 7532SOL     OW23494   4.412   6.216   0.095
 7532SOL    HW123495   4.383   6.268   0.015
 7532SOL    HW223496   4.363   6.129   0.099
 7533SOL     OW23497   3.318   1.871   1.830
 7533SOL    HW123498   3.411   1.908   1.823
 7533SOL    HW223499   3.278   1.865   1.739
 7534SOL     OW23500   4.788   6.226   5.157
 7534SOL    HW123501   4.752   6.137   5.130
 7534SOL    HW223502   4.880   6.236   5.120
 7535SOL     OW23503   2.071   0.183   4.728
 7535SOL    HW123504   2.134   0.258   4.746
 7535SOL    HW223505   2.049   0.137   4.814
 7536SOL     OW23506   5.626   4.165   4.274
 7536SOL    HW123507   5.628   4.065   4.262
 7536SOL    HW223508   5.536   4.199   4.248
 7537SOL     OW23509   2.062   5.246   2.307
 7537SOL    HW123510   1.978   5.231   2.360
 7537SOL    HW223511   2.125   5.303   2.360
 7538SOL     OW23512   2.016   2.391   1.516
 7538SOL    HW123513   2.068   2.306   1.515
 7538SOL    HW223514   2.076   2.467   1.537
 7539SOL     OW23515   1.543   3.430   4.375
 7539SOL    HW123516   1.577   3.456   4.465
 7539SOL    HW223517   1.443   3.433   4.375
 7540SOL     OW23518   4.356   0.811   4.754
 7540SOL    HW123519   4.363   0.712   4.739
 7540SOL    HW223520   4.425   0.839   4.821
 7541SOL     OW23521   0.495   4.089   4.946
 7541SOL    HW123522   0.412   4.131   4.908
 7541SOL    HW223523   0.567   4.157   4.951
 7542SOL     OW23524   1.015   5.486   6.775
 7542SOL    HW123525   1.063   5.568   6.743
 7542SOL    HW223526   0.966   5.444   6.699
 7543SOL     OW23527   3.830   1.098   5.332
 7543SOL    HW123528   3.796   1.039   5.258
 7543SOL    HW223529   3.852   1.188   5.295
 7544SOL     OW23530   6.146   2.188   3.386
 7544SOL    HW123531   6.177   2.253   3.455
 7544SOL    HW223532   6.049   2.202   3.367
 7545SOL     OW23533   0.945   5.940   6.657
 7545SOL    HW123534   0.999   5.991   6.590
 7545SOL    HW223535   0.848   5.954   6.639
 7546SOL     OW23536   4.295   1.944   1.278
 7546SOL    HW123537   4.319   1.917   1.371
 7546SOL    HW223538   4.366   1.913   1.215
 7547SOL     OW23539   5.479   1.175   0.713
 7547SOL    HW123540   5.553   1.227   0.672
 7547SOL    HW223541   5.489   1.173   0.812
 7548SOL     OW23542   4.253   2.237   6.975
 7548SOL    HW123543   4.213   2.176   6.906
 7548SOL    HW223544   4.228   2.204   0.044
 7549SOL     OW23545   3.039   3.102   6.927
 7549SOL    HW123546   3.123   3.137   6.886
 7549SOL    HW223547   3.014   3.158   7.006
 7550SOL     OW23548   2.447   4.575   4.031
 7550SOL    HW123549   2.492   4.615   3.951
 7550SOL    HW223550   2.495   4.603   4.114
 7551SOL     OW23551   6.201   3.009   5.322
 7551SOL    HW123552   6.232   2.929   5.373
 7551SOL    HW223553   6.106   3.030   5.346
 7552SOL     OW23554   1.448   6.207   3.743
 7552SOL    HW123555   1.448   6.304   3.719
 7552SOL    HW223556   1.483   6.154   3.666
 7553SOL     OW23557   4.143   0.047   5.571
 7553SOL    HW123558   4.151   0.129   5.628
 7553SOL    HW223559   4.234   0.010   5.554
 7554SOL     OW23560   5.379   0.612   6.684
 7554SOL    HW123561   5.360   0.674   6.760
 7554SOL    HW223562   5.302   0.612   6.620
 7555SOL     OW23563   3.340   5.452   6.477
 7555SOL    HW123564   3.424   5.438   6.424
 7555SOL    HW223565   3.354   5.422   6.571
 7556SOL     OW23566   2.473   3.074   0.203
 7556SOL    HW123567   2.401   3.008   0.181
 7556SOL    HW223568   2.473   3.147   0.136
 7557SOL     OW23569   5.473   0.301   6.093
 7557SOL    HW123570   5.548   0.333   6.035
 7557SOL    HW223571   5.509   0.271   6.181
 7558SOL     OW23572   1.965   2.856   4.768
 7558SOL    HW123573   2.023   2.937   4.761
 7558SOL    HW223574   1.915   2.859   4.855
 7559SOL     OW23575   4.407   3.625   0.405
 7559SOL    HW123576   4.317   3.668   0.412
 7559SOL    HW223577   4.450   3.652   0.319
 7560SOL     OW23578   4.784   6.925   0.570
 7560SOL    HW123579   4.737   6.846   0.530
 7560SOL    HW223580   4.738   7.009   0.541
 7561SOL     OW23581   0.218   3.289   6.317
 7561SOL    HW123582   0.202   3.211   6.256
 7561SOL    HW223583   0.131   3.323   6.351
 7562SOL     OW23584   0.410   5.820   5.801
 7562SOL    HW123585   0.345   5.802   5.727
 7562SOL    HW223586   0.503   5.819   5.765
 7563SOL     OW23587   2.988   0.165   1.642
 7563SOL    HW123588   3.087   0.170   1.650
 7563SOL    HW223589   2.963   0.084   1.588
 7564SOL     OW23590   4.322   0.737   3.669
 7564SOL    HW123591   4.254   0.756   3.740
 7564SOL    HW223592   4.375   0.656   3.693
 7565SOL     OW23593   5.989   3.427   6.636
 7565SOL    HW123594   6.034   3.341   6.612
 7565SOL    HW223595   6.058   3.492   6.669
 7566SOL     OW23596   6.162   5.409   2.562
 7566SOL    HW123597   6.085   5.443   2.507
 7566SOL    HW223598   6.239   5.473   2.555
 7567SOL     OW23599   1.807   1.292   5.603
 7567SOL    HW123600   1.792   1.360   5.531
 7567SOL    HW223601   1.897   1.307   5.644
 7568SOL     OW23602   5.585   4.981   2.983
 7568SOL    HW123603   5.579   5.039   3.064
 7568SOL    HW223604   5.672   4.998   2.936
 7569SOL     OW23605   3.238   4.527   6.008
 7569SOL    HW123606   3.318   4.520   6.068
 7569SOL    HW223607   3.258   4.591   5.933
 7570SOL     OW23608   5.519   4.106   4.557
 7570SOL    HW123609   5.434   4.125   4.509
 7570SOL    HW223610   5.558   4.021   4.523
 7571SOL     OW23611   4.687   4.302   3.459
 7571SOL    HW123612   4.680   4.203   3.445
 7571SOL    HW223613   4.685   4.322   3.557
 7572SOL     OW23614   4.698   0.848   2.356
 7572SOL    HW123615   4.694   0.948   2.352
 7572SOL    HW223616   4.745   0.819   2.439
 7573SOL     OW23617   0.392   6.727   4.741
 7573SOL    HW123618   0.333   6.766   4.811
 7573SOL    HW223619   0.424   6.637   4.771
 7574SOL     OW23620   4.909   0.814   5.589
 7574SOL    HW123621   4.873   0.811   5.683
 7574SOL    HW223622   4.896   0.906   5.552
 7575SOL     OW23623   5.537   0.072   6.742
 7575SOL    HW123624   5.628   0.096   6.710
 7575SOL    HW223625   5.470   0.136   6.705
 7576SOL     OW23626   5.046   3.177   0.371
 7576SOL    HW123627   4.998   3.218   0.449
 7576SOL    HW223628   5.112   3.110   0.404
 7577SOL     OW23629   0.639   6.632   0.050
 7577SOL    HW123630   0.661   6.535   0.040
 7577SOL    HW223631   0.621   6.652   0.146
 7578SOL     OW23632   3.272   5.187   2.283
 7578SOL    HW123633   3.350   5.170   2.344
 7578SOL    HW223634   3.261   5.285   2.270
 7579SOL     OW23635   0.133   0.869   1.991
 7579SOL    HW123636   0.127   0.909   1.900
 7579SOL    HW223637   0.196   0.922   2.047
 7580SOL     OW23638   0.829   3.875   4.090
 7580SOL    HW123639   0.829   3.779   4.119
 7580SOL    HW223640   0.888   3.928   4.150
 7581SOL     OW23641   0.505   1.974   1.236
 7581SOL    HW123642   0.440   2.045   1.209
 7581SOL    HW223643   0.597   2.001   1.207
 7582SOL     OW23644   4.002   1.444   3.111
 7582SOL    HW123645   4.093   1.404   3.112
 7582SOL    HW223646   4.007   1.541   3.136
 7583SOL     OW23647   5.054   2.779   2.222
 7583SOL    HW123648   5.019   2.794   2.130
 7583SOL    HW223649   5.094   2.688   2.228
 7584SOL     OW23650   3.011   0.767   3.311
 7584SOL    HW123651   3.067   0.824   3.370
 7584SOL    HW223652   2.977   0.822   3.234
 7585SOL     OW23653   1.851   3.087   6.190
 7585SOL    HW123654   1.849   3.131   6.280
 7585SOL    HW223655   1.941   3.046   6.176
 7586SOL     OW23656   2.391   6.854   3.795
 7586SOL    HW123657   2.434   6.827   3.881
 7586SOL    HW223658   2.384   6.954   3.792
 7587SOL     OW23659   1.975   1.848   6.370
 7587SOL    HW123660   2.035   1.798   6.308
 7587SOL    HW223661   1.881   1.817   6.357
 7588SOL     OW23662   2.091   2.873   3.809
 7588SOL    HW123663   2.074   2.793   3.751
 7588SOL    HW223664   2.189   2.878   3.830
 7589SOL     OW23665   0.139   0.518   2.224
 7589SOL    HW123666   0.218   0.519   2.162
 7589SOL    HW223667   0.101   0.611   2.230
 7590SOL     OW23668   3.974   1.867   6.509
 7590SOL    HW123669   3.962   1.767   6.511
 7590SOL    HW223670   4.069   1.889   6.532
 7591SOL     OW23671   5.754   4.446   0.574
 7591SOL    HW123672   5.671   4.471   0.525
 7591SOL    HW223673   5.818   4.402   0.511
 7592SOL     OW23674   6.124   5.786   4.668
 7592SOL    HW123675   6.141   5.702   4.720
 7592SOL    HW223676   6.105   5.861   4.732
 7593SOL     OW23677   6.496   3.162   6.953
 7593SOL    HW123678   6.561   3.106   6.901
 7593SOL    HW223679   6.419   3.105   6.981
 7594SOL     OW23680   1.588   4.472   2.142
 7594SOL    HW123681   1.644   4.426   2.073
 7594SOL    HW223682   1.639   4.479   2.227
 7595SOL     OW23683   6.008   3.205   6.079
 7595SOL    HW123684   6.093   3.253   6.058
 7595SOL    HW223685   6.024   3.106   6.076
 7596SOL     OW23686   3.452   6.409   4.222
 7596SOL    HW123687   3.388   6.338   4.193
 7596SOL    HW223688   3.535   6.403   4.167
 7597SOL     OW23689   1.745   6.741   2.933
 7597SOL    HW123690   1.811   6.788   2.875
 7597SOL    HW223691   1.761   6.642   2.930
 7598SOL     OW23692   0.061   0.754   3.068
 7598SOL    HW123693   0.144   0.755   3.012
 7598SOL    HW223694   0.085   0.732   3.162
 7599SOL     OW23695   5.489   2.592   2.592
 7599SOL    HW123696   5.417   2.594   2.661
 7599SOL    HW223697   5.527   2.499   2.586
 7600SOL     OW23698   1.009   1.638   3.607
 7600SOL    HW123699   1.081   1.690   3.561
 7600SOL    HW223700   0.979   1.687   3.689
 7601SOL     OW23701   2.576   5.039   1.896
 7601SOL    HW123702   2.674   5.017   1.899
 7601SOL    HW223703   2.525   4.969   1.946
 7602SOL     OW23704   1.557   3.860   6.835
 7602SOL    HW123705   1.461   3.853   6.808
 7602SOL    HW223706   1.588   3.773   6.874
 7603SOL     OW23707   1.913   5.718   6.337
 7603SOL    HW123708   1.918   5.647   6.407
 7603SOL    HW223709   1.906   5.675   6.247
 7604SOL     OW23710   1.560   2.913   4.235
 7604SOL    HW123711   1.493   2.878   4.301
 7604SOL    HW223712   1.525   2.900   4.142
 7605SOL     OW23713   1.278   0.416   1.033
 7605SOL    HW123714   1.339   0.438   0.957
 7605SOL    HW223715   1.270   0.495   1.093
 7606SOL     OW23716   5.991   2.995   4.693
 7606SOL    HW123717   6.041   3.051   4.758
 7606SOL    HW223718   5.962   3.051   4.615
 7607SOL     OW23719   3.474   4.877   0.553
 7607SOL    HW123720   3.384   4.914   0.532
 7607SOL    HW223721   3.520   4.936   0.619
 7608SOL     OW23722   3.972   3.594   1.015
 7608SOL    HW123723   3.938   3.500   1.025
 7608SOL    HW223724   4.041   3.611   1.085
 7609SOL     OW23725   1.738   3.105   4.268
 7609SOL    HW123726   1.657   3.046   4.271
 7609SOL    HW223727   1.821   3.048   4.269
 7610SOL     OW23728   4.163   4.568   6.404
 7610SOL    HW123729   4.190   4.477   6.434
 7610SOL    HW223730   4.173   4.576   6.305
 7611SOL     OW23731   5.404   3.755   1.361
 7611SOL    HW123732   5.341   3.766   1.438
 7611SOL    HW223733   5.392   3.830   1.296
 7612SOL     OW23734   4.966   3.236   2.324
 7612SOL    HW123735   4.899   3.168   2.353
 7612SOL    HW223736   4.961   3.248   2.225
 7613SOL     OW23737   0.751   2.116   1.174
 7613SOL    HW123738   0.802   2.071   1.101
 7613SOL    HW223739   0.686   2.181   1.134
 7614SOL     OW23740   5.658   3.040   0.572
 7614SOL    HW123741   5.728   2.978   0.537
 7614SOL    HW223742   5.621   3.003   0.658
 7615SOL     OW23743   4.152   4.524   6.903
 7615SOL    HW123744   4.235   4.495   6.856
 7615SOL    HW223745   4.131   4.618   6.877
 7616SOL     OW23746   6.608   6.242   4.855
 7616SOL    HW123747   6.694   6.237   4.805
 7616SOL    HW223748   6.624   6.286   4.943
 7617SOL     OW23749   3.399   6.213   3.494
 7617SOL    HW123750   3.480   6.260   3.460
 7617SOL    HW223751   3.348   6.273   3.555
 7618SOL     OW23752   0.388   2.493   6.175
 7618SOL    HW123753   0.450   2.558   6.132
 7618SOL    HW223754   0.299   2.496   6.129
 7619SOL     OW23755   6.734   3.113   4.699
 7619SOL    HW123756   6.667   3.179   4.733
 7619SOL    HW223757   6.697   3.021   4.710
 7620SOL     OW23758   4.047   5.547   1.634
 7620SOL    HW123759   4.032   5.646   1.640
 7620SOL    HW223760   3.969   5.504   1.588
 7621SOL     OW23761   6.954   1.033   0.689
 7621SOL    HW123762   6.948   0.959   0.756
 7621SOL    HW223763   6.871   1.034   0.633
 7622SOL     OW23764   4.391   4.539   5.991
 7622SOL    HW123765   4.485   4.512   5.973
 7622SOL    HW223766   4.344   4.555   5.904
 7623SOL     OW23767   4.867   4.326   6.948
 7623SOL    HW123768   4.819   4.239   6.958
 7623SOL    HW223769   4.907   4.352   0.013
 7624SOL     OW23770   6.810   3.622   4.762
 7624SOL    HW123771   6.875   3.580   4.699
 7624SOL    HW223772   6.797   3.718   4.737
 7625SOL     OW23773   5.298   1.060   0.140
 7625SOL    HW123774   5.366   0.987   0.125
 7625SOL    HW223775   5.209   1.019   0.158
 7626SOL     OW23776   6.199   0.378   5.420
 7626SOL    HW123777   6.169   0.345   5.331
 7626SOL    HW223778   6.293   0.348   5.436
 7627SOL     OW23779   4.089   3.092   0.653
 7627SOL    HW123780   4.108   2.995   0.669
 7627SOL    HW223781   4.160   3.147   0.696
 7628SOL     OW23782   3.314   2.886   2.131
 7628SOL    HW123783   3.330   2.899   2.034
 7628SOL    HW223784   3.396   2.850   2.174
 7629SOL     OW23785   0.061   5.000   3.675
 7629SOL    HW123786   0.155   4.977   3.651
 7629SOL    HW223787   0.019   4.923   3.724
 7630SOL     OW23788   0.737   0.745   0.680
 7630SOL    HW123789   0.651   0.707   0.714
 7630SOL    HW223790   0.807   0.674   0.677
 7631SOL     OW23791   1.087   2.456   5.695
 7631SOL    HW123792   1.014   2.388   5.690
 7631SOL    HW223793   1.165   2.418   5.745
 7632SOL     OW23794   5.051   4.104   0.845
 7632SOL    HW123795   5.061   4.156   0.930
 7632SOL    HW223796   4.959   4.065   0.840
 7633SOL     OW23797   5.355   0.654   1.706
 7633SOL    HW123798   5.433   0.623   1.761
 7633SOL    HW223799   5.365   0.752   1.686
 7634SOL     OW23800   2.344   1.310   1.942
 7634SOL    HW123801   2.307   1.245   1.875
 7634SOL    HW223802   2.402   1.376   1.895
 7635SOL     OW23803   3.473   4.935   5.320
 7635SOL    HW123804   3.412   4.998   5.369
 7635SOL    HW223805   3.440   4.842   5.329
 7636SOL     OW23806   1.350   3.119   4.230
 7636SOL    HW123807   1.441   3.085   4.205
 7636SOL    HW223808   1.306   3.053   4.291
 7637SOL     OW23809   2.732   6.183   2.362
 7637SOL    HW123810   2.665   6.125   2.315
 7637SOL    HW223811   2.722   6.173   2.461
 7638SOL     OW23812   2.090   5.435   1.838
 7638SOL    HW123813   2.037   5.389   1.910
 7638SOL    HW223814   2.125   5.522   1.873
 7639SOL     OW23815   0.636   1.210   0.938
 7639SOL    HW123816   0.694   1.154   0.878
 7639SOL    HW223817   0.564   1.252   0.883
 7640SOL     OW23818   2.612   1.327   5.643
 7640SOL    HW123819   2.706   1.355   5.661
 7640SOL    HW223820   2.605   1.227   5.645
 7641SOL     OW23821   1.131   3.572   2.617
 7641SOL    HW123822   1.113   3.532   2.527
 7641SOL    HW223823   1.067   3.533   2.684
 7642SOL     OW23824   3.434   1.474   2.591
 7642SOL    HW123825   3.351   1.528   2.578
 7642SOL    HW223826   3.513   1.527   2.563
 7643SOL     OW23827   5.477   2.082   3.129
 7643SOL    HW123828   5.389   2.123   3.104
 7643SOL    HW223829   5.523   2.143   3.194
 7644SOL     OW23830   4.720   2.514   2.189
 7644SOL    HW123831   4.782   2.439   2.164
 7644SOL    HW223832   4.717   2.581   2.115
 7645SOL     OW23833   5.101   3.676   5.798
 7645SOL    HW123834   5.110   3.754   5.861
 7645SOL    HW223835   5.167   3.684   5.724
 7646SOL     OW23836   1.387   2.801   4.414
 7646SOL    HW123837   1.385   2.703   4.398
 7646SOL    HW223838   1.294   2.836   4.425
 7647SOL     OW23839   6.978   2.394   3.605
 7647SOL    HW123840   6.998   2.338   3.685
 7647SOL    HW223841   6.945   2.335   3.531
 7648SOL     OW23842   2.613   1.653   2.460
 7648SOL    HW123843   2.578   1.705   2.382
 7648SOL    HW223844   2.639   1.716   2.533
 7649SOL     OW23845   1.709   0.479   3.896
 7649SOL    HW123846   1.698   0.499   3.798
 7649SOL    HW223847   1.796   0.431   3.910
 7650SOL     OW23848   5.638   0.380   0.283
 7650SOL    HW123849   5.667   0.361   0.376
 7650SOL    HW223850   5.674   0.310   0.221
 7651SOL     OW23851   2.185   0.358   4.281
 7651SOL    HW123852   2.242   0.303   4.342
 7651SOL    HW223853   2.094   0.318   4.276
 7652SOL     OW23854   5.547   2.374   4.511
 7652SOL    HW123855   5.469   2.431   4.486
 7652SOL    HW223856   5.630   2.430   4.511
 7653SOL     OW23857   0.694   1.811   0.246
 7653SOL    HW123858   0.792   1.829   0.237
 7653SOL    HW223859   0.678   1.752   0.325
 7654SOL     OW23860   4.850   3.088   4.047
 7654SOL    HW123861   4.808   3.162   4.101
 7654SOL    HW223862   4.943   3.071   4.082
 7655SOL     OW23863   4.246   6.368   3.758
 7655SOL    HW123864   4.237   6.453   3.707
 7655SOL    HW223865   4.340   6.358   3.791
 7656SOL     OW23866   3.960   3.982   7.012
 7656SOL    HW123867   3.912   3.919   6.951
 7656SOL    HW223868   4.055   3.993   6.981
 7657SOL     OW23869   1.408   2.155   3.252
 7657SOL    HW123870   1.395   2.057   3.234
 7657SOL    HW223871   1.457   2.196   3.175
 7658SOL     OW23872   3.004   0.174   0.305
 7658SOL    HW123873   3.090   0.184   0.254
 7658SOL    HW223874   2.965   0.084   0.288
 7659SOL     OW23875   4.942   4.659   6.517
 7659SOL    HW123876   4.964   4.751   6.483
 7659SOL    HW223877   4.860   4.663   6.574
 7660SOL     OW23878   6.823   5.788   3.747
 7660SOL    HW123879   6.765   5.729   3.690
 7660SOL    HW223880   6.782   5.797   3.838
 7661SOL     OW23881   5.882   2.486   5.567
 7661SOL    HW123882   5.939   2.406   5.553
 7661SOL    HW223883   5.899   2.552   5.494
 7662SOL     OW23884   1.348   3.094   4.590
 7662SOL    HW123885   1.310   3.141   4.670
 7662SOL    HW223886   1.448   3.105   4.589
 7663SOL     OW23887   6.013   5.063   6.366
 7663SOL    HW123888   5.953   5.117   6.425
 7663SOL    HW223889   6.000   5.090   6.271
 7664SOL     OW23890   4.149   0.906   1.991
 7664SOL    HW123891   4.132   0.995   1.948
 7664SOL    HW223892   4.210   0.918   2.069
 7665SOL     OW23893   6.252   0.845   5.241
 7665SOL    HW123894   6.195   0.908   5.294
 7665SOL    HW223895   6.314   0.796   5.302
 7666SOL     OW23896   0.522   4.710   2.713
 7666SOL    HW123897   0.519   4.807   2.736
 7666SOL    HW223898   0.594   4.693   2.647
 7667SOL     OW23899   3.930   0.514   2.303
 7667SOL    HW123900   3.950   0.578   2.228
 7667SOL    HW223901   4.015   0.479   2.341
 7668SOL     OW23902   2.523   5.242   0.744
 7668SOL    HW123903   2.531   5.326   0.689
 7668SOL    HW223904   2.601   5.236   0.806
 7669SOL     OW23905   4.672   1.270   5.429
 7669SOL    HW123906   4.762   1.233   5.451
 7669SOL    HW223907   4.681   1.335   5.353
 7670SOL     OW23908   0.493   5.059   0.718
 7670SOL    HW123909   0.508   5.008   0.633
 7670SOL    HW223910   0.563   5.131   0.725
 7671SOL     OW23911   3.816   1.050   2.206
 7671SOL    HW123912   3.877   0.988   2.257
 7671SOL    HW223913   3.836   1.144   2.231
 7672SOL     OW23914   0.563   5.677   2.979
 7672SOL    HW123915   0.584   5.769   3.010
 7672SOL    HW223916   0.643   5.638   2.934
 7673SOL     OW23917   2.107   6.127   1.804
 7673SOL    HW123918   2.121   6.031   1.829
 7673SOL    HW223919   2.100   6.182   1.888
 7674SOL     OW23920   5.053   1.013   3.964
 7674SOL    HW123921   4.987   1.075   4.007
 7674SOL    HW223922   5.132   1.002   4.024
 7675SOL     OW23923   5.707   6.519   3.602
 7675SOL    HW123924   5.737   6.438   3.651
 7675SOL    HW223925   5.607   6.523   3.600
 7676SOL     OW23926   2.936   2.261   0.036
 7676SOL    HW123927   2.915   2.199   6.983
 7676SOL    HW223928   2.942   2.355   0.001
 7677SOL     OW23929   0.348   4.044   2.007
 7677SOL    HW123930   0.252   4.023   2.024
 7677SOL    HW223931   0.406   3.988   2.067
 7678SOL     OW23932   2.455   2.771   5.252
 7678SOL    HW123933   2.372   2.768   5.307
 7678SOL    HW223934   2.475   2.866   5.227
 7679SOL     OW23935   2.725   6.470   5.592
 7679SOL    HW123936   2.798   6.471   5.660
 7679SOL    HW223937   2.658   6.400   5.616
 7680SOL     OW23938   1.713   1.050   1.101
 7680SOL    HW123939   1.704   1.038   1.003
 7680SOL    HW223940   1.649   0.988   1.148
 7681SOL     OW23941   3.080   0.624   0.745
 7681SOL    HW123942   3.000   0.672   0.711
 7681SOL    HW223943   3.108   0.663   0.833
 7682SOL     OW23944   4.171   6.785   2.047
 7682SOL    HW123945   4.109   6.753   1.975
 7682SOL    HW223946   4.259   6.811   2.006
 7683SOL     OW23947   6.954   1.552   4.957
 7683SOL    HW123948   6.949   1.507   5.046
 7683SOL    HW223949   6.973   1.484   4.886
 7684SOL     OW23950   4.408   1.207   0.882
 7684SOL    HW123951   4.370   1.255   0.961
 7684SOL    HW223952   4.411   1.108   0.901
 7685SOL     OW23953   2.623   1.666   5.625
 7685SOL    HW123954   2.537   1.627   5.656
 7685SOL    HW223955   2.694   1.596   5.626
 7686SOL     OW23956   6.647   6.481   3.164
 7686SOL    HW123957   6.638   6.408   3.232
 7686SOL    HW223958   6.724   6.540   3.188
 7687SOL     OW23959   6.251   5.293   4.752
 7687SOL    HW123960   6.204   5.207   4.732
 7687SOL    HW223961   6.343   5.274   4.784
 7688SOL     OW23962   0.428   6.102   5.923
 7688SOL    HW123963   0.364   6.072   5.851
 7688SOL    HW223964   0.498   6.033   5.937
 7689SOL     OW23965   5.759   6.537   2.743
 7689SOL    HW123966   5.843   6.485   2.756
 7689SOL    HW223967   5.781   6.634   2.736
 7690SOL     OW23968   5.861   5.320   6.976
 7690SOL    HW123969   5.943   5.310   0.010
 7690SOL    HW223970   5.794   5.375   0.003
 7691SOL     OW23971   5.318   4.048   3.027
 7691SOL    HW123972   5.242   4.032   3.090
 7691SOL    HW223973   5.321   3.974   2.960
 7692SOL     OW23974   0.389   6.373   1.980
 7692SOL    HW123975   0.473   6.349   2.029
 7692SOL    HW223976   0.333   6.290   1.967
 7693SOL     OW23977   3.177   0.905   1.496
 7693SOL    HW123978   3.088   0.863   1.480
 7693SOL    HW223979   3.180   0.944   1.588
 7694SOL     OW23980   5.345   3.593   3.469
 7694SOL    HW123981   5.309   3.671   3.520
 7694SOL    HW223982   5.444   3.604   3.458
 7695SOL     OW23983   4.940   0.423   1.538
 7695SOL    HW123984   4.968   0.328   1.556
 7695SOL    HW223985   4.981   0.484   1.605
 7696SOL     OW23986   0.116   1.387   5.943
 7696SOL    HW123987   0.158   1.309   5.989
 7696SOL    HW223988   0.184   1.459   5.931
 7697SOL     OW23989   2.629   0.375   3.678
 7697SOL    HW123990   2.706   0.355   3.738
 7697SOL    HW223991   2.614   0.298   3.616
 7698SOL     OW23992   5.648   1.363   3.929
 7698SOL    HW123993   5.628   1.270   3.898
 7698SOL    HW223994   5.600   1.428   3.870
 7699SOL     OW23995   2.494   5.722   5.926
 7699SOL    HW123996   2.503   5.627   5.955
 7699SOL    HW223997   2.412   5.732   5.870
 7700SOL     OW23998   4.214   5.491   3.430
 7700SOL    HW123999   4.301   5.441   3.432
 7700SOL    HW224000   4.221   5.572   3.490
 7701SOL     OW24001   6.885   2.820   6.731
 7701SOL    HW124002   6.984   2.806   6.724
 7701SOL    HW224003   6.837   2.733   6.715
 7702SOL     OW24004   4.717   5.957   5.140
 7702SOL    HW124005   4.763   5.946   5.052
 7702SOL    HW224006   4.620   5.936   5.129
 7703SOL     OW24007   6.018   5.694   6.658
 7703SOL    HW124008   5.943   5.759   6.643
 7703SOL    HW224009   6.093   5.715   6.596
 7704SOL     OW24010   5.935   0.615   4.042
 7704SOL    HW124011   5.985   0.698   4.019
 7704SOL    HW224012   5.854   0.606   3.984
 7705SOL     OW24013   2.227   5.977   0.847
 7705SOL    HW124014   2.302   5.935   0.897
 7705SOL    HW224015   2.196   6.058   0.897
 7706SOL     OW24016   3.521   3.191   3.941
 7706SOL    HW124017   3.521   3.107   3.887
 7706SOL    HW224018   3.428   3.212   3.970
 7707SOL     OW24019   6.775   3.942   5.961
 7707SOL    HW124020   6.775   3.863   6.023
 7707SOL    HW224021   6.682   3.961   5.931
 7708SOL     OW24022   1.155   6.583   5.261
 7708SOL    HW124023   1.061   6.615   5.258
 7708SOL    HW224024   1.158   6.485   5.238
 7709SOL     OW24025   6.845   5.011   1.673
 7709SOL    HW124026   6.747   5.015   1.696
 7709SOL    HW224027   6.876   5.103   1.649
 7710SOL     OW24028   2.233   2.306   0.355
 7710SOL    HW124029   2.267   2.251   0.279
 7710SOL    HW224030   2.169   2.252   0.410
 7711SOL     OW24031   5.960   5.721   6.054
 7711SOL    HW124032   6.040   5.665   6.077
 7711SOL    HW224033   5.958   5.802   6.112
 7712SOL     OW24034   6.351   5.443   0.873
 7712SOL    HW124035   6.278   5.501   0.908
 7712SOL    HW224036   6.336   5.426   0.775
 7713SOL     OW24037   1.232   4.047   0.858
 7713SOL    HW124038   1.323   4.084   0.877
 7713SOL    HW224039   1.222   3.959   0.904
 7714SOL     OW24040   6.930   4.896   5.482
 7714SOL    HW124041   7.022   4.926   5.458
 7714SOL    HW224042   6.874   4.894   5.399
 7715SOL     OW24043   2.989   2.397   6.387
 7715SOL    HW124044   3.014   2.410   6.483
 7715SOL    HW224045   2.901   2.441   6.369
 7716SOL     OW24046   6.701   4.489   0.504
 7716SOL    HW124047   6.615   4.535   0.523
 7716SOL    HW224048   6.769   4.556   0.475
 7717SOL     OW24049   1.136   1.276   5.697
 7717SOL    HW124050   1.135   1.185   5.736
 7717SOL    HW224051   1.179   1.273   5.606
 7718SOL     OW24052   6.682   4.102   2.964
 7718SOL    HW124053   6.587   4.105   2.933
 7718SOL    HW224054   6.683   4.083   3.063
 7719SOL     OW24055   0.257   4.210   4.891
 7719SOL    HW124056   0.260   4.285   4.825
 7719SOL    HW224057   0.216   4.242   4.976
 7720SOL     OW24058   6.200   2.509   6.466
 7720SOL    HW124059   6.206   2.479   6.370
 7720SOL    HW224060   6.251   2.594   6.477
 7721SOL     OW24061   0.611   5.297   2.068
 7721SOL    HW124062   0.653   5.221   2.117
 7721SOL    HW224063   0.683   5.354   2.028
 7722SOL     OW24064   1.977   4.129   3.763
 7722SOL    HW124065   1.980   4.086   3.673
 7722SOL    HW224066   1.966   4.059   3.834
 7723SOL     OW24067   3.965   3.576   0.036
 7723SOL    HW124068   3.926   3.484   0.042
 7723SOL    HW224069   3.906   3.634   7.004
 7724SOL     OW24070   3.040   4.278   0.993
 7724SOL    HW124071   3.014   4.278   1.089
 7724SOL    HW224072   2.994   4.202   0.946
 7725SOL     OW24073   6.303   1.281   2.789
 7725SOL    HW124074   6.400   1.305   2.792
 7725SOL    HW224075   6.279   1.232   2.873
 7726SOL     OW24076   1.818   4.796   6.169
 7726SOL    HW124077   1.857   4.834   6.085
 7726SOL    HW224078   1.813   4.697   6.162
 7727SOL     OW24079   6.914   2.551   2.121
 7727SOL    HW124080   6.898   2.586   2.029
 7727SOL    HW224081   6.911   2.626   2.187
 7728SOL     OW24082   2.222   2.985   5.297
 7728SOL    HW124083   2.189   3.076   5.324
 7728SOL    HW224084   2.286   2.995   5.221
 7729SOL     OW24085   5.913   1.157   1.621
 7729SOL    HW124086   5.832   1.209   1.592
 7729SOL    HW224087   5.987   1.220   1.643
 7730SOL     OW24088   6.789   4.970   6.079
 7730SOL    HW124089   6.753   4.878   6.093
 7730SOL    HW224090   6.776   5.025   6.162
 7731SOL     OW24091   5.828   6.996   0.063
 7731SOL    HW124092   5.809   6.951   6.998
 7731SOL    HW224093   5.826   6.927   0.136
 7732SOL     OW24094   4.087   0.022   0.313
 7732SOL    HW124095   3.999   7.011   0.348
 7732SOL    HW224096   4.091   0.006   0.214
 7733SOL     OW24097   5.100   6.327   2.426
 7733SOL    HW124098   5.061   6.385   2.497
 7733SOL    HW224099   5.095   6.375   2.338
 7734SOL     OW24100   1.489   4.798   4.850
 7734SOL    HW124101   1.564   4.733   4.845
 7734SOL    HW224102   1.514   4.882   4.801
 7735SOL     OW24103   5.136   6.150   6.520
 7735SOL    HW124104   5.109   6.074   6.578
 7735SOL    HW224105   5.124   6.126   6.424
 7736SOL     OW24106   2.323   2.835   6.900
 7736SOL    HW124107   2.343   2.869   6.809
 7736SOL    HW224108   2.387   2.876   6.966
 7737SOL     OW24109   3.520   0.426   2.447
 7737SOL    HW124110   3.492   0.330   2.442
 7737SOL    HW224111   3.606   0.432   2.497
 7738SOL     OW24112   2.817   5.186   0.571
 7738SOL    HW124113   2.762   5.105   0.589
 7738SOL    HW224114   2.760   5.268   0.580
 7739SOL     OW24115   1.111   2.353   1.743
 7739SOL    HW124116   1.028   2.334   1.796
 7739SOL    HW224117   1.147   2.268   1.706
 7740SOL     OW24118   2.837   0.915   3.529
 7740SOL    HW124119   2.867   1.006   3.502
 7740SOL    HW224120   2.883   0.847   3.472
 7741SOL     OW24121   0.255   4.619   5.204
 7741SOL    HW124122   0.161   4.589   5.188
 7741SOL    HW224123   0.318   4.549   5.170
 7742SOL     OW24124   4.333   2.362   3.124
 7742SOL    HW124125   4.396   2.430   3.087
 7742SOL    HW224126   4.269   2.334   3.052
 7743SOL     OW24127   4.430   1.503   6.887
 7743SOL    HW124128   4.524   1.489   6.918
 7743SOL    HW224129   4.407   1.436   6.817
 7744SOL     OW24130   1.132   0.426   3.965
 7744SOL    HW124131   1.119   0.507   3.907
 7744SOL    HW224132   1.217   0.381   3.939
 7745SOL     OW24133   3.548   0.767   0.203
 7745SOL    HW124134   3.489   0.750   0.282
 7745SOL    HW224135   3.533   0.696   0.134
 7746SOL     OW24136   1.143   0.588   0.837
 7746SOL    HW124137   1.169   0.549   0.925
 7746SOL    HW224138   1.114   0.516   0.775
 7747SOL     OW24139   6.326   6.450   1.350
 7747SOL    HW124140   6.375   6.370   1.315
 7747SOL    HW224141   6.238   6.420   1.389
 7748SOL     OW24142   3.220   3.969   4.162
 7748SOL    HW124143   3.149   3.960   4.232
 7748SOL    HW224144   3.260   3.879   4.144
 7749SOL     OW24145   3.302   3.286   4.821
 7749SOL    HW124146   3.236   3.336   4.765
 7749SOL    HW224147   3.252   3.230   4.888
 7750SOL     OW24148   0.070   5.932   0.161
 7750SOL    HW124149   0.099   5.988   0.083
 7750SOL    HW224150   0.082   5.835   0.140
 7751SOL     OW24151   1.206   2.662   2.507
 7751SOL    HW124152   1.117   2.701   2.531
 7751SOL    HW224153   1.277   2.704   2.563
 7752SOL     OW24154   5.324   6.524   5.743
 7752SOL    HW124155   5.321   6.436   5.696
 7752SOL    HW224156   5.233   6.546   5.779
 7753SOL     OW24157   2.196   0.618   3.838
 7753SOL    HW124158   2.103   0.633   3.805
 7753SOL    HW224159   2.225   0.525   3.817
 7754SOL     OW24160   4.873   6.728   1.864
 7754SOL    HW124161   4.930   6.650   1.838
 7754SOL    HW224162   4.880   6.743   1.962
 7755SOL     OW24163   1.261   2.321   5.887
 7755SOL    HW124164   1.226   2.236   5.926
 7755SOL    HW224165   1.357   2.333   5.912
 7756SOL     OW24166   3.436   5.191   2.525
 7756SOL    HW124167   3.384   5.124   2.578
 7756SOL    HW224168   3.503   5.235   2.585
 7757SOL     OW24169   5.443   5.611   4.708
 7757SOL    HW124170   5.458   5.662   4.623
 7757SOL    HW224171   5.521   5.625   4.770
 7758SOL     OW24172   1.215   1.784   0.366
 7758SOL    HW124173   1.254   1.696   0.339
 7758SOL    HW224174   1.276   1.858   0.338
 7759SOL     OW24175   1.050   2.166   5.533
 7759SOL    HW124176   1.025   2.145   5.438
 7759SOL    HW224177   1.145   2.140   5.549
 7760SOL     OW24178   5.725   3.300   2.944
 7760SOL    HW124179   5.683   3.319   3.033
 7760SOL    HW224180   5.740   3.386   2.895
 7761SOL     OW24181   1.266   0.019   6.302
 7761SOL    HW124182   1.334   6.996   6.244
 7761SOL    HW224183   1.237   0.104   6.257
 7762SOL     OW24184   4.445   0.541   3.797
 7762SOL    HW124185   4.477   0.585   3.881
 7762SOL    HW224186   4.389   0.462   3.819
 7763SOL     OW24187   1.337   1.594   0.221
 7763SOL    HW124188   1.296   1.580   0.131
 7763SOL    HW224189   1.436   1.579   0.215
 7764SOL     OW24190   3.721   3.012   3.331
 7764SOL    HW124191   3.806   3.044   3.373
 7764SOL    HW224192   3.660   2.975   3.401
 7765SOL     OW24193   6.152   1.901   3.845
 7765SOL    HW124194   6.149   2.001   3.855
 7765SOL    HW224195   6.067   1.870   3.801
 7766SOL     OW24196   5.525   2.154   6.629
 7766SOL    HW124197   5.585   2.219   6.582
 7766SOL    HW224198   5.434   2.194   6.638
 7767SOL     OW24199   4.159   6.729   3.820
 7767SOL    HW124200   4.206   6.754   3.735
 7767SOL    HW224201   4.226   6.697   3.887
 7768SOL     OW24202   4.320   4.600   2.691
 7768SOL    HW124203   4.260   4.652   2.752
 7768SOL    HW224204   4.393   4.558   2.745
 7769SOL     OW24205   4.833   2.721   2.539
 7769SOL    HW124206   4.758   2.658   2.519
 7769SOL    HW224207   4.833   2.795   2.471
 7770SOL     OW24208   1.470   4.084   1.917
 7770SOL    HW124209   1.451   4.180   1.898
 7770SOL    HW224210   1.388   4.039   1.951
 7771SOL     OW24211   3.008   1.872   5.148
 7771SOL    HW124212   3.012   1.965   5.184
 7771SOL    HW224213   3.080   1.816   5.190
 7772SOL     OW24214   5.439   0.660   2.573
 7772SOL    HW124215   5.452   0.620   2.664
 7772SOL    HW224216   5.487   0.748   2.568
 7773SOL     OW24217   2.988   5.591   4.546
 7773SOL    HW124218   3.001   5.649   4.466
 7773SOL    HW224219   2.977   5.649   4.627
 7774SOL     OW24220   5.662   1.855   5.936
 7774SOL    HW124221   5.699   1.942   5.968
 7774SOL    HW224222   5.567   1.866   5.908
 7775SOL     OW24223   4.011   6.498   2.366
 7775SOL    HW124224   4.038   6.438   2.442
 7775SOL    HW224225   4.090   6.550   2.334
 7776SOL     OW24226   2.094   4.599   0.120
 7776SOL    HW124227   2.189   4.627   0.108
 7776SOL    HW224228   2.082   4.507   0.082
 7777SOL     OW24229   1.003   0.800   4.720
 7777SOL    HW124230   0.942   0.777   4.796
 7777SOL    HW224231   1.058   0.720   4.697
 7778SOL     OW24232   5.223   4.830   0.515
 7778SOL    HW124233   5.284   4.879   0.576
 7778SOL    HW224234   5.128   4.859   0.531
 7779SOL     OW24235   2.956   2.425   1.055
 7779SOL    HW124236   2.982   2.502   1.114
 7779SOL    HW224237   3.028   2.356   1.056
 7780SOL     OW24238   0.600   5.356   5.457
 7780SOL    HW124239   0.561   5.356   5.364
 7780SOL    HW224240   0.573   5.273   5.505
 7781SOL     OW24241   1.195   4.866   0.353
 7781SOL    HW124242   1.122   4.872   0.422
 7781SOL    HW224243   1.256   4.945   0.363
 7782SOL     OW24244   0.321   4.789   4.559
 7782SOL    HW124245   0.402   4.734   4.539
 7782SOL    HW224246   0.320   4.869   4.499
 7783SOL     OW24247   1.165   6.068   4.523
 7783SOL    HW124248   1.131   6.026   4.439
 7783SOL    HW224249   1.211   6.154   4.501
 7784SOL     OW24250   2.954   3.034   0.977
 7784SOL    HW124251   2.959   3.063   1.073
 7784SOL    HW224252   2.923   2.939   0.972
 7785SOL     OW24253   1.576   6.392   4.036
 7785SOL    HW124254   1.530   6.311   4.073
 7785SOL    HW224255   1.508   6.461   4.014
 7786SOL     OW24256   3.331   6.398   6.738
 7786SOL    HW124257   3.420   6.398   6.693
 7786SOL    HW224258   3.343   6.396   6.837
 7787SOL     OW24259   2.635   2.821   6.261
 7787SOL    HW124260   2.732   2.838   6.280
 7787SOL    HW224261   2.626   2.734   6.213
 7788SOL     OW24262   1.703   5.428   1.718
 7788SOL    HW124263   1.783   5.395   1.768
 7788SOL    HW224264   1.646   5.350   1.691
 7789SOL     OW24265   2.432   6.733   6.447
 7789SOL    HW124266   2.378   6.816   6.434
 7789SOL    HW224267   2.378   6.653   6.419
 7790SOL     OW24268   5.181   5.129   3.119
 7790SOL    HW124269   5.182   5.089   3.028
 7790SOL    HW224270   5.274   5.133   3.155
 7791SOL     OW24271   2.322   5.900   3.516
 7791SOL    HW124272   2.345   5.871   3.423
 7791SOL    HW224273   2.251   5.970   3.512
 7792SOL     OW24274   1.602   4.936   5.384
 7792SOL    HW124275   1.628   5.033   5.380
 7792SOL    HW224276   1.557   4.910   5.299
 7793SOL     OW24277   3.233   0.967   7.016
 7793SOL    HW124278   3.251   0.959   0.091
 7793SOL    HW224279   3.201   0.879   6.980
 7794SOL     OW24280   5.855   4.947   3.183
 7794SOL    HW124281   5.873   5.032   3.133
 7794SOL    HW224282   5.911   4.874   3.145
 7795SOL     OW24283   2.374   3.835   5.415
 7795SOL    HW124284   2.404   3.877   5.329
 7795SOL    HW224285   2.417   3.882   5.492
 7796SOL     OW24286   3.624   4.151   3.324
 7796SOL    HW124287   3.624   4.117   3.418
 7796SOL    HW224288   3.684   4.095   3.268
 7797SOL     OW24289   1.598   0.330   2.582
 7797SOL    HW124290   1.553   0.386   2.652
 7797SOL    HW224291   1.656   0.262   2.625
 7798SOL     OW24292   1.957   4.487   5.622
 7798SOL    HW124293   2.042   4.510   5.669
 7798SOL    HW224294   1.977   4.452   5.531
 7799SOL     OW24295   1.251   6.058   2.408
 7799SOL    HW124296   1.241   6.019   2.316
 7799SOL    HW224297   1.175   6.026   2.465
 7800SOL     OW24298   1.157   5.416   0.741
 7800SOL    HW124299   1.103   5.485   0.790
 7800SOL    HW224300   1.240   5.396   0.793
 7801SOL     OW24301   2.270   1.765   1.799
 7801SOL    HW124302   2.234   1.796   1.886
 7801SOL    HW224303   2.199   1.773   1.729
 7802SOL     OW24304   5.842   2.471   0.972
 7802SOL    HW124305   5.750   2.498   0.942
 7802SOL    HW224306   5.857   2.502   1.066
 7803SOL     OW24307   4.347   1.747   6.466
 7803SOL    HW124308   4.348   1.773   6.370
 7803SOL    HW224309   4.377   1.825   6.522
 7804SOL     OW24310   4.765   2.403   4.485
 7804SOL    HW124311   4.781   2.309   4.454
 7804SOL    HW224312   4.702   2.448   4.422
 7805SOL     OW24313   5.232   1.925   1.011
 7805SOL    HW124314   5.163   1.921   0.938
 7805SOL    HW224315   5.303   1.990   0.985
 7806SOL     OW24316   5.793   2.183   6.364
 7806SOL    HW124317   5.760   2.258   6.421
 7806SOL    HW224318   5.726   2.109   6.365
 7807SOL     OW24319   0.881   4.765   5.121
 7807SOL    HW124320   0.886   4.697   5.047
 7807SOL    HW224321   0.966   4.764   5.173
 7808SOL     OW24322   6.714   3.106   4.083
 7808SOL    HW124323   6.763   3.049   4.149
 7808SOL    HW224324   6.668   3.047   4.016
 7809SOL     OW24325   1.916   5.606   3.916
 7809SOL    HW124326   1.863   5.633   3.836
 7809SOL    HW224327   1.896   5.668   3.992
 7810SOL     OW24328   3.586   0.967   4.521
 7810SOL    HW124329   3.650   0.927   4.587
 7810SOL    HW224330   3.594   0.919   4.434
 7811SOL     OW24331   1.162   5.642   2.805
 7811SOL    HW124332   1.214   5.727   2.806
 7811SOL    HW224333   1.138   5.616   2.899
 7812SOL     OW24334   1.132   1.953   3.866
 7812SOL    HW124335   1.171   2.031   3.817
 7812SOL    HW224336   1.201   1.881   3.875
 7813SOL     OW24337   4.374   2.772   6.898
 7813SOL    HW124338   4.344   2.679   6.918
 7813SOL    HW224339   4.296   2.834   6.900
 7814SOL     OW24340   0.010   2.936   3.081
 7814SOL    HW124341   6.974   2.902   3.008
 7814SOL    HW224342   0.046   2.859   3.134
 7815SOL     OW24343   5.132   0.667   5.517
 7815SOL    HW124344   5.189   0.673   5.599
 7815SOL    HW224345   5.051   0.724   5.528
 7816SOL     OW24346   1.471   2.573   6.387
 7816SOL    HW124347   1.373   2.557   6.401
 7816SOL    HW224348   1.512   2.493   6.344
 7817SOL     OW24349   5.602   4.948   3.270
 7817SOL    HW124350   5.595   4.884   3.347
 7817SOL    HW224351   5.692   4.940   3.228
 7818SOL     OW24352   4.357   0.688   2.541
 7818SOL    HW124353   4.379   0.639   2.457
 7818SOL    HW224354   4.421   0.661   2.613
 7819SOL     OW24355   6.717   3.666   1.866
 7819SOL    HW124356   6.748   3.689   1.959
 7819SOL    HW224357   6.761   3.581   1.836
 7820SOL     OW24358   1.964   2.465   5.121
 7820SOL    HW124359   1.891   2.506   5.066
 7820SOL    HW224360   1.924   2.419   5.200
 7821SOL     OW24361   5.561   5.945   0.623
 7821SOL    HW124362   5.533   5.947   0.719
 7821SOL    HW224363   5.500   6.002   0.569
 7822SOL     OW24364   0.858   1.916   6.040
 7822SOL    HW124365   0.861   1.996   5.980
 7822SOL    HW224366   0.928   1.850   6.011
 7823SOL     OW24367   2.689   3.973   5.309
 7823SOL    HW124368   2.728   3.890   5.349
 7823SOL    HW224369   2.592   3.956   5.287
 7824SOL     OW24370   5.973   0.862   3.902
 7824SOL    HW124371   6.003   0.944   3.951
 7824SOL    HW224372   6.053   0.813   3.867
 7825SOL     OW24373   1.426   2.483   1.229
 7825SOL    HW124374   1.358   2.537   1.180
 7825SOL    HW224375   1.380   2.430   1.301
 7826SOL     OW24376   6.259   1.804   1.385
 7826SOL    HW124377   6.329   1.864   1.348
 7826SOL    HW224378   6.238   1.831   1.479
 7827SOL     OW24379   2.037   5.320   0.953
 7827SOL    HW124380   2.081   5.407   0.933
 7827SOL    HW224381   2.067   5.287   1.043
 7828SOL     OW24382   0.788   4.108   6.407
 7828SOL    HW124383   0.747   4.119   6.317
 7828SOL    HW224384   0.845   4.188   6.428
 7829SOL     OW24385   2.628   4.210   1.361
 7829SOL    HW124386   2.530   4.191   1.359
 7829SOL    HW224387   2.662   4.196   1.454
 7830SOL     OW24388   2.522   4.589   5.003
 7830SOL    HW124389   2.498   4.537   4.921
 7830SOL    HW224390   2.620   4.612   5.000
 7831SOL     OW24391   2.215   6.771   1.338
 7831SOL    HW124392   2.303   6.803   1.374
 7831SOL    HW224393   2.217   6.672   1.329
 7832SOL     OW24394   5.898   1.028   3.370
 7832SOL    HW124395   5.813   1.052   3.417
 7832SOL    HW224396   5.936   0.945   3.410
 7833SOL     OW24397   0.846   1.140   6.155
 7833SOL    HW124398   0.904   1.083   6.212
 7833SOL    HW224399   0.802   1.210   6.211
 7834SOL     OW24400   6.865   1.500   3.591
 7834SOL    HW124401   6.824   1.499   3.500
 7834SOL    HW224402   6.840   1.415   3.639
 7835SOL     OW24403   3.497   2.100   5.619
 7835SOL    HW124404   3.421   2.163   5.601
 7835SOL    HW224405   3.580   2.153   5.638
 7836SOL     OW24406   3.278   2.961   5.275
 7836SOL    HW124407   3.178   2.954   5.275
 7836SOL    HW224408   3.317   2.881   5.320
 7837SOL     OW24409   5.580   5.324   6.816
 7837SOL    HW124410   5.583   5.414   6.859
 7837SOL    HW224411   5.645   5.262   6.860
 7838SOL     OW24412   4.031   0.171   0.549
 7838SOL    HW124413   4.043   0.144   0.454
 7838SOL    HW224414   3.934   0.188   0.568
 7839SOL     OW24415   5.839   4.052   4.877
 7839SOL    HW124416   5.834   4.125   4.809
 7839SOL    HW224417   5.746   4.030   4.908
 7840SOL     OW24418   6.262   2.689   3.672
 7840SOL    HW124419   6.323   2.689   3.593
 7840SOL    HW224420   6.168   2.700   3.642
 7841SOL     OW24421   3.658   2.043   6.193
 7841SOL    HW124422   3.564   2.010   6.191
 7841SOL    HW224423   3.687   2.055   6.288
 7842SOL     OW24424   2.632   1.961   2.612
 7842SOL    HW124425   2.641   1.898   2.689
 7842SOL    HW224426   2.577   2.040   2.639
 7843SOL     OW24427   0.075   6.188   3.491
 7843SOL    HW124428   0.004   6.133   3.535
 7843SOL    HW224429   0.145   6.128   3.453
 7844SOL     OW24430   3.649   0.099   2.990
 7844SOL    HW124431   3.583   0.141   2.927
 7844SOL    HW224432   3.642   7.022   2.984
 7845SOL     OW24433   5.606   2.098   2.704
 7845SOL    HW124434   5.676   2.091   2.774
 7845SOL    HW224435   5.632   2.040   2.626
 7846SOL     OW24436   0.675   1.435   2.216
 7846SOL    HW124437   0.725   1.417   2.131
 7846SOL    HW224438   0.707   1.522   2.255
 7847SOL     OW24439   6.741   1.301   3.155
 7847SOL    HW124440   6.658   1.260   3.192
 7847SOL    HW224441   6.754   1.391   3.196
 7848SOL     OW24442   3.295   3.923   0.680
 7848SOL    HW124443   3.350   3.865   0.740
 7848SOL    HW224444   3.327   4.018   0.686
 7849SOL     OW24445   6.347   4.216   4.390
 7849SOL    HW124446   6.375   4.305   4.428
 7849SOL    HW224447   6.258   4.226   4.345
 7850SOL     OW24448   0.261   1.440   4.373
 7850SOL    HW124449   0.302   1.350   4.357
 7850SOL    HW224450   0.326   1.497   4.424
 7851SOL     OW24451   6.500   1.166   1.868
 7851SOL    HW124452   6.489   1.262   1.841
 7851SOL    HW224453   6.410   1.122   1.870
 7852SOL     OW24454   2.874   1.428   6.347
 7852SOL    HW124455   2.796   1.409   6.406
 7852SOL    HW224456   2.935   1.494   6.392
 7853SOL     OW24457   5.191   2.356   1.917
 7853SOL    HW124458   5.248   2.424   1.871
 7853SOL    HW224459   5.214   2.353   2.014
 7854SOL     OW24460   3.495   3.304   6.575
 7854SOL    HW124461   3.438   3.232   6.535
 7854SOL    HW224462   3.437   3.368   6.626
 7855SOL     OW24463   4.948   6.600   4.488
 7855SOL    HW124464   4.947   6.572   4.584
 7855SOL    HW224465   5.028   6.658   4.471
 7856SOL     OW24466   6.462   5.271   5.024
 7856SOL    HW124467   6.432   5.186   5.068
 7856SOL    HW224468   6.517   5.248   4.943
 7857SOL     OW24469   5.312   2.307   6.571
 7857SOL    HW124470   5.286   2.240   6.502
 7857SOL    HW224471   5.320   2.397   6.529
 7858SOL     OW24472   6.402   6.683   3.989
 7858SOL    HW124473   6.403   6.583   3.989
 7858SOL    HW224474   6.310   6.715   4.013
 7859SOL     OW24475   4.256   2.899   6.278
 7859SOL    HW124476   4.339   2.950   6.302
 7859SOL    HW224477   4.184   2.964   6.253
 7860SOL     OW24478   3.349   0.828   3.214
 7860SOL    HW124479   3.380   0.909   3.264
 7860SOL    HW224480   3.289   0.856   3.139
 7861SOL     OW24481   3.717   4.777   1.654
 7861SOL    HW124482   3.671   4.717   1.721
 7861SOL    HW224483   3.652   4.805   1.584
 7862SOL     OW24484   1.891   4.626   1.895
 7862SOL    HW124485   1.875   4.540   1.943
 7862SOL    HW224486   1.964   4.677   1.942
 7863SOL     OW24487   0.251   4.462   4.737
 7863SOL    HW124488   0.259   4.408   4.653
 7863SOL    HW224489   0.311   4.542   4.730
 7864SOL     OW24490   0.685   5.731   5.210
 7864SOL    HW124491   0.633   5.733   5.295
 7864SOL    HW224492   0.703   5.824   5.179
 7865SOL     OW24493   6.400   6.334   3.738
 7865SOL    HW124494   6.306   6.348   3.707
 7865SOL    HW224495   6.407   6.245   3.783
 7866SOL     OW24496   1.417   1.473   5.817
 7866SOL    HW124497   1.506   1.430   5.831
 7866SOL    HW224498   1.392   1.469   5.720
 7867SOL     OW24499   6.040   6.197   3.355
 7867SOL    HW124500   6.066   6.251   3.435
 7867SOL    HW224501   6.058   6.100   3.373
 7868SOL     OW24502   4.613   6.124   1.370
 7868SOL    HW124503   4.711   6.146   1.375
 7868SOL    HW224504   4.561   6.208   1.352
 7869SOL     OW24505   5.486   3.668   0.088
 7869SOL    HW124506   5.436   3.584   0.066
 7869SOL    HW224507   5.571   3.645   0.134
 7870SOL     OW24508   4.440   5.221   3.987
 7870SOL    HW124509   4.510   5.190   4.052
 7870SOL    HW224510   4.361   5.160   3.992
 7871SOL     OW24511   4.762   1.944   2.337
 7871SOL    HW124512   4.720   1.853   2.332
 7871SOL    HW224513   4.850   1.937   2.383
 7872SOL     OW24514   1.647   3.764   3.160
 7872SOL    HW124515   1.731   3.714   3.183
 7872SOL    HW224516   1.591   3.709   3.099
 7873SOL     OW24517   5.972   6.559   6.096
 7873SOL    HW124518   5.997   6.606   6.181
 7873SOL    HW224519   5.960   6.462   6.113
 7874SOL     OW24520   5.244   2.160   0.210
 7874SOL    HW124521   5.217   2.132   0.118
 7874SOL    HW224522   5.163   2.165   0.269
 7875SOL     OW24523   4.159   3.053   6.621
 7875SOL    HW124524   4.196   3.031   6.531
 7875SOL    HW224525   4.061   3.068   6.614
 7876SOL     OW24526   1.431   7.000   3.728
 7876SOL    HW124527   1.418   6.905   3.702
 7876SOL    HW224528   1.496   7.005   3.804
 7877SOL     OW24529   1.348   1.770   3.024
 7877SOL    HW124530   1.262   1.723   3.044
 7877SOL    HW224531   1.401   1.715   2.959
 7878SOL     OW24532   4.788   4.394   4.802
 7878SOL    HW124533   4.725   4.433   4.869
 7878SOL    HW224534   4.802   4.297   4.823
 7879SOL     OW24535   3.954   5.575   3.347
 7879SOL    HW124536   4.045   5.545   3.376
 7879SOL    HW224537   3.962   5.643   3.273
 7880SOL     OW24538   1.976   4.653   0.973
 7880SOL    HW124539   1.971   4.695   0.882
 7880SOL    HW224540   2.029   4.568   0.967
 7881SOL     OW24541   6.394   4.953   4.798
 7881SOL    HW124542   6.477   5.004   4.774
 7881SOL    HW224543   6.322   4.972   4.732
 7882SOL     OW24544   1.290   2.979   1.910
 7882SOL    HW124545   1.197   2.969   1.876
 7882SOL    HW224546   1.354   2.940   1.845
 7883SOL     OW24547   1.113   0.387   0.637
 7883SOL    HW124548   1.130   0.297   0.677
 7883SOL    HW224549   1.133   0.384   0.539
 7884SOL     OW24550   2.139   3.407   4.894
 7884SOL    HW124551   2.156   3.323   4.946
 7884SOL    HW224552   2.147   3.486   4.955
 7885SOL     OW24553   6.007   5.471   1.217
 7885SOL    HW124554   5.987   5.563   1.250
 7885SOL    HW224555   6.086   5.473   1.156
 7886SOL     OW24556   3.720   5.077   0.080
 7886SOL    HW124557   3.621   5.087   0.070
 7886SOL    HW224558   3.743   5.070   0.177
 7887SOL     OW24559   3.312   2.263   5.798
 7887SOL    HW124560   3.242   2.312   5.746
 7887SOL    HW224561   3.397   2.316   5.798
 7888SOL     OW24562   6.451   0.282   5.468
 7888SOL    HW124563   6.518   0.299   5.540
 7888SOL    HW224564   6.483   0.207   5.410
 7889SOL     OW24565   1.519   4.700   1.066
 7889SOL    HW124566   1.508   4.758   1.147
 7889SOL    HW224567   1.505   4.604   1.092
 7890SOL     OW24568   1.806   2.627   2.702
 7890SOL    HW124569   1.739   2.589   2.766
 7890SOL    HW224570   1.761   2.652   2.617
 7891SOL     OW24571   1.888   3.376   3.980
 7891SOL    HW124572   1.924   3.282   3.978
 7891SOL    HW224573   1.829   3.387   4.060
 7892SOL     OW24574   2.099   0.886   4.023
 7892SOL    HW124575   2.105   0.787   4.030
 7892SOL    HW224576   2.184   0.928   4.055
 7893SOL     OW24577   6.838   6.055   2.436
 7893SOL    HW124578   6.784   6.095   2.362
 7893SOL    HW224579   6.925   6.022   2.400
 7894SOL     OW24580   3.455   6.890   1.094
 7894SOL    HW124581   3.527   6.959   1.104
 7894SOL    HW224582   3.367   6.929   1.122
 7895SOL     OW24583   6.297   0.646   5.426
 7895SOL    HW124584   6.251   0.557   5.433
 7895SOL    HW224585   6.320   0.679   5.518
 7896SOL     OW24586   4.860   4.136   0.490
 7896SOL    HW124587   4.841   4.202   0.417
 7896SOL    HW224588   4.841   4.043   0.457
 7897SOL     OW24589   2.482   4.111   0.195
 7897SOL    HW124590   2.562   4.128   0.252
 7897SOL    HW224591   2.468   4.012   0.187
 7898SOL     OW24592   4.544   2.027   3.526
 7898SOL    HW124593   4.640   2.056   3.525
 7898SOL    HW224594   4.497   2.066   3.446
 7899SOL     OW24595   5.572   1.134   1.205
 7899SOL    HW124596   5.644   1.068   1.223
 7899SOL    HW224597   5.547   1.180   1.291
 7900SOL     OW24598   1.128   5.174   1.431
 7900SOL    HW124599   1.040   5.221   1.433
 7900SOL    HW224600   1.176   5.195   1.346
 7901SOL     OW24601   4.743   1.610   6.749
 7901SOL    HW124602   4.705   1.553   6.821
 7901SOL    HW224603   4.708   1.580   6.660
 7902SOL     OW24604   5.096   6.194   1.751
 7902SOL    HW124605   5.169   6.126   1.758
 7902SOL    HW224606   5.008   6.150   1.770
 7903SOL     OW24607   5.844   1.146   0.739
 7903SOL    HW124608   5.806   1.168   0.650
 7903SOL    HW224609   5.808   1.210   0.807
 7904SOL     OW24610   5.683   6.415   3.852
 7904SOL    HW124611   5.622   6.413   3.932
 7904SOL    HW224612   5.679   6.328   3.804
 7905SOL     OW24613   4.505   2.557   0.181
 7905SOL    HW124614   4.530   2.518   0.269
 7905SOL    HW224615   4.531   2.653   0.178
 7906SOL     OW24616   0.181   5.697   0.604
 7906SOL    HW124617   0.281   5.686   0.604
 7906SOL    HW224618   0.155   5.761   0.676
 7907SOL     OW24619   5.174   2.636   3.191
 7907SOL    HW124620   5.097   2.655   3.131
 7907SOL    HW224621   5.141   2.600   3.278
 7908SOL     OW24622   0.559   1.980   5.373
 7908SOL    HW124623   0.522   1.966   5.281
 7908SOL    HW224624   0.491   2.025   5.430
 7909SOL     OW24625   5.372   3.554   5.057
 7909SOL    HW124626   5.360   3.622   5.129
 7909SOL    HW224627   5.292   3.554   4.998
 7910SOL     OW24628   2.903   3.651   5.848
 7910SOL    HW124629   2.880   3.612   5.759
 7910SOL    HW224630   2.921   3.749   5.838
 7911SOL     OW24631   1.635   2.984   6.948
 7911SOL    HW124632   1.683   3.006   0.010
 7911SOL    HW224633   1.557   3.046   6.937
 7912SOL     OW24634   6.842   5.144   0.246
 7912SOL    HW124635   6.813   5.235   0.218
 7912SOL    HW224636   6.901   5.151   0.327
 7913SOL     OW24637   1.499   4.892   1.237
 7913SOL    HW124638   1.402   4.901   1.216
 7913SOL    HW224639   1.518   4.938   1.324
 7914SOL     OW24640   0.202   4.198   6.802
 7914SOL    HW124641   0.165   4.265   6.867
 7914SOL    HW224642   0.139   4.187   6.726
 7915SOL     OW24643   4.861   2.981   2.324
 7915SOL    HW124644   4.905   2.901   2.282
 7915SOL    HW224645   4.831   3.044   2.251
 7916SOL     OW24646   0.390   4.101   5.392
 7916SOL    HW124647   0.304   4.150   5.397
 7916SOL    HW224648   0.454   4.138   5.461
 7917SOL     OW24649   3.730   4.135   4.105
 7917SOL    HW124650   3.771   4.224   4.122
 7917SOL    HW224651   3.639   4.149   4.063
 7918SOL     OW24652   0.310   1.567   6.976
 7918SOL    HW124653   0.314   1.593   0.050
 7918SOL    HW224654   0.317   1.649   6.919
 7919SOL     OW24655   2.120   3.973   2.017
 7919SOL    HW124656   2.143   3.935   1.927
 7919SOL    HW224657   2.074   3.903   2.071
 7920SOL     OW24658   0.359   5.441   1.078
 7920SOL    HW124659   0.396   5.351   1.058
 7920SOL    HW224660   0.321   5.481   0.994
 7921SOL     OW24661   4.393   6.473   1.052
 7921SOL    HW124662   4.387   6.545   1.122
 7921SOL    HW224663   4.455   6.402   1.083
 7922SOL     OW24664   6.674   6.610   6.692
 7922SOL    HW124665   6.693   6.580   6.785
 7922SOL    HW224666   6.720   6.549   6.627
 7923SOL     OW24667   3.344   0.670   2.031
 7923SOL    HW124668   3.419   0.613   2.065
 7923SOL    HW224669   3.334   0.750   2.089
 7924SOL     OW24670   4.257   6.732   1.698
 7924SOL    HW124671   4.331   6.773   1.749
 7924SOL    HW224672   4.169   6.770   1.728
 7925SOL     OW24673   0.816   1.674   6.341
 7925SOL    HW124674   0.907   1.710   6.321
 7925SOL    HW224675   0.771   1.648   6.256
 7926SOL     OW24676   5.269   1.743   5.341
 7926SOL    HW124677   5.348   1.722   5.285
 7926SOL    HW224678   5.187   1.745   5.284
 7927SOL     OW24679   3.679   5.297   4.013
 7927SOL    HW124680   3.735   5.378   3.995
 7927SOL    HW224681   3.587   5.326   4.041
 7928SOL     OW24682   1.113   2.384   4.410
 7928SOL    HW124683   1.142   2.327   4.487
 7928SOL    HW224684   1.024   2.424   4.430
 7929SOL     OW24685   4.032   4.298   5.717
 7929SOL    HW124686   3.992   4.265   5.803
 7929SOL    HW224687   4.095   4.229   5.682
 7930SOL     OW24688   4.423   5.468   4.105
 7930SOL    HW124689   4.325   5.478   4.087
 7930SOL    HW224690   4.455   5.382   4.067
 7931SOL     OW24691   1.210   2.049   6.167
 7931SOL    HW124692   1.248   2.102   6.243
 7931SOL    HW224693   1.255   1.960   6.164
 7932SOL     OW24694   2.109   6.086   6.381
 7932SOL    HW124695   2.133   6.138   6.298
 7932SOL    HW224696   2.139   5.992   6.370
 7933SOL     OW24697   0.578   6.031   6.927
 7933SOL    HW124698   0.614   5.940   6.907
 7933SOL    HW224699   0.492   6.044   6.877
 7934SOL     OW24700   2.356   4.896   0.280
 7934SOL    HW124701   2.434   4.919   0.222
 7934SOL    HW224702   2.368   4.803   0.315
 7935SOL     OW24703   5.520   6.196   0.371
 7935SOL    HW124704   5.477   6.106   0.370
 7935SOL    HW224705   5.457   6.264   0.333
 7936SOL     OW24706   3.873   5.795   2.301
 7936SOL    HW124707   3.793   5.735   2.298
 7936SOL    HW224708   3.957   5.740   2.297
 7937SOL     OW24709   6.430   0.127   3.872
 7937SOL    HW124710   6.447   0.033   3.901
 7937SOL    HW224711   6.355   0.165   3.926
 7938SOL     OW24712   6.040   5.300   5.157
 7938SOL    HW124713   6.082   5.317   5.246
 7938SOL    HW224714   6.102   5.244   5.101
 7939SOL     OW24715   1.277   2.936   5.430
 7939SOL    HW124716   1.239   2.939   5.523
 7939SOL    HW224717   1.354   2.872   5.428
 7940SOL     OW24718   1.918   4.136   1.947
 7940SOL    HW124719   1.991   4.076   1.977
 7940SOL    HW224720   1.830   4.090   1.960
 7941SOL     OW24721   6.409   6.847   0.752
 7941SOL    HW124722   6.482   6.803   0.803
 7941SOL    HW224723   6.393   6.939   0.789
 7942SOL     OW24724   6.740   5.538   2.813
 7942SOL    HW124725   6.645   5.568   2.810
 7942SOL    HW224726   6.753   5.462   2.749
 7943SOL     OW24727   5.455   3.275   0.211
 7943SOL    HW124728   5.466   3.343   0.284
 7943SOL    HW224729   5.441   3.185   0.251
 7944SOL     OW24730   0.507   3.053   1.391
 7944SOL    HW124731   0.583   3.060   1.326
 7944SOL    HW224732   0.497   3.141   1.439
 7945SOL     OW24733   5.683   5.739   1.927
 7945SOL    HW124734   5.700   5.647   1.889
 7945SOL    HW224735   5.722   5.807   1.865
 7946SOL     OW24736   2.238   1.642   5.465
 7946SOL    HW124737   2.304   1.660   5.392
 7946SOL    HW224738   2.246   1.714   5.535
 7947SOL     OW24739   3.763   2.062   6.470
 7947SOL    HW124740   3.843   2.001   6.472
 7947SOL    HW224741   3.788   2.150   6.509
 7948SOL     OW24742   0.948   6.430   0.883
 7948SOL    HW124743   0.930   6.512   0.829
 7948SOL    HW224744   1.039   6.436   0.924
 7949SOL     OW24745   4.910   4.466   4.393
 7949SOL    HW124746   4.916   4.462   4.493
 7949SOL    HW224747   4.871   4.381   4.358
 7950SOL     OW24748   5.978   4.941   4.795
 7950SOL    HW124749   5.912   5.012   4.822
 7950SOL    HW224750   5.935   4.877   4.732
 7951SOL     OW24751   1.687   4.173   1.281
 7951SOL    HW124752   1.732   4.243   1.335
 7951SOL    HW224753   1.751   4.098   1.263
 7952SOL     OW24754   0.716   3.441   6.480
 7952SOL    HW124755   0.664   3.429   6.565
 7952SOL    HW224756   0.669   3.395   6.405
 7953SOL     OW24757   1.933   2.719   3.422
 7953SOL    HW124758   1.873   2.791   3.385
 7953SOL    HW224759   1.896   2.629   3.398
 7954SOL     OW24760   4.754   3.989   5.235
 7954SOL    HW124761   4.775   4.032   5.323
 7954SOL    HW224762   4.707   4.055   5.176
 7955SOL     OW24763   1.296   6.426   6.499
 7955SOL    HW124764   1.200   6.397   6.499
 7955SOL    HW224765   1.353   6.353   6.537
 7956SOL     OW24766   3.324   5.747   2.499
 7956SOL    HW124767   3.398   5.741   2.566
 7956SOL    HW224768   3.269   5.663   2.503
 7957SOL     OW24769   1.158   1.299   1.609
 7957SOL    HW124770   1.118   1.301   1.518
 7957SOL    HW224771   1.254   1.326   1.604
 7958SOL     OW24772   3.486   5.056   4.359
 7958SOL    HW124773   3.483   5.049   4.458
 7958SOL    HW224774   3.412   5.001   4.319
 7959SOL     OW24775   3.968   5.622   1.010
 7959SOL    HW124776   3.965   5.527   0.977
 7959SOL    HW224777   3.882   5.643   1.056
 7960SOL     OW24778   3.915   1.755   0.627
 7960SOL    HW124779   3.925   1.724   0.722
 7960SOL    HW224780   3.824   1.733   0.594
 7961SOL     OW24781   0.578   6.868   1.092
 7961SOL    HW124782   0.522   6.793   1.057
 7961SOL    HW224783   0.533   6.955   1.073
 7962SOL     OW24784   2.042   0.006   0.460
 7962SOL    HW124785   1.963   0.018   0.399
 7962SOL    HW224786   2.116   0.065   0.429
 7963SOL     OW24787   6.822   0.981   3.830
 7963SOL    HW124788   6.843   0.922   3.908
 7963SOL    HW224789   6.783   0.926   3.756
 7964SOL     OW24790   0.481   4.933   3.714
 7964SOL    HW124791   0.425   4.983   3.648
 7964SOL    HW224792   0.422   4.876   3.772
 7965SOL     OW24793   3.543   3.196   7.001
 7965SOL    HW124794   3.577   3.228   6.912
 7965SOL    HW224795   3.568   3.100   7.013
 7966SOL     OW24796   0.713   3.411   5.435
 7966SOL    HW124797   0.795   3.368   5.396
 7966SOL    HW224798   0.727   3.509   5.443
 7967SOL     OW24799   2.567   6.070   3.888
 7967SOL    HW124800   2.565   6.166   3.915
 7967SOL    HW224801   2.662   6.039   3.884
 7968SOL     OW24802   2.627   2.354   3.140
 7968SOL    HW124803   2.614   2.383   3.045
 7968SOL    HW224804   2.686   2.273   3.142
 7969SOL     OW24805   4.471   6.962   1.601
 7969SOL    HW124806   4.504   6.893   1.665
 7969SOL    HW224807   4.382   6.996   1.631
 7970SOL     OW24808   0.799   3.101   3.139
 7970SOL    HW124809   0.700   3.086   3.144
 7970SOL    HW224810   0.827   3.164   3.212
 7971SOL     OW24811   4.648   1.625   0.852
 7971SOL    HW124812   4.632   1.531   0.823
 7971SOL    HW224813   4.567   1.659   0.900
 7972SOL     OW24814   1.648   3.626   1.768
 7972SOL    HW124815   1.696   3.689   1.706
 7972SOL    HW224816   1.613   3.676   1.846
 7973SOL     OW24817   5.075   4.213   3.469
 7973SOL    HW124818   4.990   4.165   3.489
 7973SOL    HW224819   5.140   4.149   3.427
 7974SOL     OW24820   5.814   0.767   5.207
 7974SOL    HW124821   5.741   0.725   5.153
 7974SOL    HW224822   5.782   0.854   5.243
 7975SOL     OW24823   5.814   0.684   3.039
 7975SOL    HW124824   5.888   0.733   2.994
 7975SOL    HW224825   5.787   0.733   3.122
 7976SOL     OW24826   0.654   0.847   6.642
 7976SOL    HW124827   0.715   0.771   6.617
 7976SOL    HW224828   0.679   0.929   6.590
 7977SOL     OW24829   4.973   5.276   1.371
 7977SOL    HW124830   4.955   5.224   1.454
 7977SOL    HW224831   5.072   5.285   1.358
 7978SOL     OW24832   5.452   3.502   6.122
 7978SOL    HW124833   5.503   3.416   6.129
 7978SOL    HW224834   5.371   3.498   6.180
 7979SOL     OW24835   3.259   0.279   5.329
 7979SOL    HW124836   3.336   0.255   5.388
 7979SOL    HW224837   3.293   0.331   5.250
 7980SOL     OW24838   2.600   5.458   6.731
 7980SOL    HW124839   2.661   5.537   6.730
 7980SOL    HW224840   2.517   5.481   6.782
 7981SOL     OW24841   0.398   5.420   1.927
 7981SOL    HW124842   0.324   5.446   1.989
 7981SOL    HW224843   0.476   5.389   1.980
 7982SOL     OW24844   0.758   1.699   0.671
 7982SOL    HW124845   0.783   1.790   0.704
 7982SOL    HW224846   0.815   1.676   0.592
 7983SOL     OW24847   5.668   1.171   2.466
 7983SOL    HW124848   5.753   1.195   2.419
 7983SOL    HW224849   5.614   1.253   2.482
 7984SOL     OW24850   1.969   2.016   1.655
 7984SOL    HW124851   2.001   1.923   1.636
 7984SOL    HW224852   2.039   2.082   1.626
 7985SOL     OW24853   2.349   6.528   3.979
 7985SOL    HW124854   2.438   6.493   3.950
 7985SOL    HW224855   2.287   6.452   4.000
 7986SOL     OW24856   2.873   0.527   6.640
 7986SOL    HW124857   2.848   0.623   6.654
 7986SOL    HW224858   2.917   0.516   6.551
 7987SOL     OW24859   1.136   3.552   0.015
 7987SOL    HW124860   1.131   3.645   0.051
 7987SOL    HW224861   1.060   3.537   6.974
 7988SOL     OW24862   1.554   2.013   3.790
 7988SOL    HW124863   1.514   2.016   3.882
 7988SOL    HW224864   1.589   2.104   3.766
 7989SOL     OW24865   3.318   2.789   5.672
 7989SOL    HW124866   3.245   2.724   5.651
 7989SOL    HW224867   3.340   2.785   5.769
 7990SOL     OW24868   6.849   3.652   3.514
 7990SOL    HW124869   6.849   3.554   3.534
 7990SOL    HW224870   6.904   3.670   3.432
 7991SOL     OW24871   6.597   0.695   4.134
 7991SOL    HW124872   6.635   0.621   4.190
 7991SOL    HW224873   6.529   0.745   4.187
 7992SOL     OW24874   1.187   6.843   1.094
 7992SOL    HW124875   1.286   6.849   1.093
 7992SOL    HW224876   1.150   6.903   1.165
 7993SOL     OW24877   1.372   5.843   6.585
 7993SOL    HW124878   1.415   5.760   6.549
 7993SOL    HW224879   1.442   5.905   6.619
 7994SOL     OW24880   5.082   0.079   2.785
 7994SOL    HW124881   5.053   7.022   2.838
 7994SOL    HW224882   5.068   0.162   2.839
 7995SOL     OW24883   4.535   5.166   3.447
 7995SOL    HW124884   4.530   5.088   3.384
 7995SOL    HW224885   4.483   5.145   3.530
 7996SOL     OW24886   2.601   0.189   4.609
 7996SOL    HW124887   2.610   0.107   4.552
 7996SOL    HW224888   2.686   0.242   4.604
 7997SOL     OW24889   0.123   1.115   1.073
 7997SOL    HW124890   0.117   1.046   1.145
 7997SOL    HW224891   0.218   1.143   1.062
 7998SOL     OW24892   3.435   5.334   1.112
 7998SOL    HW124893   3.463   5.268   1.042
 7998SOL    HW224894   3.377   5.288   1.179
 7999SOL     OW24895   1.507   6.865   6.272
 7999SOL    HW124896   1.590   6.905   6.310
 7999SOL    HW224897   1.488   6.777   6.317
 8000SOL     OW24898   5.499   6.867   0.321
 8000SOL    HW124899   5.563   6.940   0.347
 8000SOL    HW224900   5.539   6.778   0.344
 8001SOL     OW24901   3.360   5.614   0.803
 8001SOL    HW124902   3.303   5.624   0.885
 8001SOL    HW224903   3.414   5.698   0.790
 8002SOL     OW24904   0.653   2.536   5.920
 8002SOL    HW124905   0.661   2.627   5.879
 8002SOL    HW224906   0.618   2.472   5.852
 8003SOL     OW24907   2.830   4.791   2.691
 8003SOL    HW124908   2.788   4.744   2.613
 8003SOL    HW224909   2.777   4.771   2.774
 8004SOL     OW24910   1.884   3.807   3.754
 8004SOL    HW124911   1.972   3.790   3.711
 8004SOL    HW224912   1.813   3.814   3.684
 8005SOL     OW24913   3.447   0.969   2.900
 8005SOL    HW124914   3.436   0.948   2.803
 8005SOL    HW224915   3.360   0.956   2.947
 8006SOL     OW24916   2.590   6.978   6.795
 8006SOL    HW124917   2.632   6.961   6.706
 8006SOL    HW224918   2.495   7.006   6.782
 8007SOL     OW24919   0.260   0.741   3.970
 8007SOL    HW124920   0.353   0.729   4.005
 8007SOL    HW224921   0.255   0.825   3.917
 8008SOL     OW24922   4.484   6.257   6.163
 8008SOL    HW124923   4.542   6.182   6.195
 8008SOL    HW224924   4.405   6.219   6.115
 8009SOL     OW24925   5.938   0.846   2.825
 8009SOL    HW124926   5.905   0.866   2.732
 8009SOL    HW224927   5.884   0.898   2.891
 8010SOL     OW24928   1.250   1.202   0.597
 8010SOL    HW124929   1.183   1.129   0.586
 8010SOL    HW224930   1.259   1.253   0.512
 8011SOL     OW24931   3.338   2.744   1.078
 8011SOL    HW124932   3.350   2.722   1.175
 8011SOL    HW224933   3.371   2.667   1.023
 8012SOL     OW24934   1.995   5.164   1.740
 8012SOL    HW124935   2.046   5.247   1.718
 8012SOL    HW224936   2.052   5.104   1.796
 8013SOL     OW24937   1.382   4.376   3.555
 8013SOL    HW124938   1.469   4.397   3.510
 8013SOL    HW224939   1.399   4.320   3.636
 8014SOL     OW24940   0.761   6.312   5.026
 8014SOL    HW124941   0.689   6.260   4.979
 8014SOL    HW224942   0.728   6.405   5.043
 8015SOL     OW24943   2.844   1.347   0.151
 8015SOL    HW124944   2.911   1.273   0.139
 8015SOL    HW224945   2.870   1.402   0.230
 8016SOL     OW24946   4.880   6.874   6.690
 8016SOL    HW124947   4.894   6.777   6.669
 8016SOL    HW224948   4.966   6.913   6.722
 8017SOL     OW24949   6.896   6.549   0.180
 8017SOL    HW124950   6.959   6.626   0.191
 8017SOL    HW224951   6.861   6.521   0.270
 8018SOL     OW24952   3.297   2.320   6.085
 8018SOL    HW124953   3.229   2.388   6.111
 8018SOL    HW224954   3.293   2.303   5.987
 8019SOL     OW24955   2.383   3.894   6.626
 8019SOL    HW124956   2.363   3.926   6.534
 8019SOL    HW224957   2.309   3.920   6.688
 8020SOL     OW24958   6.345   6.223   1.202
 8020SOL    HW124959   6.283   6.211   1.125
 8020SOL    HW224960   6.344   6.141   1.259
 8021SOL     OW24961   1.494   1.727   1.801
 8021SOL    HW124962   1.504   1.716   1.702
 8021SOL    HW224963   1.528   1.818   1.827
 8022SOL     OW24964   4.280   6.877   2.639
 8022SOL    HW124965   4.184   6.850   2.640
 8022SOL    HW224966   4.288   6.971   2.671
 8023SOL     OW24967   5.731   4.977   3.541
 8023SOL    HW124968   5.660   5.032   3.586
 8023SOL    HW224969   5.733   5.000   3.443
 8024SOL     OW24970   2.853   4.931   0.185
 8024SOL    HW124971   2.888   4.875   0.261
 8024SOL    HW224972   2.839   4.872   0.105
 8025SOL     OW24973   2.396   6.365   6.153
 8025SOL    HW124974   2.308   6.318   6.146
 8025SOL    HW224975   2.414   6.388   6.248
 8026SOL     OW24976   0.800   4.504   6.539
 8026SOL    HW124977   0.822   4.501   6.636
 8026SOL    HW224978   0.865   4.448   6.488
 8027SOL     OW24979   4.076   1.840   5.293
 8027SOL    HW124980   4.069   1.747   5.329
 8027SOL    HW224981   4.164   1.851   5.247
 8028SOL     OW24982   2.992   4.937   4.839
 8028SOL    HW124983   2.960   5.000   4.910
 8028SOL    HW224984   2.917   4.879   4.809
 8029SOL     OW24985   4.771   2.895   0.810
 8029SOL    HW124986   4.681   2.932   0.831
 8029SOL    HW224987   4.821   2.879   0.896
 8030SOL     OW24988   4.285   4.192   0.195
 8030SOL    HW124989   4.194   4.226   0.170
 8030SOL    HW224990   4.279   4.144   0.282
 8031SOL     OW24991   4.991   6.167   3.030
 8031SOL    HW124992   4.977   6.185   2.933
 8031SOL    HW224993   5.089   6.162   3.050
 8032SOL     OW24994   5.209   4.260   5.916
 8032SOL    HW124995   5.211   4.248   6.016
 8032SOL    HW224996   5.119   4.231   5.882
 8033SOL     OW24997   5.149   3.689   6.570
 8033SOL    HW124998   5.114   3.763   6.512
 8033SOL    HW224999   5.168   3.609   6.513
 8034SOL     OW25000   6.380   0.776   4.997
 8034SOL    HW125001   6.321   0.802   5.073
 8034SOL    HW225002   6.475   0.793   5.020
 8035SOL     OW25003   5.337   1.623   4.477
 8035SOL    HW125004   5.395   1.703   4.461
 8035SOL    HW225005   5.368   1.575   4.559
 8036SOL     OW25006   0.480   4.230   2.890
 8036SOL    HW125007   0.438   4.320   2.898
 8036SOL    HW225008   0.497   4.210   2.793
 8037SOL     OW25009   2.175   2.952   1.780
 8037SOL    HW125010   2.150   3.049   1.779
 8037SOL    HW225011   2.217   2.929   1.867
 8038SOL     OW25012   4.570   0.840   3.309
 8038SOL    HW125013   4.473   0.821   3.323
 8038SOL    HW225014   4.586   0.938   3.322
 8039SOL     OW25015   0.922   1.023   4.241
 8039SOL    HW125016   0.935   0.968   4.324
 8039SOL    HW225017   0.973   0.981   4.166
 8040SOL     OW25018   1.445   6.209   0.493
 8040SOL    HW125019   1.396   6.218   0.406
 8040SOL    HW225020   1.394   6.150   0.555
 8041SOL     OW25021   2.691   1.635   2.026
 8041SOL    HW125022   2.690   1.587   1.939
 8041SOL    HW225023   2.672   1.732   2.011
 8042SOL     OW25024   3.710   2.909   3.964
 8042SOL    HW125025   3.780   2.979   3.972
 8042SOL    HW225026   3.753   2.818   3.963
 8043SOL     OW25027   3.821   0.444   1.910
 8043SOL    HW125028   3.782   0.359   1.946
 8043SOL    HW225029   3.827   0.439   1.811
 8044SOL     OW25030   3.866   3.169   0.525
 8044SOL    HW125031   3.934   3.132   0.589
 8044SOL    HW225032   3.912   3.200   0.442
 8045SOL     OW25033   5.319   0.670   1.270
 8045SOL    HW125034   5.365   0.636   1.188
 8045SOL    HW225035   5.222   0.687   1.249
 8046SOL     OW25036   6.633   5.401   0.424
 8046SOL    HW125037   6.552   5.457   0.408
 8046SOL    HW225038   6.715   5.459   0.422
 8047SOL     OW25039   3.983   5.117   4.598
 8047SOL    HW125040   3.996   5.207   4.556
 8047SOL    HW225041   3.931   5.058   4.536
 8048SOL     OW25042   5.828   0.603   6.040
 8048SOL    HW125043   5.922   0.637   6.052
 8048SOL    HW225044   5.791   0.576   6.129
 8049SOL     OW25045   1.397   0.133   0.829
 8049SOL    HW125046   1.327   0.146   0.758
 8049SOL    HW225047   1.468   0.203   0.818
 8050SOL     OW25048   1.367   3.449   2.264
 8050SOL    HW125049   1.426   3.370   2.248
 8050SOL    HW225050   1.381   3.483   2.357
 8051SOL     OW25051   4.883   5.819   3.067
 8051SOL    HW125052   4.959   5.847   3.125
 8051SOL    HW225053   4.800   5.867   3.095
 8052SOL     OW25054   4.565   1.525   2.471
 8052SOL    HW125055   4.554   1.451   2.404
 8052SOL    HW225056   4.511   1.604   2.441
 8053SOL     OW25057   3.201   4.064   3.576
 8053SOL    HW125058   3.102   4.067   3.557
 8053SOL    HW225059   3.235   3.972   3.558
 8054SOL     OW25060   5.187   0.226   4.607
 8054SOL    HW125061   5.277   0.267   4.605
 8054SOL    HW225062   5.124   0.283   4.660
 8055SOL     OW25063   6.776   0.581   5.870
 8055SOL    HW125064   6.866   0.537   5.880
 8055SOL    HW225065   6.705   0.515   5.893
 8056SOL     OW25066   4.318   1.854   4.333
 8056SOL    HW125067   4.269   1.786   4.279
 8056SOL    HW225068   4.265   1.939   4.335
 8057SOL     OW25069   3.216   2.068   2.922
 8057SOL    HW125070   3.173   2.055   2.833
 8057SOL    HW225071   3.146   2.094   2.989
 8058SOL     OW25072   4.536   0.579   2.714
 8058SOL    HW125073   4.508   0.484   2.705
 8058SOL    HW225074   4.635   0.587   2.699
 8059SOL     OW25075   4.507   2.551   4.799
 8059SOL    HW125076   4.536   2.522   4.708
 8059SOL    HW225077   4.423   2.502   4.824
 8060SOL     OW25078   0.573   2.571   4.486
 8060SOL    HW125079   0.504   2.637   4.457
 8060SOL    HW225080   0.600   2.590   4.580
 8061SOL     OW25081   6.666   0.115   1.983
 8061SOL    HW125082   6.569   0.124   2.008
 8061SOL    HW225083   6.674   0.051   1.907
 8062SOL     OW25084   2.897   5.227   4.399
 8062SOL    HW125085   2.985   5.271   4.413
 8062SOL    HW225086   2.855   5.260   4.314
 8063SOL     OW25087   0.895   2.655   0.519
 8063SOL    HW125088   0.907   2.633   0.616
 8063SOL    HW225089   0.982   2.641   0.471
 8064SOL     OW25090   0.052   5.155   0.917
 8064SOL    HW125091   6.981   5.144   0.950
 8064SOL    HW225092   0.061   5.242   0.867
 8065SOL     OW25093   3.761   6.203   4.403
 8065SOL    HW125094   3.846   6.151   4.404
 8065SOL    HW225095   3.765   6.276   4.472
 8066SOL     OW25096   0.830   2.149   6.235
 8066SOL    HW125097   0.846   2.061   6.190
 8066SOL    HW225098   0.853   2.224   6.173
 8067SOL     OW25099   4.905   3.138   1.513
 8067SOL    HW125100   4.907   3.081   1.430
 8067SOL    HW225101   4.836   3.210   1.502
 8068SOL     OW25102   5.994   4.725   0.071
 8068SOL    HW125103   5.968   4.654   0.137
 8068SOL    HW225104   6.093   4.726   0.060
 8069SOL     OW25105   2.024   5.886   1.312
 8069SOL    HW125106   1.971   5.949   1.370
 8069SOL    HW225107   1.977   5.874   1.225
 8070SOL     OW25108   2.802   2.719   0.078
 8070SOL    HW125109   2.749   2.735   0.162
 8070SOL    HW225110   2.899   2.709   0.101
 8071SOL     OW25111   2.789   6.429   4.964
 8071SOL    HW125112   2.880   6.461   4.987
 8071SOL    HW225113   2.758   6.473   4.880
 8072SOL     OW25114   3.449   1.001   6.683
 8072SOL    HW125115   3.428   0.921   6.739
 8072SOL    HW225116   3.424   0.983   6.588
 8073SOL     OW25117   4.112   5.355   6.079
 8073SOL    HW125118   4.150   5.396   5.996
 8073SOL    HW225119   4.180   5.357   6.152
 8074SOL     OW25120   3.079   2.834   0.392
 8074SOL    HW125121   2.989   2.871   0.419
 8074SOL    HW225122   3.141   2.836   0.470
 8075SOL     OW25123   6.665   1.163   0.968
 8075SOL    HW125124   6.650   1.255   1.004
 8075SOL    HW225125   6.596   1.143   0.898
 8076SOL     OW25126   5.108   2.208   5.557
 8076SOL    HW125127   5.037   2.174   5.619
 8076SOL    HW225128   5.066   2.236   5.471
 8077SOL     OW25129   1.432   5.204   2.086
 8077SOL    HW125130   1.359   5.203   2.155
 8077SOL    HW225131   1.391   5.203   1.994
 8078SOL     OW25132   5.691   0.896   0.737
 8078SOL    HW125133   5.712   0.955   0.815
 8078SOL    HW225134   5.761   0.906   0.667
 8079SOL     OW25135   5.105   1.373   3.618
 8079SOL    HW125136   5.082   1.466   3.590
 8079SOL    HW225137   5.066   1.354   3.708
 8080SOL     OW25138   6.995   3.600   0.285
 8080SOL    HW125139   6.957   3.511   0.311
 8080SOL    HW225140   6.922   3.661   0.254
 8081SOL     OW25141   4.797   0.102   4.349
 8081SOL    HW125142   4.894   0.094   4.370
 8081SOL    HW225143   4.758   0.179   4.399
 8082SOL     OW25144   6.158   0.505   1.956
 8082SOL    HW125145   6.088   0.512   2.027
 8082SOL    HW225146   6.233   0.568   1.977
 8083SOL     OW25147   5.450   3.508   2.644
 8083SOL    HW125148   5.486   3.458   2.566
 8083SOL    HW225149   5.380   3.453   2.690
 8084SOL     OW25150   5.123   6.846   7.010
 8084SOL    HW125151   5.216   6.817   0.012
 8084SOL    HW225152   5.121   6.876   6.915
 8085SOL     OW25153   6.052   0.243   2.787
 8085SOL    HW125154   5.977   0.185   2.757
 8085SOL    HW225155   6.047   0.331   2.740
 8086SOL     OW25156   4.727   1.233   4.056
 8086SOL    HW125157   4.751   1.263   3.964
 8086SOL    HW225158   4.808   1.242   4.116
 8087SOL     OW25159   2.649   1.052   0.962
 8087SOL    HW125160   2.571   1.109   0.988
 8087SOL    HW225161   2.713   1.107   0.907
 8088SOL     OW25162   5.692   2.295   1.290
 8088SOL    HW125163   5.771   2.355   1.295
 8088SOL    HW225164   5.715   2.206   1.329
 8089SOL     OW25165   4.864   2.721   0.190
 8089SOL    HW125166   4.863   2.725   0.290
 8089SOL    HW225167   4.877   2.627   0.160
 8090SOL     OW25168   3.929   2.531   6.781
 8090SOL    HW125169   4.006   2.474   6.755
 8090SOL    HW225170   3.960   2.603   6.842
 8091SOL     OW25171   2.325   4.010   6.387
 8091SOL    HW125172   2.236   4.055   6.398
 8091SOL    HW225173   2.391   4.076   6.350
 8092SOL     OW25174   0.832   2.445   4.844
 8092SOL    HW125175   0.762   2.415   4.908
 8092SOL    HW225176   0.920   2.449   4.891
 8093SOL     OW25177   4.886   5.449   1.740
 8093SOL    HW125178   4.843   5.371   1.786
 8093SOL    HW225179   4.816   5.513   1.710
 8094SOL     OW25180   1.370   4.072   4.510
 8094SOL    HW125181   1.388   4.152   4.452
 8094SOL    HW225182   1.272   4.056   4.516
 8095SOL     OW25183   5.947   3.985   4.158
 8095SOL    HW125184   5.848   3.982   4.173
 8095SOL    HW225185   5.976   3.905   4.106
 8096SOL     OW25186   2.952   5.664   3.802
 8096SOL    HW125187   2.975   5.567   3.801
 8096SOL    HW225188   2.927   5.694   3.710
 8097SOL     OW25189   5.217   6.829   3.190
 8097SOL    HW125190   5.217   6.918   3.144
 8097SOL    HW225191   5.136   6.777   3.162
 8098SOL     OW25192   2.123   6.689   3.856
 8098SOL    HW125193   2.221   6.672   3.861
 8098SOL    HW225194   2.106   6.786   3.875
 8099SOL     OW25195   5.379   6.817   4.005
 8099SOL    HW125196   5.423   6.839   3.918
 8099SOL    HW225197   5.280   6.830   3.996
 8100SOL     OW25198   0.060   0.068   6.863
 8100SOL    HW125199   0.072   0.112   6.774
 8100SOL    HW225200   0.015   7.002   6.851
 8101SOL     OW25201   2.112   0.235   3.593
 8101SOL    HW125202   2.174   0.206   3.520
 8101SOL    HW225203   2.063   0.155   3.629
 8102SOL     OW25204   0.773   4.714   4.538
 8102SOL    HW125205   0.702   4.764   4.587
 8102SOL    HW225206   0.860   4.722   4.587
 8103SOL     OW25207   4.596   1.008   0.621
 8103SOL    HW125208   4.661   0.967   0.557
 8103SOL    HW225209   4.531   1.065   0.571
 8104SOL     OW25210   2.323   6.737   5.906
 8104SOL    HW125211   2.352   6.808   5.842
 8104SOL    HW225212   2.404   6.701   5.953
 8105SOL     OW25213   1.766   2.146   3.254
 8105SOL    HW125214   1.712   2.184   3.179
 8105SOL    HW225215   1.841   2.209   3.277
 8106SOL     OW25216   2.872   5.635   3.172
 8106SOL    HW125217   2.879   5.560   3.238
 8106SOL    HW225218   2.963   5.673   3.154
 8107SOL     OW25219   0.783   5.518   4.811
 8107SOL    HW125220   0.723   5.491   4.736
 8107SOL    HW225221   0.868   5.466   4.806
 8108SOL     OW25222   6.086   3.134   4.916
 8108SOL    HW125223   6.178   3.138   4.953
 8108SOL    HW225224   6.020   3.124   4.990
 8109SOL     OW25225   0.927   3.229   4.047
 8109SOL    HW125226   0.859   3.302   4.053
 8109SOL    HW225227   0.962   3.209   4.139
 8110SOL     OW25228   3.566   6.346   0.671
 8110SOL    HW125229   3.541   6.428   0.620
 8110SOL    HW225230   3.498   6.330   0.743
 8111SOL     OW25231   4.400   1.094   5.106
 8111SOL    HW125232   4.464   1.153   5.057
 8111SOL    HW225233   4.426   0.999   5.095
 8112SOL     OW25234   1.881   1.459   4.483
 8112SOL    HW125235   1.951   1.500   4.425
 8112SOL    HW225236   1.861   1.366   4.451
 8113SOL     OW25237   2.957   3.219   0.545
 8113SOL    HW125238   2.982   3.192   0.452
 8113SOL    HW225239   2.954   3.138   0.603
 8114SOL     OW25240   2.227   3.375   1.473
 8114SOL    HW125241   2.238   3.449   1.540
 8114SOL    HW225242   2.298   3.381   1.404
 8115SOL     OW25243   4.097   0.741   1.782
 8115SOL    HW125244   3.999   0.746   1.801
 8115SOL    HW225245   4.148   0.779   1.859
 8116SOL     OW25246   5.255   6.937   5.110
 8116SOL    HW125247   5.321   6.903   5.177
 8116SOL    HW225248   5.163   6.931   5.148
 8117SOL     OW25249   2.589   1.076   4.230
 8117SOL    HW125250   2.652   1.125   4.170
 8117SOL    HW225251   2.639   1.037   4.307
 8118SOL     OW25252   6.526   2.933   5.766
 8118SOL    HW125253   6.560   2.967   5.854
 8118SOL    HW225254   6.570   2.847   5.744
 8119SOL     OW25255   6.469   5.961   5.069
 8119SOL    HW125256   6.470   5.951   4.970
 8119SOL    HW225257   6.398   5.903   5.108
 8120SOL     OW25258   3.322   4.735   6.790
 8120SOL    HW125259   3.278   4.805   6.735
 8120SOL    HW225260   3.282   4.646   6.768
 8121SOL     OW25261   6.931   5.255   2.257
 8121SOL    HW125262   7.021   5.243   2.215
 8121SOL    HW225263   6.932   5.334   2.317
 8122SOL     OW25264   1.273   5.910   3.043
 8122SOL    HW125265   1.302   5.997   3.081
 8122SOL    HW225266   1.218   5.861   3.110
 8123SOL     OW25267   0.117   0.193   6.637
 8123SOL    HW125268   0.185   0.124   6.614
 8123SOL    HW225269   0.160   0.284   6.634
 8124SOL     OW25270   0.050   6.253   1.161
 8124SOL    HW125271   0.131   6.224   1.211
 8124SOL    HW225272   0.035   6.351   1.176
 8125SOL     OW25273   0.848   6.827   3.273
 8125SOL    HW125274   0.846   6.840   3.372
 8125SOL    HW225275   0.814   6.910   3.228
 8126SOL     OW25276   6.333   4.042   2.062
 8126SOL    HW125277   6.431   4.026   2.050
 8126SOL    HW225278   6.292   4.065   1.974
 8127SOL     OW25279   2.782   6.015   0.656
 8127SOL    HW125280   2.786   6.019   0.756
 8127SOL    HW225281   2.854   5.954   0.622
 8128SOL     OW25282   2.712   3.136   0.824
 8128SOL    HW125283   2.700   3.065   0.893
 8128SOL    HW225284   2.657   3.116   0.744
 8129SOL     OW25285   4.062   0.942   5.466
 8129SOL    HW125286   3.997   1.006   5.424
 8129SOL    HW225287   4.063   0.857   5.413
 8130SOL     OW25288   0.403   4.888   6.469
 8130SOL    HW125289   0.362   4.960   6.524
 8130SOL    HW225290   0.340   4.810   6.464
 8131SOL     OW25291   3.307   0.821   0.644
 8131SOL    HW125292   3.256   0.881   0.706
 8131SOL    HW225293   3.389   0.787   0.690
 8132SOL     OW25294   5.785   6.251   6.872
 8132SOL    HW125295   5.760   6.261   6.969
 8132SOL    HW225296   5.733   6.177   6.832
 8133SOL     OW25297   3.385   4.914   1.950
 8133SOL    HW125298   3.463   4.855   1.970
 8133SOL    HW225299   3.400   4.962   1.864
 8134SOL     OW25300   0.706   1.443   4.402
 8134SOL    HW125301   0.692   1.358   4.352
 8134SOL    HW225302   0.736   1.515   4.339
 8135SOL     OW25303   2.235   5.683   1.365
 8135SOL    HW125304   2.240   5.706   1.463
 8135SOL    HW225305   2.143   5.700   1.332
 8136SOL     OW25306   4.835   4.471   2.721
 8136SOL    HW125307   4.890   4.394   2.754
 8136SOL    HW225308   4.875   4.505   2.636
 8137SOL     OW25309   2.567   1.448   4.331
 8137SOL    HW125310   2.474   1.411   4.325
 8137SOL    HW225311   2.572   1.534   4.280
 8138SOL     OW25312   5.669   2.012   0.534
 8138SOL    HW125313   5.572   1.996   0.550
 8138SOL    HW225314   5.705   1.943   0.472
 8139SOL     OW25315   1.934   2.377   3.695
 8139SOL    HW125316   1.975   2.359   3.784
 8139SOL    HW225317   1.855   2.316   3.681
 8140SOL     OW25318   3.987   6.800   0.546
 8140SOL    HW125319   3.951   6.714   0.580
 8140SOL    HW225320   3.936   6.828   0.465
 8141SOL     OW25321   4.441   6.944   5.653
 8141SOL    HW125322   4.440   6.848   5.624
 8141SOL    HW225323   4.427   6.950   5.752
 8142SOL     OW25324   1.585   5.061   0.314
 8142SOL    HW125325   1.623   4.970   0.330
 8142SOL    HW225326   1.626   5.100   0.232
 8143SOL     OW25327   5.703   5.406   0.679
 8143SOL    HW125328   5.672   5.489   0.633
 8143SOL    HW225329   5.682   5.327   0.622
 8144SOL     OW25330   0.639   5.614   6.032
 8144SOL    HW125331   0.716   5.648   6.085
 8144SOL    HW225332   0.556   5.666   6.055
 8145SOL     OW25333   5.336   5.686   0.750
 8145SOL    HW125334   5.310   5.590   0.744
 8145SOL    HW225335   5.380   5.714   0.665
 8146SOL     OW25336   5.742   0.390   5.289
 8146SOL    HW125337   5.781   0.460   5.350
 8146SOL    HW225338   5.648   0.370   5.317
 8147SOL     OW25339   6.405   0.808   0.974
 8147SOL    HW125340   6.347   0.786   1.052
 8147SOL    HW225341   6.460   0.728   0.950
 8148SOL     OW25342   4.920   5.019   0.185
 8148SOL    HW125343   4.989   5.077   0.141
 8148SOL    HW225344   4.883   5.067   0.264
 8149SOL     OW25345   1.553   6.771   3.128
 8149SOL    HW125346   1.573   6.833   3.203
 8149SOL    HW225347   1.626   6.776   3.060
 8150SOL     OW25348   0.948   3.933   0.942
 8150SOL    HW125349   1.045   3.937   0.921
 8150SOL    HW225350   0.901   3.878   0.873
 8151SOL     OW25351   5.557   5.143   3.649
 8151SOL    HW125352   5.598   5.192   3.726
 8151SOL    HW225353   5.457   5.152   3.652
 8152SOL     OW25354   6.426   3.246   3.202
 8152SOL    HW125355   6.427   3.146   3.207
 8152SOL    HW225356   6.442   3.284   3.293
 8153SOL     OW25357   1.184   1.365   3.621
 8153SOL    HW125358   1.276   1.373   3.581
 8153SOL    HW225359   1.124   1.433   3.578
 8154SOL     OW25360   3.838   6.696   3.007
 8154SOL    HW125361   3.835   6.656   3.099
 8154SOL    HW225362   3.863   6.626   2.941
 8155SOL     OW25363   1.602   4.032   2.194
 8155SOL    HW125364   1.580   4.059   2.100
 8155SOL    HW225365   1.595   3.933   2.202
 8156SOL     OW25366   4.700   6.452   0.556
 8156SOL    HW125367   4.712   6.539   0.605
 8156SOL    HW225368   4.621   6.404   0.594
 8157SOL     OW25369   6.399   4.894   6.485
 8157SOL    HW125370   6.427   4.931   6.396
 8157SOL    HW225371   6.373   4.799   6.474
 8158SOL     OW25372   5.315   4.317   0.181
 8158SOL    HW125373   5.313   4.305   0.082
 8158SOL    HW225374   5.230   4.282   0.221
 8159SOL     OW25375   3.123   5.631   4.113
 8159SOL    HW125376   3.114   5.699   4.041
 8159SOL    HW225377   3.199   5.656   4.174
 8160SOL     OW25378   4.983   0.056   3.414
 8160SOL    HW125379   4.884   0.067   3.403
 8160SOL    HW225380   5.002   6.992   3.460
 8161SOL     OW25381   5.586   3.727   5.999
 8161SOL    HW125382   5.607   3.703   5.905
 8161SOL    HW225383   5.523   3.660   6.038
 8162SOL     OW25384   6.790   6.077   6.805
 8162SOL    HW125385   6.709   6.036   6.763
 8162SOL    HW225386   6.768   6.108   6.897
 8163SOL     OW25387   2.126   4.689   5.318
 8163SOL    HW125388   2.214   4.686   5.271
 8163SOL    HW225389   2.137   4.724   5.410
 8164SOL     OW25390   4.763   1.165   0.374
 8164SOL    HW125391   4.840   1.191   0.315
 8164SOL    HW225392   4.772   1.211   0.462
 8165SOL     OW25393   6.537   3.999   5.853
 8165SOL    HW125394   6.558   4.085   5.807
 8165SOL    HW225395   6.484   3.940   5.791
 8166SOL     OW25396   1.259   0.701   3.273
 8166SOL    HW125397   1.275   0.775   3.208
 8166SOL    HW225398   1.208   0.627   3.227
 8167SOL     OW25399   0.089   0.637   3.337
 8167SOL    HW125400   0.182   0.671   3.326
 8167SOL    HW225401   0.047   0.681   3.416
 8168SOL     OW25402   2.673   0.668   1.227
 8168SOL    HW125403   2.668   0.766   1.245
 8168SOL    HW225404   2.766   0.644   1.200
 8169SOL     OW25405   4.958   2.035   0.270
 8169SOL    HW125406   4.945   2.103   0.343
 8169SOL    HW225407   5.042   1.984   0.287
 8170SOL     OW25408   0.455   4.755   1.760
 8170SOL    HW125409   0.542   4.728   1.719
 8170SOL    HW225410   0.472   4.816   1.837
 8171SOL     OW25411   2.040   1.932   6.629
 8171SOL    HW125412   2.006   1.901   6.540
 8171SOL    HW225413   2.139   1.943   6.624
 8172SOL     OW25414   6.954   1.971   2.074
 8172SOL    HW125415   6.963   1.966   1.975
 8172SOL    HW225416   6.858   1.956   2.100
 8173SOL     OW25417   5.662   2.367   2.289
 8173SOL    HW125418   5.609   2.286   2.267
 8173SOL    HW225419   5.727   2.346   2.363
 8174SOL     OW25420   0.314   6.870   2.490
 8174SOL    HW125421   0.274   6.943   2.545
 8174SOL    HW225422   0.312   6.896   2.393
 8175SOL     OW25423   0.081   2.926   4.994
 8175SOL    HW125424   7.013   2.955   5.024
 8175SOL    HW225425   0.145   3.002   5.004
 8176SOL     OW25426   2.510   4.544   1.278
 8176SOL    HW125427   2.519   4.558   1.377
 8176SOL    HW225428   2.462   4.621   1.238
 8177SOL     OW25429   4.869   0.381   3.733
 8177SOL    HW125430   4.876   0.427   3.822
 8177SOL    HW225431   4.919   0.294   3.737
 8178SOL     OW25432   2.872   6.981   0.815
 8178SOL    HW125433   2.779   6.960   0.846
 8178SOL    HW225434   2.897   6.918   0.742
 8179SOL     OW25435   5.396   1.345   4.957
 8179SOL    HW125436   5.399   1.254   4.916
 8179SOL    HW225437   5.305   1.361   4.996
 8180SOL     OW25438   6.166   1.006   6.099
 8180SOL    HW125439   6.244   0.977   6.155
 8180SOL    HW225440   6.148   1.103   6.115
 8181SOL     OW25441   1.393   1.523   0.768
 8181SOL    HW125442   1.294   1.518   0.779
 8181SOL    HW225443   1.429   1.601   0.818
 8182SOL     OW25444   2.986   3.241   5.657
 8182SOL    HW125445   2.999   3.146   5.629
 8182SOL    HW225446   3.060   3.296   5.620
 8183SOL     OW25447   6.798   2.446   4.482
 8183SOL    HW125448   6.748   2.367   4.519
 8183SOL    HW225449   6.742   2.492   4.414
 8184SOL     OW25450   0.453   0.039   0.365
 8184SOL    HW125451   0.391   0.110   0.331
 8184SOL    HW225452   0.406   6.973   0.364
 8185SOL     OW25453   1.618   0.384   0.223
 8185SOL    HW125454   1.644   0.411   0.130
 8185SOL    HW225455   1.518   0.383   0.231
 8186SOL     OW25456   2.749   4.679   5.745
 8186SOL    HW125457   2.675   4.629   5.790
 8186SOL    HW225458   2.805   4.724   5.815
 8187SOL     OW25459   1.864   1.319   5.149
 8187SOL    HW125460   1.942   1.256   5.153
 8187SOL    HW225461   1.781   1.269   5.125
 8188SOL     OW25462   5.037   3.309   3.573
 8188SOL    HW125463   4.984   3.267   3.499
 8188SOL    HW225464   4.987   3.302   3.659
 8189SOL     OW25465   5.384   5.259   2.888
 8189SOL    HW125466   5.354   5.330   2.824
 8189SOL    HW225467   5.389   5.171   2.840
 8190SOL     OW25468   4.882   3.853   4.031
 8190SOL    HW125469   4.893   3.838   3.933
 8190SOL    HW225470   4.869   3.950   4.050
 8191SOL     OW25471   3.615   5.685   2.230
 8191SOL    HW125472   3.607   5.640   2.319
 8191SOL    HW225473   3.562   5.635   2.162
 8192SOL     OW25474   2.083   5.238   1.473
 8192SOL    HW125475   2.031   5.177   1.532
 8192SOL    HW225476   2.028   5.261   1.392
 8193SOL     OW25477   5.945   5.357   5.492
 8193SOL    HW125478   5.911   5.268   5.524
 8193SOL    HW225479   6.039   5.346   5.458
 8194SOL     OW25480   5.223   0.958   1.303
 8194SOL    HW125481   5.137   0.933   1.348
 8194SOL    HW225482   5.265   0.876   1.264
 8195SOL     OW25483   0.588   6.652   3.232
 8195SOL    HW125484   0.545   6.681   3.146
 8195SOL    HW225485   0.677   6.696   3.242
 8196SOL     OW25486   3.998   6.204   6.467
 8196SOL    HW125487   4.068   6.274   6.454
 8196SOL    HW225488   3.948   6.191   6.382
 8197SOL     OW25489   3.571   1.027   0.311
 8197SOL    HW125490   3.572   1.089   0.232
 8197SOL    HW225491   3.567   0.933   0.280
 8198SOL     OW25492   3.255   6.129   2.538
 8198SOL    HW125493   3.273   6.218   2.581
 8198SOL    HW225494   3.318   6.061   2.576
 8199SOL     OW25495   5.962   2.684   6.035
 8199SOL    HW125496   5.985   2.707   5.941
 8199SOL    HW225497   5.866   2.658   6.041
 8200SOL     OW25498   5.834   4.776   1.514
 8200SOL    HW125499   5.930   4.766   1.485
 8200SOL    HW225500   5.803   4.869   1.494
 8201SOL     OW25501   5.707   1.210   4.708
 8201SOL    HW125502   5.771   1.262   4.653
 8201SOL    HW225503   5.715   1.237   4.804
 8202SOL     OW25504   0.534   5.167   3.858
 8202SOL    HW125505   0.548   5.074   3.823
 8202SOL    HW225506   0.437   5.180   3.878
 8203SOL     OW25507   3.089   2.391   6.652
 8203SOL    HW125508   3.078   2.313   6.714
 8203SOL    HW225509   3.155   2.455   6.690
 8204SOL     OW25510   3.705   4.568   6.776
 8204SOL    HW125511   3.786   4.559   6.835
 8204SOL    HW225512   3.623   4.555   6.831
 8205SOL     OW25513   0.448   4.807   0.261
 8205SOL    HW125514   0.411   4.900   0.251
 8205SOL    HW225515   0.437   4.757   0.175
 8206SOL     OW25516   4.952   1.545   6.526
 8206SOL    HW125517   4.984   1.489   6.602
 8206SOL    HW225518   4.993   1.636   6.531
 8207SOL     OW25519   2.896   3.299   4.530
 8207SOL    HW125520   2.831   3.311   4.455
 8207SOL    HW225521   2.969   3.237   4.501
 8208SOL     OW25522   1.028   0.531   1.365
 8208SOL    HW125523   1.059   0.558   1.456
 8208SOL    HW225524   1.023   0.431   1.360
 8209SOL     OW25525   0.375   1.620   5.149
 8209SOL    HW125526   0.304   1.612   5.078
 8209SOL    HW225527   0.359   1.551   5.219
 8210SOL     OW25528   2.308   1.570   0.298
 8210SOL    HW125529   2.293   1.512   0.218
 8210SOL    HW225530   2.232   1.559   0.362
 8211SOL     OW25531   3.893   4.105   1.731
 8211SOL    HW125532   3.876   4.054   1.815
 8211SOL    HW225533   3.821   4.174   1.719
 8212SOL     OW25534   2.292   2.339   2.235
 8212SOL    HW125535   2.270   2.357   2.331
 8212SOL    HW225536   2.272   2.243   2.214
 8213SOL     OW25537   6.730   4.263   1.319
 8213SOL    HW125538   6.646   4.214   1.343
 8213SOL    HW225539   6.772   4.299   1.402
 8214SOL     OW25540   5.943   5.763   3.851
 8214SOL    HW125541   6.025   5.769   3.794
 8214SOL    HW225542   5.948   5.681   3.908
 8215SOL     OW25543   2.916   5.487   6.030
 8215SOL    HW125544   3.010   5.519   6.044
 8215SOL    HW225545   2.898   5.481   5.932
 8216SOL     OW25546   5.124   5.388   3.991
 8216SOL    HW125547   5.218   5.355   3.990
 8216SOL    HW225548   5.062   5.312   4.009
 8217SOL     OW25549   1.416   4.384   0.255
 8217SOL    HW125550   1.343   4.342   0.310
 8217SOL    HW225551   1.505   4.355   0.289
 8218SOL     OW25552   0.519   6.938   6.356
 8218SOL    HW125553   0.534   6.862   6.293
 8218SOL    HW225554   0.458   7.005   6.314
 8219SOL     OW25555   4.530   2.453   0.667
 8219SOL    HW125556   4.458   2.455   0.737
 8219SOL    HW225557   4.557   2.358   0.651
 8220SOL     OW25558   3.482   2.896   3.469
 8220SOL    HW125559   3.456   2.895   3.566
 8220SOL    HW225560   3.402   2.918   3.414
 8221SOL     OW25561   5.427   6.594   3.690
 8221SOL    HW125562   5.467   6.669   3.744
 8221SOL    HW225563   5.417   6.623   3.595
 8222SOL     OW25564   5.752   1.331   1.444
 8222SOL    HW125565   5.828   1.374   1.494
 8222SOL    HW225566   5.738   1.378   1.357
 8223SOL     OW25567   0.854   5.018   5.583
 8223SOL    HW125568   0.808   5.106   5.596
 8223SOL    HW225569   0.880   4.981   5.672
 8224SOL     OW25570   6.186   0.797   2.592
 8224SOL    HW125571   6.244   0.878   2.596
 8224SOL    HW225572   6.221   0.728   2.655
 8225SOL     OW25573   3.442   1.392   0.603
 8225SOL    HW125574   3.491   1.401   0.516
 8225SOL    HW225575   3.356   1.344   0.588
 8226SOL     OW25576   4.116   0.104   0.816
 8226SOL    HW125577   4.073   0.105   0.725
 8226SOL    HW225578   4.209   0.139   0.809
 8227SOL     OW25579   6.702   1.552   2.935
 8227SOL    HW125580   6.681   1.459   2.963
 8227SOL    HW225581   6.658   1.571   2.847
 8228SOL     OW25582   6.843   2.058   5.827
 8228SOL    HW125583   6.772   2.018   5.885
 8228SOL    HW225584   6.911   1.987   5.805
 8229SOL     OW25585   4.399   2.766   0.785
 8229SOL    HW125586   4.358   2.675   0.785
 8229SOL    HW225587   4.447   2.781   0.872
 8230SOL     OW25588   4.118   0.275   5.323
 8230SOL    HW125589   4.197   0.269   5.384
 8230SOL    HW225590   4.121   0.199   5.258
 8231SOL     OW25591   3.108   4.561   0.870
 8231SOL    HW125592   3.129   4.468   0.841
 8231SOL    HW225593   3.075   4.561   0.964
 8232SOL     OW25594   4.902   1.336   1.784
 8232SOL    HW125595   4.974   1.269   1.800
 8232SOL    HW225596   4.818   1.289   1.757
 8233SOL     OW25597   1.599   5.565   6.185
 8233SOL    HW125598   1.626   5.509   6.263
 8233SOL    HW225599   1.678   5.578   6.125
 8234SOL     OW25600   2.607   4.161   6.695
 8234SOL    HW125601   2.571   4.136   6.785
 8234SOL    HW225602   2.592   4.086   6.631
 8235SOL     OW25603   0.473   3.257   0.008
 8235SOL    HW125604   0.458   3.216   0.097
 8235SOL    HW225605   0.386   3.264   6.982
 8236SOL     OW25606   0.790   4.951   0.786
 8236SOL    HW125607   0.843   5.026   0.824
 8236SOL    HW225608   0.790   4.958   0.686
 8237SOL     OW25609   3.767   6.626   4.152
 8237SOL    HW125610   3.810   6.633   4.062
 8237SOL    HW225611   3.826   6.574   4.213
 8238SOL     OW25612   0.467   5.158   6.073
 8238SOL    HW125613   0.483   5.079   6.132
 8238SOL    HW225614   0.526   5.152   5.992
 8239SOL     OW25615   6.489   1.475   6.081
 8239SOL    HW125616   6.550   1.395   6.080
 8239SOL    HW225617   6.543   1.558   6.094
 8240SOL     OW25618   3.494   4.108   2.439
 8240SOL    HW125619   3.433   4.152   2.505
 8240SOL    HW225620   3.548   4.037   2.485
 8241SOL     OW25621   3.895   6.976   5.919
 8241SOL    HW125622   3.945   6.910   5.864
 8241SOL    HW225623   3.959   0.001   5.980
 8242SOL     OW25624   0.451   4.865   5.568
 8242SOL    HW125625   0.480   4.804   5.495
 8242SOL    HW225626   0.379   4.821   5.622
 8243SOL     OW25627   0.251   2.384   0.282
 8243SOL    HW125628   0.262   2.289   0.254
 8243SOL    HW225629   0.281   2.445   0.208
 8244SOL     OW25630   0.551   0.598   4.658
 8244SOL    HW125631   0.631   0.541   4.676
 8244SOL    HW225632   0.468   0.541   4.666
 8245SOL     OW25633   4.280   2.008   2.549
 8245SOL    HW125634   4.239   1.933   2.497
 8245SOL    HW225635   4.351   2.052   2.493
 8246SOL     OW25636   1.073   3.177   5.778
 8246SOL    HW125637   1.002   3.241   5.807
 8246SOL    HW225638   1.079   3.178   5.678
 8247SOL     OW25639   1.945   0.521   2.463
 8247SOL    HW125640   1.868   0.581   2.441
 8247SOL    HW225641   1.976   0.474   2.380
 8248SOL     OW25642   6.403   5.525   4.758
 8248SOL    HW125643   6.338   5.451   4.741
 8248SOL    HW225644   6.491   5.502   4.717
 8249SOL     OW25645   1.813   2.899   5.885
 8249SOL    HW125646   1.731   2.957   5.881
 8249SOL    HW225647   1.805   2.826   5.818
 8250SOL     OW25648   3.195   4.040   1.937
 8250SOL    HW125649   3.165   4.073   2.026
 8250SOL    HW225650   3.237   3.950   1.947
 8251SOL     OW25651   5.115   3.703   4.272
 8251SOL    HW125652   5.154   3.616   4.239
 8251SOL    HW225653   5.128   3.710   4.371
 8252SOL     OW25654   2.911   1.662   4.955
 8252SOL    HW125655   2.893   1.735   4.889
 8252SOL    HW225656   2.945   1.703   5.040
 8253SOL     OW25657   3.943   4.812   5.656
 8253SOL    HW125658   3.929   4.865   5.572
 8253SOL    HW225659   3.923   4.716   5.638
 8254SOL     OW25660   4.506   4.324   5.291
 8254SOL    HW125661   4.457   4.241   5.319
 8254SOL    HW225662   4.592   4.298   5.248
 8255SOL     OW25663   2.235   0.259   5.510
 8255SOL    HW125664   2.188   0.207   5.440
 8255SOL    HW225665   2.300   0.322   5.467
 8256SOL     OW25666   6.813   6.728   2.346
 8256SOL    HW125667   6.804   6.785   2.265
 8256SOL    HW225668   6.842   6.636   2.319
 8257SOL     OW25669   5.008   4.200   3.006
 8257SOL    HW125670   4.946   4.136   2.959
 8257SOL    HW225671   5.048   4.155   3.085
 8258SOL     OW25672   5.610   1.751   0.806
 8258SOL    HW125673   5.689   1.809   0.823
 8258SOL    HW225674   5.640   1.659   0.783
 8259SOL     OW25675   3.868   1.734   4.224
 8259SOL    HW125676   3.947   1.796   4.222
 8259SOL    HW225677   3.799   1.767   4.160
 8260SOL     OW25678   2.469   6.633   0.983
 8260SOL    HW125679   2.380   6.616   1.026
 8260SOL    HW225680   2.465   6.606   0.887
 8261SOL     OW25681   6.240   6.937   2.304
 8261SOL    HW125682   6.286   6.918   2.391
 8261SOL    HW225683   6.252   6.859   2.243
 8262SOL     OW25684   0.661   3.414   0.502
 8262SOL    HW125685   0.632   3.325   0.466
 8262SOL    HW225686   0.589   3.481   0.487
 8263SOL     OW25687   0.596   2.668   6.211
 8263SOL    HW125688   0.667   2.700   6.148
 8263SOL    HW225689   0.547   2.747   6.248
 8264SOL     OW25690   2.423   6.441   2.153
 8264SOL    HW125691   2.476   6.401   2.079
 8264SOL    HW225692   2.325   6.428   2.134
 8265SOL     OW25693   6.797   0.593   1.071
 8265SOL    HW125694   6.709   0.573   1.029
 8265SOL    HW225695   6.858   0.514   1.060
 8266SOL     OW25696   2.533   1.433   3.694
 8266SOL    HW125697   2.442   1.448   3.656
 8266SOL    HW225698   2.527   1.422   3.793
 8267SOL     OW25699   1.962   2.954   1.131
 8267SOL    HW125700   2.028   3.020   1.094
 8267SOL    HW225701   1.992   2.924   1.221
 8268SOL     OW25702   1.816   6.449   5.909
 8268SOL    HW125703   1.874   6.462   5.989
 8268SOL    HW225704   1.725   6.486   5.928
 8269SOL     OW25705   4.283   1.312   2.520
 8269SOL    HW125706   4.222   1.234   2.532
 8269SOL    HW225707   4.378   1.281   2.524
 8270SOL     OW25708   2.936   6.707   5.040
 8270SOL    HW125709   2.851   6.672   5.077
 8270SOL    HW225710   2.939   6.692   4.941
 8271SOL     OW25711   0.385   0.154   3.174
 8271SOL    HW125712   0.461   0.217   3.159
 8271SOL    HW225713   0.363   0.152   3.272
 8272SOL     OW25714   5.898   2.273   2.453
 8272SOL    HW125715   5.917   2.291   2.357
 8272SOL    HW225716   5.936   2.347   2.509
 8273SOL     OW25717   2.331   1.255   6.748
 8273SOL    HW125718   2.330   1.351   6.778
 8273SOL    HW225719   2.420   1.215   6.771
 8274SOL     OW25720   5.122   4.825   4.427
 8274SOL    HW125721   5.061   4.878   4.368
 8274SOL    HW225722   5.193   4.782   4.371
 8275SOL     OW25723   6.125   1.126   5.721
 8275SOL    HW125724   6.091   1.148   5.630
 8275SOL    HW225725   6.123   1.209   5.778
 8276SOL     OW25726   0.556   2.692   3.525
 8276SOL    HW125727   0.533   2.747   3.445
 8276SOL    HW225728   0.640   2.641   3.508
 8277SOL     OW25729   0.272   6.009   6.140
 8277SOL    HW125730   0.299   6.034   6.047
 8277SOL    HW225731   0.205   5.935   6.137
 8278SOL     OW25732   3.338   1.525   5.784
 8278SOL    HW125733   3.294   1.468   5.854
 8278SOL    HW225734   3.303   1.618   5.790
 8279SOL     OW25735   1.521   6.285   4.369
 8279SOL    HW125736   1.580   6.359   4.401
 8279SOL    HW225737   1.519   6.212   4.438
 8280SOL     OW25738   2.035   3.545   0.482
 8280SOL    HW125739   1.995   3.629   0.445
 8280SOL    HW225740   2.076   3.564   0.571
 8281SOL     OW25741   2.900   4.243   1.693
 8281SOL    HW125742   2.869   4.313   1.758
 8281SOL    HW225743   2.902   4.281   1.601
 8282SOL     OW25744   4.912   3.346   0.001
 8282SOL    HW125745   4.850   3.348   0.080
 8282SOL    HW225746   4.999   3.305   0.027
 8283SOL     OW25747   1.965   5.266   5.660
 8283SOL    HW125748   1.892   5.281   5.725
 8283SOL    HW225749   1.937   5.197   5.593
 8284SOL     OW25750   0.749   3.592   1.054
 8284SOL    HW125751   0.827   3.625   1.001
 8284SOL    HW225752   0.665   3.609   1.003
 8285SOL     OW25753   3.151   4.087   5.030
 8285SOL    HW125754   3.220   4.016   5.014
 8285SOL    HW225755   3.062   4.045   5.044
 8286SOL     OW25756   5.981   1.887   6.137
 8286SOL    HW125757   5.928   1.954   6.086
 8286SOL    HW225758   6.031   1.933   6.210
 8287SOL     OW25759   1.551   5.526   4.353
 8287SOL    HW125760   1.651   5.519   4.358
 8287SOL    HW225761   1.522   5.527   4.257
 8288SOL     OW25762   3.056   2.081   1.996
 8288SOL    HW125763   3.131   2.052   2.055
 8288SOL    HW225764   3.022   2.170   2.026
 8289SOL     OW25765   0.815   6.206   0.677
 8289SOL    HW125766   0.841   6.226   0.771
 8289SOL    HW225767   0.782   6.111   0.671
 8290SOL     OW25768   5.545   1.472   1.281
 8290SOL    HW125769   5.488   1.536   1.230
 8290SOL    HW225770   5.488   1.419   1.344
 8291SOL     OW25771   4.943   6.100   4.763
 8291SOL    HW125772   4.934   6.084   4.665
 8291SOL    HW225773   4.966   6.196   4.779
 8292SOL     OW25774   2.884   6.760   6.745
 8292SOL    HW125775   2.799   6.766   6.692
 8292SOL    HW225776   2.876   6.686   6.812
 8293SOL     OW25777   2.754   5.470   0.623
 8293SOL    HW125778   2.692   5.545   0.601
 8293SOL    HW225779   2.833   5.505   0.674
 8294SOL     OW25780   5.534   3.124   5.568
 8294SOL    HW125781   5.595   3.176   5.628
 8294SOL    HW225782   5.441   3.160   5.576
 8295SOL     OW25783   5.111   5.649   1.968
 8295SOL    HW125784   5.185   5.590   1.936
 8295SOL    HW225785   5.034   5.592   1.997
 8296SOL     OW25786   1.524   4.514   6.819
 8296SOL    HW125787   1.558   4.582   6.755
 8296SOL    HW225788   1.595   4.491   6.886
 8297SOL     OW25789   0.294   3.117   2.491
 8297SOL    HW125790   0.283   3.144   2.586
 8297SOL    HW225791   0.332   3.024   2.487
 8298SOL     OW25792   6.135   1.326   1.732
 8298SOL    HW125793   6.074   1.395   1.693
 8298SOL    HW225794   6.226   1.365   1.744
 8299SOL     OW25795   6.659   2.324   2.345
 8299SOL    HW125796   6.756   2.314   2.366
 8299SOL    HW225797   6.616   2.382   2.414
 8300SOL     OW25798   0.514   5.539   4.533
 8300SOL    HW125799   0.509   5.439   4.527
 8300SOL    HW225800   0.496   5.568   4.627
 8301SOL     OW25801   3.435   1.773   1.137
 8301SOL    HW125802   3.459   1.744   1.230
 8301SOL    HW225803   3.352   1.725   1.108
 8302SOL     OW25804   5.791   0.078   6.656
 8302SOL    HW125805   5.799   0.053   6.560
 8302SOL    HW225806   5.804   7.019   6.713
 8303SOL     OW25807   6.128   1.072   3.710
 8303SOL    HW125808   6.035   1.090   3.741
 8303SOL    HW225809   6.133   0.980   3.671
 8304SOL     OW25810   6.833   3.004   1.120
 8304SOL    HW125811   6.841   3.018   1.022
 8304SOL    HW225812   6.891   3.070   1.168
 8305SOL     OW25813   4.758   5.008   4.029
 8305SOL    HW125814   4.683   5.054   4.076
 8305SOL    HW225815   4.844   5.033   4.072
 8306SOL     OW25816   5.828   1.797   5.719
 8306SOL    HW125817   5.787   1.816   5.808
 8306SOL    HW225818   5.777   1.844   5.647
 8307SOL     OW25819   3.483   5.537   2.013
 8307SOL    HW125820   3.393   5.545   2.057
 8307SOL    HW225821   3.472   5.501   1.921
 8308SOL     OW25822   3.235   5.403   1.806
 8308SOL    HW125823   3.334   5.405   1.799
 8308SOL    HW225824   3.206   5.317   1.848
 8309SOL     OW25825   6.487   5.170   3.732
 8309SOL    HW125826   6.400   5.193   3.688
 8309SOL    HW225827   6.489   5.207   3.825
 8310SOL     OW25828   0.028   5.462   0.871
 8310SOL    HW125829   0.117   5.509   0.866
 8310SOL    HW225830   7.011   5.475   0.962
 8311SOL     OW25831   0.858   1.647   4.559
 8311SOL    HW125832   0.858   1.747   4.565
 8311SOL    HW225833   0.880   1.619   4.466
 8312SOL     OW25834   5.242   0.271   0.038
 8312SOL    HW125835   5.306   0.208   0.081
 8312SOL    HW225836   5.223   0.347   0.100
 8313SOL     OW25837   5.581   0.108   0.755
 8313SOL    HW125838   5.510   0.090   0.823
 8313SOL    HW225839   5.658   0.045   0.768
 8314SOL     OW25840   5.133   0.446   0.216
 8314SOL    HW125841   5.198   0.420   0.288
 8314SOL    HW225842   5.041   0.422   0.245
 8315SOL     OW25843   4.249   3.188   1.312
 8315SOL    HW125844   4.340   3.183   1.354
 8315SOL    HW225845   4.259   3.202   1.213
 8316SOL     OW25846   1.533   2.070   1.378
 8316SOL    HW125847   1.498   2.067   1.471
 8316SOL    HW225848   1.633   2.064   1.379
 8317SOL     OW25849   1.866   3.022   2.406
 8317SOL    HW125850   1.884   2.956   2.479
 8317SOL    HW225851   1.899   3.113   2.434
 8318SOL     OW25852   4.525   1.616   5.368
 8318SOL    HW125853   4.509   1.534   5.313
 8318SOL    HW225854   4.544   1.694   5.307
 8319SOL     OW25855   1.932   1.887   0.349
 8319SOL    HW125856   1.926   1.903   0.448
 8319SOL    HW225857   2.009   1.938   0.311
 8320SOL     OW25858   3.120   3.552   2.171
 8320SOL    HW125859   3.129   3.453   2.177
 8320SOL    HW225860   3.025   3.579   2.189
 8321SOL     OW25861   6.851   0.236   6.211
 8321SOL    HW125862   6.762   0.255   6.172
 8321SOL    HW225863   6.888   0.320   6.252
 8322SOL     OW25864   6.164   0.067   1.170
 8322SOL    HW125865   6.193   0.123   1.247
 8322SOL    HW225866   6.202   0.105   1.085
 8323SOL     OW25867   4.964   5.474   2.251
 8323SOL    HW125868   5.013   5.555   2.282
 8323SOL    HW225869   5.014   5.392   2.278
 8324SOL     OW25870   5.464   6.353   1.177
 8324SOL    HW125871   5.389   6.414   1.151
 8324SOL    HW225872   5.547   6.379   1.127
 8325SOL     OW25873   2.784   3.907   5.613
 8325SOL    HW125874   2.862   3.891   5.674
 8325SOL    HW225875   2.763   4.005   5.611
 8326SOL     OW25876   5.224   3.625   5.554
 8326SOL    HW125877   5.295   3.602   5.621
 8326SOL    HW225878   5.185   3.541   5.517
 8327SOL     OW25879   6.107   1.249   6.177
 8327SOL    HW125880   6.051   1.239   6.259
 8327SOL    HW225881   6.176   1.320   6.192
 8328SOL     OW25882   2.766   6.261   5.843
 8328SOL    HW125883   2.719   6.345   5.871
 8328SOL    HW225884   2.722   6.182   5.886
 8329SOL     OW25885   1.377   3.315   5.884
 8329SOL    HW125886   1.424   3.236   5.845
 8329SOL    HW225887   1.284   3.289   5.910
 8330SOL     OW25888   2.458   1.513   6.769
 8330SOL    HW125889   2.407   1.581   6.822
 8330SOL    HW225890   2.531   1.475   6.827
 8331SOL     OW25891   3.092   0.777   0.957
 8331SOL    HW125892   3.042   0.858   0.926
 8331SOL    HW225893   3.139   0.799   1.043
 8332SOL     OW25894   4.571   5.264   2.195
 8332SOL    HW125895   4.524   5.228   2.114
 8332SOL    HW225896   4.512   5.329   2.242
 8333SOL     OW25897   0.375   6.334   6.288
 8333SOL    HW125898   0.407   6.240   6.272
 8333SOL    HW225899   0.297   6.353   6.228
 8334SOL     OW25900   3.938   1.097   3.835
 8334SOL    HW125901   3.845   1.125   3.859
 8334SOL    HW225902   3.954   1.003   3.865
 8335SOL     OW25903   5.389   6.755   0.099
 8335SOL    HW125904   5.410   6.814   0.177
 8335SOL    HW225905   5.388   6.660   0.128
 8336SOL     OW25906   7.003   4.677   3.185
 8336SOL    HW125907   0.075   4.656   3.210
 8336SOL    HW225908   6.975   4.762   3.229
 8337SOL     OW25909   2.483   6.424   2.732
 8337SOL    HW125910   2.500   6.504   2.674
 8337SOL    HW225911   2.526   6.437   2.821
 8338SOL     OW25912   3.943   5.097   1.933
 8338SOL    HW125913   3.904   5.179   1.974
 8338SOL    HW225914   3.911   5.017   1.983
 8339SOL     OW25915   6.175   0.584   1.477
 8339SOL    HW125916   6.266   0.588   1.517
 8339SOL    HW225917   6.181   0.583   1.378
 8340SOL     OW25918   4.732   3.116   1.127
 8340SOL    HW125919   4.679   3.089   1.047
 8340SOL    HW225920   4.688   3.195   1.170
 8341SOL     OW25921   3.024   6.324   0.221
 8341SOL    HW125922   3.116   6.286   0.232
 8341SOL    HW225923   2.956   6.251   0.231
 8342SOL     OW25924   4.138   6.021   1.040
 8342SOL    HW125925   4.178   6.111   1.056
 8342SOL    HW225926   4.047   6.017   1.081
 8343SOL     OW25927   1.737   5.596   5.313
 8343SOL    HW125928   1.717   5.520   5.251
 8343SOL    HW225929   1.653   5.622   5.361
 8344SOL     OW25930   4.615   6.124   4.297
 8344SOL    HW125931   4.619   6.137   4.396
 8344SOL    HW225932   4.690   6.175   4.254
 8345SOL     OW25933   4.656   1.349   2.675
 8345SOL    HW125934   4.626   1.416   2.608
 8345SOL    HW225935   4.586   1.279   2.686
 8346SOL     OW25936   3.111   5.161   0.671
 8346SOL    HW125937   3.033   5.170   0.608
 8346SOL    HW225938   3.146   5.251   0.694
 8347SOL     OW25939   3.359   5.617   4.308
 8347SOL    HW125940   3.444   5.649   4.351
 8347SOL    HW225941   3.297   5.584   4.379
 8348SOL     OW25942   2.400   0.286   1.896
 8348SOL    HW125943   2.306   0.316   1.878
 8348SOL    HW225944   2.407   0.188   1.881
 8349SOL     OW25945   5.743   6.403   1.823
 8349SOL    HW125946   5.755   6.326   1.761
 8349SOL    HW225947   5.727   6.486   1.770
 8350SOL     OW25948   3.648   0.003   5.771
 8350SOL    HW125949   3.556   0.029   5.801
 8350SOL    HW225950   3.701   6.994   5.850
 8351SOL     OW25951   5.092   5.603   4.152
 8351SOL    HW125952   4.994   5.622   4.144
 8351SOL    HW225953   5.116   5.529   4.089
 8352SOL     OW25954   0.892   0.185   3.326
 8352SOL    HW125955   0.838   0.235   3.394
 8352SOL    HW225956   0.831   0.133   3.266
 8353SOL     OW25957   6.773   3.374   1.695
 8353SOL    HW125958   6.867   3.382   1.726
 8353SOL    HW225959   6.771   3.362   1.595
 8354SOL     OW25960   3.995   6.735   5.764
 8354SOL    HW125961   4.017   6.650   5.813
 8354SOL    HW225962   3.918   6.719   5.703
 8355SOL     OW25963   2.680   0.690   5.988
 8355SOL    HW125964   2.610   0.642   6.042
 8355SOL    HW225965   2.656   0.787   5.982
 8356SOL     OW25966   0.736   6.353   1.031
 8356SOL    HW125967   0.728   6.420   1.105
 8356SOL    HW225968   0.785   6.395   0.954
 8357SOL     OW25969   4.285   6.895   4.683
 8357SOL    HW125970   4.238   6.814   4.719
 8357SOL    HW225971   4.289   6.965   4.754
 8358SOL     OW25972   1.230   4.484   5.320
 8358SOL    HW125973   1.180   4.449   5.241
 8358SOL    HW225974   1.322   4.511   5.292
 8359SOL     OW25975   3.113   0.655   5.116
 8359SOL    HW125976   3.040   0.621   5.175
 8359SOL    HW225977   3.185   0.696   5.171
 8360SOL     OW25978   3.748   6.507   0.813
 8360SOL    HW125979   3.703   6.468   0.893
 8360SOL    HW225980   3.720   6.457   0.731
 8361SOL     OW25981   3.027   0.569   2.482
 8361SOL    HW125982   3.124   0.552   2.495
 8361SOL    HW225983   3.007   0.581   2.384
 8362SOL     OW25984   4.205   2.096   0.588
 8362SOL    HW125985   4.107   2.073   0.587
 8362SOL    HW225986   4.246   2.068   0.501
 8363SOL     OW25987   6.867   2.834   6.374
 8363SOL    HW125988   6.852   2.763   6.305
 8363SOL    HW225989   6.798   2.825   6.446
 8364SOL     OW25990   1.492   2.498   3.104
 8364SOL    HW125991   1.527   2.529   3.193
 8364SOL    HW225992   1.393   2.512   3.100
 8365SOL     OW25993   1.819   3.869   1.885
 8365SOL    HW125994   1.909   3.857   1.925
 8365SOL    HW225995   1.824   3.850   1.786
 8366SOL     OW25996   2.161   6.284   2.061
 8366SOL    HW125997   2.086   6.221   2.081
 8366SOL    HW225998   2.127   6.378   2.061
 8367SOL     OW25999   3.943   5.945   4.183
 8367SOL    HW126000   4.026   5.975   4.230
 8367SOL    HW226001   3.952   5.963   4.085
 8368SOL     OW26002   2.100   5.810   5.985
 8368SOL    HW126003   2.104   5.724   5.934
 8368SOL    HW226004   2.115   5.792   6.083
 8369SOL     OW26005   1.702   6.555   6.518
 8369SOL    HW126006   1.726   6.481   6.455
 8369SOL    HW226007   1.762   6.551   6.599
 8370SOL     OW26008   2.822   1.718   5.895
 8370SOL    HW126009   2.834   1.652   5.820
 8370SOL    HW226010   2.726   1.722   5.921
 8371SOL     OW26011   1.926   4.209   0.917
 8371SOL    HW126012   1.976   4.288   0.952
 8371SOL    HW226013   1.942   4.130   0.976
 8372SOL     OW26014   1.067   5.506   2.337
 8372SOL    HW126015   0.974   5.518   2.372
 8372SOL    HW226016   1.111   5.596   2.329
 8373SOL     OW26017   1.766   0.117   3.833
 8373SOL    HW126018   1.740   0.078   3.921
 8373SOL    HW226019   1.690   0.171   3.797
 8374SOL     OW26020   0.251   0.404   5.160
 8374SOL    HW126021   0.344   0.440   5.146
 8374SOL    HW226022   0.231   0.336   5.089
 8375SOL     OW26023   3.453   6.634   5.103
 8375SOL    HW126024   3.464   6.673   5.012
 8375SOL    HW226025   3.365   6.663   5.141
 8376SOL     OW26026   1.388   0.928   4.068
 8376SOL    HW126027   1.346   0.859   4.127
 8376SOL    HW226028   1.370   1.019   4.104
 8377SOL     OW26029   4.606   5.969   1.075
 8377SOL    HW126030   4.656   6.006   1.154
 8377SOL    HW226031   4.650   6.000   0.991
 8378SOL     OW26032   4.367   5.365   2.637
 8378SOL    HW126033   4.383   5.431   2.711
 8378SOL    HW226034   4.369   5.272   2.674
 8379SOL     OW26035   5.779   2.760   1.367
 8379SOL    HW126036   5.832   2.841   1.344
 8379SOL    HW226037   5.684   2.786   1.385
 8380SOL     OW26038   6.835   0.559   2.103
 8380SOL    HW126039   6.829   0.658   2.095
 8380SOL    HW226040   6.925   0.534   2.139
 8381SOL     OW26041   0.209   2.930   5.275
 8381SOL    HW126042   0.249   2.980   5.352
 8381SOL    HW226043   0.190   2.994   5.201
 8382SOL     OW26044   2.881   0.930   3.105
 8382SOL    HW126045   2.819   0.853   3.091
 8382SOL    HW226046   2.831   1.016   3.095
 8383SOL     OW26047   2.452   7.010   5.769
 8383SOL    HW126048   2.472   6.953   5.690
 8383SOL    HW226049   2.480   0.082   5.750
 8384SOL     OW26050   6.572   0.614   0.870
 8384SOL    HW126051   6.588   0.532   0.815
 8384SOL    HW226052   6.598   0.695   0.817
 8385SOL     OW26053   6.167   1.788   1.041
 8385SOL    HW126054   6.262   1.763   1.063
 8385SOL    HW226055   6.161   1.888   1.031
 8386SOL     OW26056   1.677   5.413   2.405
 8386SOL    HW126057   1.597   5.378   2.453
 8386SOL    HW226058   1.649   5.456   2.319
 8387SOL     OW26059   1.599   1.408   2.667
 8387SOL    HW126060   1.551   1.330   2.706
 8387SOL    HW226061   1.563   1.427   2.576
 8388SOL     OW26062   2.575   6.076   0.438
 8388SOL    HW126063   2.644   6.062   0.509
 8388SOL    HW226064   2.560   6.174   0.426
 8389SOL     OW26065   0.223   3.568   2.885
 8389SOL    HW126066   0.317   3.600   2.884
 8389SOL    HW226067   0.191   3.558   2.979
 8390SOL     OW26068   4.125   0.928   6.586
 8390SOL    HW126069   4.106   0.985   6.507
 8390SOL    HW226070   4.223   0.908   6.591
 8391SOL     OW26071   6.465   4.868   0.946
 8391SOL    HW126072   6.429   4.871   0.852
 8391SOL    HW226073   6.407   4.809   1.002
 8392SOL     OW26074   6.285   3.819   4.706
 8392SOL    HW126075   6.204   3.874   4.684
 8392SOL    HW226076   6.265   3.762   4.786
 8393SOL     OW26077   0.306   7.016   2.965
 8393SOL    HW126078   0.339   0.039   3.048
 8393SOL    HW226079   0.384   6.977   2.916
 8394SOL     OW26080   6.232   2.163   1.297
 8394SOL    HW126081   6.230   2.225   1.219
 8394SOL    HW226082   6.306   2.096   1.284
 8395SOL     OW26083   2.831   0.094   5.267
 8395SOL    HW126084   2.734   0.111   5.254
 8395SOL    HW226085   2.866   0.034   5.195
 8396SOL     OW26086   4.806   5.296   2.771
 8396SOL    HW126087   4.888   5.353   2.784
 8396SOL    HW226088   4.758   5.325   2.689
 8397SOL     OW26089   1.533   0.547   2.718
 8397SOL    HW126090   1.517   0.639   2.754
 8397SOL    HW226091   1.630   0.524   2.727
 8398SOL     OW26092   4.413   1.502   6.332
 8398SOL    HW126093   4.325   1.496   6.287
 8398SOL    HW226094   4.414   1.580   6.394
 8399SOL     OW26095   5.797   6.426   6.646
 8399SOL    HW126096   5.855   6.507   6.646
 8399SOL    HW226097   5.798   6.384   6.737
 8400SOL     OW26098   1.796   1.054   4.591
 8400SOL    HW126099   1.868   1.084   4.527
 8400SOL    HW226100   1.818   1.087   4.683
 8401SOL     OW26101   2.117   1.023   5.436
 8401SOL    HW126102   2.157   1.070   5.515
 8401SOL    HW226103   2.182   1.026   5.360
 8402SOL     OW26104   4.724   1.976   6.152
 8402SOL    HW126105   4.714   1.959   6.250
 8402SOL    HW226106   4.768   1.897   6.109
 8403SOL     OW26107   0.211   3.248   4.430
 8403SOL    HW126108   0.219   3.234   4.528
 8403SOL    HW226109   0.192   3.161   4.385
 8404SOL     OW26110   3.745   6.757   5.969
 8404SOL    HW126111   3.794   6.844   5.957
 8404SOL    HW226112   3.684   6.743   5.891
 8405SOL     OW26113   1.625   1.275   5.861
 8405SOL    HW126114   1.578   1.203   5.809
 8405SOL    HW226115   1.712   1.298   5.816
 8406SOL     OW26116   4.568   0.934   0.236
 8406SOL    HW126117   4.657   0.973   0.260
 8406SOL    HW226118   4.579   0.838   0.212
 8407SOL     OW26119   3.363   6.760   3.074
 8407SOL    HW126120   3.280   6.707   3.055
 8407SOL    HW226121   3.384   6.754   3.171
 8408SOL     OW26122   5.780   4.129   1.321
 8408SOL    HW126123   5.742   4.217   1.291
 8408SOL    HW226124   5.835   4.143   1.404
 8409SOL     OW26125   5.314   1.861   2.687
 8409SOL    HW126126   5.274   1.796   2.622
 8409SOL    HW226127   5.388   1.816   2.737
 8410SOL     OW26128   5.762   0.718   1.664
 8410SOL    HW126129   5.701   0.785   1.622
 8410SOL    HW226130   5.708   0.650   1.714
 8411SOL     OW26131   0.877   5.327   0.142
 8411SOL    HW126132   0.879   5.256   0.071
 8411SOL    HW226133   0.941   5.399   0.119
 8412SOL     OW26134   3.497   1.994   1.451
 8412SOL    HW126135   3.398   2.000   1.468
 8412SOL    HW226136   3.531   2.084   1.423
 8413SOL     OW26137   4.017   5.549   6.776
 8413SOL    HW126138   4.042   5.638   6.738
 8413SOL    HW226139   3.935   5.516   6.730
 8414SOL     OW26140   4.070   6.302   4.033
 8414SOL    HW126141   4.092   6.357   4.114
 8414SOL    HW226142   3.993   6.343   3.985
 8415SOL     OW26143   0.116   6.064   3.819
 8415SOL    HW126144   0.139   6.079   3.723
 8415SOL    HW226145   0.116   5.966   3.838
 8416SOL     OW26146   6.299   3.205   2.707
 8416SOL    HW126147   6.340   3.295   2.725
 8416SOL    HW226148   6.329   3.140   2.777
 8417SOL     OW26149   1.106   4.097   5.415
 8417SOL    HW126150   1.122   4.047   5.499
 8417SOL    HW226151   1.053   4.041   5.352
 8418SOL     OW26152   5.575   5.366   1.046
 8418SOL    HW126153   5.620   5.294   0.993
 8418SOL    HW226154   5.609   5.364   1.140
 8419SOL     OW26155   5.592   0.362   1.513
 8419SOL    HW126156   5.626   0.353   1.606
 8419SOL    HW226157   5.503   0.408   1.515
 8420SOL     OW26158   4.550   6.762   0.514
 8420SOL    HW126159   4.569   6.746   0.417
 8420SOL    HW226160   4.458   6.728   0.536
 8421SOL     OW26161   3.159   5.708   6.864
 8421SOL    HW126162   3.253   5.675   6.876
 8421SOL    HW226163   3.136   5.772   6.938
 8422SOL     OW26164   4.293   1.614   1.949
 8422SOL    HW126165   4.295   1.515   1.933
 8422SOL    HW226166   4.378   1.643   1.993
 8423SOL     OW26167   2.930   5.100   5.977
 8423SOL    HW126168   2.858   5.160   6.013
 8423SOL    HW226169   3.019   5.144   5.989
 8424SOL     OW26170   2.093   2.000   2.567
 8424SOL    HW126171   2.045   1.913   2.582
 8424SOL    HW226172   2.100   2.049   2.654
 8425SOL     OW26173   4.461   4.692   6.230
 8425SOL    HW126174   4.432   4.617   6.171
 8425SOL    HW226175   4.492   4.768   6.174
 8426SOL     OW26176   3.585   3.221   3.231
 8426SOL    HW126177   3.627   3.145   3.280
 8426SOL    HW226178   3.561   3.192   3.138
 8427SOL     OW26179   3.689   4.030   4.385
 8427SOL    HW126180   3.703   4.070   4.294
 8427SOL    HW226181   3.593   4.042   4.412
 8428SOL     OW26182   0.513   6.078   1.347
 8428SOL    HW126183   0.555   5.991   1.323
 8428SOL    HW226184   0.583   6.150   1.350
 8429SOL     OW26185   1.137   6.189   4.790
 8429SOL    HW126186   1.111   6.125   4.718
 8429SOL    HW226187   1.228   6.167   4.823
 8430SOL     OW26188   3.734   5.506   3.194
 8430SOL    HW126189   3.792   5.536   3.270
 8430SOL    HW226190   3.746   5.408   3.181
 8431SOL     OW26191   3.331   3.836   1.126
 8431SOL    HW126192   3.429   3.822   1.142
 8431SOL    HW226193   3.292   3.755   1.083
 8432SOL     OW26194   5.806   6.328   5.861
 8432SOL    HW126195   5.781   6.411   5.811
 8432SOL    HW226196   5.747   6.253   5.830
 8433SOL     OW26197   4.883   2.542   0.616
 8433SOL    HW126198   4.834   2.479   0.556
 8433SOL    HW226199   4.919   2.618   0.563
 8434SOL     OW26200   2.919   0.070   4.744
 8434SOL    HW126201   3.018   0.068   4.731
 8434SOL    HW226202   2.878   0.138   4.683
 8435SOL     OW26203   6.267   0.892   1.307
 8435SOL    HW126204   6.177   0.935   1.302
 8435SOL    HW226205   6.331   0.943   1.251
 8436SOL     OW26206   3.134   6.631   3.045
 8436SOL    HW126207   3.059   6.664   2.988
 8436SOL    HW226208   3.100   6.608   3.136
 8437SOL     OW26209   2.306   1.356   4.337
 8437SOL    HW126210   2.323   1.258   4.341
 8437SOL    HW226211   2.232   1.374   4.273
 8438SOL     OW26212   2.274   4.695   2.665
 8438SOL    HW126213   2.360   4.654   2.635
 8438SOL    HW226214   2.267   4.692   2.764
 8439SOL     OW26215   5.968   5.173   3.030
 8439SOL    HW126216   5.916   5.258   3.017
 8439SOL    HW226217   6.066   5.194   3.028
 8440SOL     OW26218   2.289   1.776   3.579
 8440SOL    HW126219   2.289   1.748   3.675
 8440SOL    HW226220   2.381   1.807   3.553
 8441SOL     OW26221   5.623   6.736   6.967
 8441SOL    HW126222   5.662   6.660   7.018
 8441SOL    HW226223   5.537   6.765   7.010
 8442SOL     OW26224   3.621   2.184   5.246
 8442SOL    HW126225   3.656   2.130   5.170
 8442SOL    HW226226   3.528   2.156   5.267
 8443SOL     OW26227   2.342   4.622   3.424
 8443SOL    HW126228   2.353   4.523   3.427
 8443SOL    HW226229   2.296   4.653   3.507
 8444SOL     OW26230   2.985   6.392   4.611
 8444SOL    HW126231   3.029   6.375   4.523
 8444SOL    HW226232   2.901   6.444   4.596
 8445SOL     OW26233   3.129   0.031   1.400
 8445SOL    HW126234   3.197   0.021   1.472
 8445SOL    HW226235   3.112   6.964   1.358
 8446SOL     OW26236   5.131   5.572   6.948
 8446SOL    HW126237   5.047   5.615   6.915
 8446SOL    HW226238   5.187   5.543   6.870
 8447SOL     OW26239   5.090   1.832   2.300
 8447SOL    HW126240   5.048   1.843   2.390
 8447SOL    HW226241   5.125   1.920   2.268
 8448SOL     OW26242   4.434   5.661   4.339
 8448SOL    HW126243   4.434   5.598   4.262
 8448SOL    HW226244   4.350   5.650   4.391
 8449SOL     OW26245   0.094   3.033   3.431
 8449SOL    HW126246   0.150   2.956   3.460
 8449SOL    HW226247   0.143   3.086   3.361
 8450SOL     OW26248   0.619   0.079   0.729
 8450SOL    HW126249   0.684   0.026   0.675
 8450SOL    HW226250   0.667   0.126   0.803
 8451SOL     OW26251   3.745   1.710   0.174
 8451SOL    HW126252   3.705   1.635   0.121
 8451SOL    HW226253   3.845   1.708   0.165
 8452SOL     OW26254   6.164   1.879   3.173
 8452SOL    HW126255   6.244   1.885   3.114
 8452SOL    HW226256   6.098   1.815   3.133
 8453SOL     OW26257   0.627   4.540   6.804
 8453SOL    HW126258   0.622   4.594   6.888
 8453SOL    HW226259   0.565   4.579   6.735
 8454SOL     OW26260   6.854   6.352   1.501
 8454SOL    HW126261   6.872   6.394   1.412
 8454SOL    HW226262   6.924   6.380   1.566
 8455SOL     OW26263   6.600   1.656   1.811
 8455SOL    HW126264   6.633   1.650   1.717
 8455SOL    HW226265   6.648   1.588   1.867
 8456SOL     OW26266   3.922   5.996   3.641
 8456SOL    HW126267   4.000   5.976   3.581
 8456SOL    HW226268   3.924   6.093   3.666
 8457SOL     OW26269   6.984   6.712   4.782
 8457SOL    HW126270   6.950   6.703   4.688
 8457SOL    HW226271   7.019   6.805   4.795
 8458SOL     OW26272   3.190   0.545   0.241
 8458SOL    HW126273   3.150   0.616   0.183
 8458SOL    HW226274   3.139   0.538   0.326
 8459SOL     OW26275   2.917   5.630   2.099
 8459SOL    HW126276   2.927   5.699   2.027
 8459SOL    HW226277   2.829   5.643   2.145
 8460SOL     OW26278   4.137   4.187   5.347
 8460SOL    HW126279   4.178   4.237   5.271
 8460SOL    HW226280   4.208   4.139   5.398
 8461SOL     OW26281   1.214   4.204   4.710
 8461SOL    HW126282   1.313   4.221   4.718
 8461SOL    HW226283   1.178   4.249   4.628
 8462SOL     OW26284   2.532   2.587   6.461
 8462SOL    HW126285   2.470   2.651   6.506
 8462SOL    HW226286   2.503   2.575   6.366
 8463SOL     OW26287   0.096   0.335   1.372
 8463SOL    HW126288   0.142   0.301   1.291
 8463SOL    HW226289   0.145   0.415   1.407
 8464SOL     OW26290   5.694   3.977   3.858
 8464SOL    HW126291   5.727   4.051   3.917
 8464SOL    HW226292   5.756   3.967   3.780
 8465SOL     OW26293   1.169   3.335   0.484
 8465SOL    HW126294   1.111   3.254   0.494
 8465SOL    HW226295   1.241   3.317   0.417
 8466SOL     OW26296   0.748   6.669   4.253
 8466SOL    HW126297   0.660   6.624   4.265
 8466SOL    HW226298   0.735   6.760   4.214
 8467SOL     OW26299   3.416   6.813   0.007
 8467SOL    HW126300   3.391   6.895   6.980
 8467SOL    HW226301   3.348   6.742   7.015
 8468SOL     OW26302   4.261   1.368   6.624
 8468SOL    HW126303   4.180   1.386   6.569
 8468SOL    HW226304   4.337   1.340   6.565
 8469SOL     OW26305   3.372   1.781   6.662
 8469SOL    HW126306   3.441   1.808   6.594
 8469SOL    HW226307   3.401   1.696   6.706
 8470SOL     OW26308   0.786   3.600   6.865
 8470SOL    HW126309   0.700   3.642   6.896
 8470SOL    HW226310   0.849   3.672   6.837
 8471SOL     OW26311   3.161   0.934   3.491
 8471SOL    HW126312   3.179   0.956   3.587
 8471SOL    HW226313   3.207   1.001   3.433
 8472SOL     OW26314   0.164   0.655   4.743
 8472SOL    HW126315   0.255   0.615   4.748
 8472SOL    HW226316   0.165   0.745   4.786
 8473SOL     OW26317   6.433   5.349   6.319
 8473SOL    HW126318   6.471   5.318   6.406
 8473SOL    HW226319   6.334   5.360   6.328
 8474SOL     OW26320   3.016   3.140   2.565
 8474SOL    HW126321   2.938   3.202   2.557
 8474SOL    HW226322   3.015   3.097   2.655
 8475SOL     OW26323   0.533   2.381   3.228
 8475SOL    HW126324   0.458   2.346   3.284
 8475SOL    HW226325   0.590   2.305   3.197
 8476SOL     OW26326   6.457   1.663   1.109
 8476SOL    HW126327   6.491   1.747   1.068
 8476SOL    HW226328   6.483   1.658   1.205
 8477SOL     OW26329   4.394   6.871   1.900
 8477SOL    HW126330   4.450   6.826   1.969
 8477SOL    HW226331   4.390   6.969   1.918
 8478SOL     OW26332   1.068   0.532   6.290
 8478SOL    HW126333   1.068   0.444   6.242
 8478SOL    HW226334   0.992   0.534   6.355
 8479SOL     OW26335   6.428   2.435   1.353
 8479SOL    HW126336   6.360   2.395   1.292
 8479SOL    HW226337   6.398   2.424   1.448
 8480SOL     OW26338   4.403   1.360   0.154
 8480SOL    HW126339   4.388   1.455   0.182
 8480SOL    HW226340   4.491   1.352   0.107
 8481SOL     OW26341   5.051   2.181   4.048
 8481SOL    HW126342   5.038   2.086   4.020
 8481SOL    HW226343   4.992   2.240   3.993
 8482SOL     OW26344   4.475   6.683   2.717
 8482SOL    HW126345   4.559   6.695   2.665
 8482SOL    HW226346   4.408   6.753   2.690
 8483SOL     OW26347   4.033   6.155   2.119
 8483SOL    HW126348   4.017   6.250   2.143
 8483SOL    HW226349   4.130   6.133   2.131
 8484SOL     OW26350   0.811   5.640   2.916
 8484SOL    HW126351   0.861   5.566   2.870
 8484SOL    HW226352   0.838   5.728   2.877
 8485SOL     OW26353   2.995   3.167   0.281
 8485SOL    HW126354   2.910   3.134   0.237
 8485SOL    HW226355   3.072   3.113   0.248
 8486SOL     OW26356   4.597   1.027   3.041
 8486SOL    HW126357   4.537   0.960   2.998
 8486SOL    HW226358   4.685   0.984   3.062
 8487SOL     OW26359   5.479   1.221   6.500
 8487SOL    HW126360   5.413   1.155   6.536
 8487SOL    HW226361   5.568   1.205   6.543
 8488SOL     OW26362   5.701   4.897   5.593
 8488SOL    HW126363   5.741   4.828   5.533
 8488SOL    HW226364   5.720   4.874   5.688
 8489SOL     OW26365   6.413   1.102   0.433
 8489SOL    HW126366   6.480   1.061   0.371
 8489SOL    HW226367   6.321   1.081   0.401
 8490SOL     OW26368   4.070   6.464   4.626
 8490SOL    HW126369   4.110   6.375   4.646
 8490SOL    HW226370   4.113   6.502   4.543
 8491SOL     OW26371   2.487   6.886   0.620
 8491SOL    HW126372   2.415   6.820   0.596
 8491SOL    HW226373   2.528   6.859   0.707
 8492SOL     OW26374   4.414   4.311   6.418
 8492SOL    HW126375   4.437   4.308   6.321
 8492SOL    HW226376   4.462   4.387   6.461
 8493SOL     OW26377   2.953   2.101   6.223
 8493SOL    HW126378   2.950   2.192   6.264
 8493SOL    HW226379   2.914   2.034   6.287
 8494SOL     OW26380   2.730   4.410   1.188
 8494SOL    HW126381   2.716   4.330   1.246
 8494SOL    HW226382   2.663   4.481   1.212
 8495SOL     OW26383   6.265   4.225   1.219
 8495SOL    HW126384   6.176   4.184   1.200
 8495SOL    HW226385   6.330   4.199   1.148
 8496SOL     OW26386   0.598   1.963   1.914
 8496SOL    HW126387   0.638   2.008   1.833
 8496SOL    HW226388   0.603   1.864   1.902
 8497SOL     OW26389   6.360   1.088   3.815
 8497SOL    HW126390   6.418   1.008   3.804
 8497SOL    HW226391   6.285   1.084   3.749
 8498SOL     OW26392   0.306   6.127   2.748
 8498SOL    HW126393   0.337   6.032   2.750
 8498SOL    HW226394   0.361   6.182   2.810
 8499SOL     OW26395   2.682   5.264   6.564
 8499SOL    HW126396   2.691   5.336   6.633
 8499SOL    HW226397   2.746   5.280   6.489
 8500SOL     OW26398   2.585   6.914   5.342
 8500SOL    HW126399   2.641   6.991   5.372
 8500SOL    HW226400   2.594   6.904   5.243
 8501SOL     OW26401   0.340   2.232   6.605
 8501SOL    HW126402   0.336   2.287   6.522
 8501SOL    HW226403   0.250   2.191   6.622
 8502SOL     OW26404   1.463   4.595   1.694
 8502SOL    HW126405   1.552   4.640   1.687
 8502SOL    HW226406   1.437   4.587   1.790
 8503SOL     OW26407   1.380   6.725   3.651
 8503SOL    HW126408   1.288   6.720   3.690
 8503SOL    HW226409   1.375   6.721   3.552
 8504SOL     OW26410   2.614   5.319   3.421
 8504SOL    HW126411   2.563   5.401   3.448
 8504SOL    HW226412   2.590   5.294   3.328
 8505SOL     OW26413   4.829   4.125   3.904
 8505SOL    HW126414   4.817   4.195   3.833
 8505SOL    HW226415   4.878   4.046   3.866
 8506SOL     OW26416   6.535   1.166   7.022
 8506SOL    HW126417   6.633   1.175   7.006
 8506SOL    HW226418   6.486   1.239   6.974
 8507SOL     OW26419   3.701   0.847   5.452
 8507SOL    HW126420   3.689   0.760   5.500
 8507SOL    HW226421   3.787   0.846   5.402
 8508SOL     OW26422   6.552   2.228   4.848
 8508SOL    HW126423   6.530   2.167   4.925
 8508SOL    HW226424   6.615   2.299   4.880
 8509SOL     OW26425   4.801   1.861   3.555
 8509SOL    HW126426   4.777   1.808   3.474
 8509SOL    HW226427   4.798   1.803   3.636
 8510SOL     OW26428   5.416   4.416   3.501
 8510SOL    HW126429   5.393   4.377   3.412
 8510SOL    HW226430   5.405   4.346   3.572
 8511SOL     OW26431   5.977   4.360   1.919
 8511SOL    HW126432   5.970   4.384   2.016
 8511SOL    HW226433   5.886   4.341   1.883
 8512SOL     OW26434   3.369   2.046   1.062
 8512SOL    HW126435   3.321   2.036   0.975
 8512SOL    HW226436   3.387   1.956   1.101
 8513SOL     OW26437   4.989   4.201   1.701
 8513SOL    HW126438   5.055   4.243   1.764
 8513SOL    HW226439   4.927   4.142   1.753
 8514SOL     OW26440   3.154   2.154   3.865
 8514SOL    HW126441   3.071   2.194   3.826
 8514SOL    HW226442   3.138   2.130   3.960
 8515SOL     OW26443   5.664   1.089   0.025
 8515SOL    HW126444   5.761   1.072   0.008
 8515SOL    HW226445   5.623   1.009   0.068
 8516SOL     OW26446   6.404   1.405   1.729
 8516SOL    HW126447   6.414   1.502   1.753
 8516SOL    HW226448   6.431   1.392   1.633
 8517SOL     OW26449   1.502   3.322   6.711
 8517SOL    HW126450   1.458   3.368   6.634
 8517SOL    HW226451   1.471   3.227   6.716
 8518SOL     OW26452   4.838   4.449   6.372
 8518SOL    HW126453   4.764   4.453   6.439
 8518SOL    HW226454   4.917   4.500   6.406
 8519SOL     OW26455   1.205   3.945   1.683
 8519SOL    HW126456   1.154   4.023   1.719
 8519SOL    HW226457   1.141   3.873   1.655
 8520SOL     OW26458   3.448   3.423   0.127
 8520SOL    HW126459   3.454   3.505   0.070
 8520SOL    HW226460   3.461   3.342   0.070
 8521SOL     OW26461   2.358   5.063   5.786
 8521SOL    HW126462   2.292   5.118   5.836
 8521SOL    HW226463   2.362   5.095   5.691
 8522SOL     OW26464   1.202   6.063   1.027
 8522SOL    HW126465   1.141   6.115   1.085
 8522SOL    HW226466   1.230   6.118   0.949
 8523SOL     OW26467   2.107   6.408   6.924
 8523SOL    HW126468   2.046   6.474   6.879
 8523SOL    HW226469   2.054   6.327   6.951
 8524SOL     OW26470   0.360   2.958   5.792
 8524SOL    HW126471   0.425   2.991   5.723
 8524SOL    HW226472   0.410   2.910   5.864
 8525SOL     OW26473   6.186   4.529   1.867
 8525SOL    HW126474   6.114   4.460   1.879
 8525SOL    HW226475   6.263   4.506   1.926
 8526SOL     OW26476   4.256   6.584   6.810
 8526SOL    HW126477   4.225   6.617   6.898
 8526SOL    HW226478   4.226   6.646   6.738
 8527SOL     OW26479   2.501   1.013   6.370
 8527SOL    HW126480   2.511   0.915   6.391
 8527SOL    HW226481   2.451   1.024   6.285
 8528SOL     OW26482   3.652   1.515   6.848
 8528SOL    HW126483   3.716   1.460   6.793
 8528SOL    HW226484   3.680   1.611   6.844
 8529SOL     OW26485   1.209   6.936   0.822
 8529SOL    HW126486   1.259   7.021   0.840
 8529SOL    HW226487   1.234   6.868   0.892
 8530SOL     OW26488   3.484   4.356   5.733
 8530SOL    HW126489   3.532   4.304   5.663
 8530SOL    HW226490   3.393   4.319   5.746
 8531SOL     OW26491   6.558   4.872   2.325
 8531SOL    HW126492   6.647   4.915   2.308
 8531SOL    HW226493   6.570   4.773   2.336
 8532SOL     OW26494   4.255   4.732   4.583
 8532SOL    HW126495   4.308   4.676   4.647
 8532SOL    HW226496   4.183   4.780   4.634
 8533SOL     OW26497   1.676   0.091   0.105
 8533SOL    HW126498   1.677   0.186   0.135
 8533SOL    HW226499   1.602   0.077   0.039
 8534SOL     OW26500   6.255   2.588   4.190
 8534SOL    HW126501   6.240   2.564   4.286
 8534SOL    HW226502   6.171   2.573   4.138
 8535SOL     OW26503   6.200   0.842   3.541
 8535SOL    HW126504   6.280   0.899   3.524
 8535SOL    HW226505   6.162   0.811   3.453
 8536SOL     OW26506   6.891   2.318   4.722
 8536SOL    HW126507   6.872   2.403   4.673
 8536SOL    HW226508   6.819   2.301   4.789
 8537SOL     OW26509   5.210   0.687   3.156
 8537SOL    HW126510   5.171   0.755   3.218
 8537SOL    HW226511   5.309   0.701   3.149
 8538SOL     OW26512   0.693   0.782   6.922
 8538SOL    HW126513   0.677   0.797   6.824
 8538SOL    HW226514   0.624   0.718   6.957
 8539SOL     OW26515   5.483   0.723   3.116
 8539SOL    HW126516   5.568   0.762   3.153
 8539SOL    HW226517   5.503   0.678   3.029
 8540SOL     OW26518   4.967   0.437   6.108
 8540SOL    HW126519   5.055   0.440   6.156
 8540SOL    HW226520   4.923   0.527   6.113
 8541SOL     OW26521   2.620   1.446   4.615
 8541SOL    HW126522   2.536   1.413   4.658
 8541SOL    HW226523   2.615   1.429   4.516
 8542SOL     OW26524   4.085   4.604   0.136
 8542SOL    HW126525   4.099   4.702   0.120
 8542SOL    HW226526   4.088   4.555   0.049
 8543SOL     OW26527   2.981   0.992   0.834
 8543SOL    HW126528   2.931   0.977   0.748
 8543SOL    HW226529   3.014   1.087   0.837
 8544SOL     OW26530   5.512   2.928   4.141
 8544SOL    HW126531   5.521   2.829   4.135
 8544SOL    HW226532   5.532   2.958   4.234
 8545SOL     OW26533   4.818   0.040   5.490
 8545SOL    HW126534   4.907   7.018   5.498
 8545SOL    HW226535   4.759   7.009   5.429
 8546SOL     OW26536   6.927   1.673   4.053
 8546SOL    HW126537   6.917   1.575   4.037
 8546SOL    HW226538   6.842   1.721   4.030
 8547SOL     OW26539   1.751   6.845   6.033
 8547SOL    HW126540   1.783   6.825   6.125
 8547SOL    HW226541   1.707   6.764   5.994
 8548SOL     OW26542   5.979   2.215   5.584
 8548SOL    HW126543   6.031   2.194   5.667
 8548SOL    HW226544   5.881   2.209   5.604
 8549SOL     OW26545   1.655   3.041   3.919
 8549SOL    HW126546   1.644   3.088   3.831
 8549SOL    HW226547   1.670   3.108   3.991
 8550SOL     OW26548   1.755   4.510   0.036
 8550SOL    HW126549   1.762   4.608   0.017
 8550SOL    HW226550   1.747   4.496   0.135
 8551SOL     OW26551   3.338   4.156   6.574
 8551SOL    HW126552   3.333   4.111   6.663
 8551SOL    HW226553   3.430   4.190   6.559
 8552SOL     OW26554   2.383   0.147   4.100
 8552SOL    HW126555   2.407   0.242   4.120
 8552SOL    HW226556   2.283   0.138   4.100
 8553SOL     OW26557   4.302   4.677   0.325
 8553SOL    HW126558   4.307   4.626   0.239
 8553SOL    HW226559   4.334   4.619   0.400
 8554SOL     OW26560   0.985   4.768   0.547
 8554SOL    HW126561   0.894   4.797   0.518
 8554SOL    HW226562   1.004   4.803   0.639
 8555SOL     OW26563   1.985   1.372   2.472
 8555SOL    HW126564   2.009   1.466   2.447
 8555SOL    HW226565   1.911   1.340   2.413
 8556SOL     OW26566   1.174   6.576   5.564
 8556SOL    HW126567   1.185   6.491   5.617
 8556SOL    HW226568   1.175   6.555   5.467
 8557SOL     OW26569   5.900   0.450   3.086
 8557SOL    HW126570   5.842   0.531   3.077
 8557SOL    HW226571   5.862   0.376   3.030
 8558SOL     OW26572   3.206   5.148   3.235
 8558SOL    HW126573   3.277   5.078   3.245
 8558SOL    HW226574   3.116   5.107   3.252
 8559SOL     OW26575   6.899   0.523   2.552
 8559SOL    HW126576   6.898   0.424   2.568
 8559SOL    HW226577   6.992   0.552   2.529
 8560SOL     OW26578   6.517   6.048   2.510
 8560SOL    HW126579   6.542   6.003   2.425
 8560SOL    HW226580   6.599   6.058   2.567
 8561SOL     OW26581   3.214   0.987   1.775
 8561SOL    HW126582   3.137   0.982   1.838
 8561SOL    HW226583   3.258   0.897   1.770
 8562SOL     OW26584   3.155   5.373   5.611
 8562SOL    HW126585   3.176   5.470   5.614
 8562SOL    HW226586   3.230   5.321   5.651
 8563SOL     OW26587   2.208   4.210   6.781
 8563SOL    HW126588   2.224   4.114   6.805
 8563SOL    HW226589   2.158   4.215   6.694
 8564SOL     OW26590   3.089   1.365   4.241
 8564SOL    HW126591   3.121   1.270   4.233
 8564SOL    HW226592   2.990   1.367   4.224
 8565SOL     OW26593   4.343   5.348   1.026
 8565SOL    HW126594   4.429   5.392   0.998
 8565SOL    HW226595   4.266   5.404   0.996
 8566SOL     OW26596   1.538   0.863   1.195
 8566SOL    HW126597   1.532   0.764   1.182
 8566SOL    HW226598   1.446   0.899   1.211
 8567SOL     OW26599   0.151   2.208   2.347
 8567SOL    HW126600   0.205   2.152   2.410
 8567SOL    HW226601   0.203   2.223   2.263
 8568SOL     OW26602   5.535   1.173   6.205
 8568SOL    HW126603   5.503   1.206   6.294
 8568SOL    HW226604   5.458   1.136   6.154
 8569SOL     OW26605   4.970   1.424   5.617
 8569SOL    HW126606   4.923   1.510   5.596
 8569SOL    HW226607   4.907   1.362   5.664
 8570SOL     OW26608   1.315   2.946   5.152
 8570SOL    HW126609   1.319   2.847   5.138
 8570SOL    HW226610   1.296   2.965   5.248
 8571SOL     OW26611   1.452   5.491   5.576
 8571SOL    HW126612   1.439   5.584   5.544
 8571SOL    HW226613   1.364   5.444   5.580
 8572SOL     OW26614   3.212   5.198   6.867
 8572SOL    HW126615   3.200   5.228   6.962
 8572SOL    HW226616   3.126   5.159   6.834
 8573SOL     OW26617   3.705   6.366   5.907
 8573SOL    HW126618   3.740   6.432   5.972
 8573SOL    HW226619   3.609   6.386   5.887
 8574SOL     OW26620   6.620   5.649   5.321
 8574SOL    HW126621   6.627   5.619   5.226
 8574SOL    HW226622   6.704   5.696   5.347
 8575SOL     OW26623   2.779   2.352   5.234
 8575SOL    HW126624   2.716   2.425   5.207
 8575SOL    HW226625   2.748   2.312   5.320
 8576SOL     OW26626   1.879   5.695   6.903
 8576SOL    HW126627   1.785   5.663   6.888
 8576SOL    HW226628   1.934   5.619   6.938
 8577SOL     OW26629   6.886   6.091   3.913
 8577SOL    HW126630   6.830   6.154   3.860
 8577SOL    HW226631   6.975   6.079   3.868
 8578SOL     OW26632   5.657   1.355   4.981
 8578SOL    HW126633   5.561   1.333   5.000
 8578SOL    HW226634   5.671   1.453   4.991
 8579SOL     OW26635   1.368   0.106   2.867
 8579SOL    HW126636   1.318   0.192   2.852
 8579SOL    HW226637   1.436   0.119   2.939
 8580SOL     OW26638   2.880   6.222   2.787
 8580SOL    HW126639   2.970   6.263   2.803
 8580SOL    HW226640   2.833   6.211   2.875
 8581SOL     OW26641   3.186   3.327   1.888
 8581SOL    HW126642   3.132   3.247   1.912
 8581SOL    HW226643   3.126   3.407   1.877
 8582SOL     OW26644   4.579   4.546   2.791
 8582SOL    HW126645   4.559   4.595   2.706
 8582SOL    HW226646   4.671   4.508   2.786
 8583SOL     OW26647   5.255   0.584   4.571
 8583SOL    HW126648   5.295   0.551   4.656
 8583SOL    HW226649   5.325   0.632   4.518
 8584SOL     OW26650   0.713   3.876   5.820
 8584SOL    HW126651   0.680   3.885   5.914
 8584SOL    HW226652   0.663   3.802   5.775
 8585SOL     OW26653   0.602   5.923   6.232
 8585SOL    HW126654   0.626   5.833   6.269
 8585SOL    HW226655   0.577   5.985   6.307
 8586SOL     OW26656   2.702   0.202   3.209
 8586SOL    HW126657   2.790   0.160   3.184
 8586SOL    HW226658   2.629   0.134   3.198
 8587SOL     OW26659   2.067   0.310   3.175
 8587SOL    HW126660   2.126   0.261   3.110
 8587SOL    HW226661   2.114   0.391   3.209
 8588SOL     OW26662   2.468   0.507   0.296
 8588SOL    HW126663   2.453   0.489   0.198
 8588SOL    HW226664   2.517   0.431   0.337
 8589SOL     OW26665   5.105   2.848   4.642
 8589SOL    HW126666   5.081   2.758   4.676
 8589SOL    HW226667   5.034   2.914   4.665
 8590SOL     OW26668   0.208   6.344   3.951
 8590SOL    HW126669   0.223   6.422   3.891
 8590SOL    HW226670   0.209   6.259   3.898
 8591SOL     OW26671   6.886   4.705   6.759
 8591SOL    HW126672   6.818   4.709   6.686
 8591SOL    HW226673   6.868   4.626   6.818
 8592SOL     OW26674   0.049   3.059   6.611
 8592SOL    HW126675   0.114   2.990   6.643
 8592SOL    HW226676   0.003   3.100   6.690
 8593SOL     OW26677   2.674   0.128   1.568
 8593SOL    HW126678   2.671   0.187   1.649
 8593SOL    HW226679   2.631   0.040   1.590
 8594SOL     OW26680   3.674   2.909   5.272
 8594SOL    HW126681   3.603   2.865   5.327
 8594SOL    HW226682   3.634   2.946   5.188
 8595SOL     OW26683   1.587   2.536   2.836
 8595SOL    HW126684   1.520   2.513   2.765
 8595SOL    HW226685   1.552   2.509   2.926
 8596SOL     OW26686   6.247   5.224   3.599
 8596SOL    HW126687   6.197   5.290   3.543
 8596SOL    HW226688   6.190   5.143   3.615
 8597SOL     OW26689   4.564   0.800   0.799
 8597SOL    HW126690   4.579   0.872   0.731
 8597SOL    HW226691   4.515   0.838   0.877
 8598SOL     OW26692   6.972   6.519   1.067
 8598SOL    HW126693   6.875   6.508   1.088
 8598SOL    HW226694   7.012   6.587   1.129
 8599SOL     OW26695   1.116   2.658   4.208
 8599SOL    HW126696   1.141   2.589   4.276
 8599SOL    HW226697   1.089   2.742   4.254
 8600SOL     OW26698   4.833   5.147   6.099
 8600SOL    HW126699   4.773   5.227   6.090
 8600SOL    HW226700   4.894   5.144   6.020
 8601SOL     OW26701   0.859   0.673   4.913
 8601SOL    HW126702   0.842   0.686   5.010
 8601SOL    HW226703   0.847   0.576   4.889
 8602SOL     OW26704   3.293   5.474   3.208
 8602SOL    HW126705   3.317   5.422   3.290
 8602SOL    HW226706   3.254   5.412   3.139
 8603SOL     OW26707   3.714   5.092   0.619
 8603SOL    HW126708   3.618   5.103   0.645
 8603SOL    HW226709   3.719   5.057   0.526
 8604SOL     OW26710   0.983   3.123   3.582
 8604SOL    HW126711   0.941   3.110   3.672
 8604SOL    HW226712   1.007   3.220   3.571
 8605SOL     OW26713   2.954   5.394   4.740
 8605SOL    HW126714   3.011   5.404   4.821
 8605SOL    HW226715   2.987   5.455   4.668
 8606SOL     OW26716   1.281   3.201   6.193
 8606SOL    HW126717   1.230   3.273   6.145
 8606SOL    HW226718   1.374   3.232   6.210
 8607SOL     OW26719   3.327   5.861   1.164
 8607SOL    HW126720   3.281   5.774   1.179
 8607SOL    HW226721   3.338   5.877   1.065
 8608SOL     OW26722   4.519   5.242   2.948
 8608SOL    HW126723   4.513   5.342   2.953
 8608SOL    HW226724   4.435   5.202   2.984
 8609SOL     OW26725   5.793   0.732   3.548
 8609SOL    HW126726   5.704   0.719   3.592
 8609SOL    HW226727   5.857   0.775   3.613
 8610SOL     OW26728   1.843   2.142   2.532
 8610SOL    HW126729   1.938   2.113   2.518
 8610SOL    HW226730   1.802   2.088   2.605
 8611SOL     OW26731   2.547   1.904   4.492
 8611SOL    HW126732   2.550   1.995   4.535
 8611SOL    HW226733   2.508   1.838   4.556
 8612SOL     OW26734   3.634   3.125   0.750
 8612SOL    HW126735   3.542   3.160   0.766
 8612SOL    HW226736   3.675   3.099   0.838
 8613SOL     OW26737   2.430   1.907   0.924
 8613SOL    HW126738   2.492   1.949   0.858
 8613SOL    HW226739   2.479   1.838   0.977
 8614SOL     OW26740   1.083   3.502   2.367
 8614SOL    HW126741   1.005   3.462   2.320
 8614SOL    HW226742   1.162   3.505   2.306
 8615SOL     OW26743   5.341   2.073   5.518
 8615SOL    HW126744   5.267   2.139   5.530
 8615SOL    HW226745   5.308   1.997   5.462
 8616SOL     OW26746   3.129   4.826   1.654
 8616SOL    HW126747   3.118   4.844   1.556
 8616SOL    HW226748   3.060   4.760   1.684
 8617SOL     OW26749   6.939   0.802   6.237
 8617SOL    HW126750   6.950   0.747   6.319
 8617SOL    HW226751   6.882   0.881   6.257
 8618SOL     OW26752   6.194   6.153   0.983
 8618SOL    HW126753   6.134   6.074   0.965
 8618SOL    HW226754   6.188   6.217   0.907
 8619SOL     OW26755   3.969   4.785   2.289
 8619SOL    HW126756   3.894   4.798   2.354
 8619SOL    HW226757   3.932   4.782   2.196
 8620SOL     OW26758   0.748   0.293   3.749
 8620SOL    HW126759   0.658   0.321   3.784
 8620SOL    HW226760   0.779   0.211   3.798
 8621SOL     OW26761   6.096   1.462   2.835
 8621SOL    HW126762   6.011   1.409   2.831
 8621SOL    HW226763   6.173   1.404   2.809
 8622SOL     OW26764   4.684   2.918   0.137
 8622SOL    HW126765   4.682   2.949   0.042
 8622SOL    HW226766   4.754   2.848   0.148
 8623SOL     OW26767   0.835   3.992   3.480
 8623SOL    HW126768   0.772   4.015   3.405
 8623SOL    HW226769   0.928   4.018   3.453
 8624SOL     OW26770   0.645   3.849   4.893
 8624SOL    HW126771   0.729   3.801   4.869
 8624SOL    HW226772   0.660   3.948   4.886
 8625SOL     OW26773   4.564   0.163   5.539
 8625SOL    HW126774   4.543   0.080   5.590
 8625SOL    HW226775   4.659   0.162   5.510
 8626SOL     OW26776   3.804   2.715   5.455
 8626SOL    HW126777   3.757   2.757   5.377
 8626SOL    HW226778   3.854   2.634   5.424
 8627SOL     OW26779   0.657   1.074   3.226
 8627SOL    HW126780   0.579   1.130   3.200
 8627SOL    HW226781   0.637   1.025   3.311
 8628SOL     OW26782   6.059   6.881   1.681
 8628SOL    HW126783   6.022   6.814   1.617
 8628SOL    HW226784   5.993   6.898   1.754
 8629SOL     OW26785   1.165   4.989   5.194
 8629SOL    HW126786   1.153   4.890   5.193
 8629SOL    HW226787   1.078   5.034   5.215
 8630SOL     OW26788   5.059   4.516   3.341
 8630SOL    HW126789   4.966   4.516   3.304
 8630SOL    HW226790   5.076   4.431   3.390
 8631SOL     OW26791   2.293   5.875   5.812
 8631SOL    HW126792   2.352   5.924   5.876
 8631SOL    HW226793   2.206   5.853   5.857
 8632SOL     OW26794   3.355   6.115   3.867
 8632SOL    HW126795   3.416   6.118   3.946
 8632SOL    HW226796   3.407   6.090   3.785
 8633SOL     OW26797   5.639   1.857   4.846
 8633SOL    HW126798   5.726   1.893   4.811
 8633SOL    HW226799   5.649   1.760   4.866
 8634SOL     OW26800   5.319   3.451   0.061
 8634SOL    HW126801   5.265   3.412   7.009
 8634SOL    HW226802   5.360   3.377   0.114
 8635SOL     OW26803   5.728   4.354   6.363
 8635SOL    HW126804   5.638   4.376   6.398
 8635SOL    HW226805   5.720   4.297   6.281
 8636SOL     OW26806   5.285   6.079   0.587
 8636SOL    HW126807   5.285   6.023   0.670
 8636SOL    HW226808   5.276   6.175   0.611
 8637SOL     OW26809   2.012   0.982   6.993
 8637SOL    HW126810   1.915   0.960   7.002
 8637SOL    HW226811   2.026   1.080   7.000
 8638SOL     OW26812   2.983   3.088   6.632
 8638SOL    HW126813   2.987   3.107   6.730
 8638SOL    HW226814   3.023   2.998   6.614
 8639SOL     OW26815   5.302   2.197   1.610
 8639SOL    HW126816   5.367   2.248   1.666
 8639SOL    HW226817   5.258   2.260   1.546
 8640SOL     OW26818   4.629   3.841   0.649
 8640SOL    HW126819   4.706   3.779   0.635
 8640SOL    HW226820   4.548   3.789   0.676
 8641SOL     OW26821   5.729   5.049   4.076
 8641SOL    HW126822   5.654   5.101   4.116
 8641SOL    HW226823   5.816   5.081   4.115
 8642SOL     OW26824   2.690   0.426   3.091
 8642SOL    HW126825   2.706   0.335   3.130
 8642SOL    HW226826   2.778   0.469   3.068
 8643SOL     OW26827   3.217   0.621   6.459
 8643SOL    HW126828   3.134   0.570   6.435
 8643SOL    HW226829   3.266   0.647   6.376
 8644SOL     OW26830   4.657   2.286   5.431
 8644SOL    HW126831   4.680   2.260   5.337
 8644SOL    HW226832   4.560   2.269   5.447
 8645SOL     OW26833   4.406   4.554   1.056
 8645SOL    HW126834   4.360   4.593   0.976
 8645SOL    HW226835   4.402   4.619   1.132
 8646SOL     OW26836   6.224   1.041   1.836
 8646SOL    HW126837   6.218   0.989   1.750
 8646SOL    HW226838   6.143   1.098   1.847
 8647SOL     OW26839   2.364   5.366   5.776
 8647SOL    HW126840   2.357   5.366   5.676
 8647SOL    HW226841   2.460   5.378   5.803
 8648SOL     OW26842   6.462   0.837   3.711
 8648SOL    HW126843   6.554   0.853   3.676
 8648SOL    HW226844   6.403   0.807   3.637
 8649SOL     OW26845   5.465   4.325   5.967
 8649SOL    HW126846   5.504   4.387   5.899
 8649SOL    HW226847   5.376   4.292   5.935
 8650SOL     OW26848   2.026   4.690   6.376
 8650SOL    HW126849   2.075   4.717   6.293
 8650SOL    HW226850   1.932   4.726   6.372
 8651SOL     OW26851   3.791   0.756   0.639
 8651SOL    HW126852   3.709   0.725   0.686
 8651SOL    HW226853   3.871   0.709   0.677
 8652SOL     OW26854   1.813   3.655   3.955
 8652SOL    HW126855   1.841   3.559   3.956
 8652SOL    HW226856   1.844   3.699   3.871
 8653SOL     OW26857   6.162   1.342   6.504
 8653SOL    HW126858   6.229   1.333   6.430
 8653SOL    HW226859   6.203   1.309   6.589
 8654SOL     OW26860   0.854   5.027   1.219
 8654SOL    HW126861   0.950   5.003   1.210
 8654SOL    HW226862   0.799   4.972   1.156
 8655SOL     OW26863   6.369   1.578   3.908
 8655SOL    HW126864   6.423   1.592   3.825
 8655SOL    HW226865   6.430   1.559   3.985
 8656SOL     OW26866   6.427   1.128   0.786
 8656SOL    HW126867   6.399   1.223   0.771
 8656SOL    HW226868   6.389   1.071   0.713
 8657SOL     OW26869   5.392   4.642   0.557
 8657SOL    HW126870   5.362   4.548   0.543
 8657SOL    HW226871   5.317   4.705   0.536
 8658SOL     OW26872   3.867   6.460   0.282
 8658SOL    HW126873   3.870   6.543   0.227
 8658SOL    HW226874   3.950   6.406   0.267
 8659SOL     OW26875   4.681   1.430   3.308
 8659SOL    HW126876   4.677   1.514   3.255
 8659SOL    HW226877   4.776   1.411   3.333
 8660SOL     OW26878   5.581   3.589   0.504
 8660SOL    HW126879   5.645   3.514   0.489
 8660SOL    HW226880   5.514   3.562   0.574
 8661SOL     OW26881   5.946   4.241   1.015
 8661SOL    HW126882   5.980   4.152   1.047
 8661SOL    HW226883   5.897   4.228   0.928
 8662SOL     OW26884   4.372   6.091   0.779
 8662SOL    HW126885   4.278   6.112   0.753
 8662SOL    HW226886   4.398   6.002   0.741
 8663SOL     OW26887   2.732   5.829   1.509
 8663SOL    HW126888   2.787   5.754   1.544
 8663SOL    HW226889   2.785   5.914   1.514
 8664SOL     OW26890   2.884   6.360   1.340
 8664SOL    HW126891   2.971   6.391   1.378
 8664SOL    HW226892   2.890   6.359   1.240
 8665SOL     OW26893   5.729   6.179   4.956
 8665SOL    HW126894   5.673   6.099   4.938
 8665SOL    HW226895   5.709   6.214   5.048
 8666SOL     OW26896   4.956   1.518   3.956
 8666SOL    HW126897   4.914   1.533   4.045
 8666SOL    HW226898   4.986   1.423   3.948
 8667SOL     OW26899   4.892   2.253   3.152
 8667SOL    HW126900   4.952   2.214   3.222
 8667SOL    HW226901   4.857   2.341   3.183
 8668SOL     OW26902   5.626   4.093   3.325
 8668SOL    HW126903   5.593   4.030   3.396
 8668SOL    HW226904   5.714   4.062   3.292
 8669SOL     OW26905   2.366   6.080   6.961
 8669SOL    HW126906   2.439   6.142   6.987
 8669SOL    HW226907   2.376   5.994   7.011
 8670SOL     OW26908   3.448   4.635   5.361
 8670SOL    HW126909   3.480   4.561   5.302
 8670SOL    HW226910   3.355   4.616   5.392
 8671SOL     OW26911   5.573   2.220   3.364
 8671SOL    HW126912   5.673   2.229   3.362
 8671SOL    HW226913   5.546   2.165   3.443
 8672SOL     OW26914   1.938   5.041   3.790
 8672SOL    HW126915   2.033   5.040   3.757
 8672SOL    HW226916   1.893   5.125   3.761
 8673SOL     OW26917   6.414   2.774   0.665
 8673SOL    HW126918   6.389   2.718   0.745
 8673SOL    HW226919   6.347   2.760   0.593
 8674SOL     OW26920   5.326   5.454   3.709
 8674SOL    HW126921   5.297   5.399   3.631
 8674SOL    HW226922   5.252   5.516   3.735
 8675SOL     OW26923   3.113   2.094   4.396
 8675SOL    HW126924   3.034   2.155   4.396
 8675SOL    HW226925   3.118   2.045   4.483
 8676SOL     OW26926   4.121   0.402   2.474
 8676SOL    HW126927   4.140   0.307   2.501
 8676SOL    HW226928   4.110   0.458   2.556
 8677SOL     OW26929   2.591   5.825   5.509
 8677SOL    HW126930   2.590   5.726   5.493
 8677SOL    HW226931   2.497   5.860   5.505
 8678SOL     OW26932   6.605   0.271   1.029
 8678SOL    HW126933   6.534   0.308   1.089
 8678SOL    HW226934   6.695   0.285   1.072
 8679SOL     OW26935   6.941   2.454   3.146
 8679SOL    HW126936   6.866   2.484   3.205
 8679SOL    HW226937   6.904   2.418   3.061
 8680SOL     OW26938   1.010   3.732   1.201
 8680SOL    HW126939   1.028   3.811   1.259
 8680SOL    HW226940   0.942   3.756   1.131
 8681SOL     OW26941   4.762   5.486   0.139
 8681SOL    HW126942   4.739   5.522   0.230
 8681SOL    HW226943   4.678   5.475   0.086
 8682SOL     OW26944   5.651   6.987   1.287
 8682SOL    HW126945   5.671   0.060   1.267
 8682SOL    HW226946   5.554   6.978   1.311
 8683SOL     OW26947   2.064   2.494   2.692
 8683SOL    HW126948   2.131   2.567   2.707
 8683SOL    HW226949   1.972   2.534   2.686
 8684SOL     OW26950   0.594   2.971   5.075
 8684SOL    HW126951   0.664   2.931   5.016
 8684SOL    HW226952   0.529   3.023   5.019
 8685SOL     OW26953   0.575   1.913   6.061
 8685SOL    HW126954   0.560   2.008   6.030
 8685SOL    HW226955   0.672   1.892   6.055
 8686SOL     OW26956   0.013   1.045   1.419
 8686SOL    HW126957   6.982   1.010   1.496
 8686SOL    HW226958   0.093   1.094   1.454
 8687SOL     OW26959   4.277   5.197   2.086
 8687SOL    HW126960   4.329   5.234   2.009
 8687SOL    HW226961   4.205   5.261   2.111
 8688SOL     OW26962   3.081   5.904   0.001
 8688SOL    HW126963   3.143   5.970   0.044
 8688SOL    HW226964   3.002   5.952   6.985
 8689SOL     OW26965   3.495   3.789   1.685
 8689SOL    HW126966   3.542   3.787   1.773
 8689SOL    HW226967   3.400   3.761   1.698
 8690SOL     OW26968   1.462   2.967   3.042
 8690SOL    HW126969   1.380   2.917   3.071
 8690SOL    HW226970   1.535   2.902   3.021
 8691SOL     OW26971   3.488   2.134   6.453
 8691SOL    HW126972   3.434   2.052   6.434
 8691SOL    HW226973   3.583   2.109   6.467
 8692SOL     OW26974   1.824   1.613   4.128
 8692SOL    HW126975   1.781   1.589   4.215
 8692SOL    HW226976   1.754   1.629   4.059
 8693SOL     OW26977   6.798   1.077   6.727
 8693SOL    HW126978   6.798   1.154   6.792
 8693SOL    HW226979   6.844   0.999   6.768
 8694SOL     OW26980   4.644   1.093   4.862
 8694SOL    HW126981   4.694   1.175   4.890
 8694SOL    HW226982   4.556   1.120   4.824
 8695SOL     OW26983   3.675   2.591   6.065
 8695SOL    HW126984   3.660   2.493   6.050
 8695SOL    HW226985   3.656   2.613   6.161
 8696SOL     OW26986   2.285   5.583   0.350
 8696SOL    HW126987   2.329   5.545   0.269
 8696SOL    HW226988   2.225   5.658   0.323
 8697SOL     OW26989   6.743   2.566   0.518
 8697SOL    HW126990   6.677   2.496   0.493
 8697SOL    HW226991   6.777   2.611   0.435
 8698SOL     OW26992   5.791   5.792   4.757
 8698SOL    HW126993   5.869   5.729   4.768
 8698SOL    HW226994   5.799   5.839   4.669
 8699SOL     OW26995   2.673   2.382   5.641
 8699SOL    HW126996   2.658   2.473   5.603
 8699SOL    HW226997   2.728   2.328   5.577
 8700SOL     OW26998   0.953   0.877   4.472
 8700SOL    HW126999   0.864   0.865   4.516
 8700SOL    HW227000   1.023   0.888   4.543
 8701SOL     OW27001   0.807   1.264   0.633
 8701SOL    HW127002   0.790   1.324   0.555
 8701SOL    HW227003   0.798   1.168   0.603
 8702SOL     OW27004   4.815   4.747   1.298
 8702SOL    HW127005   4.764   4.758   1.383
 8702SOL    HW227006   4.762   4.787   1.222
 8703SOL     OW27007   3.214   4.964   0.494
 8703SOL    HW127008   3.206   4.987   0.397
 8703SOL    HW227009   3.175   5.038   0.549
 8704SOL     OW27010   6.987   3.681   3.280
 8704SOL    HW127011   6.920   3.618   3.240
 8704SOL    HW227012   0.008   3.732   3.206
 8705SOL     OW27013   5.013   0.760   6.337
 8705SOL    HW127014   5.060   0.726   6.419
 8705SOL    HW227015   4.951   0.834   6.362
 8706SOL     OW27016   4.290   2.146   6.591
 8706SOL    HW127017   4.356   2.071   6.593
 8706SOL    HW227018   4.246   2.150   6.501
 8707SOL     OW27019   6.878   2.622   0.232
 8707SOL    HW127020   6.806   2.662   0.176
 8707SOL    HW227021   6.901   2.531   0.198
 8708SOL     OW27022   5.088   2.467   2.261
 8708SOL    HW127023   5.186   2.449   2.248
 8708SOL    HW227024   5.062   2.441   2.354
 8709SOL     OW27025   6.930   6.074   0.371
 8709SOL    HW127026   6.989   6.045   0.296
 8709SOL    HW227027   6.835   6.074   0.342
 8710SOL     OW27028   2.164   3.092   4.163
 8710SOL    HW127029   2.110   3.023   4.212
 8710SOL    HW227030   2.165   3.177   4.216
 8711SOL     OW27031   1.612   6.383   2.992
 8711SOL    HW127032   1.559   6.317   2.940
 8711SOL    HW227033   1.552   6.457   3.022
 8712SOL     OW27034   4.080   2.176   5.133
 8712SOL    HW127035   4.097   2.266   5.094
 8712SOL    HW227036   4.151   2.112   5.104
 8713SOL     OW27037   0.681   3.399   4.028
 8713SOL    HW127038   0.601   3.436   4.074
 8713SOL    HW227039   0.669   3.404   3.929
 8714SOL     OW27040   1.021   1.156   5.933
 8714SOL    HW127041   0.952   1.154   6.005
 8714SOL    HW227042   1.026   1.066   5.889
 8715SOL     OW27043   4.180   0.376   1.394
 8715SOL    HW127044   4.203   0.441   1.467
 8715SOL    HW227045   4.240   0.296   1.400
 8716SOL     OW27046   0.496   0.147   1.110
 8716SOL    HW127047   0.572   0.163   1.047
 8716SOL    HW227048   0.523   0.174   1.202
 8717SOL     OW27049   3.507   3.501   3.706
 8717SOL    HW127050   3.575   3.516   3.777
 8717SOL    HW227051   3.441   3.576   3.707
 8718SOL     OW27052   0.904   3.738   4.789
 8718SOL    HW127053   0.966   3.746   4.712
 8718SOL    HW227054   0.935   3.663   4.849
 8719SOL     OW27055   2.916   0.557   6.368
 8719SOL    HW127056   2.930   0.618   6.290
 8719SOL    HW227057   2.893   0.465   6.336
 8720SOL     OW27058   6.359   5.059   6.003
 8720SOL    HW127059   6.346   5.126   5.930
 8720SOL    HW227060   6.284   4.992   6.002
 8721SOL     OW27061   0.445   2.609   2.285
 8721SOL    HW127062   0.426   2.699   2.323
 8721SOL    HW227063   0.459   2.616   2.186
 8722SOL     OW27064   4.138   1.331   0.082
 8722SOL    HW127065   4.082   1.266   0.134
 8722SOL    HW227066   4.234   1.321   0.108
 8723SOL     OW27067   4.611   5.437   0.955
 8723SOL    HW127068   4.688   5.470   0.900
 8723SOL    HW227069   4.624   5.465   1.051
 8724SOL     OW27070   5.059   0.437   5.724
 8724SOL    HW127071   5.159   0.445   5.732
 8724SOL    HW227072   5.026   0.373   5.793
 8725SOL     OW27073   1.619   6.925   6.696
 8725SOL    HW127074   1.561   6.843   6.699
 8725SOL    HW227075   1.642   6.945   6.601
 8726SOL     OW27076   6.451   0.542   1.992
 8726SOL    HW127077   6.522   0.597   2.037
 8726SOL    HW227078   6.449   0.451   2.032
 8727SOL     OW27079   0.226   6.143   2.324
 8727SOL    HW127080   0.185   6.232   2.303
 8727SOL    HW227081   0.319   6.156   2.357
 8728SOL     OW27082   5.238   0.105   3.540
 8728SOL    HW127083   5.304   0.175   3.512
 8728SOL    HW227084   5.160   0.106   3.477
 8729SOL     OW27085   4.320   5.920   4.553
 8729SOL    HW127086   4.349   6.015   4.563
 8729SOL    HW227087   4.394   5.860   4.581
 8730SOL     OW27088   6.287   4.175   2.287
 8730SOL    HW127089   6.291   4.098   2.224
 8730SOL    HW227090   6.358   4.165   2.357
 8731SOL     OW27091   2.610   2.405   2.875
 8731SOL    HW127092   2.533   2.466   2.854
 8731SOL    HW227093   2.652   2.374   2.790
 8732SOL     OW27094   5.498   4.524   1.505
 8732SOL    HW127095   5.488   4.600   1.441
 8732SOL    HW227096   5.425   4.528   1.574
 8733SOL     OW27097   1.838   5.750   1.141
 8733SOL    HW127098   1.905   5.735   1.068
 8733SOL    HW227099   1.831   5.668   1.197
 8734SOL     OW27100   1.790   4.891   2.413
 8734SOL    HW127101   1.833   4.930   2.332
 8734SOL    HW227102   1.691   4.891   2.401
 8735SOL     OW27103   1.026   2.344   0.400
 8735SOL    HW127104   1.073   2.259   0.426
 8735SOL    HW227105   0.965   2.372   0.474
 8736SOL     OW27106   1.240   6.087   6.237
 8736SOL    HW127107   1.171   6.014   6.239
 8736SOL    HW227108   1.197   6.172   6.208
 8737SOL     OW27109   2.103   6.752   6.059
 8737SOL    HW127110   2.128   6.788   6.148
 8737SOL    HW227111   2.185   6.737   6.004
 8738SOL     OW27112   2.280   5.624   4.356
 8738SOL    HW127113   2.358   5.582   4.309
 8738SOL    HW227114   2.200   5.565   4.349
 8739SOL     OW27115   5.769   5.355   5.923
 8739SOL    HW127116   5.832   5.388   5.853
 8739SOL    HW227117   5.739   5.432   5.980
 8740SOL     OW27118   4.965   1.094   5.142
 8740SOL    HW127119   4.955   0.995   5.146
 8740SOL    HW227120   5.061   1.117   5.130
 8741SOL     OW27121   2.725   1.494   1.763
 8741SOL    HW127122   2.801   1.553   1.739
 8741SOL    HW227123   2.722   1.416   1.699
 8742SOL     OW27124   5.703   6.167   1.031
 8742SOL    HW127125   5.723   6.239   1.097
 8742SOL    HW227126   5.762   6.178   0.951
 8743SOL     OW27127   1.640   0.619   1.993
 8743SOL    HW127128   1.642   0.529   2.037
 8743SOL    HW227129   1.547   0.656   1.997
 8744SOL     OW27130   3.302   2.733   6.511
 8744SOL    HW127131   3.266   2.659   6.453
 8744SOL    HW227132   3.397   2.713   6.535
 8745SOL     OW27133   5.737   3.006   6.100
 8745SOL    HW127134   5.687   3.059   6.032
 8745SOL    HW227135   5.834   3.006   6.077
 8746SOL     OW27136   5.356   3.902   4.800
 8746SOL    HW127137   5.280   3.952   4.759
 8746SOL    HW227138   5.347   3.804   4.778
 8747SOL     OW27139   0.978   2.774   2.594
 8747SOL    HW127140   0.896   2.718   2.600
 8747SOL    HW227141   0.953   2.867   2.568
 8748SOL     OW27142   6.865   1.804   4.975
 8748SOL    HW127143   6.887   1.710   4.948
 8748SOL    HW227144   6.773   1.807   5.014
 8749SOL     OW27145   2.503   0.535   6.137
 8749SOL    HW127146   2.406   0.512   6.136
 8749SOL    HW227147   2.556   0.454   6.112
 8750SOL     OW27148   3.513   3.393   5.605
 8750SOL    HW127149   3.487   3.463   5.671
 8750SOL    HW227150   3.575   3.328   5.648
 8751SOL     OW27151   6.002   1.182   2.792
 8751SOL    HW127152   5.905   1.159   2.791
 8751SOL    HW227153   6.030   1.212   2.701
 8752SOL     OW27154   2.589   3.954   0.433
 8752SOL    HW127155   2.688   3.942   0.444
 8752SOL    HW227156   2.567   4.052   0.436
 8753SOL     OW27157   4.263   2.124   5.552
 8753SOL    HW127158   4.195   2.072   5.500
 8753SOL    HW227159   4.326   2.061   5.598
 8754SOL     OW27160   1.487   3.435   5.393
 8754SOL    HW127161   1.419   3.441   5.466
 8754SOL    HW227162   1.535   3.347   5.399
 8755SOL     OW27163   2.812   0.381   0.665
 8755SOL    HW127164   2.830   0.479   0.673
 8755SOL    HW227165   2.799   0.358   0.568
 8756SOL     OW27166   1.764   2.865   3.292
 8756SOL    HW127167   1.672   2.827   3.301
 8756SOL    HW227168   1.758   2.959   3.258
 8757SOL     OW27169   4.227   6.206   5.737
 8757SOL    HW127170   4.249   6.294   5.695
 8757SOL    HW227171   4.255   6.131   5.676
 8758SOL     OW27172   5.043   6.495   2.624
 8758SOL    HW127173   5.120   6.487   2.687
 8758SOL    HW227174   4.982   6.567   2.655
 8759SOL     OW27175   4.556   2.094   6.991
 8759SOL    HW127176   4.471   2.055   0.005
 8759SOL    HW227177   4.546   2.192   6.978
 8760SOL     OW27178   1.206   1.283   4.974
 8760SOL    HW127179   1.195   1.315   4.880
 8760SOL    HW227180   1.301   1.255   4.990
 8761SOL     OW27181   5.777   2.503   2.848
 8761SOL    HW127182   5.861   2.545   2.883
 8761SOL    HW227183   5.758   2.538   2.757
 8762SOL     OW27184   1.091   4.371   2.354
 8762SOL    HW127185   1.055   4.376   2.261
 8762SOL    HW227186   1.106   4.276   2.380
 8763SOL     OW27187   6.342   6.244   5.745
 8763SOL    HW127188   6.361   6.340   5.767
 8763SOL    HW227189   6.264   6.239   5.683
 8764SOL     OW27190   5.151   1.179   4.861
 8764SOL    HW127191   5.162   1.244   4.935
 8764SOL    HW227192   5.180   1.220   4.775
 8765SOL     OW27193   5.749   0.415   5.024
 8765SOL    HW127194   5.679   0.465   4.975
 8765SOL    HW227195   5.724   0.408   5.121
 8766SOL     OW27196   4.602   4.544   3.966
 8766SOL    HW127197   4.654   4.628   3.954
 8766SOL    HW227198   4.506   4.566   3.985
 8767SOL     OW27199   4.579   6.613   3.219
 8767SOL    HW127200   4.648   6.569   3.163
 8767SOL    HW227201   4.605   6.707   3.238
 8768SOL     OW27202   1.585   3.033   0.207
 8768SOL    HW127203   1.568   3.019   0.305
 8768SOL    HW227204   1.514   2.987   0.154
 8769SOL     OW27205   0.700   0.514   4.045
 8769SOL    HW127206   0.741   0.546   4.131
 8769SOL    HW227207   0.762   0.447   4.003
 8770SOL     OW27208   5.143   4.099   2.279
 8770SOL    HW127209   5.105   4.079   2.369
 8770SOL    HW227210   5.069   4.104   2.212
 8771SOL     OW27211   1.226   0.503   6.698
 8771SOL    HW127212   1.174   0.543   6.623
 8771SOL    HW227213   1.230   0.404   6.686
 8772SOL     OW27214   4.604   6.733   0.244
 8772SOL    HW127215   4.560   6.731   0.154
 8772SOL    HW227216   4.703   6.729   0.232
 8773SOL     OW27217   4.548   2.587   3.548
 8773SOL    HW127218   4.521   2.586   3.644
 8773SOL    HW227219   4.517   2.504   3.503
 8774SOL     OW27220   1.696   1.442   6.580
 8774SOL    HW127221   1.627   1.376   6.611
 8774SOL    HW227222   1.658   1.534   6.582
 8775SOL     OW27223   6.253   6.841   5.852
 8775SOL    HW127224   6.350   6.849   5.874
 8775SOL    HW227225   6.238   6.860   5.755
 8776SOL     OW27226   3.880   3.602   6.166
 8776SOL    HW127227   3.914   3.696   6.154
 8776SOL    HW227228   3.903   3.570   6.258
 8777SOL     OW27229   6.956   3.806   1.585
 8777SOL    HW127230   6.875   3.777   1.636
 8777SOL    HW227231   6.930   3.875   1.517
 8778SOL     OW27232   6.636   2.877   4.763
 8778SOL    HW127233   6.538   2.898   4.764
 8778SOL    HW227234   6.653   2.800   4.702
 8779SOL     OW27235   2.773   5.342   2.429
 8779SOL    HW127236   2.803   5.373   2.519
 8779SOL    HW227237   2.835   5.271   2.395
 8780SOL     OW27238   0.927   6.013   2.935
 8780SOL    HW127239   0.872   6.073   2.993
 8780SOL    HW227240   0.974   5.945   2.992
 8781SOL     OW27241   6.035   1.515   3.249
 8781SOL    HW127242   5.981   1.431   3.240
 8781SOL    HW227243   6.015   1.558   3.337
 8782SOL     OW27244   5.171   6.790   2.025
 8782SOL    HW127245   5.229   6.838   2.091
 8782SOL    HW227246   5.227   6.759   1.948
 8783SOL     OW27247   6.345   3.830   3.620
 8783SOL    HW127248   6.432   3.788   3.592
 8783SOL    HW227249   6.319   3.795   3.710
 8784SOL     OW27250   5.736   4.508   6.632
 8784SOL    HW127251   5.639   4.491   6.649
 8784SOL    HW227252   5.784   4.521   6.719
 8785SOL     OW27253   6.151   3.651   6.729
 8785SOL    HW127254   6.242   3.656   6.770
 8785SOL    HW227255   6.110   3.742   6.729
 8786SOL     OW27256   1.805   6.984   0.304
 8786SOL    HW127257   1.733   7.012   0.240
 8786SOL    HW227258   1.824   6.887   0.290
 8787SOL     OW27259   2.901   2.611   1.690
 8787SOL    HW127260   2.985   2.665   1.697
 8787SOL    HW227261   2.887   2.559   1.775
 8788SOL     OW27262   0.529   2.149   5.929
 8788SOL    HW127263   0.572   2.221   5.875
 8788SOL    HW227264   0.430   2.152   5.916
 8789SOL     OW27265   6.014   6.745   5.538
 8789SOL    HW127266   5.946   6.764   5.609
 8789SOL    HW227267   5.989   6.794   5.454
 8790SOL     OW27268   0.434   0.689   7.017
 8790SOL    HW127269   0.437   0.643   0.083
 8790SOL    HW227270   0.364   0.647   6.959
 8791SOL     OW27271   5.650   0.104   5.426
 8791SOL    HW127272   5.732   0.115   5.370
 8791SOL    HW227273   5.663   0.029   5.490
 8792SOL     OW27274   3.510   6.564   3.418
 8792SOL    HW127275   3.531   6.651   3.374
 8792SOL    HW227276   3.442   6.578   3.490
 8793SOL     OW27277   1.848   4.888   3.397
 8793SOL    HW127278   1.816   4.979   3.425
 8793SOL    HW227279   1.775   4.841   3.348
 8794SOL     OW27280   4.125   6.487   1.695
 8794SOL    HW127281   4.176   6.404   1.674
 8794SOL    HW227282   4.189   6.564   1.704
 8795SOL     OW27283   1.462   5.979   5.614
 8795SOL    HW127284   1.480   6.074   5.642
 8795SOL    HW227285   1.496   5.965   5.521
 8796SOL     OW27286   4.024   2.225   4.519
 8796SOL    HW127287   4.002   2.134   4.484
 8796SOL    HW227288   4.002   2.229   4.616
 8797SOL     OW27289   0.655   6.823   5.925
 8797SOL    HW127290   0.744   6.863   5.904
 8797SOL    HW227291   0.654   6.728   5.897
 8798SOL     OW27292   5.274   5.589   5.865
 8798SOL    HW127293   5.213   5.529   5.813
 8798SOL    HW227294   5.253   5.684   5.843
 8799SOL     OW27295   2.241   4.729   3.896
 8799SOL    HW127296   2.198   4.817   3.918
 8799SOL    HW227297   2.327   4.721   3.946
 8800SOL     OW27298   5.888   3.820   5.507
 8800SOL    HW127299   5.858   3.788   5.417
 8800SOL    HW227300   5.977   3.865   5.499
 8801SOL     OW27301   0.554   2.046   4.890
 8801SOL    HW127302   0.570   2.061   4.793
 8801SOL    HW227303   0.642   2.035   4.937
 8802SOL     OW27304   1.877   6.760   0.830
 8802SOL    HW127305   1.975   6.752   0.812
 8802SOL    HW227306   1.845   6.676   0.874
 8803SOL     OW27307   6.950   5.326   6.449
 8803SOL    HW127308   6.925   5.309   6.545
 8803SOL    HW227309   6.933   5.422   6.427
 8804SOL     OW27310   3.145   0.228   2.138
 8804SOL    HW127311   3.124   0.170   2.216
 8804SOL    HW227312   3.064   0.281   2.113
 8805SOL     OW27313   2.793   6.937   4.166
 8805SOL    HW127314   2.808   6.841   4.141
 8805SOL    HW227315   2.876   6.974   4.207
 8806SOL     OW27316   2.564   5.260   2.576
 8806SOL    HW127317   2.567   5.167   2.611
 8806SOL    HW227318   2.642   5.275   2.515
 8807SOL     OW27319   5.347   7.022   6.912
 8807SOL    HW127320   5.374   0.053   6.992
 8807SOL    HW227321   5.413   0.015   6.838
 8808SOL     OW27322   5.727   2.456   6.849
 8808SOL    HW127323   5.702   2.514   6.772
 8808SOL    HW227324   5.654   2.389   6.866
 8809SOL     OW27325   4.275   5.674   3.812
 8809SOL    HW127326   4.241   5.610   3.881
 8809SOL    HW227327   4.354   5.634   3.765
 8810SOL     OW27328   4.783   0.835   5.833
 8810SOL    HW127329   4.789   0.766   5.906
 8810SOL    HW227330   4.800   0.925   5.873
 8811SOL     OW27331   2.791   1.529   3.813
 8811SOL    HW127332   2.737   1.446   3.825
 8811SOL    HW227333   2.875   1.523   3.867
 8812SOL     OW27334   2.064   0.240   0.891
 8812SOL    HW127335   2.068   0.228   0.990
 8812SOL    HW227336   2.087   0.335   0.869
 8813SOL     OW27337   1.295   4.902   1.994
 8813SOL    HW127338   1.241   4.970   1.945
 8813SOL    HW227339   1.266   4.899   2.090
 8814SOL     OW27340   5.746   6.763   1.113
 8814SOL    HW127341   5.694   6.840   1.151
 8814SOL    HW227342   5.831   6.796   1.073
 8815SOL     OW27343   6.661   6.700   0.481
 8815SOL    HW127344   6.640   6.700   0.579
 8815SOL    HW227345   6.713   6.617   0.459
 8816SOL     OW27346   1.362   0.113   0.236
 8816SOL    HW127347   1.396   0.123   0.329
 8816SOL    HW227348   1.348   0.203   0.196
 8817SOL     OW27349   0.974   5.908   4.671
 8817SOL    HW127350   0.943   5.828   4.620
 8817SOL    HW227351   1.052   5.949   4.624
 8818SOL     OW27352   0.390   3.876   4.747
 8818SOL    HW127353   0.462   3.877   4.817
 8818SOL    HW227354   0.300   3.874   4.792
 8819SOL     OW27355   5.319   5.091   4.861
 8819SOL    HW127356   5.334   5.181   4.901
 8819SOL    HW227357   5.406   5.044   4.849
 8820SOL     OW27358   1.796   0.771   5.052
 8820SOL    HW127359   1.708   0.790   5.096
 8820SOL    HW227360   1.870   0.815   5.103
 8821SOL     OW27361   3.180   6.165   0.033
 8821SOL    HW127362   3.167   6.138   6.961
 8821SOL    HW227363   3.126   6.248   0.052
 8822SOL     OW27364   0.624   0.014   4.905
 8822SOL    HW127365   0.642   6.939   4.919
 8822SOL    HW227366   0.710   0.061   4.886
 8823SOL     OW27367   2.390   0.715   1.209
 8823SOL    HW127368   2.440   0.631   1.187
 8823SOL    HW227369   2.453   0.791   1.217
 8824SOL     OW27370   0.710   3.104   0.778
 8824SOL    HW127371   0.760   3.018   0.772
 8824SOL    HW227372   0.759   3.175   0.726
 8825SOL     OW27373   2.172   0.541   2.724
 8825SOL    HW127374   2.169   0.442   2.718
 8825SOL    HW227375   2.126   0.581   2.645
 8826SOL     OW27376   6.515   3.520   1.060
 8826SOL    HW127377   6.580   3.591   1.088
 8826SOL    HW227378   6.466   3.487   1.141
 8827SOL     OW27379   3.720   1.479   3.075
 8827SOL    HW127380   3.706   1.527   2.989
 8827SOL    HW227381   3.818   1.477   3.096
 8828SOL     OW27382   4.712   5.638   5.648
 8828SOL    HW127383   4.802   5.663   5.610
 8828SOL    HW227384   4.644   5.641   5.575
 8829SOL     OW27385   5.988   2.635   0.633
 8829SOL    HW127386   5.904   2.606   0.680
 8829SOL    HW227387   6.000   2.579   0.550
 8830SOL     OW27388   1.206   1.818   2.525
 8830SOL    HW127389   1.267   1.890   2.490
 8830SOL    HW227390   1.256   1.731   2.529
 8831SOL     OW27391   4.785   1.761   4.096
 8831SOL    HW127392   4.694   1.797   4.115
 8831SOL    HW227393   4.804   1.683   4.156
 8832SOL     OW27394   0.011   5.366   3.266
 8832SOL    HW127395   6.944   5.351   3.307
 8832SOL    HW227396   7.022   5.404   3.175
 8833SOL     OW27397   2.273   5.665   5.481
 8833SOL    HW127398   2.275   5.572   5.517
 8833SOL    HW227399   2.324   5.668   5.395
 8834SOL     OW27400   5.064   3.317   4.612
 8834SOL    HW127401   5.032   3.381   4.542
 8834SOL    HW227402   4.998   3.314   4.687
 8835SOL     OW27403   5.300   1.087   6.080
 8835SOL    HW127404   5.273   1.175   6.041
 8835SOL    HW227405   5.222   1.047   6.129
 8836SOL     OW27406   4.849   2.873   6.666
 8836SOL    HW127407   4.917   2.877   6.593
 8836SOL    HW227408   4.829   2.778   6.688
 8837SOL     OW27409   0.152   5.757   3.310
 8837SOL    HW127410   0.172   5.680   3.250
 8837SOL    HW227411   0.067   5.740   3.360
 8838SOL     OW27412   2.644   5.302   2.906
 8838SOL    HW127413   2.699   5.347   2.836
 8838SOL    HW227414   2.547   5.311   2.883
 8839SOL     OW27415   5.181   5.091   3.611
 8839SOL    HW127416   5.100   5.098   3.669
 8839SOL    HW227417   5.188   4.998   3.575
 8840SOL     OW27418   6.681   1.987   2.443
 8840SOL    HW127419   6.741   2.032   2.508
 8840SOL    HW227420   6.586   2.001   2.471
 8841SOL     OW27421   0.475   1.082   5.217
 8841SOL    HW127422   0.424   1.082   5.303
 8841SOL    HW227423   0.569   1.110   5.233
 8842SOL     OW27424   3.434   3.180   2.239
 8842SOL    HW127425   3.457   3.228   2.324
 8842SOL    HW227426   3.411   3.085   2.261
 8843SOL     OW27427   1.677   3.162   5.973
 8843SOL    HW127428   1.688   3.259   5.992
 8843SOL    HW227429   1.733   3.108   6.036
 8844SOL     OW27430   6.871   2.542   6.749
 8844SOL    HW127431   6.927   2.499   6.819
 8844SOL    HW227432   6.775   2.537   6.776
 8845SOL     OW27433   3.439   3.658   6.989
 8845SOL    HW127434   3.479   3.712   0.041
 8845SOL    HW227435   3.346   3.689   6.973
 8846SOL     OW27436   3.264   5.799   3.739
 8846SOL    HW127437   3.338   5.864   3.719
 8846SOL    HW227438   3.176   5.842   3.720
 8847SOL     OW27439   2.886   1.142   3.731
 8847SOL    HW127440   2.787   1.139   3.711
 8847SOL    HW227441   2.934   1.180   3.652
 8848SOL     OW27442   2.014   0.819   1.264
 8848SOL    HW127443   1.966   0.879   1.328
 8848SOL    HW227444   2.068   0.752   1.315
 8849SOL     OW27445   3.176   6.423   3.668
 8849SOL    HW127446   3.207   6.510   3.629
 8849SOL    HW227447   3.178   6.429   3.768
 8850SOL     OW27448   1.099   2.257   0.043
 8850SOL    HW127449   1.064   2.350   0.051
 8850SOL    HW227450   1.057   2.213   6.986
 8851SOL     OW27451   1.440   4.100   3.709
 8851SOL    HW127452   1.355   4.119   3.757
 8851SOL    HW227453   1.515   4.092   3.775
 8852SOL     OW27454   0.036   2.748   5.358
 8852SOL    HW127455   0.077   2.713   5.442
 8852SOL    HW227456   0.096   2.817   5.317
 8853SOL     OW27457   3.259   1.094   1.249
 8853SOL    HW127458   3.254   1.070   1.347
 8853SOL    HW227459   3.270   1.010   1.196
 8854SOL     OW27460   2.595   2.285   5.900
 8854SOL    HW127461   2.612   2.314   5.805
 8854SOL    HW227462   2.663   2.216   5.925
 8855SOL     OW27463   6.665   5.097   1.421
 8855SOL    HW127464   6.614   5.012   1.434
 8855SOL    HW227465   6.752   5.078   1.377
 8856SOL     OW27466   0.782   6.299   6.157
 8856SOL    HW127467   0.815   6.260   6.243
 8856SOL    HW227468   0.692   6.341   6.171
 8857SOL     OW27469   6.840   2.069   4.523
 8857SOL    HW127470   6.775   2.143   4.536
 8857SOL    HW227471   6.932   2.102   4.543
 8858SOL     OW27472   0.011   4.112   4.666
 8858SOL    HW127473   6.962   4.135   4.600
 8858SOL    HW227474   0.067   4.193   4.683
 8859SOL     OW27475   1.412   1.582   3.518
 8859SOL    HW127476   1.323   1.592   3.475
 8859SOL    HW227477   1.457   1.671   3.522
 8860SOL     OW27478   6.768   2.197   1.848
 8860SOL    HW127479   6.868   2.201   1.844
 8860SOL    HW227480   6.737   2.227   1.938
 8861SOL     OW27481   3.981   1.122   5.972
 8861SOL    HW127482   4.022   1.056   5.910
 8861SOL    HW227483   4.046   1.196   5.989
 8862SOL     OW27484   5.546   6.838   3.779
 8862SOL    HW127485   5.457   6.866   3.742
 8862SOL    HW227486   5.615   6.906   3.756
 8863SOL     OW27487   2.779   4.696   3.589
 8863SOL    HW127488   2.731   4.735   3.510
 8863SOL    HW227489   2.712   4.655   3.651
 8864SOL     OW27490   3.013   5.072   6.371
 8864SOL    HW127491   2.979   4.979   6.386
 8864SOL    HW227492   2.977   5.107   6.284
 8865SOL     OW27493   3.165   0.741   4.659
 8865SOL    HW127494   3.200   0.830   4.631
 8865SOL    HW227495   3.210   0.669   4.605
 8866SOL     OW27496   5.575   0.412   3.003
 8866SOL    HW127497   5.587   0.412   3.103
 8866SOL    HW227498   5.499   0.350   2.979
 8867SOL     OW27499   5.930   4.568   3.293
 8867SOL    HW127500   5.888   4.484   3.328
 8867SOL    HW227501   5.927   4.638   3.364
 8868SOL     OW27502   0.167   3.275   1.247
 8868SOL    HW127503   0.194   3.178   1.253
 8868SOL    HW227504   0.075   3.286   1.282
 8869SOL     OW27505   3.722   5.987   5.337
 8869SOL    HW127506   3.628   5.953   5.332
 8869SOL    HW227507   3.725   6.067   5.397
 8870SOL     OW27508   2.716   6.670   1.574
 8870SOL    HW127509   2.768   6.731   1.515
 8870SOL    HW227510   2.776   6.596   1.605
 8871SOL     OW27511   1.773   0.787   4.023
 8871SOL    HW127512   1.699   0.844   3.986
 8871SOL    HW227513   1.782   0.705   3.968
 8872SOL     OW27514   1.522   4.836   5.641
 8872SOL    HW127515   1.535   4.866   5.547
 8872SOL    HW227516   1.579   4.755   5.659
 8873SOL     OW27517   1.295   0.069   2.167
 8873SOL    HW127518   1.313   7.015   2.105
 8873SOL    HW227519   1.349   0.058   2.250
 8874SOL     OW27520   2.226   5.453   2.435
 8874SOL    HW127521   2.225   5.540   2.485
 8874SOL    HW227522   2.275   5.464   2.349
 8875SOL     OW27523   0.054   3.837   4.625
 8875SOL    HW127524   0.062   3.935   4.643
 8875SOL    HW227525   0.107   3.814   4.543
 8876SOL     OW27526   2.116   0.139   5.719
 8876SOL    HW127527   2.167   0.174   5.640
 8876SOL    HW227528   2.036   0.089   5.687
 8877SOL     OW27529   2.602   1.958   4.243
 8877SOL    HW127530   2.701   1.965   4.236
 8877SOL    HW227531   2.578   1.918   4.332
 8878SOL     OW27532   4.905   5.064   0.854
 8878SOL    HW127533   4.945   5.044   0.943
 8878SOL    HW227534   4.809   5.092   0.866
 8879SOL     OW27535   4.578   4.699   2.523
 8879SOL    HW127536   4.581   4.650   2.436
 8879SOL    HW227537   4.486   4.693   2.561
 8880SOL     OW27538   4.515   6.365   5.129
 8880SOL    HW127539   4.528   6.419   5.045
 8880SOL    HW227540   4.603   6.326   5.156
 8881SOL     OW27541   5.408   6.098   4.010
 8881SOL    HW127542   5.490   6.046   4.034
 8881SOL    HW227543   5.411   6.188   4.054
 8882SOL     OW27544   5.011   1.029   1.527
 8882SOL    HW127545   5.028   1.117   1.482
 8882SOL    HW227546   4.913   1.011   1.530
 8883SOL     OW27547   2.135   6.295   6.137
 8883SOL    HW127548   2.096   6.217   6.089
 8883SOL    HW227549   2.074   6.375   6.127
 8884SOL     OW27550   6.246   3.053   5.674
 8884SOL    HW127551   6.315   2.998   5.627
 8884SOL    HW227552   6.166   2.997   5.695
 8885SOL     OW27553   5.281   4.398   0.859
 8885SOL    HW127554   5.252   4.323   0.800
 8885SOL    HW227555   5.339   4.363   0.932
 8886SOL     OW27556   2.892   6.176   5.194
 8886SOL    HW127557   2.918   6.204   5.101
 8886SOL    HW227558   2.843   6.251   5.239
 8887SOL     OW27559   4.067   1.054   0.830
 8887SOL    HW127560   4.095   0.981   0.767
 8887SOL    HW227561   3.968   1.061   0.830
 8888SOL     OW27562   1.776   1.463   5.392
 8888SOL    HW127563   1.804   1.454   5.296
 8888SOL    HW227564   1.709   1.537   5.400
 8889SOL     OW27565   6.690   6.878   0.030
 8889SOL    HW127566   6.705   6.868   0.129
 8889SOL    HW227567   6.671   6.973   0.008
 8890SOL     OW27568   0.169   5.750   5.668
 8890SOL    HW127569   0.147   5.847   5.661
 8890SOL    HW227570   0.191   5.714   5.577
 8891SOL     OW27571   3.737   3.763   6.970
 8891SOL    HW127572   3.731   3.829   6.895
 8891SOL    HW227573   3.660   3.776   0.010
 8892SOL     OW27574   3.960   4.888   2.875
 8892SOL    HW127575   3.966   4.869   2.777
 8892SOL    HW227576   3.998   4.978   2.894
 8893SOL     OW27577   1.114   5.392   4.259
 8893SOL    HW127578   1.123   5.292   4.257
 8893SOL    HW227579   1.057   5.419   4.336
 8894SOL     OW27580   3.200   1.894   6.456
 8894SOL    HW127581   3.207   1.990   6.483
 8894SOL    HW227582   3.276   1.843   6.496
 8895SOL     OW27583   6.987   2.301   2.015
 8895SOL    HW127584   6.970   2.215   2.064
 8895SOL    HW227585   6.961   2.378   2.072
 8896SOL     OW27586   2.161   3.166   5.044
 8896SOL    HW127587   2.225   3.089   5.035
 8896SOL    HW227588   2.186   3.221   5.124
 8897SOL     OW27589   2.548   2.354   3.737
 8897SOL    HW127590   2.597   2.356   3.650
 8897SOL    HW227591   2.467   2.413   3.731
 8898SOL     OW27592   5.075   3.834   2.785
 8898SOL    HW127593   5.043   3.920   2.825
 8898SOL    HW227594   5.173   3.824   2.800
 8899SOL     OW27595   1.157   4.458   0.807
 8899SOL    HW127596   1.219   4.492   0.736
 8899SOL    HW227597   1.204   4.454   0.894
 8900SOL     OW27598   5.198   3.177   3.219
 8900SOL    HW127599   5.251   3.237   3.279
 8900SOL    HW227600   5.244   3.169   3.130
 8901SOL     OW27601   1.043   1.502   5.068
 8901SOL    HW127602   0.996   1.525   4.983
 8901SOL    HW227603   1.109   1.429   5.052
 8902SOL     OW27604   0.604   5.420   0.549
 8902SOL    HW127605   0.531   5.385   0.489
 8902SOL    HW227606   0.692   5.413   0.501
 8903SOL     OW27607   0.772   1.694   4.271
 8903SOL    HW127608   0.715   1.665   4.194
 8903SOL    HW227609   0.851   1.746   4.237
 8904SOL     OW27610   0.813   0.534   4.559
 8904SOL    HW127611   0.877   0.487   4.619
 8904SOL    HW227612   0.805   0.630   4.587
 8905SOL     OW27613   2.096   3.240   3.304
 8905SOL    HW127614   2.089   3.181   3.384
 8905SOL    HW227615   2.066   3.190   3.222
 8906SOL     OW27616   0.587   6.156   0.849
 8906SOL    HW127617   0.654   6.206   0.903
 8906SOL    HW227618   0.582   6.196   0.757
 8907SOL     OW27619   3.410   2.669   5.938
 8907SOL    HW127620   3.499   2.639   5.971
 8907SOL    HW227621   3.370   2.732   6.005
 8908SOL     OW27622   1.781   5.720   0.259
 8908SOL    HW127623   1.847   5.777   0.308
 8908SOL    HW227624   1.747   5.770   0.179
 8909SOL     OW27625   2.367   1.470   5.662
 8909SOL    HW127626   2.333   1.506   5.575
 8909SOL    HW227627   2.427   1.392   5.645
 8910SOL     OW27628   1.003   3.470   5.654
 8910SOL    HW127629   1.083   3.436   5.704
 8910SOL    HW227630   1.006   3.570   5.652
 8911SOL     OW27631   4.815   2.952   4.502
 8911SOL    HW127632   4.871   3.032   4.480
 8911SOL    HW227633   4.775   2.964   4.593
 8912SOL     OW27634   2.825   3.966   0.132
 8912SOL    HW127635   2.788   3.875   0.152
 8912SOL    HW227636   2.807   3.989   0.036
 8913SOL     OW27637   4.005   5.276   6.836
 8913SOL    HW127638   4.036   5.370   6.845
 8913SOL    HW227639   3.954   5.265   6.751
 8914SOL     OW27640   4.820   0.105   4.866
 8914SOL    HW127641   4.759   0.076   4.793
 8914SOL    HW227642   4.866   0.025   4.905
 8915SOL     OW27643   1.650   2.286   3.716
 8915SOL    HW127644   1.634   2.248   3.625
 8915SOL    HW227645   1.650   2.386   3.710
 8916SOL     OW27646   6.401   3.191   0.714
 8916SOL    HW127647   6.313   3.155   0.685
 8916SOL    HW227648   6.389   3.248   0.796
 8917SOL     OW27649   5.802   2.981   0.161
 8917SOL    HW127650   5.731   2.994   0.092
 8917SOL    HW227651   5.825   2.883   0.166
 8918SOL     OW27652   0.372   4.646   0.745
 8918SOL    HW127653   0.463   4.639   0.787
 8918SOL    HW227654   0.304   4.660   0.816
 8919SOL     OW27655   4.784   4.193   0.232
 8919SOL    HW127656   4.784   4.123   0.160
 8919SOL    HW227657   4.863   4.253   0.219
 8920SOL     OW27658   0.017   1.831   6.907
 8920SOL    HW127659   0.092   1.837   6.972
 8920SOL    HW227660   0.030   1.750   6.849
 8921SOL     OW27661   1.722   3.101   1.717
 8921SOL    HW127662   1.762   3.024   1.667
 8921SOL    HW227663   1.790   3.174   1.724
 8922SOL     OW27664   3.794   5.111   2.254
 8922SOL    HW127665   3.702   5.106   2.215
 8922SOL    HW227666   3.813   5.027   2.305
 8923SOL     OW27667   1.561   1.859   6.353
 8923SOL    HW127668   1.505   1.796   6.298
 8923SOL    HW227669   1.509   1.943   6.369
 8924SOL     OW27670   4.713   5.568   5.272
 8924SOL    HW127671   4.752   5.655   5.303
 8924SOL    HW227672   4.628   5.550   5.320
 8925SOL     OW27673   0.852   0.552   3.203
 8925SOL    HW127674   0.939   0.513   3.232
 8925SOL    HW227675   0.863   0.596   3.114
 8926SOL     OW27676   6.446   2.963   6.354
 8926SOL    HW127677   6.473   3.056   6.379
 8926SOL    HW227678   6.348   2.962   6.334
 8927SOL     OW27679   0.170   0.931   4.849
 8927SOL    HW127680   0.211   0.952   4.760
 8927SOL    HW227681   0.238   0.942   4.921
 8928SOL     OW27682   1.330   0.314   6.416
 8928SOL    HW127683   1.274   0.386   6.375
 8928SOL    HW227684   1.272   0.248   6.464
 8929SOL     OW27685   5.982   2.218   4.650
 8929SOL    HW127686   5.953   2.134   4.696
 8929SOL    HW227687   6.079   2.234   4.669
 8930SOL     OW27688   1.290   2.605   4.681
 8930SOL    HW127689   1.372   2.648   4.641
 8930SOL    HW227690   1.254   2.537   4.618
 8931SOL     OW27691   3.002   3.650   0.962
 8931SOL    HW127692   3.022   3.698   1.048
 8931SOL    HW227693   2.906   3.623   0.960
 8932SOL     OW27694   6.152   2.192   1.923
 8932SOL    HW127695   6.234   2.209   1.869
 8932SOL    HW227696   6.081   2.152   1.865
 8933SOL     OW27697   2.819   2.901   6.023
 8933SOL    HW127698   2.726   2.920   6.055
 8933SOL    HW227699   2.815   2.875   5.926
 8934SOL     OW27700   2.432   5.813   4.522
 8934SOL    HW127701   2.445   5.799   4.620
 8934SOL    HW227702   2.356   5.757   4.490
 8935SOL     OW27703   0.707   4.702   0.298
 8935SOL    HW127704   0.703   4.628   0.366
 8935SOL    HW227705   0.617   4.744   0.290
 8936SOL     OW27706   1.406   4.293   2.223
 8936SOL    HW127707   1.427   4.221   2.157
 8936SOL    HW227708   1.439   4.381   2.188
 8937SOL     OW27709   0.613   0.131   5.611
 8937SOL    HW127710   0.587   0.035   5.609
 8937SOL    HW227711   0.544   0.183   5.661
 8938SOL     OW27712   0.813   6.516   0.652
 8938SOL    HW127713   0.887   6.583   0.664
 8938SOL    HW227714   0.853   6.424   0.647
 8939SOL     OW27715   5.038   3.118   4.396
 8939SOL    HW127716   5.001   3.156   4.312
 8939SOL    HW227717   5.058   3.191   4.461
 8940SOL     OW27718   0.329   1.430   2.350
 8940SOL    HW127719   0.384   1.514   2.356
 8940SOL    HW227720   0.255   1.444   2.285
 8941SOL     OW27721   6.283   2.582   5.999
 8941SOL    HW127722   6.219   2.659   6.006
 8941SOL    HW227723   6.277   2.542   5.908
 8942SOL     OW27724   6.639   4.771   4.876
 8942SOL    HW127725   6.603   4.681   4.854
 8942SOL    HW227726   6.563   4.834   4.894
 8943SOL     OW27727   3.475   5.274   6.124
 8943SOL    HW127728   3.455   5.211   6.199
 8943SOL    HW227729   3.466   5.226   6.037
 8944SOL     OW27730   5.414   4.753   5.382
 8944SOL    HW127731   5.393   4.850   5.396
 8944SOL    HW227732   5.440   4.737   5.287
 8945SOL     OW27733   1.182   0.687   2.866
 8945SOL    HW127734   1.225   0.759   2.811
 8945SOL    HW227735   1.246   0.611   2.877
 8946SOL     OW27736   3.272   1.453   5.316
 8946SOL    HW127737   3.307   1.426   5.405
 8946SOL    HW227738   3.306   1.390   5.246
 8947SOL     OW27739   2.271   3.567   5.576
 8947SOL    HW127740   2.227   3.487   5.617
 8947SOL    HW227741   2.317   3.540   5.491
 8948SOL     OW27742   6.439   6.363   4.671
 8948SOL    HW127743   6.521   6.363   4.614
 8948SOL    HW227744   6.461   6.328   4.762
 8949SOL     OW27745   2.626   6.855   0.866
 8949SOL    HW127746   2.630   6.756   0.856
 8949SOL    HW227747   2.572   6.879   0.946
 8950SOL     OW27748   4.565   4.577   5.626
 8950SOL    HW127749   4.641   4.558   5.564
 8950SOL    HW227750   4.599   4.579   5.721
 8951SOL     OW27751   1.290   2.404   5.455
 8951SOL    HW127752   1.263   2.459   5.376
 8951SOL    HW227753   1.208   2.374   5.505
 8952SOL     OW27754   1.549   6.887   2.721
 8952SOL    HW127755   1.626   6.922   2.774
 8952SOL    HW227756   1.473   6.952   2.726
 8953SOL     OW27757   1.383   4.234   6.400
 8953SOL    HW127758   1.409   4.172   6.474
 8953SOL    HW227759   1.313   4.297   6.432
 8954SOL     OW27760   0.810   0.409   4.922
 8954SOL    HW127761   0.710   0.409   4.913
 8954SOL    HW227762   0.840   0.323   4.963
 8955SOL     OW27763   0.012   5.252   2.607
 8955SOL    HW127764   7.020   5.316   2.531
 8955SOL    HW227765   0.110   5.250   2.629
 8956SOL     OW27766   1.207   1.209   6.510
 8956SOL    HW127767   1.283   1.266   6.477
 8956SOL    HW227768   1.225   1.180   6.604
 8957SOL     OW27769   2.859   4.461   1.518
 8957SOL    HW127770   2.762   4.484   1.511
 8957SOL    HW227771   2.897   4.503   1.601
 8958SOL     OW27772   0.510   1.307   4.961
 8958SOL    HW127773   0.503   1.208   4.971
 8958SOL    HW227774   0.429   1.341   4.912
 8959SOL     OW27775   1.295   4.410   1.614
 8959SOL    HW127776   1.341   4.322   1.601
 8959SOL    HW227777   1.363   4.480   1.636
 8960SOL     OW27778   4.735   4.609   3.136
 8960SOL    HW127779   4.726   4.522   3.087
 8960SOL    HW227780   4.789   4.672   3.080
 8961SOL     OW27781   2.522   1.117   4.645
 8961SOL    HW127782   2.566   1.133   4.733
 8961SOL    HW227783   2.422   1.117   4.656
 8962SOL     OW27784   5.823   6.099   2.107
 8962SOL    HW127785   5.860   6.191   2.097
 8962SOL    HW227786   5.759   6.097   2.184
 8963SOL     OW27787   4.154   6.013   4.322
 8963SOL    HW127788   4.227   5.971   4.376
 8963SOL    HW227789   4.194   6.065   4.247
 8964SOL     OW27790   4.941   3.121   3.162
 8964SOL    HW127791   5.028   3.158   3.194
 8964SOL    HW227792   4.925   3.149   3.068
 8965SOL     OW27793   2.406   5.014   0.685
 8965SOL    HW127794   2.447   5.105   0.678
 8965SOL    HW227795   2.348   5.011   0.766
 8966SOL     OW27796   6.773   4.137   6.852
 8966SOL    HW127797   6.675   4.128   6.831
 8966SOL    HW227798   6.817   4.192   6.781
 8967SOL     OW27799   4.013   0.003   1.702
 8967SOL    HW127800   4.105   0.041   1.714
 8967SOL    HW227801   3.960   0.064   1.644
 8968SOL     OW27802   4.990   4.992   3.264
 8968SOL    HW127803   5.054   5.056   3.221
 8968SOL    HW227804   4.901   4.999   3.219
 8969SOL     OW27805   6.892   1.371   4.522
 8969SOL    HW127806   6.913   1.467   4.507
 8969SOL    HW227807   6.976   1.317   4.509
 8970SOL     OW27808   2.242   3.268   0.695
 8970SOL    HW127809   2.165   3.204   0.693
 8970SOL    HW227810   2.260   3.302   0.603
 8971SOL     OW27811   5.176   5.465   1.746
 8971SOL    HW127812   5.214   5.415   1.824
 8971SOL    HW227813   5.078   5.447   1.739
 8972SOL     OW27814   5.454   4.498   6.187
 8972SOL    HW127815   5.455   4.455   6.096
 8972SOL    HW227816   5.374   4.466   6.238
 8973SOL     OW27817   0.933   3.029   2.505
 8973SOL    HW127818   1.004   3.091   2.473
 8973SOL    HW227819   0.910   2.964   2.433
 8974SOL     OW27820   1.141   4.327   5.537
 8974SOL    HW127821   1.125   4.236   5.499
 8974SOL    HW227822   1.184   4.386   5.469
 8975SOL     OW27823   1.675   7.014   5.842
 8975SOL    HW127824   1.715   6.946   5.903
 8975SOL    HW227825   1.736   0.071   5.836
 8976SOL     OW27826   0.052   4.862   5.061
 8976SOL    HW127827   0.147   4.872   5.091
 8976SOL    HW227828   0.009   4.787   5.112
 8977SOL     OW27829   5.820   2.476   0.128
 8977SOL    HW127830   5.785   2.402   0.185
 8977SOL    HW227831   5.835   2.443   0.035
 8978SOL     OW27832   5.981   0.337   4.935
 8978SOL    HW127833   5.890   0.362   4.969
 8978SOL    HW227834   5.974   0.253   4.881
 8979SOL     OW27835   1.232   3.764   4.361
 8979SOL    HW127836   1.292   3.742   4.438
 8979SOL    HW227837   1.265   3.719   4.279
 8980SOL     OW27838   2.782   2.850   5.756
 8980SOL    HW127839   2.726   2.929   5.732
 8980SOL    HW227840   2.838   2.824   5.677
 8981SOL     OW27841   4.439   1.967   5.666
 8981SOL    HW127842   4.438   1.873   5.701
 8981SOL    HW227843   4.464   2.030   5.740
 8982SOL     OW27844   0.951   2.268   1.280
 8982SOL    HW127845   0.918   2.362   1.290
 8982SOL    HW227846   0.877   2.210   1.245
 8983SOL     OW27847   1.733   6.125   0.056
 8983SOL    HW127848   1.796   6.145   0.131
 8983SOL    HW227849   1.783   6.126   6.992
 8984SOL     OW27850   0.173   0.395   4.512
 8984SOL    HW127851   0.228   0.438   4.441
 8984SOL    HW227852   0.076   0.407   4.491
 8985SOL     OW27853   2.640   2.693   0.698
 8985SOL    HW127854   2.731   2.654   0.686
 8985SOL    HW227855   2.624   2.711   0.796
 8986SOL     OW27856   4.919   5.221   2.463
 8986SOL    HW127857   5.010   5.246   2.430
 8986SOL    HW227858   4.875   5.301   2.503
 8987SOL     OW27859   4.535   6.819   1.385
 8987SOL    HW127860   4.516   6.886   1.457
 8987SOL    HW227861   4.633   6.801   1.382
 8988SOL     OW27862   1.398   3.721   5.674
 8988SOL    HW127863   1.450   3.763   5.599
 8988SOL    HW227864   1.408   3.775   5.757
 8989SOL     OW27865   5.091   4.031   1.280
 8989SOL    HW127866   5.046   4.016   1.191
 8989SOL    HW227867   5.190   4.023   1.269
 8990SOL     OW27868   1.996   6.074   3.318
 8990SOL    HW127869   1.934   6.050   3.243
 8990SOL    HW227870   2.089   6.047   3.294
 8991SOL     OW27871   1.216   1.850   6.552
 8991SOL    HW127872   1.273   1.815   6.479
 8991SOL    HW227873   1.178   1.774   6.605
 8992SOL     OW27874   5.554   1.332   0.122
 8992SOL    HW127875   5.474   1.282   0.154
 8992SOL    HW227876   5.614   1.270   0.071
 8993SOL     OW27877   5.012   2.354   2.568
 8993SOL    HW127878   4.918   2.321   2.557
 8993SOL    HW227879   5.011   2.444   2.612
 8994SOL     OW27880   1.022   4.609   4.634
 8994SOL    HW127881   1.105   4.617   4.579
 8994SOL    HW227882   0.959   4.545   4.590
 8995SOL     OW27883   1.045   3.128   0.114
 8995SOL    HW127884   0.972   3.189   0.084
 8995SOL    HW227885   1.126   3.181   0.137
 8996SOL     OW27886   5.984   5.348   0.408
 8996SOL    HW127887   5.986   5.400   0.493
 8996SOL    HW227888   5.895   5.360   0.364
 8997SOL     OW27889   4.847   1.175   5.751
 8997SOL    HW127890   4.844   1.152   5.848
 8997SOL    HW227891   4.757   1.156   5.710
 8998SOL     OW27892   6.313   3.831   4.200
 8998SOL    HW127893   6.367   3.749   4.218
 8998SOL    HW227894   6.216   3.810   4.214
 8999SOL     OW27895   4.738   6.145   6.779
 8999SOL    HW127896   4.715   6.236   6.813
 8999SOL    HW227897   4.835   6.127   6.794
 9000SOL     OW27898   1.633   4.227   0.953
 9000SOL    HW127899   1.726   4.212   0.920
 9000SOL    HW227900   1.606   4.153   1.015
 9001SOL     OW27901   1.444   5.679   2.442
 9001SOL    HW127902   1.541   5.697   2.455
 9001SOL    HW227903   1.423   5.586   2.473
 9002SOL     OW27904   0.377   4.874   5.011
 9002SOL    HW127905   0.350   4.791   4.962
 9002SOL    HW227906   0.469   4.900   4.983
 9003SOL     OW27907   5.090   3.245   1.713
 9003SOL    HW127908   5.164   3.204   1.767
 9003SOL    HW227909   5.046   3.174   1.658
 9004SOL     OW27910   3.818   6.652   1.268
 9004SOL    HW127911   3.838   6.750   1.265
 9004SOL    HW227912   3.722   6.637   1.245
 9005SOL     OW27913   5.496   2.659   4.154
 9005SOL    HW127914   5.421   2.620   4.207
 9005SOL    HW227915   5.582   2.614   4.178
 9006SOL     OW27916   2.593   6.437   1.157
 9006SOL    HW127917   2.533   6.479   1.090
 9006SOL    HW227918   2.552   6.351   1.189
 9007SOL     OW27919   3.477   0.867   4.096
 9007SOL    HW127920   3.496   0.909   4.008
 9007SOL    HW227921   3.391   0.815   4.091
 9008SOL     OW27922   1.266   5.885   3.662
 9008SOL    HW127923   1.221   5.960   3.613
 9008SOL    HW227924   1.200   5.811   3.677
 9009SOL     OW27925   3.254   6.939   0.531
 9009SOL    HW127926   3.213   6.942   0.440
 9009SOL    HW227927   3.208   7.006   0.590
 9010SOL     OW27928   1.427   6.454   3.656
 9010SOL    HW127929   1.415   6.546   3.692
 9010SOL    HW227930   1.486   6.457   3.575
 9011SOL     OW27931   5.806   2.080   2.149
 9011SOL    HW127932   5.708   2.080   2.172
 9011SOL    HW227933   5.820   2.141   2.070
 9012SOL     OW27934   1.837   3.912   0.948
 9012SOL    HW127935   1.758   3.872   0.900
 9012SOL    HW227936   1.811   3.931   1.043
 9013SOL     OW27937   6.881   6.719   5.062
 9013SOL    HW127938   6.868   6.726   4.963
 9013SOL    HW227939   6.978   6.709   5.083
 9014SOL     OW27940   6.243   1.771   7.022
 9014SOL    HW127941   6.257   1.673   7.009
 9014SOL    HW227942   6.146   1.790   0.014
 9015SOL     OW27943   4.685   1.362   2.079
 9015SOL    HW127944   4.678   1.281   2.021
 9015SOL    HW227945   4.772   1.408   2.062
 9016SOL     OW27946   0.483   6.746   6.555
 9016SOL    HW127947   0.490   6.820   6.488
 9016SOL    HW227948   0.574   6.727   6.592
 9017SOL     OW27949   4.231   1.881   3.280
 9017SOL    HW127950   4.290   1.960   3.263
 9017SOL    HW227951   4.260   1.836   3.365
 9018SOL     OW27952   3.832   2.162   6.999
 9018SOL    HW127953   3.863   2.245   0.024
 9018SOL    HW227954   3.850   2.171   6.901
 9019SOL     OW27955   1.289   6.650   2.237
 9019SOL    HW127956   1.304   6.584   2.310
 9019SOL    HW227957   1.242   6.606   2.161
 9020SOL     OW27958   0.201   3.755   1.634
 9020SOL    HW127959   0.103   3.774   1.630
 9020SOL    HW227960   0.250   3.836   1.666
 9021SOL     OW27961   6.529   0.281   3.296
 9021SOL    HW127962   6.595   0.249   3.364
 9021SOL    HW227963   6.439   0.289   3.338
 9022SOL     OW27964   3.229   1.906   6.863
 9022SOL    HW127965   3.289   1.913   6.943
 9022SOL    HW227966   3.283   1.883   6.783
 9023SOL     OW27967   3.428   3.125   2.563
 9023SOL    HW127968   3.488   3.049   2.588
 9023SOL    HW227969   3.481   3.209   2.556
 9024SOL     OW27970   0.946   4.589   4.904
 9024SOL    HW127971   0.960   4.598   4.805
 9024SOL    HW227972   1.030   4.555   4.946
 9025SOL     OW27973   0.775   5.114   0.289
 9025SOL    HW127974   0.777   5.203   0.243
 9025SOL    HW227975   0.720   5.050   0.236
 9026SOL     OW27976   4.045   2.668   0.878
 9026SOL    HW127977   4.072   2.673   0.782
 9026SOL    HW227978   3.958   2.620   0.886
 9027SOL     OW27979   1.230   2.374   3.687
 9027SOL    HW127980   1.242   2.374   3.588
 9027SOL    HW227981   1.250   2.466   3.723
 9028SOL     OW27982   2.805   3.724   5.406
 9028SOL    HW127983   2.901   3.740   5.385
 9028SOL    HW227984   2.780   3.776   5.488
 9029SOL     OW27985   3.992   6.251   5.038
 9029SOL    HW127986   3.980   6.261   5.137
 9029SOL    HW227987   4.076   6.298   5.010
 9030SOL     OW27988   2.551   1.806   3.472
 9030SOL    HW127989   2.623   1.752   3.515
 9030SOL    HW227990   2.591   1.888   3.431
 9031SOL     OW27991   4.189   5.606   4.417
 9031SOL    HW127992   4.141   5.665   4.483
 9031SOL    HW227993   4.123   5.569   4.352
 9032SOL     OW27994   3.843   3.654   0.581
 9032SOL    HW127995   3.779   3.586   0.617
 9032SOL    HW227996   3.935   3.632   0.611
 9033SOL     OW27997   0.433   3.887   3.297
 9033SOL    HW127998   0.399   3.967   3.346
 9033SOL    HW227999   0.399   3.803   3.341
 9034SOL     OW28000   3.114   0.070   5.413
 9034SOL    HW128001   3.195   0.037   5.462
 9034SOL    HW228002   3.139   0.148   5.355
 9035SOL     OW28003   1.810   4.958   6.516
 9035SOL    HW128004   1.858   4.986   6.434
 9035SOL    HW228005   1.712   4.978   6.506
 9036SOL     OW28006   1.335   1.565   5.542
 9036SOL    HW128007   1.331   1.657   5.502
 9036SOL    HW228008   1.354   1.498   5.471
 9037SOL     OW28009   1.481   3.944   4.917
 9037SOL    HW128010   1.550   3.895   4.972
 9037SOL    HW228011   1.488   3.915   4.821
 9038SOL     OW28012   4.082   0.099   6.104
 9038SOL    HW128013   4.022   0.162   6.153
 9038SOL    HW228014   4.175   0.134   6.105
 9039SOL     OW28015   2.870   5.893   5.199
 9039SOL    HW128016   2.905   5.982   5.170
 9039SOL    HW228017   2.895   5.878   5.295
 9040SOL     OW28018   3.427   1.775   2.852
 9040SOL    HW128019   3.386   1.811   2.768
 9040SOL    HW228020   3.479   1.848   2.897
 9041SOL     OW28021   1.165   2.103   1.627
 9041SOL    HW128022   1.136   2.010   1.649
 9041SOL    HW228023   1.163   2.116   1.528
 9042SOL     OW28024   3.624   0.582   4.457
 9042SOL    HW128025   3.655   0.487   4.449
 9042SOL    HW228026   3.620   0.608   4.554
 9043SOL     OW28027   1.482   0.930   0.131
 9043SOL    HW128028   1.452   0.952   0.224
 9043SOL    HW228029   1.552   0.859   0.134
 9044SOL     OW28030   6.188   0.562   0.469
 9044SOL    HW128031   6.154   0.566   0.375
 9044SOL    HW228032   6.280   0.601   0.473
 9045SOL     OW28033   2.446   1.214   2.483
 9045SOL    HW128034   2.352   1.207   2.448
 9045SOL    HW228035   2.453   1.294   2.543
 9046SOL     OW28036   3.347   3.642   3.074
 9046SOL    HW128037   3.263   3.645   3.127
 9046SOL    HW228038   3.410   3.574   3.114
 9047SOL     OW28039   1.808   3.485   5.878
 9047SOL    HW128040   1.818   3.409   5.814
 9047SOL    HW228041   1.867   3.470   5.957
 9048SOL     OW28042   5.172   3.248   6.258
 9048SOL    HW128043   5.252   3.233   6.200
 9048SOL    HW228044   5.107   3.307   6.211
 9049SOL     OW28045   3.367   0.080   5.849
 9049SOL    HW128046   3.427   0.144   5.896
 9049SOL    HW228047   3.310   0.033   5.916
 9050SOL     OW28048   0.181   3.243   0.877
 9050SOL    HW128049   0.235   3.171   0.920
 9050SOL    HW228050   0.239   3.321   0.857
 9051SOL     OW28051   3.863   6.796   0.805
 9051SOL    HW128052   3.806   6.714   0.809
 9051SOL    HW228053   3.919   6.794   0.723
 9052SOL     OW28054   2.675   2.347   4.325
 9052SOL    HW128055   2.601   2.279   4.323
 9052SOL    HW228056   2.667   2.407   4.246
 9053SOL     OW28057   2.100   0.782   2.562
 9053SOL    HW128058   2.091   0.876   2.593
 9053SOL    HW228059   2.025   0.727   2.601
 9054SOL     OW28060   2.725   5.899   3.279
 9054SOL    HW128061   2.811   5.916   3.328
 9054SOL    HW228062   2.733   5.813   3.228
 9055SOL     OW28063   5.843   2.664   4.323
 9055SOL    HW128064   5.803   2.655   4.414
 9055SOL    HW228065   5.920   2.601   4.314
 9056SOL     OW28066   0.446   1.707   2.395
 9056SOL    HW128067   0.544   1.721   2.378
 9056SOL    HW228068   0.411   1.782   2.451
 9057SOL     OW28069   5.041   4.149   6.651
 9057SOL    HW128070   5.097   4.227   6.680
 9057SOL    HW228071   5.029   4.152   6.552
 9058SOL     OW28072   1.724   1.534   1.760
 9058SOL    HW128073   1.820   1.556   1.742
 9058SOL    HW228074   1.698   1.569   1.850
 9059SOL     OW28075   1.257   2.176   4.313
 9059SOL    HW128076   1.213   2.265   4.310
 9059SOL    HW228077   1.190   2.106   4.336
 9060SOL     OW28078   6.014   2.440   3.597
 9060SOL    HW128079   5.972   2.452   3.686
 9060SOL    HW228080   6.061   2.523   3.570
 9061SOL     OW28081   1.994   5.300   2.058
 9061SOL    HW128082   1.902   5.267   2.035
 9061SOL    HW228083   2.016   5.272   2.151
 9062SOL     OW28084   1.585   6.027   1.861
 9062SOL    HW128085   1.675   6.010   1.820
 9062SOL    HW228086   1.590   6.109   1.917
 9063SOL     OW28087   2.925   0.080   3.107
 9063SOL    HW128088   3.011   0.029   3.110
 9063SOL    HW228089   2.932   0.153   3.039
 9064SOL     OW28090   6.523   2.568   5.662
 9064SOL    HW128091   6.606   2.619   5.681
 9064SOL    HW228092   6.540   2.503   5.588
 9065SOL     OW28093   3.502   0.272   5.457
 9065SOL    HW128094   3.504   0.360   5.410
 9065SOL    HW228095   3.529   0.284   5.553
 9066SOL     OW28096   4.464   6.266   0.599
 9066SOL    HW128097   4.451   6.187   0.658
 9066SOL    HW228098   4.483   6.236   0.505
 9067SOL     OW28099   0.366   0.472   4.311
 9067SOL    HW128100   0.287   0.489   4.253
 9067SOL    HW228101   0.440   0.535   4.287
 9068SOL     OW28102   2.521   6.829   4.740
 9068SOL    HW128103   2.618   6.851   4.728
 9068SOL    HW228104   2.471   6.848   4.656
 9069SOL     OW28105   1.460   3.420   1.420
 9069SOL    HW128106   1.382   3.444   1.362
 9069SOL    HW228107   1.443   3.451   1.514
 9070SOL     OW28108   1.442   3.503   4.802
 9070SOL    HW128109   1.350   3.515   4.837
 9070SOL    HW228110   1.469   3.407   4.809
 9071SOL     OW28111   5.997   6.814   1.404
 9071SOL    HW128112   5.922   6.755   1.375
 9071SOL    HW228113   5.961   6.903   1.430
 9072SOL     OW28114   6.895   1.966   1.613
 9072SOL    HW128115   6.802   1.964   1.651
 9072SOL    HW228116   6.896   1.921   1.524
 9073SOL     OW28117   3.132   6.902   2.709
 9073SOL    HW128118   3.191   6.982   2.697
 9073SOL    HW228119   3.147   6.839   2.633
 9074SOL     OW28120   1.819   1.868   2.252
 9074SOL    HW128121   1.749   1.899   2.316
 9074SOL    HW228122   1.881   1.944   2.230
 9075SOL     OW28123   0.759   1.427   1.950
 9075SOL    HW128124   0.699   1.349   1.931
 9075SOL    HW228125   0.825   1.437   1.875
 9076SOL     OW28126   6.704   2.432   5.859
 9076SOL    HW128127   6.710   2.512   5.918
 9076SOL    HW228128   6.632   2.447   5.790
 9077SOL     OW28129   4.303   0.417   0.157
 9077SOL    HW128130   4.307   0.405   0.058
 9077SOL    HW228131   4.215   0.384   0.191
 9078SOL     OW28132   4.099   3.452   6.612
 9078SOL    HW128133   4.128   3.407   6.697
 9078SOL    HW228134   4.170   3.440   6.543
 9079SOL     OW28135   3.312   0.076   4.279
 9079SOL    HW128136   3.354   0.151   4.227
 9079SOL    HW228137   3.384   0.020   4.320
 9080SOL     OW28138   4.467   2.823   6.631
 9080SOL    HW128139   4.413   2.778   6.703
 9080SOL    HW228140   4.473   2.762   6.552
 9081SOL     OW28141   3.839   0.252   2.288
 9081SOL    HW128142   3.904   0.327   2.296
 9081SOL    HW228143   3.887   0.165   2.303
 9082SOL     OW28144   2.356   0.563   5.149
 9082SOL    HW128145   2.384   0.519   5.234
 9082SOL    HW228146   2.428   0.626   5.119
 9083SOL     OW28147   3.137   5.341   6.271
 9083SOL    HW128148   3.213   5.314   6.331
 9083SOL    HW228149   3.140   5.287   6.187
 9084SOL     OW28150   3.461   4.153   4.013
 9084SOL    HW128151   3.435   4.155   3.916
 9084SOL    HW228152   3.387   4.110   4.066
 9085SOL     OW28153   2.189   0.457   1.820
 9085SOL    HW128154   2.154   0.492   1.733
 9085SOL    HW228155   2.112   0.440   1.882
 9086SOL     OW28156   0.889   4.596   0.130
 9086SOL    HW128157   0.836   4.638   0.056
 9086SOL    HW228158   0.826   4.566   0.202
 9087SOL     OW28159   4.336   2.325   1.381
 9087SOL    HW128160   4.357   2.228   1.365
 9087SOL    HW228161   4.244   2.333   1.419
 9088SOL     OW28162   6.968   0.002   1.081
 9088SOL    HW128163   0.020   6.958   1.076
 9088SOL    HW228164   6.886   6.980   1.118
 9089SOL     OW28165   5.308   5.964   5.899
 9089SOL    HW128166   5.261   5.923   5.821
 9089SOL    HW228167   5.324   5.894   5.969
 9090SOL     OW28168   6.698   1.194   4.306
 9090SOL    HW128169   6.785   1.208   4.259
 9090SOL    HW228170   6.707   1.118   4.370
 9091SOL     OW28171   2.867   4.375   0.188
 9091SOL    HW128172   2.891   4.461   0.233
 9091SOL    HW228173   2.951   4.328   0.159
 9092SOL     OW28174   6.460   1.019   6.699
 9092SOL    HW128175   6.407   0.934   6.702
 9092SOL    HW228176   6.399   1.096   6.714
 9093SOL     OW28177   0.811   5.740   5.825
 9093SOL    HW128178   0.770   5.662   5.872
 9093SOL    HW228179   0.762   5.756   5.739
 9094SOL     OW28180   6.397   4.749   2.808
 9094SOL    HW128181   6.325   4.819   2.817
 9094SOL    HW228182   6.433   4.727   2.899
 9095SOL     OW28183   4.835   4.867   6.096
 9095SOL    HW128184   4.856   4.965   6.095
 9095SOL    HW228185   4.736   4.854   6.098
 9096SOL     OW28186   6.474   5.310   2.495
 9096SOL    HW128187   6.446   5.375   2.424
 9096SOL    HW228188   6.450   5.218   2.466
 9097SOL     OW28189   1.802   1.583   0.661
 9097SOL    HW128190   1.728   1.559   0.598
 9097SOL    HW228191   1.855   1.659   0.624
 9098SOL     OW28192   3.134   2.172   4.812
 9098SOL    HW128193   3.082   2.248   4.772
 9098SOL    HW228194   3.157   2.194   4.907
 9099SOL     OW28195   3.500   3.271   6.164
 9099SOL    HW128196   3.507   3.226   6.075
 9099SOL    HW228197   3.585   3.319   6.184
 9100SOL     OW28198   0.255   3.366   3.482
 9100SOL    HW128199   0.166   3.340   3.519
 9100SOL    HW228200   0.245   3.449   3.427
 9101SOL     OW28201   2.666   2.479   1.833
 9101SOL    HW128202   2.756   2.446   1.858
 9101SOL    HW228203   2.669   2.578   1.819
 9102SOL     OW28204   3.666   6.550   2.017
 9102SOL    HW128205   3.673   6.564   1.918
 9102SOL    HW228206   3.629   6.633   2.060
 9103SOL     OW28207   5.550   1.950   6.407
 9103SOL    HW128208   5.510   1.967   6.497
 9103SOL    HW228209   5.478   1.932   6.340
 9104SOL     OW28210   6.923   6.783   1.415
 9104SOL    HW128211   6.980   6.856   1.453
 9104SOL    HW228212   6.972   6.738   1.340
 9105SOL     OW28213   0.452   0.799   5.988
 9105SOL    HW128214   0.543   0.786   6.026
 9105SOL    HW228215   0.459   0.844   5.899
 9106SOL     OW28216   5.985   3.529   1.174
 9106SOL    HW128217   6.045   3.462   1.130
 9106SOL    HW228218   5.991   3.616   1.125
 9107SOL     OW28219   2.206   0.770   6.319
 9107SOL    HW128220   2.249   0.766   6.409
 9107SOL    HW228221   2.229   0.856   6.275
 9108SOL     OW28222   4.886   4.525   5.233
 9108SOL    HW128223   4.911   4.458   5.164
 9108SOL    HW228224   4.920   4.615   5.206
 9109SOL     OW28225   5.334   3.823   2.821
 9109SOL    HW128226   5.375   3.818   2.730
 9109SOL    HW228227   5.393   3.777   2.887
 9110SOL     OW28228   1.771   5.154   4.436
 9110SOL    HW128229   1.676   5.148   4.406
 9110SOL    HW228230   1.803   5.249   4.430
 9111SOL     OW28231   4.241   3.151   0.075
 9111SOL    HW128232   4.244   3.250   0.089
 9111SOL    HW228233   4.333   3.118   0.053
 9112SOL     OW28234   1.876   5.562   2.677
 9112SOL    HW128235   1.937   5.483   2.683
 9112SOL    HW228236   1.901   5.628   2.747
 9113SOL     OW28237   5.223   2.848   2.642
 9113SOL    HW128238   5.255   2.762   2.681
 9113SOL    HW228239   5.207   2.836   2.544
 9114SOL     OW28240   6.733   5.333   3.642
 9114SOL    HW128241   6.657   5.274   3.668
 9114SOL    HW228242   6.731   5.348   3.543
 9115SOL     OW28243   6.018   5.579   5.336
 9115SOL    HW128244   5.987   5.506   5.397
 9115SOL    HW228245   6.065   5.539   5.257
 9116SOL     OW28246   0.422   6.702   2.911
 9116SOL    HW128247   0.409   6.604   2.925
 9116SOL    HW228248   0.334   6.745   2.894
 9117SOL     OW28249   3.605   2.641   6.348
 9117SOL    HW128250   3.687   2.637   6.406
 9117SOL    HW228251   3.565   2.549   6.341
 9118SOL     OW28252   6.439   3.689   0.372
 9118SOL    HW128253   6.371   3.689   0.298
 9118SOL    HW228254   6.439   3.600   0.417
 9119SOL     OW28255   3.867   1.230   1.754
 9119SOL    HW128256   3.828   1.319   1.779
 9119SOL    HW228257   3.960   1.224   1.791
 9120SOL     OW28258   0.214   2.225   5.928
 9120SOL    HW128259   0.129   2.223   5.981
 9120SOL    HW228260   0.246   2.132   5.912
 9121SOL     OW28261   3.452   6.012   4.742
 9121SOL    HW128262   3.540   6.035   4.702
 9121SOL    HW228263   3.462   5.932   4.801
 9122SOL     OW28264   2.391   4.605   2.118
 9122SOL    HW128265   2.486   4.621   2.146
 9122SOL    HW228266   2.387   4.522   2.062
 9123SOL     OW28267   1.873   0.780   4.534
 9123SOL    HW128268   1.880   0.739   4.443
 9123SOL    HW228269   1.832   0.871   4.527
 9124SOL     OW28270   3.442   5.460   1.459
 9124SOL    HW128271   3.386   5.386   1.421
 9124SOL    HW228272   3.520   5.476   1.398
 9125SOL     OW28273   4.124   4.414   1.304
 9125SOL    HW128274   4.219   4.398   1.329
 9125SOL    HW228275   4.074   4.327   1.306
 9126SOL     OW28276   4.394   3.750   1.310
 9126SOL    HW128277   4.414   3.825   1.373
 9126SOL    HW228278   4.444   3.668   1.340
 9127SOL     OW28279   6.615   2.369   5.500
 9127SOL    HW128280   6.590   2.307   5.426
 9127SOL    HW228281   6.699   2.337   5.545
 9128SOL     OW28282   5.624   2.637   5.438
 9128SOL    HW128283   5.644   2.701   5.364
 9128SOL    HW228284   5.671   2.550   5.421
 9129SOL     OW28285   6.594   1.564   0.252
 9129SOL    HW128286   6.498   1.576   0.227
 9129SOL    HW228287   6.627   1.645   0.300
 9130SOL     OW28288   0.933   4.506   5.970
 9130SOL    HW128289   0.840   4.531   5.995
 9130SOL    HW228290   0.993   4.585   5.980
 9131SOL     OW28291   5.228   3.487   6.396
 9131SOL    HW128292   5.244   3.390   6.411
 9131SOL    HW228293   5.153   3.499   6.331
 9132SOL     OW28294   1.246   4.624   4.470
 9132SOL    HW128295   1.255   4.589   4.377
 9132SOL    HW228296   1.283   4.717   4.475
 9133SOL     OW28297   3.260   0.832   1.159
 9133SOL    HW128298   3.355   0.823   1.132
 9133SOL    HW228299   3.231   0.750   1.210
 9134SOL     OW28300   4.451   5.193   1.419
 9134SOL    HW128301   4.488   5.271   1.468
 9134SOL    HW228302   4.358   5.214   1.388
 9135SOL     OW28303   0.897   6.579   1.895
 9135SOL    HW128304   0.815   6.599   1.948
 9135SOL    HW228305   0.891   6.625   1.806
 9136SOL     OW28306   4.580   5.890   5.688
 9136SOL    HW128307   4.634   5.806   5.680
 9136SOL    HW228308   4.590   5.943   5.604
 9137SOL     OW28309   4.028   0.598   6.835
 9137SOL    HW128310   4.074   0.510   6.826
 9137SOL    HW228311   3.990   0.607   6.927
 9138SOL     OW28312   1.440   4.037   6.579
 9138SOL    HW128313   1.530   4.001   6.604
 9138SOL    HW228314   1.373   4.006   6.645
 9139SOL     OW28315   1.120   1.524   2.135
 9139SOL    HW128316   1.091   1.431   2.114
 9139SOL    HW228317   1.124   1.578   2.051
 9140SOL     OW28318   0.822   5.018   2.683
 9140SOL    HW128319   0.868   5.038   2.769
 9140SOL    HW228320   0.787   4.924   2.685
 9141SOL     OW28321   7.015   6.081   6.420
 9141SOL    HW128322   6.991   6.178   6.418
 9141SOL    HW228323   6.940   6.028   6.382
 9142SOL     OW28324   0.396   3.124   1.851
 9142SOL    HW128325   0.299   3.146   1.850
 9142SOL    HW228326   0.439   3.167   1.930
 9143SOL     OW28327   0.241   4.250   1.577
 9143SOL    HW128328   0.163   4.255   1.639
 9143SOL    HW228329   0.311   4.316   1.605
 9144SOL     OW28330   3.782   4.947   4.951
 9144SOL    HW128331   3.689   4.913   4.936
 9144SOL    HW228332   3.797   5.027   4.892
 9145SOL     OW28333   1.739   6.281   6.655
 9145SOL    HW128334   1.802   6.357   6.672
 9145SOL    HW228335   1.747   6.214   6.729
 9146SOL     OW28336   4.941   3.390   2.870
 9146SOL    HW128337   4.891   3.447   2.935
 9146SOL    HW228338   4.964   3.445   2.789
 9147SOL     OW28339   6.828   0.918   4.869
 9147SOL    HW128340   6.733   0.946   4.856
 9147SOL    HW228341   6.880   0.936   4.785
 9148SOL     OW28342   5.614   0.013   1.593
 9148SOL    HW128343   5.623   6.980   1.675
 9148SOL    HW228344   5.696   0.069   1.581
 9149SOL     OW28345   5.623   3.176   2.071
 9149SOL    HW128346   5.527   3.148   2.074
 9149SOL    HW228347   5.641   3.223   1.984
 9150SOL     OW28348   3.427   4.207   0.649
 9150SOL    HW128349   3.423   4.252   0.560
 9150SOL    HW228350   3.439   4.276   0.721
 9151SOL     OW28351   2.152   3.734   3.706
 9151SOL    HW128352   2.200   3.819   3.730
 9151SOL    HW228353   2.169   3.665   3.777
 9152SOL     OW28354   2.265   4.330   4.249
 9152SOL    HW128355   2.240   4.351   4.154
 9152SOL    HW228356   2.328   4.399   4.283
 9153SOL     OW28357   0.280   3.215   6.780
 9153SOL    HW128358   0.245   3.216   6.686
 9153SOL    HW228359   0.353   3.148   6.788
 9154SOL     OW28360   4.935   4.330   3.759
 9154SOL    HW128361   5.007   4.302   3.695
 9154SOL    HW228362   4.922   4.429   3.753
 9155SOL     OW28363   2.262   4.407   2.904
 9155SOL    HW128364   2.175   4.359   2.907
 9155SOL    HW228365   2.286   4.425   2.808
 9156SOL     OW28366   6.385   2.810   1.301
 9156SOL    HW128367   6.333   2.895   1.291
 9156SOL    HW228368   6.479   2.824   1.272
 9157SOL     OW28369   3.018   4.148   6.888
 9157SOL    HW128370   2.930   4.102   6.885
 9157SOL    HW228371   3.041   4.182   6.796
 9158SOL     OW28372   6.923   4.518   4.141
 9158SOL    HW128373   6.884   4.475   4.222
 9158SOL    HW228374   6.861   4.504   4.063
 9159SOL     OW28375   1.916   0.209   3.385
 9159SOL    HW128376   1.965   0.267   3.320
 9159SOL    HW228377   1.965   0.208   3.472
 9160SOL     OW28378   0.260   5.241   5.770
 9160SOL    HW128379   0.230   5.271   5.680
 9160SOL    HW228380   0.360   5.242   5.774
 9161SOL     OW28381   6.455   5.033   3.325
 9161SOL    HW128382   6.378   5.010   3.265
 9161SOL    HW228383   6.501   4.949   3.354
 9162SOL     OW28384   3.758   0.435   3.049
 9162SOL    HW128385   3.800   0.526   3.058
 9162SOL    HW228386   3.762   0.406   2.954
 9163SOL     OW28387   6.881   3.448   2.307
 9163SOL    HW128388   6.939   3.381   2.354
 9163SOL    HW228389   6.890   3.437   2.208
 9164SOL     OW28390   1.825   1.102   6.793
 9164SOL    HW128391   1.800   1.082   6.887
 9164SOL    HW228392   1.865   1.020   6.751
 9165SOL     OW28393   4.733   1.977   5.783
 9165SOL    HW128394   4.792   1.911   5.831
 9165SOL    HW228395   4.658   2.004   5.844
 9166SOL     OW28396   3.979   5.101   1.062
 9166SOL    HW128397   4.004   5.028   1.127
 9166SOL    HW228398   3.987   5.066   0.969
 9167SOL     OW28399   1.375   2.752   5.942
 9167SOL    HW128400   1.409   2.772   6.034
 9167SOL    HW228401   1.341   2.836   5.899
 9168SOL     OW28402   6.666   5.694   6.253
 9168SOL    HW128403   6.643   5.624   6.186
 9168SOL    HW228404   6.674   5.783   6.208
 9169SOL     OW28405   6.624   5.878   6.007
 9169SOL    HW128406   6.537   5.828   6.012
 9169SOL    HW228407   6.612   5.959   5.950
 9170SOL     OW28408   1.859   1.604   6.239
 9170SOL    HW128409   1.800   1.627   6.161
 9170SOL    HW228410   1.942   1.559   6.206
 9171SOL     OW28411   2.697   5.760   0.779
 9171SOL    HW128412   2.664   5.799   0.693
 9171SOL    HW228413   2.736   5.833   0.836
 9172SOL     OW28414   4.289   2.109   4.718
 9172SOL    HW128415   4.359   2.162   4.671
 9172SOL    HW228416   4.260   2.033   4.660
 9173SOL     OW28417   6.250   2.787   4.534
 9173SOL    HW128418   6.293   2.826   4.615
 9173SOL    HW228419   6.202   2.858   4.484
 9174SOL     OW28420   0.963   5.954   6.921
 9174SOL    HW128421   1.003   6.029   6.973
 9174SOL    HW228422   0.959   5.980   6.824
 9175SOL     OW28423   1.268   6.626   0.168
 9175SOL    HW128424   1.219   6.647   0.252
 9175SOL    HW228425   1.250   6.696   0.100
 9176SOL     OW28426   2.587   6.905   1.695
 9176SOL    HW128427   2.560   6.867   1.607
 9176SOL    HW228428   2.619   6.833   1.755
 9177SOL     OW28429   1.693   2.538   3.804
 9177SOL    HW128430   1.740   2.467   3.857
 9177SOL    HW228431   1.719   2.628   3.839
 9178SOL     OW28432   2.545   5.266   6.288
 9178SOL    HW128433   2.531   5.284   6.385
 9178SOL    HW228434   2.527   5.169   6.269
 9179SOL     OW28435   2.388   6.112   5.096
 9179SOL    HW128436   2.471   6.167   5.102
 9179SOL    HW228437   2.350   6.100   5.188
 9180SOL     OW28438   6.725   2.305   4.018
 9180SOL    HW128439   6.652   2.337   4.078
 9180SOL    HW228440   6.684   2.261   3.938
 9181SOL     OW28441   4.848   2.516   3.233
 9181SOL    HW128442   4.913   2.521   3.308
 9181SOL    HW228443   4.755   2.525   3.269
 9182SOL     OW28444   3.181   1.323   2.930
 9182SOL    HW128445   3.144   1.246   2.877
 9182SOL    HW228446   3.281   1.316   2.932
 9183SOL     OW28447   4.644   4.067   6.280
 9183SOL    HW128448   4.726   4.023   6.243
 9183SOL    HW228449   4.598   4.004   6.343
 9184SOL     OW28450   3.781   2.192   0.663
 9184SOL    HW128451   3.787   2.174   0.761
 9184SOL    HW228452   3.848   2.136   0.615
 9185SOL     OW28453   0.796   6.750   6.248
 9185SOL    HW128454   0.839   6.730   6.336
 9185SOL    HW228455   0.821   6.679   6.182
 9186SOL     OW28456   4.530   0.777   5.790
 9186SOL    HW128457   4.625   0.806   5.796
 9186SOL    HW228458   4.491   0.769   5.882
 9187SOL     OW28459   4.696   2.060   6.770
 9187SOL    HW128460   4.631   2.054   6.846
 9187SOL    HW228461   4.778   2.007   6.792
 9188SOL     OW28462   1.796   0.433   1.452
 9188SOL    HW128463   1.750   0.390   1.530
 9188SOL    HW228464   1.749   0.519   1.430
 9189SOL     OW28465   3.223   0.732   4.087
 9189SOL    HW128466   3.164   0.765   4.014
 9189SOL    HW228467   3.170   0.728   4.173
 9190SOL     OW28468   6.266   3.621   5.369
 9190SOL    HW128469   6.312   3.560   5.433
 9190SOL    HW228470   6.333   3.661   5.306
 9191SOL     OW28471   4.914   6.626   6.850
 9191SOL    HW128472   4.997   6.571   6.854
 9191SOL    HW228473   4.928   6.712   6.899
 9192SOL     OW28474   6.312   4.074   6.323
 9192SOL    HW128475   6.342   4.032   6.237
 9192SOL    HW228476   6.379   4.141   6.352
 9193SOL     OW28477   3.230   3.693   4.018
 9193SOL    HW128478   3.247   3.688   3.920
 9193SOL    HW228479   3.134   3.716   4.033
 9194SOL     OW28480   3.749   5.818   2.026
 9194SOL    HW128481   3.770   5.916   2.035
 9194SOL    HW228482   3.700   5.787   2.108
 9195SOL     OW28483   2.066   2.620   3.699
 9195SOL    HW128484   2.024   2.534   3.729
 9195SOL    HW228485   2.044   2.636   3.603
 9196SOL     OW28486   5.426   0.065   3.854
 9196SOL    HW128487   5.423   0.129   3.777
 9196SOL    HW228488   5.519   0.028   3.863
 9197SOL     OW28489   3.268   4.108   1.062
 9197SOL    HW128490   3.177   4.148   1.054
 9197SOL    HW228491   3.260   4.008   1.059
 9198SOL     OW28492   5.525   4.007   6.258
 9198SOL    HW128493   5.591   4.074   6.222
 9198SOL    HW228494   5.569   3.951   6.328
 9199SOL     OW28495   0.806   3.415   6.154
 9199SOL    HW128496   0.850   3.390   6.240
 9199SOL    HW228497   0.733   3.482   6.172
 9200SOL     OW28498   1.722   5.873   6.542
 9200SOL    HW128499   1.813   5.907   6.520
 9200SOL    HW228500   1.700   5.795   6.483
 9201SOL     OW28501   0.711   3.696   1.314
 9201SOL    HW128502   0.660   3.632   1.371
 9201SOL    HW228503   0.726   3.656   1.224
 9202SOL     OW28504   1.973   5.647   4.345
 9202SOL    HW128505   2.003   5.715   4.412
 9202SOL    HW228506   1.982   5.685   4.253
 9203SOL     OW28507   5.042   2.318   6.157
 9203SOL    HW128508   5.068   2.351   6.248
 9203SOL    HW228509   5.044   2.395   6.093
 9204SOL     OW28510   5.281   3.805   3.642
 9204SOL    HW128511   5.328   3.848   3.720
 9204SOL    HW228512   5.191   3.773   3.672
 9205SOL     OW28513   5.319   3.392   2.273
 9205SOL    HW128514   5.247   3.419   2.209
 9205SOL    HW228515   5.281   3.329   2.341
 9206SOL     OW28516   3.206   0.213   4.507
 9206SOL    HW128517   3.239   0.155   4.432
 9206SOL    HW228518   3.243   0.180   4.594
 9207SOL     OW28519   3.838   6.332   5.647
 9207SOL    HW128520   3.800   6.348   5.738
 9207SOL    HW228521   3.881   6.242   5.644
 9208SOL     OW28522   5.111   3.785   2.206
 9208SOL    HW128523   5.167   3.858   2.166
 9208SOL    HW228524   5.047   3.750   2.138
 9209SOL     OW28525   3.954   0.727   2.106
 9209SOL    HW128526   4.003   0.760   2.024
 9209SOL    HW228527   3.856   0.743   2.095
 9210SOL     OW28528   1.682   0.459   1.040
 9210SOL    HW128529   1.642   0.531   1.097
 9210SOL    HW228530   1.731   0.394   1.099
 9211SOL     OW28531   5.057   2.062   6.046
 9211SOL    HW128532   5.128   2.063   5.975
 9211SOL    HW228533   5.062   2.148   6.098
 9212SOL     OW28534   4.915   3.940   5.033
 9212SOL    HW128535   5.009   3.912   5.053
 9212SOL    HW228536   4.874   3.979   5.115
 9213SOL     OW28537   5.494   6.274   4.561
 9213SOL    HW128538   5.434   6.195   4.558
 9213SOL    HW228539   5.585   6.246   4.591
 9214SOL     OW28540   0.781   2.650   5.346
 9214SOL    HW128541   0.839   2.676   5.269
 9214SOL    HW228542   0.688   2.684   5.331
 9215SOL     OW28543   0.555   4.297   2.573
 9215SOL    HW128544   0.638   4.279   2.625
 9215SOL    HW228545   0.527   4.214   2.525
 9216SOL     OW28546   2.314   6.767   4.986
 9216SOL    HW128547   2.325   6.677   5.028
 9216SOL    HW228548   2.301   6.755   4.887
 9217SOL     OW28549   5.425   1.431   6.718
 9217SOL    HW128550   5.391   1.374   6.643
 9217SOL    HW228551   5.524   1.434   6.716
 9218SOL     OW28552   3.738   0.836   6.718
 9218SOL    HW128553   3.663   0.805   6.776
 9218SOL    HW228554   3.820   0.782   6.738
 9219SOL     OW28555   4.158   3.250   5.746
 9219SOL    HW128556   4.204   3.314   5.684
 9219SOL    HW228557   4.071   3.222   5.705
 9220SOL     OW28558   2.164   5.847   2.264
 9220SOL    HW128559   2.175   5.885   2.356
 9220SOL    HW228560   2.119   5.916   2.206
 9221SOL     OW28561   2.393   0.543   5.779
 9221SOL    HW128562   2.430   0.524   5.870
 9221SOL    HW228563   2.336   0.625   5.784
 9222SOL     OW28564   2.389   4.460   4.455
 9222SOL    HW128565   2.358   4.368   4.481
 9222SOL    HW228566   2.328   4.528   4.495
 9223SOL     OW28567   0.773   2.582   3.773
 9223SOL    HW128568   0.693   2.525   3.790
 9223SOL    HW228569   0.837   2.534   3.714
 9224SOL     OW28570   1.939   3.229   3.671
 9224SOL    HW128571   1.993   3.310   3.647
 9224SOL    HW228572   1.964   3.199   3.763
 9225SOL     OW28573   3.845   6.856   6.373
 9225SOL    HW128574   3.913   6.812   6.315
 9225SOL    HW228575   3.777   6.788   6.403
 9226SOL     OW28576   1.377   0.410   1.352
 9226SOL    HW128577   1.393   0.442   1.445
 9226SOL    HW228578   1.435   0.330   1.334
 9227SOL     OW28579   2.010   4.920   1.414
 9227SOL    HW128580   1.947   4.967   1.476
 9227SOL    HW228581   2.104   4.951   1.433
 9228SOL     OW28582   1.991   2.702   6.208
 9228SOL    HW128583   2.076   2.662   6.242
 9228SOL    HW228584   2.010   2.792   6.168
 9229SOL     OW28585   1.519   5.125   6.889
 9229SOL    HW128586   1.454   5.099   6.960
 9229SOL    HW228587   1.469   5.152   6.806
 9230SOL     OW28588   5.015   2.676   3.645
 9230SOL    HW128589   5.105   2.705   3.676
 9230SOL    HW228590   4.966   2.633   3.721
 9231SOL     OW28591   0.924   4.907   5.811
 9231SOL    HW128592   0.984   4.840   5.767
 9231SOL    HW228593   0.957   4.928   5.902
 9232SOL     OW28594   1.908   5.251   1.260
 9232SOL    HW128595   1.833   5.215   1.316
 9232SOL    HW228596   1.910   5.203   1.172
 9233SOL     OW28597   0.925   6.738   0.754
 9233SOL    HW128598   1.004   6.794   0.728
 9233SOL    HW228599   0.880   6.780   0.833
 9234SOL     OW28600   2.448   5.474   0.566
 9234SOL    HW128601   2.462   5.539   0.641
 9234SOL    HW228602   2.431   5.525   0.481
 9235SOL     OW28603   2.641   2.073   3.370
 9235SOL    HW128604   2.729   2.039   3.337
 9235SOL    HW228605   2.633   2.170   3.349
 9236SOL     OW28606   2.250   3.385   6.522
 9236SOL    HW128607   2.306   3.467   6.508
 9236SOL    HW228608   2.303   3.304   6.499
 9237SOL     OW28609   0.428   5.899   2.767
 9237SOL    HW128610   0.483   5.909   2.850
 9237SOL    HW228611   0.423   5.803   2.741
 9238SOL     OW28612   2.975   2.368   5.823
 9238SOL    HW128613   3.043   2.335   5.888
 9238SOL    HW228614   2.941   2.457   5.853
 9239SOL     OW28615   6.723   4.438   6.268
 9239SOL    HW128616   6.678   4.528   6.264
 9239SOL    HW228617   6.669   4.372   6.216
 9240SOL     OW28618   5.244   3.389   2.750
 9240SOL    HW128619   5.162   3.430   2.712
 9240SOL    HW228620   5.255   3.296   2.717
 9241SOL     OW28621   6.839   5.842   0.511
 9241SOL    HW128622   6.865   5.798   0.597
 9241SOL    HW228623   6.889   5.927   0.500
 9242SOL     OW28624   1.964   2.561   1.858
 9242SOL    HW128625   2.034   2.575   1.928
 9242SOL    HW228626   1.998   2.597   1.771
 9243SOL     OW28627   0.897   0.584   2.255
 9243SOL    HW128628   0.840   0.550   2.330
 9243SOL    HW228629   0.894   0.684   2.252
 9244SOL     OW28630   2.584   6.444   5.984
 9244SOL    HW128631   2.593   6.543   5.995
 9244SOL    HW228632   2.524   6.407   6.055
 9245SOL     OW28633   0.637   4.200   3.789
 9245SOL    HW128634   0.622   4.110   3.831
 9245SOL    HW228635   0.566   4.218   3.721
 9246SOL     OW28636   5.892   0.073   4.548
 9246SOL    HW128637   5.891   0.002   4.477
 9246SOL    HW228638   5.926   0.158   4.508
 9247SOL     OW28639   4.058   5.589   3.026
 9247SOL    HW128640   4.022   5.501   2.996
 9247SOL    HW228641   4.023   5.662   2.967
 9248SOL     OW28642   2.879   1.895   5.386
 9248SOL    HW128643   2.930   1.850   5.312
 9248SOL    HW228644   2.942   1.951   5.440
 9249SOL     OW28645   4.295   4.872   1.152
 9249SOL    HW128646   4.215   4.899   1.206
 9249SOL    HW228647   4.343   4.953   1.120
 9250SOL     OW28648   6.877   3.452   3.986
 9250SOL    HW128649   6.936   3.392   3.933
 9250SOL    HW228650   6.783   3.444   3.953
 9251SOL     OW28651   4.226   2.156   1.930
 9251SOL    HW128652   4.140   2.120   1.966
 9251SOL    HW228653   4.259   2.230   1.990
 9252SOL     OW28654   5.385   0.830   4.828
 9252SOL    HW128655   5.372   0.732   4.810
 9252SOL    HW228656   5.359   0.850   4.922
 9253SOL     OW28657   5.002   5.137   5.886
 9253SOL    HW128658   5.098   5.113   5.870
 9253SOL    HW228659   4.959   5.162   5.799
 9254SOL     OW28660   5.114   5.097   2.605
 9254SOL    HW128661   5.031   5.149   2.582
 9254SOL    HW228662   5.135   5.034   2.530
 9255SOL     OW28663   5.726   3.262   6.689
 9255SOL    HW128664   5.632   3.294   6.705
 9255SOL    HW228665   5.774   3.329   6.633
 9256SOL     OW28666   1.883   0.057   1.441
 9256SOL    HW128667   1.866   6.997   1.387
 9256SOL    HW228668   1.951   0.114   1.395
 9257SOL     OW28669   6.160   5.892   2.954
 9257SOL    HW128670   6.213   5.976   2.946
 9257SOL    HW228671   6.065   5.915   2.978
 9258SOL     OW28672   3.586   3.462   0.653
 9258SOL    HW128673   3.558   3.541   0.599
 9258SOL    HW228674   3.559   3.474   0.748
 9259SOL     OW28675   1.892   1.189   0.218
 9259SOL    HW128676   1.954   1.243   0.162
 9259SOL    HW228677   1.801   1.232   0.219
 9260SOL     OW28678   6.930   2.614   6.205
 9260SOL    HW128679   6.900   2.522   6.228
 9260SOL    HW228680   7.017   2.610   6.156
 9261SOL     OW28681   4.811   0.932   6.408
 9261SOL    HW128682   4.821   0.957   6.505
 9261SOL    HW228683   4.717   0.947   6.380
 9262SOL     OW28684   1.321   6.777   5.182
 9262SOL    HW128685   1.277   6.696   5.220
 9262SOL    HW228686   1.403   6.798   5.235
 9263SOL     OW28687   3.460   5.248   2.920
 9263SOL    HW128688   3.493   5.156   2.937
 9263SOL    HW228689   3.361   5.252   2.936
 9264SOL     OW28690   4.503   3.148   6.990
 9264SOL    HW128691   4.550   3.092   6.922
 9264SOL    HW228692   4.503   3.244   6.960
 9265SOL     OW28693   3.904   2.175   6.718
 9265SOL    HW128694   4.000   2.155   6.735
 9265SOL    HW228695   3.896   2.256   6.661
 9266SOL     OW28696   0.164   5.611   1.423
 9266SOL    HW128697   0.231   5.591   1.351
 9266SOL    HW228698   0.211   5.615   1.512
 9267SOL     OW28699   1.085   1.965   4.346
 9267SOL    HW128700   1.092   1.897   4.274
 9267SOL    HW228701   0.991   1.969   4.380
 9268SOL     OW28702   1.040   6.455   2.541
 9268SOL    HW128703   1.034   6.555   2.545
 9268SOL    HW228704   1.121   6.428   2.490
 9269SOL     OW28705   4.090   0.288   6.525
 9269SOL    HW128706   4.021   0.216   6.514
 9269SOL    HW228707   4.076   0.358   6.455
 9270SOL     OW28708   3.699   0.554   5.426
 9270SOL    HW128709   3.773   0.518   5.369
 9270SOL    HW228710   3.612   0.541   5.379
 9271SOL     OW28711   0.185   0.208   1.137
 9271SOL    HW128712   0.104   0.150   1.141
 9271SOL    HW228713   0.265   0.156   1.165
 9272SOL     OW28714   0.819   6.606   6.486
 9272SOL    HW128715   0.740   6.550   6.460
 9272SOL    HW228716   0.801   6.650   6.574
 9273SOL     OW28717   5.383   5.950   3.160
 9273SOL    HW128718   5.390   6.048   3.179
 9273SOL    HW228719   5.438   5.928   3.079
 9274SOL     OW28720   6.485   2.153   0.245
 9274SOL    HW128721   6.503   2.091   0.169
 9274SOL    HW228722   6.453   2.101   0.324
 9275SOL     OW28723   0.117   6.656   6.900
 9275SOL    HW128724   0.212   6.687   6.900
 9275SOL    HW228725   0.107   6.580   6.964
 9276SOL     OW28726   2.495   5.144   6.725
 9276SOL    HW128727   2.544   5.194   6.653
 9276SOL    HW228728   2.524   5.178   6.815
 9277SOL     OW28729   3.949   5.386   2.892
 9277SOL    HW128730   3.870   5.400   2.950
 9277SOL    HW228731   3.933   5.429   2.803
 9278SOL     OW28732   1.137   0.553   5.576
 9278SOL    HW128733   1.184   0.501   5.648
 9278SOL    HW228734   1.058   0.502   5.544
 9279SOL     OW28735   3.343   6.839   1.653
 9279SOL    HW128736   3.387   6.757   1.689
 9279SOL    HW228737   3.355   6.842   1.554
 9280SOL     OW28738   2.302   1.629   2.393
 9280SOL    HW128739   2.360   1.670   2.464
 9280SOL    HW228740   2.350   1.635   2.305
 9281SOL     OW28741   3.452   3.798   6.611
 9281SOL    HW128742   3.363   3.836   6.633
 9281SOL    HW228743   3.452   3.765   6.516
 9282SOL     OW28744   4.764   1.140   4.458
 9282SOL    HW128745   4.680   1.087   4.447
 9282SOL    HW228746   4.814   1.107   4.538
 9283SOL     OW28747   5.453   0.524   5.281
 9283SOL    HW128748   5.375   0.466   5.303
 9283SOL    HW228749   5.470   0.587   5.356
 9284SOL     OW28750   2.693   3.479   5.329
 9284SOL    HW128751   2.731   3.565   5.362
 9284SOL    HW228752   2.760   3.431   5.274
 9285SOL     OW28753   5.224   2.868   0.668
 9285SOL    HW128754   5.276   2.839   0.748
 9285SOL    HW228755   5.148   2.927   0.697
 9286SOL     OW28756   4.676   5.543   0.408
 9286SOL    HW128757   4.665   5.513   0.503
 9286SOL    HW228758   4.701   5.640   0.407
 9287SOL     OW28759   3.133   4.704   5.628
 9287SOL    HW128760   3.102   4.799   5.640
 9287SOL    HW228761   3.149   4.686   5.531
 9288SOL     OW28762   4.651   2.043   3.146
 9288SOL    HW128763   4.683   1.958   3.187
 9288SOL    HW228764   4.729   2.101   3.122
 9289SOL     OW28765   4.281   0.701   6.928
 9289SOL    HW128766   4.191   0.683   6.890
 9289SOL    HW228767   4.273   0.758   7.010
 9290SOL     OW28768   6.236   0.804   4.471
 9290SOL    HW128769   6.223   0.757   4.558
 9290SOL    HW228770   6.203   0.898   4.480
 9291SOL     OW28771   1.468   6.263   6.207
 9291SOL    HW128772   1.550   6.209   6.221
 9291SOL    HW228773   1.388   6.213   6.239
 9292SOL     OW28774   1.628   1.047   6.506
 9292SOL    HW128775   1.683   1.106   6.564
 9292SOL    HW228776   1.554   1.006   6.560
 9293SOL     OW28777   4.782   3.243   6.659
 9293SOL    HW128778   4.852   3.249   6.588
 9293SOL    HW228779   4.701   3.197   6.622
 9294SOL     OW28780   5.028   0.750   6.912
 9294SOL    HW128781   5.082   0.731   6.994
 9294SOL    HW228782   4.934   0.772   6.938
 9295SOL     OW28783   6.628   0.894   5.130
 9295SOL    HW128784   6.600   0.912   5.225
 9295SOL    HW228785   6.717   0.849   5.130
 9296SOL     OW28786   1.983   4.876   0.812
 9296SOL    HW128787   2.004   4.840   0.721
 9296SOL    HW228788   2.068   4.904   0.857
 9297SOL     OW28789   0.498   6.396   3.285
 9297SOL    HW128790   0.436   6.375   3.361
 9297SOL    HW228791   0.527   6.492   3.292
 9298SOL     OW28792   1.314   6.614   6.308
 9298SOL    HW128793   1.249   6.682   6.341
 9298SOL    HW228794   1.324   6.542   6.377
 9299SOL     OW28795   0.933   1.187   3.687
 9299SOL    HW128796   0.903   1.174   3.593
 9299SOL    HW228797   1.033   1.184   3.692
 9300SOL     OW28798   0.492   5.319   4.937
 9300SOL    HW128799   0.530   5.393   4.992
 9300SOL    HW228800   0.413   5.352   4.887
 9301SOL     OW28801   6.872   4.337   5.140
 9301SOL    HW128802   6.845   4.328   5.044
 9301SOL    HW228803   6.809   4.284   5.197
 9302SOL     OW28804   2.243   2.992   4.533
 9302SOL    HW128805   2.292   2.909   4.507
 9302SOL    HW228806   2.195   3.029   4.453
 9303SOL     OW28807   2.914   4.775   0.398
 9303SOL    HW128808   2.875   4.687   0.424
 9303SOL    HW228809   2.939   4.826   0.481
 9304SOL     OW28810   4.344   5.223   0.669
 9304SOL    HW128811   4.247   5.203   0.657
 9304SOL    HW228812   4.361   5.320   0.655
 9305SOL     OW28813   3.737   1.173   0.460
 9305SOL    HW128814   3.835   1.158   0.468
 9305SOL    HW228815   3.696   1.098   0.407
 9306SOL     OW28816   0.393   3.815   5.537
 9306SOL    HW128817   0.325   3.774   5.476
 9306SOL    HW228818   0.403   3.912   5.515
 9307SOL     OW28819   1.115   4.216   0.699
 9307SOL    HW128820   1.141   4.311   0.719
 9307SOL    HW228821   1.141   4.158   0.775
 9308SOL     OW28822   1.050   4.541   1.877
 9308SOL    HW128823   1.065   4.636   1.903
 9308SOL    HW228824   1.038   4.535   1.778
 9309SOL     OW28825   4.283   6.454   5.667
 9309SOL    HW128826   4.326   6.535   5.626
 9309SOL    HW228827   4.239   6.480   5.753
 9310SOL     OW28828   5.509   6.134   5.895
 9310SOL    HW128829   5.492   6.232   5.905
 9310SOL    HW228830   5.428   6.082   5.922
 9311SOL     OW28831   5.273   4.594   1.202
 9311SOL    HW128832   5.239   4.520   1.260
 9311SOL    HW228833   5.295   4.557   1.112
 9312SOL     OW28834   1.777   2.042   0.951
 9312SOL    HW128835   1.695   2.002   0.993
 9312SOL    HW228836   1.776   2.026   0.853
 9313SOL     OW28837   0.944   0.723   1.781
 9313SOL    HW128838   0.975   0.668   1.703
 9313SOL    HW228839   0.931   0.665   1.860
 9314SOL     OW28840   6.034   3.745   1.038
 9314SOL    HW128841   6.009   3.744   0.941
 9314SOL    HW228842   6.133   3.734   1.047
 9315SOL     OW28843   6.013   0.573   6.337
 9315SOL    HW128844   6.054   0.608   6.253
 9315SOL    HW228845   5.914   0.583   6.333
 9316SOL     OW28846   5.894   0.136   5.287
 9316SOL    HW128847   5.862   0.204   5.221
 9316SOL    HW228848   5.988   0.158   5.314
 9317SOL     OW28849   3.862   5.143   3.418
 9317SOL    HW128850   3.939   5.159   3.481
 9317SOL    HW228851   3.842   5.045   3.415
 9318SOL     OW28852   4.595   6.392   0.146
 9318SOL    HW128853   4.577   6.489   0.160
 9318SOL    HW228854   4.509   6.343   0.133
 9319SOL     OW28855   2.348   2.866   0.678
 9319SOL    HW128856   2.277   2.873   0.608
 9319SOL    HW228857   2.405   2.785   0.660
 9320SOL     OW28858   4.715   0.522   6.305
 9320SOL    HW128859   4.679   0.443   6.356
 9320SOL    HW228860   4.741   0.594   6.369
 9321SOL     OW28861   0.821   1.866   5.308
 9321SOL    HW128862   0.812   1.834   5.214
 9321SOL    HW228863   0.731   1.888   5.345
 9322SOL     OW28864   6.543   4.656   6.281
 9322SOL    HW128865   6.536   4.674   6.183
 9322SOL    HW228866   6.453   4.659   6.323
 9323SOL     OW28867   2.488   1.713   4.670
 9323SOL    HW128868   2.499   1.749   4.762
 9323SOL    HW228869   2.488   1.613   4.672
 9324SOL     OW28870   2.123   3.825   1.784
 9324SOL    HW128871   2.122   3.824   1.684
 9324SOL    HW228872   2.121   3.732   1.819
 9325SOL     OW28873   0.720   6.223   1.412
 9325SOL    HW128874   0.690   6.309   1.453
 9325SOL    HW228875   0.811   6.199   1.444
 9326SOL     OW28876   3.421   5.604   6.883
 9326SOL    HW128877   3.425   5.530   6.816
 9326SOL    HW228878   3.515   5.631   6.908
 9327SOL     OW28879   4.605   0.183   2.967
 9327SOL    HW128880   4.510   0.151   2.963
 9327SOL    HW228881   4.615   0.251   3.039
 9328SOL     OW28882   2.137   6.744   4.690
 9328SOL    HW128883   2.219   6.772   4.640
 9328SOL    HW228884   2.126   6.645   4.684
 9329SOL     OW28885   6.834   5.692   0.754
 9329SOL    HW128886   6.751   5.638   0.761
 9329SOL    HW228887   6.895   5.671   0.831
 9330SOL     OW28888   0.411   0.138   6.217
 9330SOL    HW128889   0.461   0.137   6.131
 9330SOL    HW228890   0.313   0.149   6.199
 9331SOL     OW28891   2.036   2.484   5.950
 9331SOL    HW128892   2.036   2.565   6.008
 9331SOL    HW228893   1.972   2.497   5.874
 9332SOL     OW28894   3.849   5.681   0.752
 9332SOL    HW128895   3.894   5.712   0.836
 9332SOL    HW228896   3.917   5.671   0.679
 9333SOL     OW28897   4.284   5.964   0.048
 9333SOL    HW128898   4.297   5.873   0.009
 9333SOL    HW228899   4.189   5.974   0.077
 9334SOL     OW28900   5.130   0.510   4.268
 9334SOL    HW128901   5.061   0.533   4.336
 9334SOL    HW228902   5.207   0.573   4.275
 9335SOL     OW28903   1.780   2.304   0.373
 9335SOL    HW128904   1.686   2.323   0.401
 9335SOL    HW228905   1.785   2.301   0.273
 9336SOL     OW28906   5.433   0.296   4.761
 9336SOL    HW128907   5.523   0.270   4.728
 9336SOL    HW228908   5.395   0.223   4.817
 9337SOL     OW28909   5.157   0.575   6.532
 9337SOL    HW128910   5.096   0.565   6.611
 9337SOL    HW228911   5.147   0.496   6.472
 9338SOL     OW28912   6.832   6.057   0.840
 9338SOL    HW128913   6.883   6.136   0.806
 9338SOL    HW228914   6.743   6.053   0.796
 9339SOL     OW28915   5.701   5.703   0.544
 9339SOL    HW128916   5.664   5.792   0.572
 9339SOL    HW228917   5.705   5.699   0.444
 9340SOL     OW28918   4.215   4.730   2.919
 9340SOL    HW128919   4.118   4.753   2.922
 9340SOL    HW228920   4.250   4.719   3.012
 9341SOL     OW28921   6.664   4.456   0.121
 9341SOL    HW128922   6.691   4.390   0.191
 9341SOL    HW228923   6.717   4.539   0.131
 9342SOL     OW28924   2.861   0.297   4.591
 9342SOL    HW128925   2.907   0.381   4.619
 9342SOL    HW228926   2.906   0.261   4.509
 9343SOL     OW28927   4.869   3.487   1.854
 9343SOL    HW128928   4.788   3.472   1.798
 9343SOL    HW228929   4.922   3.563   1.818
 9344SOL     OW28930   5.178   5.583   6.651
 9344SOL    HW128931   5.088   5.622   6.634
 9344SOL    HW228932   5.233   5.589   6.568
 9345SOL     OW28933   6.246   4.826   0.430
 9345SOL    HW128934   6.233   4.918   0.393
 9345SOL    HW228935   6.181   4.809   0.504
 9346SOL     OW28936   4.898   6.262   2.744
 9346SOL    HW128937   4.977   6.309   2.705
 9346SOL    HW228938   4.814   6.297   2.702
 9347SOL     OW28939   3.372   5.888   0.891
 9347SOL    HW128940   3.466   5.866   0.918
 9347SOL    HW228941   3.372   5.969   0.832
 9348SOL     OW28942   3.072   5.027   2.922
 9348SOL    HW128943   3.075   5.107   2.863
 9348SOL    HW228944   3.004   5.039   2.993
 9349SOL     OW28945   6.021   5.888   2.082
 9349SOL    HW128946   5.934   5.935   2.095
 9349SOL    HW228947   6.096   5.950   2.108
 9350SOL     OW28948   0.453   1.549   4.055
 9350SOL    HW128949   0.393   1.627   4.038
 9350SOL    HW228950   0.548   1.578   4.050
 9351SOL     OW28951   2.496   0.226   6.199
 9351SOL    HW128952   2.481   0.129   6.219
 9351SOL    HW228953   2.543   0.235   6.111
 9352SOL     OW28954   2.411   3.272   5.869
 9352SOL    HW128955   2.393   3.278   5.967
 9352SOL    HW228956   2.465   3.352   5.840
 9353SOL     OW28957   1.755   4.375   1.944
 9353SOL    HW128958   1.821   4.300   1.955
 9353SOL    HW228959   1.751   4.401   1.848
 9354SOL     OW28960   6.142   1.684   0.775
 9354SOL    HW128961   6.210   1.624   0.731
 9354SOL    HW228962   6.185   1.732   0.851
 9355SOL     OW28963   6.344   1.229   4.539
 9355SOL    HW128964   6.411   1.304   4.542
 9355SOL    HW228965   6.342   1.191   4.446
 9356SOL     OW28966   4.736   5.486   2.086
 9356SOL    HW128967   4.677   5.413   2.122
 9356SOL    HW228968   4.822   5.487   2.137
 9357SOL     OW28969   2.326   3.837   0.049
 9357SOL    HW128970   2.379   3.816   0.131
 9357SOL    HW228971   2.229   3.833   0.070
 9358SOL     OW28972   5.960   3.481   1.719
 9358SOL    HW128973   5.927   3.556   1.776
 9358SOL    HW228974   6.038   3.437   1.763
 9359SOL     OW28975   0.208   3.827   5.749
 9359SOL    HW128976   0.200   3.743   5.803
 9359SOL    HW228977   0.278   3.814   5.678
 9360SOL     OW28978   1.219   6.918   5.908
 9360SOL    HW128979   1.239   6.959   5.819
 9360SOL    HW228980   1.246   6.822   5.908
 9361SOL     OW28981   2.613   6.346   3.632
 9361SOL    HW128982   2.618   6.250   3.608
 9361SOL    HW228983   2.693   6.394   3.597
 9362SOL     OW28984   1.696   1.611   2.235
 9362SOL    HW128985   1.766   1.682   2.246
 9362SOL    HW228986   1.651   1.622   2.146
 9363SOL     OW28987   4.228   4.937   2.049
 9363SOL    HW128988   4.215   4.881   2.131
 9363SOL    HW228989   4.234   5.033   2.075
 9364SOL     OW28990   4.357   3.325   6.042
 9364SOL    HW128991   4.436   3.376   6.009
 9364SOL    HW228992   4.384   3.232   6.066
 9365SOL     OW28993   2.437   1.660   5.263
 9365SOL    HW128994   2.468   1.751   5.292
 9365SOL    HW228995   2.386   1.667   5.178
 9366SOL     OW28996   3.107   1.611   6.989
 9366SOL    HW128997   3.056   1.692   7.020
 9366SOL    HW228998   3.164   1.577   0.042
 9367SOL     OW28999   6.965   5.658   3.485
 9367SOL    HW129000   6.971   5.724   3.560
 9367SOL    HW229001   7.002   5.570   3.515
 9368SOL     OW29002   3.314   1.712   3.492
 9368SOL    HW129003   3.295   1.662   3.577
 9368SOL    HW229004   3.387   1.778   3.509
 9369SOL     OW29005   0.259   0.613   6.016
 9369SOL    HW129006   0.325   0.687   6.007
 9369SOL    HW229007   0.306   0.525   6.014
 9370SOL     OW29008   4.797   0.537   2.769
 9370SOL    HW129009   4.839   0.462   2.717
 9370SOL    HW229010   4.861   0.613   2.774
 9371SOL     OW29011   1.922   4.584   0.650
 9371SOL    HW129012   1.981   4.617   0.577
 9371SOL    HW229013   1.917   4.484   0.646
 9372SOL     OW29014   5.451   5.678   3.175
 9372SOL    HW129015   5.426   5.774   3.185
 9372SOL    HW229016   5.444   5.652   3.079
 9373SOL     OW29017   4.786   2.418   2.777
 9373SOL    HW129018   4.693   2.456   2.774
 9373SOL    HW229019   4.850   2.491   2.801
 9374SOL     OW29020   6.571   3.167   0.485
 9374SOL    HW129021   6.535   3.175   0.578
 9374SOL    HW229022   6.602   3.073   0.469
 9375SOL     OW29023   6.869   2.168   3.030
 9375SOL    HW129024   6.969   2.164   3.034
 9375SOL    HW229025   6.835   2.090   2.977
 9376SOL     OW29026   2.402   3.841   1.246
 9376SOL    HW129027   2.351   3.814   1.164
 9376SOL    HW229028   2.499   3.847   1.224
 9377SOL     OW29029   1.542   5.833   3.721
 9377SOL    HW129030   1.551   5.887   3.805
 9377SOL    HW229031   1.445   5.822   3.698
 9378SOL     OW29032   0.579   0.373   5.222
 9378SOL    HW129033   0.633   0.348   5.303
 9378SOL    HW229034   0.554   0.470   5.227
 9379SOL     OW29035   4.614   5.042   5.378
 9379SOL    HW129036   4.623   5.142   5.380
 9379SOL    HW229037   4.534   5.015   5.431
 9380SOL     OW29038   5.679   4.540   4.991
 9380SOL    HW129039   5.744   4.482   5.041
 9380SOL    HW229040   5.659   4.498   4.903
 9381SOL     OW29041   2.569   3.483   5.713
 9381SOL    HW129042   2.513   3.551   5.665
 9381SOL    HW229043   2.665   3.505   5.700
 9382SOL     OW29044   3.163   1.287   3.628
 9382SOL    HW129045   3.258   1.318   3.621
 9382SOL    HW229046   3.113   1.313   3.545
 9383SOL     OW29047   2.162   6.066   4.440
 9383SOL    HW129048   2.110   6.133   4.388
 9383SOL    HW229049   2.200   6.109   4.521
 9384SOL     OW29050   3.192   5.931   1.566
 9384SOL    HW129051   3.228   5.848   1.522
 9384SOL    HW229052   3.237   5.944   1.654
 9385SOL     OW29053   4.249   1.060   2.895
 9385SOL    HW129054   4.319   0.992   2.873
 9385SOL    HW229055   4.192   1.026   2.970
 9386SOL     OW29056   2.192   6.417   4.903
 9386SOL    HW129057   2.276   6.423   4.849
 9386SOL    HW229058   2.210   6.368   4.988
 9387SOL     OW29059   2.693   0.976   6.729
 9387SOL    HW129060   2.697   1.055   6.667
 9387SOL    HW229061   2.712   0.892   6.677
 9388SOL     OW29062   2.558   5.556   2.769
 9388SOL    HW129063   2.475   5.528   2.818
 9388SOL    HW229064   2.554   5.523   2.675
 9389SOL     OW29065   1.744   6.816   4.818
 9389SOL    HW129066   1.676   6.767   4.873
 9389SOL    HW229067   1.816   6.851   4.878
 9390SOL     OW29068   3.977   5.307   5.303
 9390SOL    HW129069   3.888   5.269   5.278
 9390SOL    HW229070   4.049   5.247   5.268
 9391SOL     OW29071   2.582   0.713   5.153
 9391SOL    HW129072   2.634   0.658   5.088
 9391SOL    HW229073   2.584   0.809   5.124
 9392SOL     OW29074   6.813   0.290   5.289
 9392SOL    HW129075   6.838   0.376   5.245
 9392SOL    HW229076   6.758   0.236   5.226
 9393SOL     OW29077   2.898   0.573   5.256
 9393SOL    HW129078   2.860   0.654   5.301
 9393SOL    HW229079   2.920   0.504   5.325
 9394SOL     OW29080   0.130   1.517   2.174
 9394SOL    HW129081   0.120   1.536   2.076
 9394SOL    HW229082   0.153   1.602   2.222
 9395SOL     OW29083   2.543   1.890   7.021
 9395SOL    HW129084   2.472   1.853   0.058
 9395SOL    HW229085   2.568   1.982   0.029
 9396SOL     OW29086   1.263   5.547   3.521
 9396SOL    HW129087   1.244   5.577   3.428
 9396SOL    HW229088   1.221   5.611   3.586
 9397SOL     OW29089   3.252   0.209   0.180
 9397SOL    HW129090   3.281   0.303   0.195
 9397SOL    HW229091   3.329   0.147   0.194
 9398SOL     OW29092   0.724   0.256   5.405
 9398SOL    HW129093   0.759   0.172   5.363
 9398SOL    HW229094   0.687   0.235   5.495
 9399SOL     OW29095   0.118   1.686   6.587
 9399SOL    HW129096   0.097   1.783   6.588
 9399SOL    HW229097   0.216   1.673   6.571
 9400SOL     OW29098   4.262   2.475   1.789
 9400SOL    HW129099   4.202   2.406   1.829
 9400SOL    HW229100   4.355   2.463   1.824
 9401SOL     OW29101   4.681   0.037   3.381
 9401SOL    HW129102   4.587   0.012   3.403
 9401SOL    HW229103   4.702   0.128   3.417
 9402SOL     OW29104   1.221   4.901   3.776
 9402SOL    HW129105   1.218   4.825   3.841
 9402SOL    HW229106   1.129   4.939   3.765
 9403SOL     OW29107   5.914   0.961   3.087
 9403SOL    HW129108   5.869   1.049   3.070
 9403SOL    HW229109   5.957   0.963   3.177
 9404SOL     OW29110   0.610   3.254   6.303
 9404SOL    HW129111   0.556   3.170   6.307
 9404SOL    HW229112   0.697   3.236   6.257
 9405SOL     OW29113   0.547   5.805   2.148
 9405SOL    HW129114   0.449   5.785   2.150
 9405SOL    HW229115   0.567   5.866   2.072
 9406SOL     OW29116   6.913   3.096   6.415
 9406SOL    HW129117   6.874   3.004   6.412
 9406SOL    HW229118   6.981   3.100   6.489
 9407SOL     OW29119   2.910   5.367   3.017
 9407SOL    HW129120   2.845   5.443   3.015
 9407SOL    HW229121   2.862   5.282   3.040
 9408SOL     OW29122   4.076   1.528   6.187
 9408SOL    HW129123   4.138   1.589   6.139
 9408SOL    HW229124   3.986   1.531   6.143
 9409SOL     OW29125   5.807   4.749   6.510
 9409SOL    HW129126   5.792   4.659   6.549
 9409SOL    HW229127   5.720   4.787   6.479
 9410SOL     OW29128   2.849   6.460   1.684
 9410SOL    HW129129   2.802   6.376   1.658
 9410SOL    HW229130   2.888   6.450   1.776
 9411SOL     OW29131   4.299   3.764   1.647
 9411SOL    HW129132   4.303   3.854   1.691
 9411SOL    HW229133   4.218   3.716   1.677
 9412SOL     OW29134   0.137   2.939   1.444
 9412SOL    HW129135   0.085   2.854   1.454
 9412SOL    HW229136   0.080   3.016   1.472
 9413SOL     OW29137   3.250   6.113   4.580
 9413SOL    HW129138   3.337   6.084   4.621
 9413SOL    HW229139   3.228   6.053   4.503
 9414SOL     OW29140   3.044   0.767   3.875
 9414SOL    HW129141   2.963   0.710   3.891
 9414SOL    HW229142   3.060   0.777   3.777
 9415SOL     OW29143   2.908   6.949   1.973
 9415SOL    HW129144   2.907   6.876   1.904
 9415SOL    HW229145   2.874   0.011   1.932
 9416SOL     OW29146   1.028   1.800   1.008
 9416SOL    HW129147   1.012   1.899   1.010
 9416SOL    HW229148   0.980   1.757   1.085
 9417SOL     OW29149   3.829   6.598   5.560
 9417SOL    HW129150   3.735   6.608   5.592
 9417SOL    HW229151   3.859   6.503   5.573
 9418SOL     OW29152   3.403   5.982   1.804
 9418SOL    HW129153   3.464   5.965   1.727
 9418SOL    HW229154   3.430   6.067   1.850
 9419SOL     OW29155   3.148   5.014   5.799
 9419SOL    HW129156   3.083   5.074   5.752
 9419SOL    HW229157   3.099   4.959   5.867
 9420SOL     OW29158   0.657   2.456   5.075
 9420SOL    HW129159   0.674   2.554   5.071
 9420SOL    HW229160   0.558   2.439   5.077
 9421SOL     OW29161   1.907   6.237   4.994
 9421SOL    HW129162   1.976   6.242   5.066
 9421SOL    HW229163   1.948   6.260   4.906
 9422SOL     OW29164   4.996   6.414   3.153
 9422SOL    HW129165   4.973   6.334   3.097
 9422SOL    HW229166   5.079   6.395   3.205
 9423SOL     OW29167   4.336   0.473   3.262
 9423SOL    HW129168   4.358   0.377   3.278
 9423SOL    HW229169   4.420   0.527   3.257
 9424SOL     OW29170   5.044   0.915   4.856
 9424SOL    HW129171   5.075   1.006   4.882
 9424SOL    HW229172   5.092   0.846   4.910
 9425SOL     OW29173   6.415   3.582   6.419
 9425SOL    HW129174   6.477   3.619   6.488
 9425SOL    HW229175   6.468   3.537   6.347
 9426SOL     OW29176   2.824   2.137   6.835
 9426SOL    HW129177   2.774   2.171   6.755
 9426SOL    HW229178   2.813   2.038   6.842
 9427SOL     OW29179   2.734   5.505   4.266
 9427SOL    HW129180   2.738   5.545   4.358
 9427SOL    HW229181   2.783   5.565   4.203
 9428SOL     OW29182   5.208   0.471   1.029
 9428SOL    HW129183   5.307   0.486   1.033
 9428SOL    HW229184   5.161   0.546   1.076
 9429SOL     OW29185   1.989   3.781   2.187
 9429SOL    HW129186   2.019   3.687   2.175
 9429SOL    HW229187   2.028   3.817   2.272
 9430SOL     OW29188   0.204   4.390   1.926
 9430SOL    HW129189   0.164   4.361   2.012
 9430SOL    HW229190   0.297   4.425   1.942
 9431SOL     OW29191   5.697   3.880   1.178
 9431SOL    HW129192   5.660   3.828   1.256
 9431SOL    HW229193   5.727   3.970   1.210
 9432SOL     OW29194   5.351   0.979   3.009
 9432SOL    HW129195   5.363   0.962   2.911
 9432SOL    HW229196   5.369   0.894   3.060
 9433SOL     OW29197   3.825   4.854   3.471
 9433SOL    HW129198   3.858   4.861   3.565
 9433SOL    HW229199   3.886   4.794   3.418
 9434SOL     OW29200   5.318   5.299   3.491
 9434SOL    HW129201   5.253   5.233   3.529
 9434SOL    HW229202   5.356   5.263   3.405
 9435SOL     OW29203   0.451   2.336   4.740
 9435SOL    HW129204   0.389   2.398   4.693
 9435SOL    HW229205   0.410   2.307   4.827
 9436SOL     OW29206   0.909   3.459   1.983
 9436SOL    HW129207   0.886   3.407   2.066
 9436SOL    HW229208   1.008   3.456   1.969
 9437SOL     OW29209   2.468   6.374   3.279
 9437SOL    HW129210   2.371   6.349   3.277
 9437SOL    HW229211   2.523   6.293   3.300
 9438SOL     OW29212   0.371   6.706   1.645
 9438SOL    HW129213   0.364   6.798   1.684
 9438SOL    HW229214   0.279   6.671   1.627
 9439SOL     OW29215   0.630   2.606   1.548
 9439SOL    HW129216   0.631   2.600   1.647
 9439SOL    HW229217   0.537   2.626   1.517
 9440SOL     OW29218   4.147   5.508   4.010
 9440SOL    HW129219   4.109   5.527   4.101
 9440SOL    HW229220   4.074   5.476   3.949
 9441SOL     OW29221   1.745   3.523   4.986
 9441SOL    HW129222   1.665   3.463   4.976
 9441SOL    HW229223   1.796   3.524   4.900
 9442SOL     OW29224   4.514   3.232   0.261
 9442SOL    HW129225   4.530   3.198   0.168
 9442SOL    HW229226   4.590   3.291   0.287
 9443SOL     OW29227   2.324   4.941   1.470
 9443SOL    HW129228   2.403   4.950   1.410
 9443SOL    HW229229   2.313   5.024   1.524
 9444SOL     OW29230   1.252   3.989   6.775
 9444SOL    HW129231   1.271   3.971   6.871
 9444SOL    HW229232   1.206   4.077   6.766
 9445SOL     OW29233   5.738   3.525   2.786
 9445SOL    HW129234   5.660   3.526   2.723
 9445SOL    HW229235   5.819   3.492   2.737
 9446SOL     OW29236   6.552   6.586   4.326
 9446SOL    HW129237   6.515   6.546   4.243
 9446SOL    HW229238   6.652   6.589   4.321
 9447SOL     OW29239   6.107   3.432   3.941
 9447SOL    HW129240   6.096   3.516   3.995
 9447SOL    HW229241   6.091   3.352   4.000
 9448SOL     OW29242   6.923   6.658   6.375
 9448SOL    HW129243   6.886   6.709   6.453
 9448SOL    HW229244   7.017   6.630   6.395
 9449SOL     OW29245   0.137   6.044   6.926
 9449SOL    HW129246   0.167   6.069   6.834
 9449SOL    HW229247   0.070   6.112   6.958
 9450SOL     OW29248   3.120   5.431   4.947
 9450SOL    HW129249   3.211   5.431   4.990
 9450SOL    HW229250   3.058   5.490   5.000
 9451SOL     OW29251   3.847   6.509   6.150
 9451SOL    HW129252   3.918   6.566   6.192
 9451SOL    HW229253   3.757   6.541   6.179
 9452SOL     OW29254   1.377   3.895   0.667
 9452SOL    HW129255   1.304   3.935   0.722
 9452SOL    HW229256   1.409   3.963   0.600
 9453SOL     OW29257   2.305   5.242   3.553
 9453SOL    HW129258   2.328   5.285   3.641
 9453SOL    HW229259   2.310   5.310   3.481
 9454SOL     OW29260   2.192   3.432   6.898
 9454SOL    HW129261   2.251   3.508   6.872
 9454SOL    HW229262   2.114   3.427   6.835
 9455SOL     OW29263   4.005   1.764   2.692
 9455SOL    HW129264   3.936   1.837   2.697
 9455SOL    HW229265   4.060   1.765   2.776
 9456SOL     OW29266   0.701   3.835   0.800
 9456SOL    HW129267   0.731   3.757   0.745
 9456SOL    HW229268   0.619   3.810   0.850
 9457SOL     OW29269   2.405   4.193   5.342
 9457SOL    HW129270   2.401   4.272   5.281
 9457SOL    HW229271   2.409   4.109   5.287
 9458SOL     OW29272   1.267   3.301   0.002
 9458SOL    HW129273   1.233   3.385   6.981
 9458SOL    HW229274   1.280   3.231   6.954
 9459SOL     OW29275   5.544   4.660   2.590
 9459SOL    HW129276   5.565   4.578   2.536
 9459SOL    HW229277   5.593   4.656   2.677
 9460SOL     OW29278   0.256   2.536   3.815
 9460SOL    HW129279   0.298   2.527   3.906
 9460SOL    HW229280   0.221   2.629   3.804
 9461SOL     OW29281   6.552   1.603   2.700
 9461SOL    HW129282   6.603   1.634   2.620
 9461SOL    HW229283   6.455   1.595   2.678
 9462SOL     OW29284   2.152   3.894   2.690
 9462SOL    HW129285   2.121   3.799   2.676
 9462SOL    HW229286   2.159   3.912   2.788
 9463SOL     OW29287   0.423   0.865   1.649
 9463SOL    HW129288   0.339   0.813   1.668
 9463SOL    HW229289   0.500   0.802   1.645
 9464SOL     OW29290   5.934   6.954   0.993
 9464SOL    HW129291   5.987   6.996   1.066
 9464SOL    HW229292   5.991   6.943   0.912
 9465SOL     OW29293   0.992   5.835   3.143
 9465SOL    HW129294   0.962   5.905   3.208
 9465SOL    HW229295   0.976   5.744   3.181
 9466SOL     OW29296   4.398   4.757   5.433
 9466SOL    HW129297   4.394   4.718   5.525
 9466SOL    HW229298   4.328   4.828   5.424
 9467SOL     OW29299   1.328   2.350   1.416
 9467SOL    HW129300   1.395   2.328   1.487
 9467SOL    HW229301   1.267   2.273   1.402
 9468SOL     OW29302   6.268   2.205   6.320
 9468SOL    HW129303   6.213   2.123   6.341
 9468SOL    HW229304   6.207   2.278   6.288
 9469SOL     OW29305   5.823   6.177   1.697
 9469SOL    HW129306   5.738   6.161   1.646
 9469SOL    HW229307   5.901   6.164   1.636
 9470SOL     OW29308   4.784   4.080   5.482
 9470SOL    HW129309   4.735   4.076   5.569
 9470SOL    HW229310   4.882   4.084   5.499
 9471SOL     OW29311   6.420   1.606   4.851
 9471SOL    HW129312   6.349   1.568   4.792
 9471SOL    HW229313   6.509   1.570   4.824
 9472SOL     OW29314   5.943   3.187   4.464
 9472SOL    HW129315   6.011   3.260   4.460
 9472SOL    HW229316   5.852   3.226   4.459
 9473SOL     OW29317   2.804   5.428   5.350
 9473SOL    HW129318   2.852   5.475   5.424
 9473SOL    HW229319   2.864   5.358   5.311
 9474SOL     OW29320   6.797   3.379   0.474
 9474SOL    HW129321   6.783   3.401   0.571
 9474SOL    HW229322   6.739   3.302   0.449
 9475SOL     OW29323   2.786   3.692   0.157
 9475SOL    HW129324   2.829   3.644   0.233
 9475SOL    HW229325   2.779   3.631   0.078
 9476SOL     OW29326   2.851   3.193   5.295
 9476SOL    HW129327   2.946   3.221   5.299
 9476SOL    HW229328   2.825   3.149   5.381
 9477SOL     OW29329   0.130   3.858   2.457
 9477SOL    HW129330   0.128   3.953   2.488
 9477SOL    HW229331   0.051   3.810   2.493
 9478SOL     OW29332   5.389   2.836   6.226
 9478SOL    HW129333   5.397   2.827   6.127
 9478SOL    HW229334   5.440   2.916   6.257
 9479SOL     OW29335   4.697   6.383   6.904
 9479SOL    HW129336   4.668   6.471   6.867
 9479SOL    HW229337   4.677   6.380   7.002
 9480SOL     OW29338   5.095   3.637   0.703
 9480SOL    HW129339   5.071   3.605   0.795
 9480SOL    HW229340   5.112   3.735   0.705
 9481SOL     OW29341   5.636   3.491   2.151
 9481SOL    HW129342   5.629   3.404   2.199
 9481SOL    HW229343   5.661   3.475   2.056
 9482SOL     OW29344   6.739   0.526   3.192
 9482SOL    HW129345   6.823   0.478   3.169
 9482SOL    HW229346   6.737   0.614   3.145
 9483SOL     OW29347   0.941   1.468   1.737
 9483SOL    HW129348   1.006   1.431   1.671
 9483SOL    HW229349   0.867   1.514   1.688
 9484SOL     OW29350   4.261   1.040   3.419
 9484SOL    HW129351   4.296   1.117   3.366
 9484SOL    HW229352   4.194   1.072   3.485
 9485SOL     OW29353   0.702   0.264   2.039
 9485SOL    HW129354   0.655   0.216   2.113
 9485SOL    HW229355   0.740   0.198   1.974
 9486SOL     OW29356   2.352   5.220   1.510
 9486SOL    HW129357   2.389   5.247   1.599
 9486SOL    HW229358   2.252   5.230   1.511
 9487SOL     OW29359   2.902   3.493   3.250
 9487SOL    HW129360   2.928   3.515   3.156
 9487SOL    HW229361   2.877   3.576   3.298
 9488SOL     OW29362   1.570   6.514   1.040
 9488SOL    HW129363   1.667   6.502   1.017
 9488SOL    HW229364   1.516   6.446   0.990
 9489SOL     OW29365   4.188   3.995   1.436
 9489SOL    HW129366   4.192   3.899   1.410
 9489SOL    HW229367   4.279   4.027   1.463
 9490SOL     OW29368   6.609   5.563   0.897
 9490SOL    HW129369   6.541   5.563   0.971
 9490SOL    HW229370   6.626   5.469   0.868
 9491SOL     OW29371   6.775   4.001   4.118
 9491SOL    HW129372   6.810   4.031   4.029
 9491SOL    HW229373   6.680   4.030   4.129
 9492SOL     OW29374   3.657   2.879   3.081
 9492SOL    HW129375   3.559   2.882   3.062
 9492SOL    HW229376   3.675   2.920   3.170
 9493SOL     OW29377   3.646   5.599   3.866
 9493SOL    HW129378   3.728   5.577   3.812
 9493SOL    HW229379   3.573   5.534   3.842
 9494SOL     OW29380   4.404   4.692   1.346
 9494SOL    HW129381   4.377   4.771   1.291
 9494SOL    HW229382   4.483   4.716   1.403
 9495SOL     OW29383   6.436   1.836   3.942
 9495SOL    HW129384   6.376   1.894   3.887
 9495SOL    HW229385   6.402   1.742   3.941
 9496SOL     OW29386   5.761   4.907   0.919
 9496SOL    HW129387   5.800   4.837   0.859
 9496SOL    HW229388   5.677   4.872   0.961
 9497SOL     OW29389   6.526   5.230   6.549
 9497SOL    HW129390   6.573   5.235   6.637
 9497SOL    HW229391   6.429   5.207   6.564
 9498SOL     OW29392   5.340   0.095   4.892
 9498SOL    HW129393   5.321   0.063   4.985
 9498SOL    HW229394   5.401   0.029   4.847
 9499SOL     OW29395   2.260   5.174   6.585
 9499SOL    HW129396   2.329   5.150   6.654
 9499SOL    HW229397   2.245   5.095   6.525
 9500SOL     OW29398   4.891   0.015   1.310
 9500SOL    HW129399   4.845   0.030   1.223
 9500SOL    HW229400   4.857   0.081   1.378
 9501SOL     OW29401   2.766   1.427   4.878
 9501SOL    HW129402   2.736   1.454   4.787
 9501SOL    HW229403   2.833   1.493   4.913
 9502SOL     OW29404   0.329   2.224   4.998
 9502SOL    HW129405   0.303   2.195   5.091
 9502SOL    HW229406   0.382   2.152   4.954
 9503SOL     OW29407   0.648   1.577   0.897
 9503SOL    HW129408   0.568   1.628   0.928
 9503SOL    HW229409   0.692   1.626   0.822
 9504SOL     OW29410   6.905   2.210   0.750
 9504SOL    HW129411   6.833   2.153   0.709
 9504SOL    HW229412   6.987   2.207   0.693
 9505SOL     OW29413   5.607   4.637   3.507
 9505SOL    HW129414   5.545   4.709   3.540
 9505SOL    HW229415   5.560   4.549   3.509
 9506SOL     OW29416   0.150   2.766   6.746
 9506SOL    HW129417   0.248   2.780   6.732
 9506SOL    HW229418   0.127   2.785   6.841
 9507SOL     OW29419   1.240   1.520   3.312
 9507SOL    HW129420   1.156   1.568   3.336
 9507SOL    HW229421   1.218   1.430   3.276
 9508SOL     OW29422   6.427   3.671   0.818
 9508SOL    HW129423   6.457   3.632   0.905
 9508SOL    HW229424   6.383   3.599   0.763
 9509SOL     OW29425   0.794   0.681   5.175
 9509SOL    HW129426   0.702   0.650   5.197
 9509SOL    HW229427   0.803   0.778   5.199
 9510SOL     OW29428   1.316   3.833   2.356
 9510SOL    HW129429   1.355   3.925   2.353
 9510SOL    HW229430   1.311   3.801   2.450
 9511SOL     OW29431   0.617   1.544   7.009
 9511SOL    HW129432   0.633   1.594   0.072
 9511SOL    HW229433   0.522   1.554   6.982
 9512SOL     OW29434   5.608   1.555   1.714
 9512SOL    HW129435   5.650   1.480   1.765
 9512SOL    HW229436   5.626   1.641   1.761
 9513SOL     OW29437   1.779   3.280   5.698
 9513SOL    HW129438   1.764   3.365   5.647
 9513SOL    HW229439   1.704   3.216   5.679
 9514SOL     OW29440   2.253   4.352   6.986
 9514SOL    HW129441   2.336   4.405   7.006
 9514SOL    HW229442   2.270   4.292   6.908
 9515SOL     OW29443   1.231   5.822   0.855
 9515SOL    HW129444   1.281   5.820   0.768
 9515SOL    HW229445   1.238   5.913   0.895
 9516SOL     OW29446   5.726   3.310   5.150
 9516SOL    HW129447   5.815   3.277   5.116
 9516SOL    HW229448   5.734   3.406   5.176
 9517SOL     OW29449   0.898   4.557   0.831
 9517SOL    HW129450   0.897   4.631   0.898
 9517SOL    HW229451   0.992   4.532   0.811
 9518SOL     OW29452   1.350   2.259   0.201
 9518SOL    HW129453   1.271   2.241   0.143
 9518SOL    HW229454   1.423   2.300   0.146
 9519SOL     OW29455   3.382   4.032   4.420
 9519SOL    HW129456   3.346   3.950   4.464
 9519SOL    HW229457   3.319   4.061   4.347
 9520SOL     OW29458   0.611   1.478   3.316
 9520SOL    HW129459   0.686   1.489   3.382
 9520SOL    HW229460   0.540   1.421   3.356
 9521SOL     OW29461   3.783   4.462   1.226
 9521SOL    HW129462   3.733   4.418   1.152
 9521SOL    HW229463   3.881   4.458   1.207
 9522SOL     OW29464   4.212   5.305   1.636
 9522SOL    HW129465   4.140   5.370   1.658
 9522SOL    HW229466   4.193   5.217   1.681
 9523SOL     OW29467   2.539   5.201   4.485
 9523SOL    HW129468   2.449   5.208   4.440
 9523SOL    HW229469   2.599   5.145   4.428
 9524SOL     OW29470   2.490   3.101   0.657
 9524SOL    HW129471   2.426   3.177   0.671
 9524SOL    HW229472   2.444   3.014   0.678
 9525SOL     OW29473   2.625   1.951   5.660
 9525SOL    HW129474   2.627   1.852   5.646
 9525SOL    HW229475   2.707   1.980   5.709
 9526SOL     OW29476   6.102   4.428   0.960
 9526SOL    HW129477   6.051   4.344   0.980
 9526SOL    HW229478   6.171   4.409   0.890
 9527SOL     OW29479   1.118   0.351   4.335
 9527SOL    HW129480   1.093   0.447   4.320
 9527SOL    HW229481   1.217   0.340   4.322
 9528SOL     OW29482   0.046   1.679   1.067
 9528SOL    HW129483   0.117   1.613   1.090
 9528SOL    HW229484   0.020   1.669   0.971
 9529SOL     OW29485   6.309   3.248   6.181
 9529SOL    HW129486   6.284   3.206   6.094
 9529SOL    HW229487   6.278   3.190   6.256
 9530SOL     OW29488   1.725   3.124   3.230
 9530SOL    HW129489   1.629   3.122   3.260
 9530SOL    HW229490   1.728   3.159   3.136
 9531SOL     OW29491   4.929   4.378   2.405
 9531SOL    HW129492   4.997   4.306   2.423
 9531SOL    HW229493   4.845   4.357   2.456
 9532SOL     OW29494   0.410   5.845   1.078
 9532SOL    HW129495   0.335   5.814   1.020
 9532SOL    HW229496   0.378   5.848   1.173
 9533SOL     OW29497   0.218   5.789   4.844
 9533SOL    HW129498   0.149   5.751   4.906
 9533SOL    HW229499   0.183   5.873   4.802
 9534SOL     OW29500   6.453   4.296   5.004
 9534SOL    HW129501   6.377   4.295   4.939
 9534SOL    HW229502   6.514   4.219   4.986
 9535SOL     OW29503   1.754   0.674   5.741
 9535SOL    HW129504   1.787   0.726   5.819
 9535SOL    HW229505   1.774   0.724   5.656
 9536SOL     OW29506   3.174   4.249   5.241
 9536SOL    HW129507   3.164   4.216   5.147
 9536SOL    HW229508   3.098   4.310   5.263
 9537SOL     OW29509   2.703   6.956   4.457
 9537SOL    HW129510   2.686   6.906   4.372
 9537SOL    HW229511   2.749   6.897   4.522
 9538SOL     OW29512   5.701   0.581   3.911
 9538SOL    HW129513   5.635   0.546   3.978
 9538SOL    HW229514   5.651   0.620   3.833
 9539SOL     OW29515   3.457   3.673   4.344
 9539SOL    HW129516   3.551   3.698   4.322
 9539SOL    HW229517   3.415   3.746   4.398
 9540SOL     OW29518   6.001   4.808   4.151
 9540SOL    HW129519   5.901   4.808   4.146
 9540SOL    HW229520   6.039   4.847   4.067
 9541SOL     OW29521   3.024   0.111   6.356
 9541SOL    HW129522   2.993   0.025   6.397
 9541SOL    HW229523   2.944   0.167   6.332
 9542SOL     OW29524   4.692   4.204   5.066
 9542SOL    HW129525   4.720   4.164   4.979
 9542SOL    HW229526   4.640   4.288   5.049
 9543SOL     OW29527   3.745   0.586   5.679
 9543SOL    HW129528   3.728   0.571   5.582
 9543SOL    HW229529   3.814   0.658   5.690
 9544SOL     OW29530   6.383   2.043   3.685
 9544SOL    HW129531   6.407   1.947   3.676
 9544SOL    HW229532   6.394   2.089   3.596
 9545SOL     OW29533   5.865   6.016   3.957
 9545SOL    HW129534   5.844   5.928   3.914
 9545SOL    HW229535   5.916   6.073   3.893
 9546SOL     OW29536   4.042   2.027   5.483
 9546SOL    HW129537   4.033   1.954   5.415
 9546SOL    HW229538   3.992   2.108   5.452
 9547SOL     OW29539   2.743   4.991   4.448
 9547SOL    HW129540   2.789   4.914   4.491
 9547SOL    HW229541   2.807   5.066   4.436
 9548SOL     OW29542   5.902   4.544   5.666
 9548SOL    HW129543   5.848   4.626   5.686
 9548SOL    HW229544   5.966   4.564   5.591
 9549SOL     OW29545   3.025   2.488   1.327
 9549SOL    HW129546   3.097   2.418   1.322
 9549SOL    HW229547   2.966   2.469   1.405
 9550SOL     OW29548   0.095   1.199   0.469
 9550SOL    HW129549   0.049   1.281   0.435
 9550SOL    HW229550   0.049   1.167   0.552
 9551SOL     OW29551   5.857   2.381   6.140
 9551SOL    HW129552   5.825   2.313   6.205
 9551SOL    HW229553   5.783   2.445   6.119
 9552SOL     OW29554   1.676   6.537   4.440
 9552SOL    HW129555   1.716   6.520   4.530
 9552SOL    HW229556   1.674   6.636   4.424
 9553SOL     OW29557   6.018   2.057   6.817
 9553SOL    HW129558   5.991   2.148   6.786
 9553SOL    HW229559   6.072   2.012   6.746
 9554SOL     OW29560   2.692   0.052   2.138
 9554SOL    HW129561   2.694   0.119   2.064
 9554SOL    HW229562   2.722   0.096   2.223
 9555SOL     OW29563   1.265   1.025   2.885
 9555SOL    HW129564   1.298   1.118   2.869
 9555SOL    HW229565   1.257   0.977   2.797
 9556SOL     OW29566   2.097   3.964   1.500
 9556SOL    HW129567   2.047   3.899   1.442
 9556SOL    HW229568   2.031   4.015   1.556
 9557SOL     OW29569   6.615   5.909   2.277
 9557SOL    HW129570   6.562   5.882   2.197
 9557SOL    HW229571   6.713   5.905   2.255
 9558SOL     OW29572   5.883   6.348   5.505
 9558SOL    HW129573   5.880   6.248   5.507
 9558SOL    HW229574   5.885   6.379   5.410
 9559SOL     OW29575   0.198   4.692   0.963
 9559SOL    HW129576   0.207   4.789   0.982
 9559SOL    HW229577   0.206   4.640   1.049
 9560SOL     OW29578   2.336   1.509   3.475
 9560SOL    HW129579   2.323   1.597   3.521
 9560SOL    HW229580   2.425   1.507   3.430
 9561SOL     OW29581   2.062   0.342   0.540
 9561SOL    HW129582   2.123   0.330   0.462
 9561SOL    HW229583   1.994   0.412   0.520
 9562SOL     OW29584   2.673   0.515   5.488
 9562SOL    HW129585   2.675   0.551   5.581
 9562SOL    HW229586   2.739   0.441   5.479
 9563SOL     OW29587   0.062   6.410   0.652
 9563SOL    HW129588   0.053   6.326   0.705
 9563SOL    HW229589   0.043   6.391   0.555
 9564SOL     OW29590   2.985   0.560   0.477
 9564SOL    HW129591   2.928   0.501   0.420
 9564SOL    HW229592   2.950   0.560   0.571
 9565SOL     OW29593   3.719   0.788   4.693
 9565SOL    HW129594   3.717   0.688   4.701
 9565SOL    HW229595   3.767   0.827   4.772
 9566SOL     OW29596   2.554   4.902   0.096
 9566SOL    HW129597   2.615   4.832   0.058
 9566SOL    HW229598   2.606   4.985   0.114
 9567SOL     OW29599   5.131   5.385   0.839
 9567SOL    HW129600   5.082   5.443   0.773
 9567SOL    HW229601   5.180   5.313   0.790
 9568SOL     OW29602   4.507   2.669   6.417
 9568SOL    HW129603   4.495   2.708   6.325
 9568SOL    HW229604   4.422   2.623   6.444
 9569SOL     OW29605   6.978   1.299   2.320
 9569SOL    HW129606   6.994   1.309   2.418
 9569SOL    HW229607   0.012   1.365   2.270
 9570SOL     OW29608   0.796   3.217   1.853
 9570SOL    HW129609   0.788   3.219   1.753
 9570SOL    HW229610   0.837   3.302   1.884
 9571SOL     OW29611   3.466   4.168   6.242
 9571SOL    HW129612   3.386   4.110   6.234
 9571SOL    HW229613   3.440   4.264   6.226
 9572SOL     OW29614   2.048   4.843   1.991
 9572SOL    HW129615   2.047   4.871   1.895
 9572SOL    HW229616   2.139   4.857   2.029
 9573SOL     OW29617   0.703   3.069   6.549
 9573SOL    HW129618   0.728   3.129   6.473
 9573SOL    HW229619   0.784   3.045   6.602
 9574SOL     OW29620   3.978   3.589   3.288
 9574SOL    HW129621   3.927   3.674   3.301
 9574SOL    HW229622   3.917   3.511   3.302
 9575SOL     OW29623   0.394   1.124   1.179
 9575SOL    HW129624   0.471   1.170   1.134
 9575SOL    HW229625   0.370   1.041   1.128
 9576SOL     OW29626   1.978   0.815   1.623
 9576SOL    HW129627   1.898   0.757   1.641
 9576SOL    HW229628   1.953   0.889   1.562
 9577SOL     OW29629   1.139   0.719   6.493
 9577SOL    HW129630   1.112   0.672   6.409
 9577SOL    HW229631   1.237   0.737   6.492
 9578SOL     OW29632   0.545   3.564   3.358
 9578SOL    HW129633   0.477   3.582   3.429
 9578SOL    HW229634   0.498   3.541   3.273
 9579SOL     OW29635   1.659   5.106   2.799
 9579SOL    HW129636   1.643   5.143   2.708
 9579SOL    HW229637   1.730   5.160   2.845
 9580SOL     OW29638   4.780   4.062   0.820
 9580SOL    HW129639   4.742   4.150   0.845
 9580SOL    HW229640   4.708   4.003   0.784
 9581SOL     OW29641   6.995   5.321   5.826
 9581SOL    HW129642   0.036   5.250   5.795
 9581SOL    HW229643   6.974   5.306   5.923
 9582SOL     OW29644   4.862   5.118   6.370
 9582SOL    HW129645   4.854   5.126   6.271
 9582SOL    HW229646   4.798   5.049   6.404
 9583SOL     OW29647   3.729   4.055   1.402
 9583SOL    HW129648   3.650   4.016   1.449
 9583SOL    HW229649   3.709   4.063   1.304
 9584SOL     OW29650   0.121   5.728   6.791
 9584SOL    HW129651   0.186   5.753   6.862
 9584SOL    HW229652   0.169   5.679   6.718
 9585SOL     OW29653   0.049   0.412   4.845
 9585SOL    HW129654   6.995   0.419   4.909
 9585SOL    HW229655   0.055   0.497   4.791
 9586SOL     OW29656   5.706   4.867   1.777
 9586SOL    HW129657   5.698   4.792   1.843
 9586SOL    HW229658   5.765   4.838   1.702
 9587SOL     OW29659   0.598   0.632   1.894
 9587SOL    HW129660   0.592   0.599   1.800
 9587SOL    HW229661   0.685   0.602   1.934
 9588SOL     OW29662   6.466   1.330   1.458
 9588SOL    HW129663   6.559   1.335   1.421
 9588SOL    HW229664   6.408   1.278   1.396
 9589SOL     OW29665   2.114   4.967   6.819
 9589SOL    HW129666   2.196   4.925   6.779
 9589SOL    HW229667   2.119   4.958   6.919
 9590SOL     OW29668   6.535   3.212   2.111
 9590SOL    HW129669   6.524   3.296   2.164
 9590SOL    HW229670   6.522   3.133   2.171
 9591SOL     OW29671   3.035   6.353   5.892
 9591SOL    HW129672   3.017   6.379   5.797
 9591SOL    HW229673   2.949   6.342   5.940
 9592SOL     OW29674   3.903   4.146   1.063
 9592SOL    HW129675   3.917   4.136   0.964
 9592SOL    HW229676   3.860   4.234   1.082
 9593SOL     OW29677   0.199   0.875   5.753
 9593SOL    HW129678   0.290   0.861   5.714
 9593SOL    HW229679   0.198   0.845   5.849
 9594SOL     OW29680   1.734   5.688   2.459
 9594SOL    HW129681   1.772   5.671   2.550
 9594SOL    HW229682   1.737   5.603   2.406
 9595SOL     OW29683   0.436   4.409   5.288
 9595SOL    HW129684   0.464   4.314   5.272
 9595SOL    HW229685   0.509   4.458   5.336
 9596SOL     OW29686   6.913   5.518   6.220
 9596SOL    HW129687   6.909   5.573   6.303
 9596SOL    HW229688   6.885   5.574   6.142
 9597SOL     OW29689   0.684   4.210   1.630
 9597SOL    HW129690   0.657   4.115   1.645
 9597SOL    HW229691   0.781   4.214   1.609
 9598SOL     OW29692   1.360   3.745   4.108
 9598SOL    HW129693   1.415   3.744   4.024
 9598SOL    HW229694   1.265   3.724   4.085
 9599SOL     OW29695   4.147   0.117   4.501
 9599SOL    HW129696   4.099   0.033   4.527
 9599SOL    HW229697   4.093   0.166   4.433
 9600SOL     OW29698   2.111   6.749   6.340
 9600SOL    HW129699   2.159   6.684   6.399
 9600SOL    HW229700   2.165   6.833   6.333
 9601SOL     OW29701   5.359   3.964   1.214
 9601SOL    HW129702   5.361   3.964   1.114
 9601SOL    HW229703   5.412   4.041   1.249
 9602SOL     OW29704   6.702   5.121   6.318
 9602SOL    HW129705   6.655   5.149   6.402
 9602SOL    HW229706   6.790   5.168   6.313
 9603SOL     OW29707   3.889   1.467   3.744
 9603SOL    HW129708   3.826   1.486   3.819
 9603SOL    HW229709   3.841   1.472   3.657
 9604SOL     OW29710   4.118   7.004   0.046
 9604SOL    HW129711   4.103   6.937   6.996
 9604SOL    HW229712   4.074   0.068   0.020
 9605SOL     OW29713   0.846   5.361   3.436
 9605SOL    HW129714   0.915   5.289   3.425
 9605SOL    HW229715   0.775   5.350   3.367
 9606SOL     OW29716   1.890   6.397   6.360
 9606SOL    HW129717   1.826   6.320   6.367
 9606SOL    HW229718   1.962   6.387   6.428
 9607SOL     OW29719   2.045   1.695   6.996
 9607SOL    HW129720   1.990   1.692   6.913
 9607SOL    HW229721   2.015   1.624   0.036
 9608SOL     OW29722   6.629   5.649   2.401
 9608SOL    HW129723   6.615   5.741   2.363
 9608SOL    HW229724   6.692   5.654   2.478
 9609SOL     OW29725   2.050   4.103   6.416
 9609SOL    HW129726   1.963   4.058   6.396
 9609SOL    HW229727   2.038   4.167   6.491
 9610SOL     OW29728   1.501   5.254   4.429
 9610SOL    HW129729   1.410   5.251   4.470
 9610SOL    HW229730   1.516   5.344   4.388
 9611SOL     OW29731   0.415   6.414   6.858
 9611SOL    HW129732   0.377   6.422   6.950
 9611SOL    HW229733   0.493   6.352   6.860
 9612SOL     OW29734   0.548   4.076   1.828
 9612SOL    HW129735   0.579   4.169   1.810
 9612SOL    HW229736   0.481   4.076   1.902
 9613SOL     OW29737   4.952   6.598   3.442
 9613SOL    HW129738   4.929   6.501   3.438
 9613SOL    HW229739   5.025   6.617   3.376
 9614SOL     OW29740   3.134   2.213   0.471
 9614SOL    HW129741   3.203   2.206   0.398
 9614SOL    HW229742   3.046   2.239   0.431
 9615SOL     OW29743   0.970   0.033   0.755
 9615SOL    HW129744   1.063   0.008   0.781
 9615SOL    HW229745   0.907   0.008   0.829
 9616SOL     OW29746   4.494   3.493   1.363
 9616SOL    HW129747   4.516   3.436   1.284
 9616SOL    HW229748   4.469   3.434   1.440
 9617SOL     OW29749   2.265   2.878   3.429
 9617SOL    HW129750   2.303   2.876   3.521
 9617SOL    HW229751   2.186   2.939   3.427
 9618SOL     OW29752   3.875   6.630   5.267
 9618SOL    HW129753   3.957   6.572   5.269
 9618SOL    HW229754   3.857   6.665   5.359
 9619SOL     OW29755   1.129   6.724   0.367
 9619SOL    HW129756   1.040   6.743   0.325
 9619SOL    HW229757   1.137   6.777   0.452
 9620SOL     OW29758   4.282   2.514   6.934
 9620SOL    HW129759   4.215   2.551   6.999
 9620SOL    HW229760   4.308   2.422   6.963
 9621SOL     OW29761   0.609   0.807   2.227
 9621SOL    HW129762   0.557   0.860   2.161
 9621SOL    HW229763   0.607   0.854   2.316
 9622SOL     OW29764   6.761   0.514   0.246
 9622SOL    HW129765   6.731   0.475   0.333
 9622SOL    HW229766   6.685   0.512   0.181
 9623SOL     OW29767   3.073   4.832   5.998
 9623SOL    HW129768   3.024   4.746   5.990
 9623SOL    HW229769   3.142   4.824   6.071
 9624SOL     OW29770   6.724   4.602   2.450
 9624SOL    HW129771   6.817   4.615   2.415
 9624SOL    HW229772   6.696   4.683   2.501
 9625SOL     OW29773   4.994   5.834   0.380
 9625SOL    HW129774   5.026   5.803   0.469
 9625SOL    HW229775   4.896   5.818   0.372
 9626SOL     OW29776   3.100   6.140   6.801
 9626SOL    HW129777   3.001   6.153   6.804
 9626SOL    HW229778   3.122   6.066   6.738
 9627SOL     OW29779   6.921   4.894   3.344
 9627SOL    HW129780   6.968   4.982   3.356
 9627SOL    HW229781   6.834   4.909   3.298
 9628SOL     OW29782   5.611   5.176   6.402
 9628SOL    HW129783   5.596   5.199   6.306
 9628SOL    HW229784   5.580   5.083   6.420
 9629SOL     OW29785   0.418   6.322   2.909
 9629SOL    HW129786   0.480   6.370   2.846
 9629SOL    HW229787   0.471   6.272   2.977
 9630SOL     OW29788   6.540   6.107   5.559
 9630SOL    HW129789   6.581   6.020   5.589
 9630SOL    HW229790   6.472   6.136   5.626
 9631SOL     OW29791   6.017   0.167   0.108
 9631SOL    HW129792   5.947   0.098   0.092
 9631SOL    HW229793   5.974   0.250   0.145
 9632SOL     OW29794   2.515   5.558   2.472
 9632SOL    HW129795   2.493   5.461   2.482
 9632SOL    HW229796   2.431   5.612   2.475
 9633SOL     OW29797   4.988   4.618   0.058
 9633SOL    HW129798   5.061   4.604   7.014
 9633SOL    HW229799   5.025   4.667   0.138
 9634SOL     OW29800   1.060   6.957   4.417
 9634SOL    HW129801   1.038   6.902   4.498
 9634SOL    HW229802   1.039   0.031   4.436
 9635SOL     OW29803   1.317   4.462   5.764
 9635SOL    HW129804   1.276   4.394   5.703
 9635SOL    HW229805   1.305   4.434   5.859
 9636SOL     OW29806   4.096   1.999   6.115
 9636SOL    HW129807   4.113   2.018   6.019
 9636SOL    HW229808   4.013   1.943   6.124
 9637SOL     OW29809   2.454   1.901   6.541
 9637SOL    HW129810   2.434   1.808   6.512
 9637SOL    HW229811   2.395   1.925   6.618
 9638SOL     OW29812   6.917   3.297   0.114
 9638SOL    HW129813   6.826   3.267   0.140
 9638SOL    HW229814   6.912   3.356   0.033
 9639SOL     OW29815   3.812   1.904   2.041
 9639SOL    HW129816   3.862   1.952   2.113
 9639SOL    HW229817   3.876   1.873   1.971
 9640SOL     OW29818   3.058   1.782   2.968
 9640SOL    HW129819   2.997   1.838   2.913
 9640SOL    HW229820   3.117   1.728   2.908
 9641SOL     OW29821   5.169   6.310   0.919
 9641SOL    HW129822   5.263   6.309   0.886
 9641SOL    HW229823   5.164   6.363   1.004
 9642SOL     OW29824   2.835   6.008   4.821
 9642SOL    HW129825   2.921   6.040   4.860
 9642SOL    HW229826   2.839   6.015   4.721
 9643SOL     OW29827   6.219   4.462   4.049
 9643SOL    HW129828   6.260   4.511   3.972
 9643SOL    HW229829   6.240   4.511   4.134
 9644SOL     OW29830   0.902   5.197   4.645
 9644SOL    HW129831   0.927   5.195   4.741
 9644SOL    HW229832   0.932   5.112   4.600
 9645SOL     OW29833   3.822   4.893   3.758
 9645SOL    HW129834   3.847   4.989   3.772
 9645SOL    HW229835   3.723   4.884   3.753
 9646SOL     OW29836   2.804   4.888   1.915
 9646SOL    HW129837   2.798   4.789   1.925
 9646SOL    HW229838   2.875   4.923   1.976
 9647SOL     OW29839   6.999   5.793   1.500
 9647SOL    HW129840   6.905   5.766   1.482
 9647SOL    HW229841   0.038   5.718   1.474
 9648SOL     OW29842   3.810   2.006   0.301
 9648SOL    HW129843   3.737   1.940   0.285
 9648SOL    HW229844   3.826   2.059   0.218
 9649SOL     OW29845   2.832   5.617   7.020
 9649SOL    HW129846   2.903   5.630   0.066
 9649SOL    HW229847   2.874   5.617   6.929
 9650SOL     OW29848   4.937   4.590   3.627
 9650SOL    HW129849   4.883   4.577   3.544
 9650SOL    HW229850   4.897   4.664   3.682
 9651SOL     OW29851   6.637   0.793   6.672
 9651SOL    HW129852   6.600   0.883   6.691
 9651SOL    HW229853   6.708   0.800   6.602
 9652SOL     OW29854   2.207   4.394   0.720
 9652SOL    HW129855   2.149   4.377   0.800
 9652SOL    HW229856   2.155   4.443   0.651
 9653SOL     OW29857   4.526   5.611   4.851
 9653SOL    HW129858   4.496   5.666   4.929
 9653SOL    HW229859   4.467   5.631   4.772
 9654SOL     OW29860   3.742   3.294   2.264
 9654SOL    HW129861   3.694   3.295   2.177
 9654SOL    HW229862   3.821   3.232   2.259
 9655SOL     OW29863   0.091   1.051   0.090
 9655SOL    HW129864   0.033   1.019   0.164
 9655SOL    HW229865   0.084   1.150   0.081
 9656SOL     OW29866   3.726   2.168   0.928
 9656SOL    HW129867   3.756   2.156   1.022
 9656SOL    HW229868   3.629   2.193   0.927
 9657SOL     OW29869   6.004   1.640   3.016
 9657SOL    HW129870   5.996   1.588   3.101
 9657SOL    HW229871   6.037   1.580   2.943
 9658SOL     OW29872   5.760   1.220   2.727
 9658SOL    HW129873   5.784   1.316   2.722
 9658SOL    HW229874   5.723   1.190   2.639
 9659SOL     OW29875   6.841   3.710   0.653
 9659SOL    HW129876   6.897   3.781   0.610
 9659SOL    HW229877   6.745   3.725   0.629
 9660SOL     OW29878   6.871   6.188   2.034
 9660SOL    HW129879   6.910   6.175   1.943
 9660SOL    HW229880   6.868   6.100   2.082
 9661SOL     OW29881   3.261   6.393   2.020
 9661SOL    HW129882   3.301   6.305   2.046
 9661SOL    HW229883   3.260   6.453   2.099
 9662SOL     OW29884   4.860   2.657   5.212
 9662SOL    HW129885   4.934   2.701   5.160
 9662SOL    HW229886   4.772   2.694   5.180
 9663SOL     OW29887   0.595   6.149   3.998
 9663SOL    HW129888   0.618   6.175   4.091
 9663SOL    HW229889   0.520   6.083   3.999
 9664SOL     OW29890   5.711   6.271   4.252
 9664SOL    HW129891   5.791   6.319   4.215
 9664SOL    HW229892   5.709   6.280   4.351
 9665SOL     OW29893   5.135   6.537   0.170
 9665SOL    HW129894   5.221   6.580   0.141
 9665SOL    HW229895   5.154   6.457   0.227
 9666SOL     OW29896   5.865   3.747   1.521
 9666SOL    HW129897   5.782   3.721   1.473
 9666SOL    HW229898   5.911   3.821   1.472
 9667SOL     OW29899   3.912   3.152   5.602
 9667SOL    HW129900   3.899   3.149   5.503
 9667SOL    HW229901   3.829   3.187   5.646
 9668SOL     OW29902   6.968   0.996   5.923
 9668SOL    HW129903   0.032   0.948   5.937
 9668SOL    HW229904   6.967   1.037   5.833
 9669SOL     OW29905   1.505   0.344   1.996
 9669SOL    HW129906   1.407   0.348   2.017
 9669SOL    HW229907   1.523   0.392   1.911
 9670SOL     OW29908   6.050   4.776   6.396
 9670SOL    HW129909   5.962   4.750   6.434
 9670SOL    HW229910   6.057   4.875   6.391
 9671SOL     OW29911   5.934   5.058   6.751
 9671SOL    HW129912   5.891   5.131   6.698
 9671SOL    HW229913   6.031   5.051   6.726
 9672SOL     OW29914   1.742   6.138   4.155
 9672SOL    HW129915   1.734   6.235   4.132
 9672SOL    HW229916   1.652   6.101   4.177
 9673SOL     OW29917   5.233   3.752   0.415
 9673SOL    HW129918   5.243   3.656   0.441
 9673SOL    HW229919   5.321   3.788   0.384
 9674SOL     OW29920   2.602   6.016   3.040
 9674SOL    HW129921   2.599   5.943   2.972
 9674SOL    HW229922   2.584   5.977   3.131
 9675SOL     OW29923   5.996   2.195   0.246
 9675SOL    HW129924   5.898   2.214   0.254
 9675SOL    HW229925   6.009   2.104   0.206
 9676SOL     OW29926   1.108   3.716   5.683
 9676SOL    HW129927   1.075   3.807   5.657
 9676SOL    HW229928   1.206   3.710   5.667
 9677SOL     OW29929   1.162   5.376   4.915
 9677SOL    HW129930   1.200   5.309   4.850
 9677SOL    HW229931   1.202   5.361   5.005
 9678SOL     OW29932   3.189   3.677   3.308
 9678SOL    HW129933   3.107   3.713   3.353
 9678SOL    HW229934   3.203   3.582   3.335
 9679SOL     OW29935   2.374   0.882   2.145
 9679SOL    HW129936   2.324   0.965   2.122
 9679SOL    HW229937   2.341   0.806   2.090
 9680SOL     OW29938   5.202   1.123   3.216
 9680SOL    HW129939   5.293   1.140   3.179
 9680SOL    HW229940   5.199   1.031   3.256
 9681SOL     OW29941   3.061   1.119   0.233
 9681SOL    HW129942   3.135   1.055   0.253
 9681SOL    HW229943   3.094   1.213   0.240
 9682SOL     OW29944   5.025   4.881   4.144
 9682SOL    HW129945   4.959   4.826   4.194
 9682SOL    HW229946   5.079   4.823   4.083
 9683SOL     OW29947   2.461   5.593   0.833
 9683SOL    HW129948   2.479   5.522   0.901
 9683SOL    HW229949   2.536   5.660   0.834
 9684SOL     OW29950   0.750   3.151   5.226
 9684SOL    HW129951   0.736   3.232   5.169
 9684SOL    HW229952   0.703   3.073   5.185
 9685SOL     OW29953   2.384   4.164   1.260
 9685SOL    HW129954   2.302   4.116   1.229
 9685SOL    HW229955   2.376   4.261   1.236
 9686SOL     OW29956   6.674   1.444   6.845
 9686SOL    HW129957   6.584   1.401   6.852
 9686SOL    HW229958   6.668   1.526   6.787
 9687SOL     OW29959   1.926   0.743   4.269
 9687SOL    HW129960   2.013   0.697   4.252
 9687SOL    HW229961   1.883   0.768   4.182
 9688SOL     OW29962   0.476   2.468   2.523
 9688SOL    HW129963   0.432   2.504   2.606
 9688SOL    HW229964   0.441   2.517   2.443
 9689SOL     OW29965   1.565   5.801   6.776
 9689SOL    HW129966   1.580   5.702   6.774
 9689SOL    HW229967   1.641   5.847   6.729
 9690SOL     OW29968   6.096   6.057   6.744
 9690SOL    HW129969   6.129   5.977   6.794
 9690SOL    HW229970   6.110   6.139   6.799
 9691SOL     OW29971   2.656   5.208   1.363
 9691SOL    HW129972   2.752   5.219   1.386
 9691SOL    HW229973   2.602   5.201   1.447
 9692SOL     OW29974   3.670   5.431   2.913
 9692SOL    HW129975   3.586   5.376   2.917
 9692SOL    HW229976   3.685   5.474   3.002
 9693SOL     OW29977   6.128   5.110   1.452
 9693SOL    HW129978   6.218   5.136   1.417
 9693SOL    HW229979   6.135   5.090   1.550
 9694SOL     OW29980   2.120   0.821   0.193
 9694SOL    HW129981   2.110   0.858   0.100
 9694SOL    HW229982   2.037   0.838   0.245
 9695SOL     OW29983   0.049   3.763   2.209
 9695SOL    HW129984   0.130   3.725   2.165
 9695SOL    HW229985   0.070   3.787   2.303
 9696SOL     OW29986   5.344   3.532   0.637
 9696SOL    HW129987   5.255   3.568   0.666
 9696SOL    HW229988   5.337   3.433   0.622
 9697SOL     OW29989   0.475   6.182   6.513
 9697SOL    HW129990   0.410   6.115   6.478
 9697SOL    HW229991   0.447   6.274   6.484
 9698SOL     OW29992   4.409   1.338   5.904
 9698SOL    HW129993   4.448   1.255   5.944
 9698SOL    HW229994   4.454   1.357   5.817
 9699SOL     OW29995   0.132   5.149   6.394
 9699SOL    HW129996   0.177   5.118   6.478
 9699SOL    HW229997   0.051   5.203   6.419
 9700SOL     OW29998   4.397   5.031   5.062
 9700SOL    HW129999   4.397   5.016   4.963
 9700SOL    HW230000   4.396   4.942   5.109
 9701SOL     OW30001   4.031   4.840   5.041
 9701SOL    HW130002   3.951   4.882   4.997
 9701SOL    HW230003   4.001   4.773   5.109
 9702SOL     OW30004   4.838   0.076   6.853
 9702SOL    HW130005   4.869   0.010   6.785
 9702SOL    HW230006   4.812   0.028   6.937
 9703SOL     OW30007   4.345   4.668   3.997
 9703SOL    HW130008   4.406   4.720   4.057
 9703SOL    HW230009   4.250   4.696   4.013
 9704SOL     OW30010   3.145   0.929   3.001
 9704SOL    HW130011   3.132   0.960   2.906
 9704SOL    HW230012   3.066   0.957   3.056
 9705SOL     OW30013   5.987   4.711   6.119
 9705SOL    HW130014   6.004   4.712   6.218
 9705SOL    HW230015   5.981   4.616   6.087
 9706SOL     OW30016   0.562   2.882   1.002
 9706SOL    HW130017   0.597   2.948   1.069
 9706SOL    HW230018   0.634   2.818   0.978
 9707SOL     OW30019   6.342   4.724   1.731
 9707SOL    HW130020   6.383   4.686   1.813
 9707SOL    HW230021   6.276   4.659   1.693
 9708SOL     OW30022   1.335   2.048   2.460
 9708SOL    HW130023   1.275   2.087   2.529
 9708SOL    HW230024   1.302   2.073   2.369
 9709SOL     OW30025   5.831   6.051   3.022
 9709SOL    HW130026   5.839   5.988   3.099
 9709SOL    HW230027   5.893   6.128   3.035
 9710SOL     OW30028   0.179   1.427   1.907
 9710SOL    HW130029   0.248   1.359   1.882
 9710SOL    HW230030   0.088   1.393   1.883
 9711SOL     OW30031   2.206   4.470   6.284
 9711SOL    HW130032   2.211   4.375   6.253
 9711SOL    HW230033   2.117   4.487   6.326
 9712SOL     OW30034   6.298   4.668   6.400
 9712SOL    HW130035   6.297   4.579   6.444
 9712SOL    HW230036   6.204   4.698   6.384
 9713SOL     OW30037   1.276   4.885   3.260
 9713SOL    HW130038   1.215   4.963   3.246
 9713SOL    HW230039   1.293   4.839   3.172
 9714SOL     OW30040   3.104   0.828   0.487
 9714SOL    HW130041   3.064   0.739   0.510
 9714SOL    HW230042   3.180   0.846   0.549
 9715SOL     OW30043   5.315   4.143   6.406
 9715SOL    HW130044   5.404   4.109   6.375
 9715SOL    HW230045   5.309   4.242   6.389
 9716SOL     OW30046   3.862   3.095   0.187
 9716SOL    HW130047   3.826   3.180   0.226
 9716SOL    HW230048   3.933   3.118   0.120
 9717SOL     OW30049   5.130   6.066   6.263
 9717SOL    HW130050   5.063   6.044   6.193
 9717SOL    HW230051   5.202   6.124   6.223
 9718SOL     OW30052   5.247   2.410   0.590
 9718SOL    HW130053   5.283   2.353   0.663
 9718SOL    HW230054   5.189   2.482   0.628
 9719SOL     OW30055   6.634   1.803   6.482
 9719SOL    HW130056   6.665   1.778   6.574
 9719SOL    HW230057   6.710   1.844   6.432
 9720SOL     OW30058   0.196   5.470   2.237
 9720SOL    HW130059   0.166   5.432   2.149
 9720SOL    HW230060   0.199   5.570   2.231
 9721SOL     OW30061   0.168   2.336   1.638
 9721SOL    HW130062   0.154   2.388   1.722
 9721SOL    HW230063   0.230   2.260   1.656
 9722SOL     OW30064   6.672   0.445   4.228
 9722SOL    HW130065   6.614   0.423   4.149
 9722SOL    HW230066   6.666   0.371   4.295
 9723SOL     OW30067   2.232   6.052   3.121
 9723SOL    HW130068   2.256   6.143   3.153
 9723SOL    HW230069   2.224   6.052   3.021
 9724SOL     OW30070   1.464   4.087   0.482
 9724SOL    HW130071   1.516   4.112   0.400
 9724SOL    HW230072   1.483   4.154   0.554
 9725SOL     OW30073   3.496   4.798   6.499
 9725SOL    HW130074   3.430   4.836   6.433
 9725SOL    HW230075   3.497   4.854   6.581
 9726SOL     OW30076   5.254   0.211   3.981
 9726SOL    HW130077   5.312   0.145   3.933
 9726SOL    HW230078   5.278   0.212   4.078
 9727SOL     OW30079   0.498   3.693   5.761
 9727SOL    HW130080   0.496   3.745   5.676
 9727SOL    HW230081   0.414   3.640   5.769
 9728SOL     OW30082   0.404   0.788   6.384
 9728SOL    HW130083   0.417   0.845   6.303
 9728SOL    HW230084   0.380   0.845   6.462
 9729SOL     OW30085   0.943   4.406   3.088
 9729SOL    HW130086   0.937   4.437   3.183
 9729SOL    HW230087   1.039   4.397   3.062
 9730SOL     OW30088   0.850   3.361   3.385
 9730SOL    HW130089   0.803   3.274   3.395
 9730SOL    HW230090   0.903   3.380   3.468
 9731SOL     OW30091   4.470   4.098   1.120
 9731SOL    HW130092   4.375   4.068   1.112
 9731SOL    HW230093   4.525   4.024   1.159
 9732SOL     OW30094   5.991   5.585   2.789
 9732SOL    HW130095   6.085   5.594   2.821
 9732SOL    HW230096   5.975   5.647   2.713
 9733SOL     OW30097   5.660   5.170   0.873
 9733SOL    HW130098   5.673   5.202   0.779
 9733SOL    HW230099   5.746   5.132   0.908
 9734SOL     OW30100   6.219   1.333   2.148
 9734SOL    HW130101   6.317   1.346   2.163
 9734SOL    HW230102   6.175   1.422   2.138
 9735SOL     OW30103   2.570   4.578   3.070
 9735SOL    HW130104   2.487   4.619   3.108
 9735SOL    HW230105   2.639   4.569   3.142
 9736SOL     OW30106   6.179   2.037   6.580
 9736SOL    HW130107   6.255   1.972   6.582
 9736SOL    HW230108   6.214   2.130   6.584
 9737SOL     OW30109   5.908   2.916   4.209
 9737SOL    HW130110   5.862   2.921   4.120
 9737SOL    HW230111   5.875   2.836   4.259
 9738SOL     OW30112   1.610   6.958   1.315
 9738SOL    HW130113   1.633   6.874   1.265
 9738SOL    HW230114   1.619   0.014   1.254
 9739SOL     OW30115   5.775   4.987   2.398
 9739SOL    HW130116   5.831   5.070   2.392
 9739SOL    HW230117   5.834   4.907   2.407
 9740SOL     OW30118   6.435   2.213   2.829
 9740SOL    HW130119   6.508   2.242   2.891
 9740SOL    HW230120   6.409   2.289   2.770
 9741SOL     OW30121   4.992   1.779   3.114
 9741SOL    HW130122   4.931   1.802   3.039
 9741SOL    HW230123   5.003   1.680   3.119
 9742SOL     OW30124   3.898   6.923   1.280
 9742SOL    HW130125   3.898   6.955   1.185
 9742SOL    HW230126   3.990   6.933   1.318
 9743SOL     OW30127   0.858   1.919   4.548
 9743SOL    HW130128   0.832   1.976   4.470
 9743SOL    HW230129   0.836   1.967   4.633
 9744SOL     OW30130   0.520   0.500   3.011
 9744SOL    HW130131   0.572   0.432   3.063
 9744SOL    HW230132   0.465   0.454   2.942
 9745SOL     OW30133   6.374   2.705   6.376
 9745SOL    HW130134   6.392   2.648   6.296
 9745SOL    HW230135   6.373   2.801   6.348
 9746SOL     OW30136   6.518   1.002   6.045
 9746SOL    HW130137   6.575   0.942   5.989
 9746SOL    HW230138   6.450   0.946   6.093
 9747SOL     OW30139   2.189   0.412   1.254
 9747SOL    HW130140   2.286   0.415   1.229
 9747SOL    HW230141   2.171   0.477   1.327
 9748SOL     OW30142   0.558   1.716   3.461
 9748SOL    HW130143   0.516   1.796   3.418
 9748SOL    HW230144   0.595   1.656   3.390
 9749SOL     OW30145   1.924   1.587   5.041
 9749SOL    HW130146   1.839   1.634   5.016
 9749SOL    HW230147   1.903   1.493   5.067
 9750SOL     OW30148   5.971   4.642   3.747
 9750SOL    HW130149   6.031   4.576   3.702
 9750SOL    HW230150   5.944   4.713   3.681
 9751SOL     OW30151   1.197   0.795   0.320
 9751SOL    HW130152   1.225   0.816   0.414
 9751SOL    HW230153   1.109   0.747   0.321
 9752SOL     OW30154   5.199   1.683   6.043
 9752SOL    HW130155   5.265   1.611   6.022
 9752SOL    HW230156   5.132   1.689   5.969
 9753SOL     OW30157   6.082   6.214   5.660
 9753SOL    HW130158   6.041   6.185   5.746
 9753SOL    HW230159   6.020   6.277   5.613
 9754SOL     OW30160   0.994   1.388   6.585
 9754SOL    HW130161   0.955   1.451   6.518
 9754SOL    HW230162   1.058   1.326   6.540
 9755SOL     OW30163   4.141   3.774   5.333
 9755SOL    HW130164   4.055   3.822   5.347
 9755SOL    HW230165   4.123   3.678   5.311
 9756SOL     OW30166   5.903   3.417   0.272
 9756SOL    HW130167   5.998   3.385   0.273
 9756SOL    HW230168   5.843   3.342   0.299
 9757SOL     OW30169   5.635   3.601   3.432
 9757SOL    HW130170   5.708   3.668   3.418
 9757SOL    HW230171   5.637   3.533   3.359
 9758SOL     OW30172   2.681   0.060   0.016
 9758SOL    HW130173   2.639   0.037   6.951
 9758SOL    HW230174   2.763   0.114   0.001
 9759SOL     OW30175   2.194   6.883   6.679
 9759SOL    HW130176   2.149   6.923   6.599
 9759SOL    HW230177   2.220   6.955   6.743
 9760SOL     OW30178   4.744   3.233   5.445
 9760SOL    HW130179   4.682   3.280   5.507
 9760SOL    HW230180   4.799   3.301   5.395
 9761SOL     OW30181   6.149   0.677   2.351
 9761SOL    HW130182   6.079   0.614   2.382
 9761SOL    HW230183   6.177   0.736   2.427
 9762SOL     OW30184   3.470   1.769   4.558
 9762SOL    HW130185   3.514   1.722   4.634
 9762SOL    HW230186   3.394   1.824   4.592
 9763SOL     OW30187   4.958   2.291   1.796
 9763SOL    HW130188   4.973   2.267   1.700
 9763SOL    HW230189   5.045   2.307   1.841
 9764SOL     OW30190   0.545   2.859   2.955
 9764SOL    HW130191   0.536   2.913   3.039
 9764SOL    HW230192   0.624   2.798   2.963
 9765SOL     OW30193   6.821   1.183   2.934
 9765SOL    HW130194   6.853   1.095   2.970
 9765SOL    HW230195   6.801   1.245   3.009
 9766SOL     OW30196   2.698   0.588   3.524
 9766SOL    HW130197   2.629   0.659   3.537
 9766SOL    HW230198   2.684   0.516   3.591
 9767SOL     OW30199   5.365   1.652   5.575
 9767SOL    HW130200   5.333   1.672   5.483
 9767SOL    HW230201   5.311   1.577   5.613
 9768SOL     OW30202   5.273   1.703   2.472
 9768SOL    HW130203   5.197   1.730   2.412
 9768SOL    HW230204   5.351   1.675   2.416
 9769SOL     OW30205   2.455   0.575   2.700
 9769SOL    HW130206   2.457   0.664   2.654
 9769SOL    HW230207   2.361   0.554   2.727
 9770SOL     OW30208   5.633   0.182   0.087
 9770SOL    HW130209   5.717   0.129   0.083
 9770SOL    HW230210   5.568   0.138   0.148
 9771SOL     OW30211   2.688   5.743   1.208
 9771SOL    HW130212   2.606   5.689   1.226
 9771SOL    HW230213   2.745   5.746   1.290
 9772SOL     OW30214   1.443   6.171   2.868
 9772SOL    HW130215   1.466   6.107   2.795
 9772SOL    HW230216   1.348   6.201   2.857
 9773SOL     OW30217   5.401   6.575   4.154
 9773SOL    HW130218   5.437   6.640   4.088
 9773SOL    HW230219   5.301   6.575   4.149
 9774SOL     OW30220   6.462   4.916   1.563
 9774SOL    HW130221   6.436   5.009   1.591
 9774SOL    HW230222   6.408   4.850   1.615
 9775SOL     OW30223   2.514   1.028   3.837
 9775SOL    HW130224   2.599   0.978   3.823
 9775SOL    HW230225   2.495   1.085   3.757
 9776SOL     OW30226   0.813   5.090   4.344
 9776SOL    HW130227   0.778   5.148   4.270
 9776SOL    HW230228   0.912   5.081   4.335
 9777SOL     OW30229   5.174   4.430   6.287
 9777SOL    HW130230   5.128   4.344   6.263
 9777SOL    HW230231   5.119   4.507   6.256
 9778SOL     OW30232   0.697   0.739   3.304
 9778SOL    HW130233   0.743   0.667   3.252
 9778SOL    HW230234   0.739   0.746   3.394
 9779SOL     OW30235   2.015   0.562   4.925
 9779SOL    HW130236   2.082   0.510   4.871
 9779SOL    HW230237   2.049   0.573   5.018
 9780SOL     OW30238   2.322   1.459   0.684
 9780SOL    HW130239   2.408   1.448   0.736
 9780SOL    HW230240   2.308   1.379   0.627
 9781SOL     OW30241   1.467   3.931   4.280
 9781SOL    HW130242   1.428   3.854   4.230
 9781SOL    HW230243   1.404   3.960   4.352
 9782SOL     OW30244   6.662   0.525   1.662
 9782SOL    HW130245   6.724   0.482   1.728
 9782SOL    HW230246   6.685   0.622   1.654
 9783SOL     OW30247   5.144   1.969   3.271
 9783SOL    HW130248   5.091   1.925   3.198
 9783SOL    HW230249   5.208   1.903   3.311
 9784SOL     OW30250   3.904   1.455   4.378
 9784SOL    HW130251   3.908   1.554   4.365
 9784SOL    HW230252   3.966   1.411   4.313
 9785SOL     OW30253   6.390   3.827   5.547
 9785SOL    HW130254   6.356   3.788   5.632
 9785SOL    HW230255   6.338   3.790   5.470
 9786SOL     OW30256   2.459   4.395   6.680
 9786SOL    HW130257   2.437   4.408   6.776
 9786SOL    HW230258   2.496   4.303   6.666
 9787SOL     OW30259   4.393   3.409   1.705
 9787SOL    HW130260   4.298   3.431   1.682
 9787SOL    HW230261   4.403   3.310   1.712
 9788SOL     OW30262   0.492   0.413   3.833
 9788SOL    HW130263   0.485   0.493   3.774
 9788SOL    HW230264   0.519   0.441   3.925
 9789SOL     OW30265   1.351   5.574   0.166
 9789SOL    HW130266   1.306   5.573   0.255
 9789SOL    HW230267   1.450   5.576   0.179
 9790SOL     OW30268   5.569   3.855   5.570
 9790SOL    HW130269   5.490   3.903   5.608
 9790SOL    HW230270   5.620   3.811   5.644
 9791SOL     OW30271   0.270   1.540   2.867
 9791SOL    HW130272   0.175   1.508   2.875
 9791SOL    HW230273   0.320   1.479   2.805
 9792SOL     OW30274   5.533   5.407   2.016
 9792SOL    HW130275   5.465   5.474   2.046
 9792SOL    HW230276   5.525   5.394   1.917
 9793SOL     OW30277   5.381   4.817   3.553
 9793SOL    HW130278   5.293   4.778   3.579
 9793SOL    HW230279   5.397   4.801   3.455
 9794SOL     OW30280   6.459   4.340   0.019
 9794SOL    HW130281   6.542   4.386   0.050
 9794SOL    HW230282   6.456   4.339   6.942
 9795SOL     OW30283   1.659   2.326   4.020
 9795SOL    HW130284   1.708   2.249   4.061
 9795SOL    HW230285   1.633   2.302   3.926
 9796SOL     OW30286   4.076   2.621   1.354
 9796SOL    HW130287   4.009   2.603   1.282
 9796SOL    HW230288   4.096   2.719   1.358
 9797SOL     OW30289   3.393   5.367   6.723
 9797SOL    HW130290   3.319   5.317   6.769
 9797SOL    HW230291   3.481   5.326   6.746
 9798SOL     OW30292   2.817   0.187   1.122
 9798SOL    HW130293   2.903   0.236   1.136
 9798SOL    HW230294   2.748   0.222   1.186
 9799SOL     OW30295   3.351   3.832   3.519
 9799SOL    HW130296   3.443   3.794   3.505
 9799SOL    HW230297   3.293   3.806   3.442
 9800SOL     OW30298   3.521   6.235   5.141
 9800SOL    HW130299   3.567   6.306   5.196
 9800SOL    HW230300   3.574   6.219   5.058
 9801SOL     OW30301   4.837   4.325   0.745
 9801SOL    HW130302   4.836   4.228   0.720
 9801SOL    HW230303   4.925   4.365   0.720
 9802SOL     OW30304   0.792   2.646   1.837
 9802SOL    HW130305   0.881   2.685   1.813
 9802SOL    HW230306   0.753   2.698   1.913
 9803SOL     OW30307   6.244   1.686   0.470
 9803SOL    HW130308   6.173   1.727   0.527
 9803SOL    HW230309   6.323   1.661   0.527
 9804SOL     OW30310   1.117   6.479   2.809
 9804SOL    HW130311   1.166   6.396   2.837
 9804SOL    HW230312   1.066   6.460   2.726
 9805SOL     OW30313   0.900   5.996   5.366
 9805SOL    HW130314   0.806   6.010   5.398
 9805SOL    HW230315   0.955   6.077   5.387
 9806SOL     OW30316   1.441   2.003   0.279
 9806SOL    HW130317   1.443   2.090   0.230
 9806SOL    HW230318   1.516   1.945   0.247
 9807SOL     OW30319   1.831   3.223   7.018
 9807SOL    HW130320   1.898   3.292   0.024
 9807SOL    HW230321   1.739   3.263   7.020
 9808SOL     OW30322   5.864   1.469   5.511
 9808SOL    HW130323   5.926   1.543   5.536
 9808SOL    HW230324   5.770   1.497   5.528
 9809SOL     OW30325   0.787   1.960   6.812
 9809SOL    HW130326   0.776   1.894   6.738
 9809SOL    HW230327   0.699   1.977   6.856
 9810SOL     OW30328   2.565   2.500   4.090
 9810SOL    HW130329   2.478   2.456   4.115
 9810SOL    HW230330   2.546   2.580   4.034
 9811SOL     OW30331   5.650   5.590   3.939
 9811SOL    HW130332   5.746   5.587   3.969
 9811SOL    HW230333   5.635   5.673   3.885
 9812SOL     OW30334   2.915   2.303   5.564
 9812SOL    HW130335   2.932   2.337   5.656
 9812SOL    HW230336   2.890   2.206   5.568
 9813SOL     OW30337   6.264   0.551   6.801
 9813SOL    HW130338   6.190   0.558   6.734
 9813SOL    HW230339   6.248   0.471   6.860
 9814SOL     OW30340   0.575   1.031   0.027
 9814SOL    HW130341   0.485   0.992   0.047
 9814SOL    HW230342   0.632   0.963   7.004
 9815SOL     OW30343   5.930   3.777   2.654
 9815SOL    HW130344   5.947   3.690   2.607
 9815SOL    HW230345   5.938   3.763   2.753
 9816SOL     OW30346   0.214   1.794   6.066
 9816SOL    HW130347   0.115   1.793   6.070
 9816SOL    HW230348   0.251   1.830   6.152
 9817SOL     OW30349   2.650   5.784   2.477
 9817SOL    HW130350   2.749   5.772   2.478
 9817SOL    HW230351   2.606   5.696   2.461
 9818SOL     OW30352   1.559   0.988   4.403
 9818SOL    HW130353   1.588   1.015   4.311
 9818SOL    HW230354   1.616   1.033   4.471
 9819SOL     OW30355   4.821   3.016   4.787
 9819SOL    HW130356   4.819   3.084   4.861
 9819SOL    HW230357   4.778   2.931   4.819
 9820SOL     OW30358   3.777   3.087   6.238
 9820SOL    HW130359   3.712   3.011   6.243
 9820SOL    HW230360   3.751   3.156   6.305
 9821SOL     OW30361   4.901   0.860   0.591
 9821SOL    HW130362   4.962   0.925   0.635
 9821SOL    HW230363   4.879   0.786   0.656
 9822SOL     OW30364   2.710   5.303   3.671
 9822SOL    HW130365   2.682   5.301   3.575
 9822SOL    HW230366   2.655   5.372   3.719
 9823SOL     OW30367   2.140   0.023   1.681
 9823SOL    HW130368   2.117   0.109   1.634
 9823SOL    HW230369   2.125   6.969   1.620
 9824SOL     OW30370   2.076   5.446   4.583
 9824SOL    HW130371   2.147   5.476   4.647
 9824SOL    HW230372   2.020   5.525   4.557
 9825SOL     OW30373   5.595   6.513   4.812
 9825SOL    HW130374   5.660   6.439   4.826
 9825SOL    HW230375   5.544   6.530   4.896
 9826SOL     OW30376   3.385   6.230   5.458
 9826SOL    HW130377   3.311   6.176   5.418
 9826SOL    HW230378   3.467   6.220   5.402
 9827SOL     OW30379   2.061   3.766   3.440
 9827SOL    HW130380   2.043   3.676   3.401
 9827SOL    HW230381   2.092   3.756   3.535
 9828SOL     OW30382   3.017   2.139   5.208
 9828SOL    HW130383   3.080   2.193   5.153
 9828SOL    HW230384   2.944   2.199   5.243
 9829SOL     OW30385   4.248   5.801   6.217
 9829SOL    HW130386   4.178   5.835   6.280
 9829SOL    HW230387   4.231   5.839   6.126
 9830SOL     OW30388   4.899   1.752   1.658
 9830SOL    HW130389   4.927   1.683   1.592
 9830SOL    HW230390   4.821   1.804   1.621
 9831SOL     OW30391   0.982   4.822   2.365
 9831SOL    HW130392   0.939   4.829   2.274
 9831SOL    HW230393   0.932   4.755   2.420
 9832SOL     OW30394   4.598   5.557   1.870
 9832SOL    HW130395   4.626   5.621   1.797
 9832SOL    HW230396   4.671   5.550   1.937
 9833SOL     OW30397   3.214   3.413   3.403
 9833SOL    HW130398   3.230   3.367   3.491
 9833SOL    HW230399   3.132   3.374   3.360
 9834SOL     OW30400   1.894   4.827   5.520
 9834SOL    HW130401   1.961   4.755   5.537
 9834SOL    HW230402   1.814   4.813   5.579
 9835SOL     OW30403   3.575   3.259   4.201
 9835SOL    HW130404   3.606   3.353   4.206
 9835SOL    HW230405   3.573   3.229   4.105
 9836SOL     OW30406   0.781   4.142   4.319
 9836SOL    HW130407   0.723   4.116   4.241
 9836SOL    HW230408   0.760   4.083   4.397
 9837SOL     OW30409   5.034   0.667   2.393
 9837SOL    HW130410   5.055   0.683   2.296
 9837SOL    HW230411   4.958   0.602   2.399
 9838SOL     OW30412   1.845   6.442   0.939
 9838SOL    HW130413   1.937   6.402   0.943
 9838SOL    HW230414   1.783   6.379   0.893
 9839SOL     OW30415   4.747   6.481   3.057
 9839SOL    HW130416   4.703   6.392   3.043
 9839SOL    HW230417   4.824   6.471   3.120
 9840SOL     OW30418   4.778   1.743   0.354
 9840SOL    HW130419   4.689   1.781   0.380
 9840SOL    HW230420   4.835   1.815   0.315
 9841SOL     OW30421   1.789   4.501   3.654
 9841SOL    HW130422   1.816   4.598   3.650
 9841SOL    HW230423   1.744   4.475   3.569
 9842SOL     OW30424   3.364   3.186   0.767
 9842SOL    HW130425   3.302   3.246   0.818
 9842SOL    HW230426   3.334   3.091   0.776
 9843SOL     OW30427   6.891   6.858   1.736
 9843SOL    HW130428   6.971   6.916   1.745
 9843SOL    HW230429   6.808   6.912   1.755
 9844SOL     OW30430   6.075   1.124   4.249
 9844SOL    HW130431   6.144   1.079   4.192
 9844SOL    HW230432   6.086   1.095   4.344
 9845SOL     OW30433   1.438   2.401   2.642
 9845SOL    HW130434   1.535   2.406   2.618
 9845SOL    HW230435   1.384   2.390   2.559
 9846SOL     OW30436   4.406   1.622   1.018
 9846SOL    HW130437   4.418   1.684   1.096
 9846SOL    HW230438   4.333   1.656   0.959
 9847SOL     OW30439   4.058   3.216   2.430
 9847SOL    HW130440   4.028   3.153   2.502
 9847SOL    HW230441   4.087   3.302   2.471
 9848SOL     OW30442   4.073   4.838   6.048
 9848SOL    HW130443   4.133   4.885   5.983
 9848SOL    HW230444   4.022   4.766   6.000
 9849SOL     OW30445   0.874   6.913   6.456
 9849SOL    HW130446   0.881   7.006   6.492
 9849SOL    HW230447   0.783   6.898   6.419
 9850SOL     OW30448   0.051   0.773   3.586
 9850SOL    HW130449   0.073   0.869   3.600
 9850SOL    HW230450   0.021   0.732   3.672
 9851SOL     OW30451   2.261   6.575   4.357
 9851SOL    HW130452   2.321   6.497   4.337
 9851SOL    HW230453   2.205   6.555   4.438
 9852SOL     OW30454   1.634   1.695   5.318
 9852SOL    HW130455   1.726   1.727   5.294
 9852SOL    HW230456   1.571   1.715   5.243
 9853SOL     OW30457   6.380   3.295   5.355
 9853SOL    HW130458   6.398   3.349   5.437
 9853SOL    HW230459   6.319   3.219   5.377
 9854SOL     OW30460   0.555   5.141   4.464
 9854SOL    HW130461   0.597   5.189   4.541
 9854SOL    HW230462   0.627   5.105   4.405
 9855SOL     OW30463   1.422   3.614   1.023
 9855SOL    HW130464   1.421   3.540   0.956
 9855SOL    HW230465   1.515   3.649   1.033
 9856SOL     OW30466   5.369   4.681   4.319
 9856SOL    HW130467   5.435   4.754   4.338
 9856SOL    HW230468   5.398   4.597   4.365
 9857SOL     OW30469   5.761   2.865   2.824
 9857SOL    HW130470   5.724   2.952   2.791
 9857SOL    HW230471   5.753   2.797   2.751
 9858SOL     OW30472   0.667   6.670   1.556
 9858SOL    HW130473   0.739   6.720   1.604
 9858SOL    HW230474   0.609   6.623   1.623
 9859SOL     OW30475   6.533   4.619   4.232
 9859SOL    HW130476   6.451   4.654   4.279
 9859SOL    HW230477   6.522   4.628   4.134
 9860SOL     OW30478   1.665   2.307   4.784
 9860SOL    HW130479   1.613   2.322   4.868
 9860SOL    HW230480   1.758   2.279   4.807
 9861SOL     OW30481   2.971   0.527   3.616
 9861SOL    HW130482   2.888   0.568   3.579
 9861SOL    HW230483   2.986   0.437   3.574
 9862SOL     OW30484   2.417   3.508   0.802
 9862SOL    HW130485   2.466   3.591   0.774
 9862SOL    HW230486   2.415   3.443   0.726
 9863SOL     OW30487   3.150   5.647   1.149
 9863SOL    HW130488   3.164   5.606   1.238
 9863SOL    HW230489   3.052   5.648   1.127
 9864SOL     OW30490   3.452   0.515   5.321
 9864SOL    HW130491   3.441   0.500   5.223
 9864SOL    HW230492   3.415   0.605   5.345
 9865SOL     OW30493   0.960   6.325   4.557
 9865SOL    HW130494   0.976   6.395   4.487
 9865SOL    HW230495   1.044   6.311   4.610
 9866SOL     OW30496   5.805   4.263   4.710
 9866SOL    HW130497   5.899   4.297   4.708
 9866SOL    HW230498   5.744   4.334   4.743
 9867SOL     OW30499   6.337   2.397   2.659
 9867SOL    HW130500   6.302   2.403   2.566
 9867SOL    HW230501   6.281   2.453   2.720
 9868SOL     OW30502   0.489   3.431   4.502
 9868SOL    HW130503   0.391   3.432   4.483
 9868SOL    HW230504   0.504   3.409   4.598
 9869SOL     OW30505   0.574   2.731   0.686
 9869SOL    HW130506   0.598   2.698   0.777
 9869SOL    HW230507   0.651   2.783   0.648
 9870SOL     OW30508   4.103   0.341   2.838
 9870SOL    HW130509   4.091   0.318   2.935
 9870SOL    HW230510   4.164   0.421   2.831
 9871SOL     OW30511   6.590   3.028   5.505
 9871SOL    HW130512   6.576   3.007   5.601
 9871SOL    HW230513   6.598   3.127   5.493
 9872SOL     OW30514   2.709   5.193   4.943
 9872SOL    HW130515   2.644   5.123   4.970
 9872SOL    HW230516   2.703   5.208   4.844
 9873SOL     OW30517   2.419   2.472   6.241
 9873SOL    HW130518   2.434   2.374   6.240
 9873SOL    HW230519   2.375   2.500   6.155
 9874SOL     OW30520   0.252   3.264   5.541
 9874SOL    HW130521   0.164   3.311   5.528
 9874SOL    HW230522   0.236   3.168   5.563
 9875SOL     OW30523   6.889   5.738   2.531
 9875SOL    HW130524   6.968   5.739   2.592
 9875SOL    HW230525   6.862   5.832   2.510
 9876SOL     OW30526   5.343   0.853   3.774
 9876SOL    HW130527   5.391   0.872   3.860
 9876SOL    HW230528   5.301   0.762   3.779
 9877SOL     OW30529   6.757   4.540   4.464
 9877SOL    HW130530   6.729   4.529   4.559
 9877SOL    HW230531   6.683   4.580   4.411
 9878SOL     OW30532   2.467   3.592   6.141
 9878SOL    HW130533   2.381   3.636   6.166
 9878SOL    HW230534   2.529   3.660   6.103
 9879SOL     OW30535   6.954   4.623   5.178
 9879SOL    HW130536   6.928   4.538   5.133
 9879SOL    HW230537   6.908   4.630   5.266
 9880SOL     OW30538   2.311   0.068   0.910
 9880SOL    HW130539   2.266   7.010   0.871
 9880SOL    HW230540   2.267   0.151   0.876
 9881SOL     OW30541   6.538   1.412   4.526
 9881SOL    HW130542   6.601   1.349   4.480
 9881SOL    HW230543   6.589   1.476   4.582
 9882SOL     OW30544   3.468   3.854   5.229
 9882SOL    HW130545   3.447   3.883   5.323
 9882SOL    HW230546   3.469   3.755   5.224
 9883SOL     OW30547   1.485   5.778   1.502
 9883SOL    HW130548   1.555   5.794   1.571
 9883SOL    HW230549   1.431   5.697   1.527
 9884SOL     OW30550   3.516   2.188   0.643
 9884SOL    HW130551   3.489   2.135   0.563
 9884SOL    HW230552   3.615   2.180   0.658
 9885SOL     OW30553   0.511   3.193   4.000
 9885SOL    HW130554   0.596   3.239   4.023
 9885SOL    HW230555   0.436   3.230   4.055
 9886SOL     OW30556   6.360   6.362   1.880
 9886SOL    HW130557   6.448   6.332   1.843
 9886SOL    HW230558   6.291   6.361   1.808
 9887SOL     OW30559   3.447   0.331   0.312
 9887SOL    HW130560   3.460   0.427   0.335
 9887SOL    HW230561   3.450   0.276   0.395
 9888SOL     OW30562   5.977   5.884   3.235
 9888SOL    HW130563   6.060   5.921   3.276
 9888SOL    HW230564   5.916   5.849   3.307
 9889SOL     OW30565   1.180   5.467   2.581
 9889SOL    HW130566   1.154   5.491   2.488
 9889SOL    HW230567   1.155   5.541   2.644
 9890SOL     OW30568   6.442   2.936   0.902
 9890SOL    HW130569   6.423   2.838   0.906
 9890SOL    HW230570   6.413   2.973   0.814
 9891SOL     OW30571   5.428   4.750   1.349
 9891SOL    HW130572   5.358   4.687   1.313
 9891SOL    HW230573   5.385   4.813   1.414
 9892SOL     OW30574   2.535   5.481   3.827
 9892SOL    HW130575   2.441   5.447   3.840
 9892SOL    HW230576   2.587   5.466   3.911
 9893SOL     OW30577   6.385   6.388   2.697
 9893SOL    HW130578   6.361   6.483   2.716
 9893SOL    HW230579   6.441   6.383   2.614
 9894SOL     OW30580   2.723   1.166   6.522
 9894SOL    HW130581   2.718   1.265   6.535
 9894SOL    HW230582   2.661   1.139   6.448
 9895SOL     OW30583   6.465   2.048   5.776
 9895SOL    HW130584   6.452   1.959   5.818
 9895SOL    HW230585   6.497   2.114   5.844
 9896SOL     OW30586   5.050   2.269   0.432
 9896SOL    HW130587   4.971   2.306   0.481
 9896SOL    HW230588   5.134   2.295   0.479
 9897SOL     OW30589   5.102   1.029   2.153
 9897SOL    HW130590   5.157   1.108   2.125
 9897SOL    HW230591   5.060   1.048   2.242
 9898SOL     OW30592   0.608   5.560   5.019
 9898SOL    HW130593   0.637   5.629   5.085
 9898SOL    HW230594   0.682   5.541   4.955
 9899SOL     OW30595   6.279   4.794   2.403
 9899SOL    HW130596   6.311   4.745   2.322
 9899SOL    HW230597   6.299   4.891   2.393
 9900SOL     OW30598   2.162   1.844   2.834
 9900SOL    HW130599   2.065   1.830   2.814
 9900SOL    HW230600   2.173   1.912   2.906
 9901SOL     OW30601   1.401   2.555   0.329
 9901SOL    HW130602   1.363   2.545   0.237
 9901SOL    HW230603   1.430   2.465   0.363
 9902SOL     OW30604   3.218   2.925   1.238
 9902SOL    HW130605   3.255   2.903   1.328
 9902SOL    HW230606   3.264   2.870   1.169
 9903SOL     OW30607   4.495   0.318   2.307
 9903SOL    HW130608   4.464   0.225   2.328
 9903SOL    HW230609   4.416   0.378   2.298
 9904SOL     OW30610   6.600   3.690   6.891
 9904SOL    HW130611   6.596   3.590   6.900
 9904SOL    HW230612   6.695   3.720   6.896
 9905SOL     OW30613   2.193   6.435   0.420
 9905SOL    HW130614   2.185   6.395   0.329
 9905SOL    HW230615   2.278   6.403   0.462
 9906SOL     OW30616   1.668   3.462   0.265
 9906SOL    HW130617   1.629   3.553   0.255
 9906SOL    HW230618   1.596   3.393   0.250
 9907SOL     OW30619   2.572   0.114   3.558
 9907SOL    HW130620   2.491   0.110   3.617
 9907SOL    HW230621   2.577   0.031   3.503
 9908SOL     OW30622   0.600   3.441   5.673
 9908SOL    HW130623   0.612   3.449   5.574
 9908SOL    HW230624   0.573   3.530   5.710
 9909SOL     OW30625   3.333   0.341   3.121
 9909SOL    HW130626   3.260   0.408   3.136
 9909SOL    HW230627   3.416   0.371   3.169
 9910SOL     OW30628   0.584   5.001   1.852
 9910SOL    HW130629   0.500   5.024   1.901
 9910SOL    HW230630   0.663   5.033   1.905
 9911SOL     OW30631   4.632   5.576   3.200
 9911SOL    HW130632   4.654   5.613   3.110
 9911SOL    HW230633   4.586   5.645   3.255
 9912SOL     OW30634   4.299   0.951   2.225
 9912SOL    HW130635   4.214   0.914   2.263
 9912SOL    HW230636   4.366   0.877   2.214
 9913SOL     OW30637   6.268   3.171   2.272
 9913SOL    HW130638   6.263   3.269   2.257
 9913SOL    HW230639   6.208   3.123   2.208
 9914SOL     OW30640   0.864   0.486   6.049
 9914SOL    HW130641   0.895   0.571   6.092
 9914SOL    HW230642   0.932   0.414   6.065
 9915SOL     OW30643   4.884   3.308   4.236
 9915SOL    HW130644   4.905   3.374   4.308
 9915SOL    HW230645   4.918   3.343   4.148
 9916SOL     OW30646   2.919   2.242   3.745
 9916SOL    HW130647   2.857   2.172   3.710
 9916SOL    HW230648   2.874   2.293   3.818
 9917SOL     OW30649   3.073   3.136   4.386
 9917SOL    HW130650   3.173   3.126   4.388
 9917SOL    HW230651   3.031   3.049   4.413
 9918SOL     OW30652   1.115   1.623   0.585
 9918SOL    HW130653   1.162   1.705   0.553
 9918SOL    HW230654   1.137   1.606   0.681
 9919SOL     OW30655   2.270   5.408   2.139
 9919SOL    HW130656   2.190   5.351   2.121
 9919SOL    HW230657   2.353   5.356   2.120
 9920SOL     OW30658   3.295   1.168   3.257
 9920SOL    HW130659   3.363   1.233   3.223
 9920SOL    HW230660   3.204   1.192   3.221
 9921SOL     OW30661   5.967   5.970   4.355
 9921SOL    HW130662   5.943   6.061   4.321
 9921SOL    HW230663   5.908   5.946   4.432
 9922SOL     OW30664   4.689   4.398   0.967
 9922SOL    HW130665   4.766   4.380   0.906
 9922SOL    HW230666   4.691   4.494   0.995
 9923SOL     OW30667   6.848   3.105   0.867
 9923SOL    HW130668   6.810   3.194   0.892
 9923SOL    HW230669   6.909   3.116   0.788
 9924SOL     OW30670   5.484   1.916   2.412
 9924SOL    HW130671   5.578   1.921   2.448
 9924SOL    HW230672   5.420   1.945   2.482
 9925SOL     OW30673   2.137   4.188   5.149
 9925SOL    HW130674   2.071   4.126   5.191
 9925SOL    HW230675   2.211   4.135   5.107
 9926SOL     OW30676   3.214   2.320   1.412
 9926SOL    HW130677   3.221   2.221   1.428
 9926SOL    HW230678   3.179   2.365   1.494
 9927SOL     OW30679   0.794   2.492   1.346
 9927SOL    HW130680   0.750   2.536   1.424
 9927SOL    HW230681   0.786   2.551   1.265
 9928SOL     OW30682   6.371   4.629   2.230
 9928SOL    HW130683   6.310   4.554   2.204
 9928SOL    HW230684   6.448   4.633   2.167
 9929SOL     OW30685   2.675   4.238   5.378
 9929SOL    HW130686   2.698   4.145   5.350
 9929SOL    HW230687   2.576   4.251   5.371
 9930SOL     OW30688   6.862   0.153   5.660
 9930SOL    HW130689   6.846   0.100   5.577
 9930SOL    HW230690   6.953   0.131   5.697
 9931SOL     OW30691   0.259   5.478   4.828
 9931SOL    HW130692   0.301   5.567   4.841
 9931SOL    HW230693   0.213   5.474   4.740
 9932SOL     OW30694   2.014   2.183   0.520
 9932SOL    HW130695   1.928   2.200   0.473
 9932SOL    HW230696   1.997   2.168   0.617
 9933SOL     OW30697   1.912   1.086   4.091
 9933SOL    HW130698   1.962   1.167   4.059
 9933SOL    HW230699   1.968   1.005   4.076
 9934SOL     OW30700   6.054   1.916   0.510
 9934SOL    HW130701   5.993   1.852   0.465
 9934SOL    HW230702   6.140   1.922   0.459
 9935SOL     OW30703   2.713   1.703   0.604
 9935SOL    HW130704   2.766   1.710   0.519
 9935SOL    HW230705   2.618   1.728   0.586
 9936SOL     OW30706   5.996   4.822   5.778
 9936SOL    HW130707   5.929   4.748   5.778
 9936SOL    HW230708   6.068   4.803   5.712
 9937SOL     OW30709   1.467   0.751   2.911
 9937SOL    HW130710   1.438   0.784   3.002
 9937SOL    HW230711   1.470   0.829   2.848
 9938SOL     OW30712   5.701   0.435   3.588
 9938SOL    HW130713   5.663   0.525   3.611
 9938SOL    HW230714   5.793   0.447   3.550
 9939SOL     OW30715   1.931   2.608   1.223
 9939SOL    HW130716   1.977   2.636   1.139
 9939SOL    HW230717   1.891   2.517   1.210
 9940SOL     OW30718   0.301   0.532   3.554
 9940SOL    HW130719   0.263   0.583   3.477
 9940SOL    HW230720   0.227   0.507   3.617
 9941SOL     OW30721   3.211   5.526   6.066
 9941SOL    HW130722   3.192   5.481   6.154
 9941SOL    HW230723   3.309   5.534   6.053
 9942SOL     OW30724   4.583   5.040   2.755
 9942SOL    HW130725   4.568   5.111   2.823
 9942SOL    HW230726   4.616   4.957   2.800
 9943SOL     OW30727   0.390   4.401   6.068
 9943SOL    HW130728   0.390   4.491   6.110
 9943SOL    HW230729   0.400   4.331   6.138
 9944SOL     OW30730   0.050   5.832   6.183
 9944SOL    HW130731   7.000   5.816   6.116
 9944SOL    HW230732   0.033   5.776   6.264
 9945SOL     OW30733   5.508   3.957   6.893
 9945SOL    HW130734   5.434   3.892   6.875
 9945SOL    HW230735   5.475   4.029   6.955
 9946SOL     OW30736   6.207   0.243   3.540
 9946SOL    HW130737   6.183   0.289   3.455
 9946SOL    HW230738   6.156   0.158   3.548
 9947SOL     OW30739   1.794   1.857   3.937
 9947SOL    HW130740   1.724   1.892   3.875
 9947SOL    HW230741   1.843   1.782   3.893
 9948SOL     OW30742   6.664   5.561   5.074
 9948SOL    HW130743   6.600   5.485   5.082
 9948SOL    HW230744   6.622   5.636   5.024
 9949SOL     OW30745   0.243   5.014   4.072
 9949SOL    HW130746   0.153   4.978   4.096
 9949SOL    HW230747   0.247   5.111   4.094
 9950SOL     OW30748   6.698   5.244   5.955
 9950SOL    HW130749   6.703   5.147   5.930
 9950SOL    HW230750   6.749   5.259   6.039
 9951SOL     OW30751   1.560   2.169   2.797
 9951SOL    HW130752   1.548   2.241   2.730
 9951SOL    HW230753   1.619   2.097   2.759
 9952SOL     OW30754   1.318   3.860   1.429
 9952SOL    HW130755   1.244   3.806   1.467
 9952SOL    HW230756   1.368   3.906   1.503
 9953SOL     OW30757   5.379   2.401   3.263
 9953SOL    HW130758   5.443   2.327   3.280
 9953SOL    HW230759   5.320   2.378   3.185
 9954SOL     OW30760   1.670   0.867   4.842
 9954SOL    HW130761   1.707   0.805   4.912
 9954SOL    HW230762   1.646   0.814   4.760
 9955SOL     OW30763   4.606   3.645   0.016
 9955SOL    HW130764   4.704   3.666   0.026
 9955SOL    HW230765   4.596   3.562   6.984
 9956SOL     OW30766   0.005   4.285   2.485
 9956SOL    HW130767   6.999   4.221   2.557
 9956SOL    HW230768   0.096   4.321   2.507
 9957SOL     OW30769   5.395   0.002   1.373
 9957SOL    HW130770   5.453   0.018   1.453
 9957SOL    HW230771   5.345   0.086   1.351
 9958SOL     OW30772   3.148   5.722   5.901
 9958SOL    HW130773   3.148   5.811   5.945
 9958SOL    HW230774   3.155   5.650   5.970
 9959SOL     OW30775   4.203   3.131   1.898
 9959SOL    HW130776   4.184   3.220   1.938
 9959SOL    HW230777   4.282   3.138   1.836
 9960SOL     OW30778   0.163   6.456   1.319
 9960SOL    HW130779   0.176   6.425   1.413
 9960SOL    HW230780   0.251   6.462   1.273
 9961SOL     OW30781   2.325   4.332   2.483
 9961SOL    HW130782   2.245   4.280   2.514
 9961SOL    HW230783   2.375   4.365   2.563
 9962SOL     OW30784   3.829   0.993   1.895
 9962SOL    HW130785   3.831   1.082   1.849
 9962SOL    HW230786   3.851   1.005   1.991
 9963SOL     OW30787   2.511   3.416   6.747
 9963SOL    HW130788   2.490   3.500   6.796
 9963SOL    HW230789   2.449   3.406   6.669
 9964SOL     OW30790   3.398   5.124   5.538
 9964SOL    HW130791   3.366   5.149   5.629
 9964SOL    HW230792   3.498   5.115   5.539
 9965SOL     OW30793   3.473   5.483   4.684
 9965SOL    HW130794   3.444   5.545   4.757
 9965SOL    HW230795   3.393   5.457   4.629
 9966SOL     OW30796   2.619   5.362   2.216
 9966SOL    HW130797   2.634   5.459   2.194
 9966SOL    HW230798   2.660   5.341   2.305
 9967SOL     OW30799   6.514   5.176   2.921
 9967SOL    HW130800   6.477   5.190   3.013
 9967SOL    HW230801   6.488   5.254   2.863
 9968SOL     OW30802   3.984   5.575   0.061
 9968SOL    HW130803   3.924   5.511   0.012
 9968SOL    HW230804   3.959   5.577   0.158
 9969SOL     OW30805   1.602   3.183   4.542
 9969SOL    HW130806   1.548   3.267   4.532
 9969SOL    HW230807   1.675   3.182   4.474
 9970SOL     OW30808   6.532   5.298   1.285
 9970SOL    HW130809   6.530   5.275   1.187
 9970SOL    HW230810   6.579   5.226   1.335
 9971SOL     OW30811   2.308   2.439   1.361
 9971SOL    HW130812   2.334   2.525   1.316
 9971SOL    HW230813   2.332   2.444   1.458
 9972SOL     OW30814   2.545   4.060   0.876
 9972SOL    HW130815   2.577   4.053   0.970
 9972SOL    HW230816   2.471   3.995   0.861
 9973SOL     OW30817   4.255   2.300   4.384
 9973SOL    HW130818   4.318   2.354   4.440
 9973SOL    HW230819   4.176   2.273   4.440
 9974SOL     OW30820   0.481   2.745   2.713
 9974SOL    HW130821   0.449   2.661   2.757
 9974SOL    HW230822   0.485   2.818   2.781
 9975SOL     OW30823   0.446   5.393   6.222
 9975SOL    HW130824   0.375   5.441   6.170
 9975SOL    HW230825   0.463   5.303   6.181
 9976SOL     OW30826   0.906   5.128   5.333
 9976SOL    HW130827   0.885   5.074   5.415
 9976SOL    HW230828   0.916   5.224   5.358
 9977SOL     OW30829   5.501   4.563   5.803
 9977SOL    HW130830   5.426   4.591   5.864
 9977SOL    HW230831   5.464   4.519   5.722
 9978SOL     OW30832   6.941   1.429   5.206
 9978SOL    HW130833   6.922   1.339   5.243
 9978SOL    HW230834   6.987   1.485   5.275
 9979SOL     OW30835   6.589   3.977   6.550
 9979SOL    HW130836   6.598   4.066   6.504
 9979SOL    HW230837   6.579   3.991   6.648
 9980SOL     OW30838   1.896   0.177   0.674
 9980SOL    HW130839   1.950   0.201   0.593
 9980SOL    HW230840   1.956   0.176   0.754
 9981SOL     OW30841   2.635   2.208   0.348
 9981SOL    HW130842   2.732   2.230   0.338
 9981SOL    HW230843   2.580   2.281   0.307
 9982SOL     OW30844   1.040   1.285   4.356
 9982SOL    HW130845   0.990   1.277   4.441
 9982SOL    HW230846   1.014   1.210   4.294
 9983SOL     OW30847   0.366   1.212   1.845
 9983SOL    HW130848   0.336   1.229   1.938
 9983SOL    HW230849   0.464   1.193   1.845
 9984SOL     OW30850   1.074   6.156   0.047
 9984SOL    HW130851   1.127   6.240   0.060
 9984SOL    HW230852   1.067   6.107   0.133
 9985SOL     OW30853   2.726   6.119   1.380
 9985SOL    HW130854   2.807   6.171   1.407
 9985SOL    HW230855   2.653   6.182   1.353
 9986SOL     OW30856   5.451   5.008   0.950
 9986SOL    HW130857   5.480   4.916   0.976
 9986SOL    HW230858   5.532   5.066   0.936
 9987SOL     OW30859   6.505   2.590   2.480
 9987SOL    HW130860   6.476   2.525   2.550
 9987SOL    HW230861   6.559   2.663   2.522
 9988SOL     OW30862   6.674   5.381   4.344
 9988SOL    HW130863   6.730   5.406   4.423
 9988SOL    HW230864   6.692   5.286   4.319
 9989SOL     OW30865   6.168   4.412   2.456
 9989SOL    HW130866   6.211   4.479   2.517
 9989SOL    HW230867   6.234   4.385   2.385
 9990SOL     OW30868   2.462   0.034   3.153
 9990SOL    HW130869   2.438   0.108   3.090
 9990SOL    HW230870   2.502   6.981   3.101
 9991SOL     OW30871   2.130   3.423   3.621
 9991SOL    HW130872   2.156   3.510   3.663
 9991SOL    HW230873   2.211   3.367   3.608
 9992SOL     OW30874   3.501   3.789   0.834
 9992SOL    HW130875   3.588   3.757   0.872
 9992SOL    HW230876   3.426   3.737   0.875
 9993SOL     OW30877   3.775   6.856   3.614
 9993SOL    HW130878   3.858   6.860   3.558
 9993SOL    HW230879   3.758   6.762   3.643
 9994SOL     OW30880   6.671   4.361   2.301
 9994SOL    HW130881   6.714   4.439   2.347
 9994SOL    HW230882   6.727   4.334   2.222
 9995SOL     OW30883   3.171   1.028   3.724
 9995SOL    HW130884   3.125   1.017   3.812
 9995SOL    HW230885   3.233   1.106   3.729
 9996SOL     OW30886   2.646   3.570   1.700
 9996SOL    HW130887   2.578   3.550   1.770
 9996SOL    HW230888   2.738   3.547   1.734
 9997SOL     OW30889   5.329   0.985   1.962
 9997SOL    HW130890   5.327   1.070   2.016
 9997SOL    HW230891   5.265   0.919   2.001
 9998SOL     OW30892   5.627   3.728   2.338
 9998SOL    HW130893   5.532   3.744   2.365
 9998SOL    HW230894   5.633   3.642   2.288
 9999SOL     OW30895   0.241   5.821   5.161
 9999SOL    HW130896   0.294   5.868   5.231
 9999SOL    HW230897   0.291   5.740   5.130
10000SOL     OW30898   5.571   2.028   0.156
10000SOL    HW130899   5.584   2.083   0.238
10000SOL    HW230900   5.569   2.087   0.076
10001SOL     OW30901   3.810   0.566   1.239
10001SOL    HW130902   3.810   0.576   1.339
10001SOL    HW230903   3.811   0.656   1.196
10002SOL     OW30904   2.004   1.192   1.577
10002SOL    HW130905   2.087   1.209   1.524
10002SOL    HW230906   1.926   1.237   1.533
10003SOL     OW30907   2.998   2.171   2.299
10003SOL    HW130908   2.910   2.136   2.332
10003SOL    HW230909   2.983   2.234   2.223
10004SOL     OW30910   5.413   2.856   4.995
10004SOL    HW130911   5.394   2.760   5.016
10004SOL    HW230912   5.419   2.908   5.080
10005SOL     OW30913   3.620   5.535   2.452
10005SOL    HW130914   3.712   5.569   2.468
10005SOL    HW230915   3.566   5.545   2.535
10006SOL     OW30916   6.159   0.233   5.187
10006SOL    HW130917   6.200   0.157   5.137
10006SOL    HW230918   6.116   0.296   5.123
10007SOL     OW30919   0.849   3.068   3.827
10007SOL    HW130920   0.878   3.114   3.911
10007SOL    HW230921   0.757   3.099   3.802
10008SOL     OW30922   4.895   0.839   3.811
10008SOL    HW130923   4.830   0.909   3.783
10008SOL    HW230924   4.962   0.879   3.874
10009SOL     OW30925   1.462   4.201   1.641
10009SOL    HW130926   1.467   4.161   1.549
10009SOL    HW230927   1.450   4.129   1.709
10010SOL     OW30928   2.806   6.164   0.235
10010SOL    HW130929   2.730   6.221   0.265
10010SOL    HW230930   2.784   6.068   0.249
10011SOL     OW30931   0.702   4.261   6.182
10011SOL    HW130932   0.750   4.330   6.126
10011SOL    HW230933   0.618   4.302   6.219
10012SOL     OW30934   5.388   0.335   2.235
10012SOL    HW130935   5.293   0.312   2.256
10012SOL    HW230936   5.406   0.430   2.259
10013SOL     OW30937   2.030   2.239   4.194
10013SOL    HW130938   1.987   2.268   4.280
10013SOL    HW230939   2.000   2.146   4.172
10014SOL     OW30940   1.078   1.224   1.342
10014SOL    HW130941   1.013   1.258   1.274
10014SOL    HW230942   1.170   1.227   1.304
10015SOL     OW30943   4.020   5.303   0.359
10015SOL    HW130944   3.991   5.261   0.273
10015SOL    HW230945   4.095   5.367   0.341
10016SOL     OW30946   1.384   0.607   4.930
10016SOL    HW130947   1.329   0.615   5.013
10016SOL    HW230948   1.446   0.685   4.923
10017SOL     OW30949   2.079   1.583   3.261
10017SOL    HW130950   2.078   1.617   3.167
10017SOL    HW230951   2.014   1.507   3.269
10018SOL     OW30952   6.760   5.040   5.658
10018SOL    HW130953   6.782   4.973   5.729
10018SOL    HW230954   6.810   5.017   5.574
10019SOL     OW30955   0.726   1.828   3.123
10019SOL    HW130956   0.742   1.813   3.221
10019SOL    HW230957   0.804   1.878   3.084
10020SOL     OW30958   0.607   0.548   1.338
10020SOL    HW130959   0.638   0.581   1.249
10020SOL    HW230960   0.581   0.625   1.396
10021SOL     OW30961   0.902   2.428   2.537
10021SOL    HW130962   0.994   2.434   2.498
10021SOL    HW230963   0.907   2.390   2.629
10022SOL     OW30964   3.699   0.076   1.033
10022SOL    HW130965   3.788   0.111   1.062
10022SOL    HW230966   3.688   0.089   0.935
10023SOL     OW30967   2.089   5.079   4.443
10023SOL    HW130968   1.999   5.087   4.485
10023SOL    HW230969   2.085   5.016   4.365
10024SOL     OW30970   2.121   5.874   1.903
10024SOL    HW130971   2.046   5.807   1.895
10024SOL    HW230972   2.207   5.825   1.920
10025SOL     OW30973   1.575   2.598   2.238
10025SOL    HW130974   1.557   2.695   2.219
10025SOL    HW230975   1.643   2.563   2.174
10026SOL     OW30976   4.930   0.280   3.113
10026SOL    HW130977   5.000   0.298   3.043
10026SOL    HW230978   4.959   0.319   3.200
10027SOL     OW30979   0.473   2.808   5.250
10027SOL    HW130980   0.374   2.806   5.234
10027SOL    HW230981   0.516   2.872   5.187
10028SOL     OW30982   1.978   1.576   2.093
10028SOL    HW130983   2.023   1.495   2.055
10028SOL    HW230984   1.882   1.579   2.063
10029SOL     OW30985   1.612   2.155   3.469
10029SOL    HW130986   1.684   2.136   3.402
10029SOL    HW230987   1.523   2.142   3.427
10030SOL     OW30988   3.101   0.200   5.049
10030SOL    HW130989   3.181   0.176   5.103
10030SOL    HW230990   3.033   0.127   5.056
10031SOL     OW30991   5.559   4.917   4.771
10031SOL    HW130992   5.518   4.826   4.779
10031SOL    HW230993   5.584   4.950   4.862
10032SOL     OW30994   4.230   0.536   5.223
10032SOL    HW130995   4.198   0.507   5.133
10032SOL    HW230996   4.243   0.456   5.281
10033SOL     OW30997   4.506   2.500   3.843
10033SOL    HW130998   4.576   2.429   3.835
10033SOL    HW230999   4.518   2.549   3.930
10034SOL     OW31000   3.106   0.342   3.826
10034SOL    HW131001   3.167   0.421   3.829
10034SOL    HW231002   3.017   0.371   3.791
10035SOL     OW31003   6.518   4.613   1.250
10035SOL    HW131004   6.598   4.573   1.206
10035SOL    HW231005   6.436   4.592   1.196
10036SOL     OW31006   6.648   0.370   0.456
10036SOL    HW131007   6.568   0.423   0.484
10036SOL    HW231008   6.707   0.354   0.535
10037SOL     OW31009   5.903   0.794   0.327
10037SOL    HW131010   5.941   0.794   0.420
10037SOL    HW231011   5.810   0.757   0.329
10038SOL     OW31012   4.351   0.164   6.553
10038SOL    HW131013   4.341   0.111   6.638
10038SOL    HW231014   4.273   0.226   6.543
10039SOL     OW31015   4.573   6.618   5.384
10039SOL    HW131016   4.643   6.555   5.350
10039SOL    HW231017   4.489   6.605   5.331
10040SOL     OW31018   4.328   5.440   6.256
10040SOL    HW131019   4.333   5.469   6.351
10040SOL    HW231020   4.356   5.515   6.196
10041SOL     OW31021   4.579   5.950   6.746
10041SOL    HW131022   4.638   6.030   6.751
10041SOL    HW231023   4.515   5.961   6.670
10042SOL     OW31024   1.436   2.336   4.996
10042SOL    HW131025   1.359   2.324   4.934
10042SOL    HW231026   1.477   2.246   5.015
10043SOL     OW31027   0.467   2.367   4.253
10043SOL    HW131028   0.483   2.375   4.352
10043SOL    HW231029   0.484   2.273   4.224
10044SOL     OW31030   2.986   1.644   4.447
10044SOL    HW131031   2.947   1.674   4.360
10044SOL    HW231032   3.085   1.643   4.440
10045SOL     OW31033   5.118   6.777   3.871
10045SOL    HW131034   5.120   6.690   3.823
10045SOL    HW231035   5.028   6.791   3.912
10046SOL     OW31036   1.515   3.798   1.259
10046SOL    HW131037   1.568   3.717   1.282
10046SOL    HW231038   1.433   3.802   1.317
10047SOL     OW31039   6.562   3.197   5.193
10047SOL    HW131040   6.624   3.273   5.177
10047SOL    HW231041   6.477   3.231   5.233
10048SOL     OW31042   5.626   1.673   2.540
10048SOL    HW131043   5.713   1.717   2.561
10048SOL    HW231044   5.559   1.697   2.610
10049SOL     OW31045   0.677   0.101   6.506
10049SOL    HW131046   0.607   0.045   6.462
10049SOL    HW231047   0.636   0.156   6.578
10050SOL     OW31048   6.415   2.592   4.819
10050SOL    HW131049   6.439   2.641   4.903
10050SOL    HW231050   6.494   2.588   4.758
10051SOL     OW31051   6.285   2.384   4.972
10051SOL    HW131052   6.344   2.446   4.920
10051SOL    HW231053   6.328   2.360   5.058
10052SOL     OW31054   2.918   2.185   2.870
10052SOL    HW131055   2.959   2.144   2.789
10052SOL    HW231056   2.985   2.244   2.915
10053SOL     OW31057   3.181   5.847   1.861
10053SOL    HW131058   3.266   5.897   1.847
10053SOL    HW231059   3.156   5.850   1.957
10054SOL     OW31060   5.043   4.934   6.454
10054SOL    HW131061   4.974   4.998   6.419
10054SOL    HW231062   5.097   4.980   6.524
10055SOL     OW31063   6.164   2.158   4.894
10055SOL    HW131064   6.208   2.244   4.920
10055SOL    HW231065   6.101   2.129   4.966
10056SOL     OW31066   5.490   4.463   1.946
10056SOL    HW131067   5.433   4.452   1.865
10056SOL    HW231068   5.470   4.550   1.990
10057SOL     OW31069   3.935   2.001   4.450
10057SOL    HW131070   3.882   1.926   4.491
10057SOL    HW231071   3.888   2.034   4.368
10058SOL     OW31072   0.569   3.738   4.593
10058SOL    HW131073   0.547   3.730   4.496
10058SOL    HW231074   0.498   3.791   4.640
10059SOL     OW31075   5.129   6.988   1.083
10059SOL    HW131076   5.161   0.060   1.089
10059SOL    HW231077   5.047   6.985   1.025
10060SOL     OW31078   1.580   1.659   1.516
10060SOL    HW131079   1.607   1.684   1.423
10060SOL    HW231080   1.659   1.623   1.566
10061SOL     OW31081   4.892   1.552   4.474
10061SOL    HW131082   4.897   1.480   4.544
10061SOL    HW231083   4.959   1.623   4.495
10062SOL     OW31084   6.701   0.330   4.582
10062SOL    HW131085   6.655   0.257   4.531
10062SOL    HW231086   6.716   0.301   4.676
10063SOL     OW31087   2.081   1.393   4.206
10063SOL    HW131088   2.050   1.486   4.228
10063SOL    HW231089   2.061   1.373   4.110
10064SOL     OW31090   4.898   6.780   0.206
10064SOL    HW131091   4.914   6.710   0.275
10064SOL    HW231092   4.963   6.769   0.131
10065SOL     OW31093   1.901   7.021   2.358
10065SOL    HW131094   1.833   6.950   2.375
10065SOL    HW231095   1.962   6.992   2.284
10066SOL     OW31096   1.216   2.622   3.830
10066SOL    HW131097   1.129   2.640   3.874
10066SOL    HW231098   1.289   2.617   3.899
10067SOL     OW31099   6.782   4.221   4.528
10067SOL    HW131100   6.839   4.302   4.521
10067SOL    HW231101   6.695   4.245   4.571
10068SOL     OW31102   0.133   3.477   3.161
10068SOL    HW131103   0.066   3.518   3.223
10068SOL    HW231104   0.106   3.384   3.139
10069SOL     OW31105   2.228   5.310   3.151
10069SOL    HW131106   2.133   5.320   3.124
10069SOL    HW231107   2.242   5.356   3.239
10070SOL     OW31108   6.449   0.016   5.309
10070SOL    HW131109   6.424   0.041   5.215
10070SOL    HW231110   6.385   6.969   5.342
10071SOL     OW31111   6.079   6.013   3.652
10071SOL    HW131112   6.095   5.994   3.555
10071SOL    HW231113   6.123   5.942   3.707
10072SOL     OW31114   6.970   6.333   4.052
10072SOL    HW131115   0.045   6.340   4.030
10072SOL    HW231116   6.935   6.246   4.018
10073SOL     OW31117   5.684   4.318   5.462
10073SOL    HW131118   5.694   4.312   5.562
10073SOL    HW231119   5.738   4.246   5.419
10074SOL     OW31120   1.624   0.860   5.416
10074SOL    HW131121   1.579   0.771   5.420
10074SOL    HW231122   1.716   0.854   5.455
10075SOL     OW31123   1.924   2.853   2.850
10075SOL    HW131124   1.963   2.849   2.942
10075SOL    HW231125   1.956   2.775   2.796
10076SOL     OW31126   0.062   0.135   3.730
10076SOL    HW131127   7.021   0.179   3.667
10076SOL    HW231128   0.141   0.193   3.743
10077SOL     OW31129   3.910   3.102   6.634
10077SOL    HW131130   3.843   3.062   6.571
10077SOL    HW231131   3.879   3.193   6.662
10078SOL     OW31132   0.498   5.039   4.145
10078SOL    HW131133   0.436   5.018   4.070
10078SOL    HW231134   0.542   5.127   4.127
10079SOL     OW31135   6.921   4.009   2.875
10079SOL    HW131136   6.827   4.041   2.891
10079SOL    HW231137   6.919   3.927   2.819
10080SOL     OW31138   4.518   1.409   5.671
10080SOL    HW131139   4.579   1.371   5.602
10080SOL    HW231140   4.448   1.466   5.627
10081SOL     OW31141   0.181   0.260   0.728
10081SOL    HW131142   0.190   0.166   0.762
10081SOL    HW231143   0.101   0.267   0.670
10082SOL     OW31144   6.895   4.861   1.436
10082SOL    HW131145   6.871   4.931   1.504
10082SOL    HW231146   6.965   4.897   1.374
10083SOL     OW31147   4.873   1.123   3.447
10083SOL    HW131148   4.895   1.059   3.374
10083SOL    HW231149   4.922   1.209   3.432
10084SOL     OW31150   2.107   0.648   5.183
10084SOL    HW131151   2.197   0.609   5.163
10084SOL    HW231152   2.113   0.748   5.183
10085SOL     OW31153   1.990   5.622   1.551
10085SOL    HW131154   2.003   5.534   1.596
10085SOL    HW231155   2.073   5.678   1.563
10086SOL     OW31156   4.187   5.460   2.175
10086SOL    HW131157   4.205   5.475   2.078
10086SOL    HW231158   4.096   5.495   2.198
10087SOL     OW31159   7.002   0.383   3.995
10087SOL    HW131160   6.987   0.284   3.990
10087SOL    HW231161   6.914   0.429   4.007
10088SOL     OW31162   6.423   0.310   1.238
10088SOL    HW131163   6.345   0.286   1.296
10088SOL    HW231164   6.463   0.396   1.271
10089SOL     OW31165   2.908   1.893   2.244
10089SOL    HW131166   2.978   1.959   2.273
10089SOL    HW231167   2.952   1.810   2.210
10090SOL     OW31168   1.288   4.797   1.640
10090SOL    HW131169   1.208   4.739   1.622
10090SOL    HW231170   1.371   4.741   1.636
10091SOL     OW31171   0.459   3.959   6.339
10091SOL    HW131172   0.550   3.940   6.376
10091SOL    HW231173   0.397   3.983   6.414
10092SOL     OW31174   2.127   2.702   5.390
10092SOL    HW131175   2.154   2.721   5.485
10092SOL    HW231176   2.098   2.788   5.347
10093SOL     OW31177   6.711   3.435   5.167
10093SOL    HW131178   6.807   3.415   5.184
10093SOL    HW231179   6.701   3.531   5.138
10094SOL     OW31180   2.664   5.654   2.171
10094SOL    HW131181   2.649   5.721   2.098
10094SOL    HW231182   2.579   5.638   2.221
10095SOL     OW31183   6.105   1.893   5.389
10095SOL    HW131184   6.097   1.893   5.488
10095SOL    HW231185   6.014   1.903   5.348
10096SOL     OW31186   4.330   5.065   2.649
10096SOL    HW131187   4.298   4.972   2.629
10096SOL    HW231188   4.426   5.063   2.678
10097SOL     OW31189   1.088   1.027   0.202
10097SOL    HW131190   1.155   0.955   0.220
10097SOL    HW231191   0.996   0.991   0.214
10098SOL     OW31192   2.814   0.590   4.703
10098SOL    HW131193   2.766   0.522   4.759
10098SOL    HW231194   2.880   0.639   4.759
10099SOL     OW31195   0.215   4.957   0.987
10099SOL    HW131196   0.154   5.036   0.975
10099SOL    HW231197   0.307   4.989   1.009
10100SOL     OW31198   5.161   6.958   4.636
10100SOL    HW131199   5.232   6.922   4.575
10100SOL    HW231200   5.161   0.035   4.632
10101SOL     OW31201   6.251   3.955   1.665
10101SOL    HW131202   6.173   3.927   1.609
10101SOL    HW231203   6.326   3.986   1.605
10102SOL     OW31204   0.827   1.256   2.645
10102SOL    HW131205   0.740   1.302   2.662
10102SOL    HW231206   0.825   1.165   2.687
10103SOL     OW31207   2.651   0.360   5.752
10103SOL    HW131208   2.585   0.341   5.679
10103SOL    HW231209   2.729   0.297   5.743
10104SOL     OW31210   2.400   1.731   3.841
10104SOL    HW131211   2.489   1.775   3.859
10104SOL    HW231212   2.376   1.671   3.917
10105SOL     OW31213   1.503   1.229   0.559
10105SOL    HW131214   1.577   1.201   0.621
10105SOL    HW231215   1.417   1.227   0.609
10106SOL     OW31216   4.211   6.207   0.399
10106SOL    HW131217   4.260   6.293   0.415
10106SOL    HW231218   4.112   6.224   0.405
10107SOL     OW31219   6.762   1.559   6.347
10107SOL    HW131220   6.735   1.616   6.424
10107SOL    HW231221   6.859   1.537   6.353
10108SOL     OW31222   6.609   0.145   7.016
10108SOL    HW131223   6.622   0.146   0.093
10108SOL    HW231224   6.598   0.238   6.982
10109SOL     OW31225   5.037   6.946   0.571
10109SOL    HW131226   5.059   0.014   0.534
10109SOL    HW231227   4.938   6.939   0.585
10110SOL     OW31228   3.797   5.160   4.775
10110SOL    HW131229   3.882   5.152   4.722
10110SOL    HW231230   3.723   5.186   4.713
10111SOL     OW31231   5.908   3.252   3.562
10111SOL    HW131232   5.856   3.167   3.561
10111SOL    HW231233   5.856   3.324   3.608
10112SOL     OW31234   5.576   3.292   3.736
10112SOL    HW131235   5.476   3.295   3.727
10112SOL    HW231236   5.601   3.233   3.812
10113SOL     OW31237   4.138   0.354   6.786
10113SOL    HW131238   4.232   0.330   6.809
10113SOL    HW231239   4.122   0.340   6.689
10114SOL     OW31240   5.255   1.400   0.965
10114SOL    HW131241   5.298   1.490   0.951
10114SOL    HW231242   5.165   1.412   1.006
10115SOL     OW31243   3.734   1.450   4.759
10115SOL    HW131244   3.731   1.542   4.798
10115SOL    HW231245   3.700   1.452   4.665
10116SOL     OW31246   0.355   6.536   0.336
10116SOL    HW131247   0.337   6.488   0.421
10116SOL    HW231248   0.436   6.594   0.347
10117SOL     OW31249   6.388   5.785   5.586
10117SOL    HW131250   6.381   5.747   5.494
10117SOL    HW231251   6.347   5.877   5.587
10118SOL     OW31252   2.002   4.588   2.695
10118SOL    HW131253   1.984   4.492   2.714
10118SOL    HW231254   2.001   4.640   2.781
10119SOL     OW31255   0.482   5.350   4.117
10119SOL    HW131256   0.442   5.393   4.036
10119SOL    HW231257   0.516   5.422   4.178
10120SOL     OW31258   1.751   3.504   5.250
10120SOL    HW131259   1.776   3.493   5.154
10120SOL    HW231260   1.774   3.597   5.280
10121SOL     OW31261   6.353   3.803   6.828
10121SOL    HW131262   6.432   3.765   6.877
10121SOL    HW231263   6.377   3.893   6.793
10122SOL     OW31264   6.161   3.434   1.930
10122SOL    HW131265   6.166   3.532   1.949
10122SOL    HW231266   6.129   3.387   2.012
10123SOL     OW31267   5.141   6.478   6.857
10123SOL    HW131268   5.223   6.498   6.912
10123SOL    HW231269   5.165   6.483   6.760
10124SOL     OW31270   1.237   4.253   0.399
10124SOL    HW131271   1.252   4.227   0.494
10124SOL    HW231272   1.174   4.189   0.355
10125SOL     OW31273   1.948   1.176   1.834
10125SOL    HW131274   1.978   1.097   1.889
10125SOL    HW231275   1.971   1.160   1.738
10126SOL     OW31276   0.123   6.482   6.433
10126SOL    HW131277   0.126   6.448   6.527
10126SOL    HW231278   0.213   6.467   6.390
10127SOL     OW31279   2.808   4.419   6.456
10127SOL    HW131280   2.825   4.467   6.370
10127SOL    HW231281   2.753   4.477   6.516
10128SOL     OW31282   3.114   1.202   0.715
10128SOL    HW131283   3.053   1.252   0.653
10128SOL    HW231284   3.148   1.264   0.785
10129SOL     OW31285   5.936   1.871   2.282
10129SOL    HW131286   5.874   1.934   2.237
10129SOL    HW231287   5.958   1.796   2.220
10130SOL     OW31288   1.152   3.407   1.836
10130SOL    HW131289   1.244   3.441   1.813
10130SOL    HW231290   1.158   3.344   1.913
10131SOL     OW31291   1.322   0.048   4.598
10131SOL    HW131292   1.230   0.039   4.561
10131SOL    HW231293   1.363   6.980   4.609
10132SOL     OW31294   3.810   0.783   4.010
10132SOL    HW131295   3.804   0.683   4.014
10132SOL    HW231296   3.729   0.819   3.962
10133SOL     OW31297   3.770   6.211   0.835
10133SOL    HW131298   3.693   6.236   0.777
10133SOL    HW231299   3.774   6.273   0.914
10134SOL     OW31300   0.076   6.185   2.975
10134SOL    HW131301   0.039   6.141   2.893
10134SOL    HW231302   0.088   6.282   2.958
10135SOL     OW31303   4.847   3.199   3.403
10135SOL    HW131304   4.791   3.149   3.469
10135SOL    HW231305   4.889   3.135   3.339
10136SOL     OW31306   5.553   0.898   2.406
10136SOL    HW131307   5.616   0.962   2.451
10136SOL    HW231308   5.540   0.926   2.311
10137SOL     OW31309   6.972   3.323   4.229
10137SOL    HW131310   6.906   3.329   4.303
10137SOL    HW231311   6.934   3.364   4.146
10138SOL     OW31312   5.208   3.732   0.094
10138SOL    HW131313   5.207   3.641   0.136
10138SOL    HW231314   5.283   3.786   0.132
10139SOL     OW31315   2.985   3.882   3.648
10139SOL    HW131316   3.014   3.787   3.634
10139SOL    HW231317   2.957   3.895   3.743
10140SOL     OW31318   6.124   5.743   0.027
10140SOL    HW131319   6.090   5.656   7.013
10140SOL    HW231320   6.080   5.819   7.003
10141SOL     OW31321   3.943   1.261   5.647
10141SOL    HW131322   3.907   1.284   5.557
10141SOL    HW231323   4.043   1.261   5.643
10142SOL     OW31324   6.537   6.708   5.679
10142SOL    HW131325   6.472   6.779   5.653
10142SOL    HW231326   6.594   6.684   5.600
10143SOL     OW31327   5.591   1.098   6.779
10143SOL    HW131328   5.632   1.058   6.862
10143SOL    HW231329   5.491   1.101   6.791
10144SOL     OW31330   2.959   0.445   6.002
10144SOL    HW131331   2.976   0.481   5.910
10144SOL    HW231332   3.045   0.417   6.044
10145SOL     OW31333   3.260   4.930   4.279
10145SOL    HW131334   3.257   4.865   4.354
10145SOL    HW231335   3.191   4.906   4.211
10146SOL     OW31336   4.627   4.483   5.029
10146SOL    HW131337   4.527   4.491   5.032
10146SOL    HW231338   4.667   4.550   5.092
10147SOL     OW31339   5.635   3.650   5.007
10147SOL    HW131340   5.629   3.741   4.965
10147SOL    HW231341   5.543   3.617   5.028
10148SOL     OW31342   5.042   4.650   6.188
10148SOL    HW131343   5.116   4.714   6.210
10148SOL    HW231344   4.961   4.702   6.162
10149SOL     OW31345   5.727   3.282   0.717
10149SOL    HW131346   5.762   3.338   0.642
10149SOL    HW231347   5.696   3.193   0.682
10150SOL     OW31348   3.635   3.387   0.358
10150SOL    HW131349   3.698   3.461   0.336
10150SOL    HW231350   3.550   3.399   0.305
10151SOL     OW31351   0.741   5.815   0.013
10151SOL    HW131352   0.814   5.860   6.985
10151SOL    HW231353   0.779   5.769   0.093
10152SOL     OW31354   0.170   5.608   4.182
10152SOL    HW131355   0.198   5.632   4.089
10152SOL    HW231356   0.212   5.521   4.209
10153SOL     OW31357   4.713   6.156   3.764
10153SOL    HW131358   4.678   6.087   3.827
10153SOL    HW231359   4.664   6.150   3.677
10154SOL     OW31360   4.321   6.327   5.301
10154SOL    HW131361   4.290   6.418   5.330
10154SOL    HW231362   4.395   6.337   5.235
10155SOL     OW31363   4.070   2.373   6.265
10155SOL    HW131364   4.059   2.359   6.166
10155SOL    HW231365   4.134   2.305   6.301
10156SOL     OW31366   6.267   0.786   2.117
10156SOL    HW131367   6.222   0.764   2.203
10156SOL    HW231368   6.200   0.827   2.054
10157SOL     OW31369   0.277   1.646   0.757
10157SOL    HW131370   0.337   1.658   0.835
10157SOL    HW231371   0.252   1.736   0.719
10158SOL     OW31372   5.840   5.989   0.692
10158SOL    HW131373   5.908   5.993   0.619
10158SOL    HW231374   5.752   5.962   0.653
10159SOL     OW31375   2.025   3.094   0.666
10159SOL    HW131376   1.992   3.075   0.574
10159SOL    HW231377   1.998   3.019   0.727
10160SOL     OW31378   1.921   3.069   2.153
10160SOL    HW131379   1.836   3.081   2.102
10160SOL    HW231380   1.900   3.056   2.250
10161SOL     OW31381   3.707   3.049   1.009
10161SOL    HW131382   3.787   3.008   1.054
10161SOL    HW231383   3.651   3.095   1.077
10162SOL     OW31384   3.494   4.663   0.995
10162SOL    HW131385   3.506   4.577   1.045
10162SOL    HW231386   3.516   4.650   0.899
10163SOL     OW31387   5.838   4.262   6.798
10163SOL    HW131388   5.892   4.221   6.872
10163SOL    HW231389   5.758   4.308   6.836
10164SOL     OW31390   6.076   3.232   4.112
10164SOL    HW131391   6.002   3.199   4.169
10164SOL    HW231392   6.124   3.154   4.071
10165SOL     OW31393   6.652   1.549   3.293
10165SOL    HW131394   6.564   1.527   3.336
10165SOL    HW231395   6.688   1.633   3.332
10166SOL     OW31396   2.952   1.847   1.861
10166SOL    HW131397   2.998   1.932   1.886
10166SOL    HW231398   2.936   1.792   1.943
10167SOL     OW31399   1.284   4.518   6.868
10167SOL    HW131400   1.376   4.511   6.831
10167SOL    HW231401   1.287   4.554   6.961
10168SOL     OW31402   5.758   2.637   6.523
10168SOL    HW131403   5.776   2.696   6.445
10168SOL    HW231404   5.668   2.659   6.561
10169SOL     OW31405   6.635   4.391   3.444
10169SOL    HW131406   6.719   4.444   3.430
10169SOL    HW231407   6.598   4.364   3.356
10170SOL     OW31408   6.573   5.219   5.378
10170SOL    HW131409   6.648   5.185   5.435
10170SOL    HW231410   6.545   5.310   5.408
10171SOL     OW31411   7.013   2.307   4.357
10171SOL    HW131412   0.023   2.229   4.411
10171SOL    HW231413   6.952   2.363   4.413
10172SOL     OW31414   0.628   6.017   5.454
10172SOL    HW131415   0.583   5.998   5.366
10172SOL    HW231416   0.607   6.111   5.482
10173SOL     OW31417   1.964   2.495   0.558
10173SOL    HW131418   1.927   2.473   0.467
10173SOL    HW231419   2.009   2.414   0.596
10174SOL     OW31420   5.222   4.589   3.625
10174SOL    HW131421   5.131   4.571   3.588
10174SOL    HW231422   5.290   4.538   3.573
10175SOL     OW31423   5.781   1.818   2.913
10175SOL    HW131424   5.836   1.764   2.977
10175SOL    HW231425   5.796   1.915   2.929
10176SOL     OW31426   0.402   3.442   5.380
10176SOL    HW131427   0.354   3.365   5.423
10176SOL    HW231428   0.488   3.408   5.341
10177SOL     OW31429   2.344   1.358   1.564
10177SOL    HW131430   2.396   1.409   1.633
10177SOL    HW231431   2.327   1.266   1.598
10178SOL     OW31432   0.167   0.833   6.511
10178SOL    HW131433   0.226   0.867   6.584
10178SOL    HW231434   0.203   0.746   6.478
10179SOL     OW31435   0.505   2.756   6.510
10179SOL    HW131436   0.489   2.781   6.605
10179SOL    HW231437   0.597   2.717   6.501
10180SOL     OW31438   3.876   0.861   5.753
10180SOL    HW131439   3.826   0.825   5.831
10180SOL    HW231440   3.970   0.883   5.780
10181SOL     OW31441   6.366   3.608   1.596
10181SOL    HW131442   6.276   3.572   1.620
10181SOL    HW231443   6.400   3.665   1.670
10182SOL     OW31444   4.583   0.756   1.724
10182SOL    HW131445   4.565   0.677   1.784
10182SOL    HW231446   4.547   0.839   1.766
10183SOL     OW31447   6.525   3.194   6.454
10183SOL    HW131448   6.581   3.263   6.409
10183SOL    HW231449   6.458   3.238   6.513
10184SOL     OW31450   4.159   0.931   6.146
10184SOL    HW131451   4.108   0.989   6.082
10184SOL    HW231452   4.158   0.837   6.113
10185SOL     OW31453   6.231   6.179   2.846
10185SOL    HW131454   6.152   6.177   2.784
10185SOL    HW231455   6.298   6.244   2.812
10186SOL     OW31456   5.447   3.576   3.974
10186SOL    HW131457   5.389   3.508   3.930
10186SOL    HW231458   5.531   3.532   4.008
10187SOL     OW31459   1.054   3.564   0.557
10187SOL    HW131460   1.090   3.645   0.510
10187SOL    HW231461   1.107   3.484   0.531
10188SOL     OW31462   4.066   4.452   0.412
10188SOL    HW131463   4.054   4.492   0.321
10188SOL    HW231464   4.051   4.523   0.482
10189SOL     OW31465   0.760   1.087   6.496
10189SOL    HW131466   0.733   1.170   6.446
10189SOL    HW231467   0.838   1.045   6.450
10190SOL     OW31468   4.868   2.967   1.280
10190SOL    HW131469   4.806   2.907   1.331
10190SOL    HW231470   4.818   3.015   1.209
10191SOL     OW31471   4.092   5.889   6.454
10191SOL    HW131472   4.147   5.827   6.510
10191SOL    HW231473   4.117   5.984   6.475
10192SOL     OW31474   4.335   1.560   5.563
10192SOL    HW131475   4.388   1.593   5.485
10192SOL    HW231476   4.238   1.573   5.546
10193SOL     OW31477   3.754   2.994   2.081
10193SOL    HW131478   3.849   2.992   2.112
10193SOL    HW231479   3.693   2.988   2.159
10194SOL     OW31480   5.095   6.300   5.898
10194SOL    HW131481   5.125   6.357   5.974
10194SOL    HW231482   5.062   6.212   5.933
10195SOL     OW31483   6.650   6.090   0.341
10195SOL    HW131484   6.581   6.096   0.269
10195SOL    HW231485   6.621   6.142   0.421
10196SOL     OW31486   4.213   2.051   4.099
10196SOL    HW131487   4.272   2.123   4.063
10196SOL    HW231488   4.227   1.967   4.047
10197SOL     OW31489   5.513   1.834   4.526
10197SOL    HW131490   5.569   1.803   4.603
10197SOL    HW231491   5.537   1.928   4.503
10198SOL     OW31492   2.822   6.903   2.618
10198SOL    HW131493   2.885   6.980   2.617
10198SOL    HW231494   2.874   6.817   2.614
10199SOL     OW31495   1.490   2.803   0.854
10199SOL    HW131496   1.579   2.836   0.820
10199SOL    HW231497   1.458   2.863   0.926
10200SOL     OW31498   4.729   2.526   6.060
10200SOL    HW131499   4.686   2.549   5.973
10200SOL    HW231500   4.709   2.431   6.083
10201SOL     OW31501   1.313   5.101   0.364
10201SOL    HW131502   1.268   5.167   0.304
10201SOL    HW231503   1.412   5.100   0.346
10202SOL     OW31504   2.775   5.251   0.884
10202SOL    HW131505   2.821   5.278   0.968
10202SOL    HW231506   2.837   5.261   0.806
10203SOL     OW31507   6.888   2.957   2.468
10203SOL    HW131508   6.884   2.924   2.374
10203SOL    HW231509   6.981   2.948   2.502
10204SOL     OW31510   4.320   5.492   6.843
10204SOL    HW131511   4.353   5.421   6.782
10204SOL    HW231512   4.255   5.551   6.795
10205SOL     OW31513   2.194   0.666   2.023
10205SOL    HW131514   2.102   0.665   2.062
10205SOL    HW231515   2.196   0.609   1.941
10206SOL     OW31516   6.808   6.838   6.584
10206SOL    HW131517   6.749   6.768   6.625
10206SOL    HW231518   6.878   6.866   6.649
10207SOL     OW31519   0.929   2.381   6.750
10207SOL    HW131520   0.972   2.471   6.752
10207SOL    HW231521   0.925   2.347   6.656
10208SOL     OW31522   6.397   5.000   4.091
10208SOL    HW131523   6.414   5.094   4.060
10208SOL    HW231524   6.315   4.965   4.047
10209SOL     OW31525   0.397   6.732   6.901
10209SOL    HW131526   0.434   6.644   6.872
10209SOL    HW231527   0.472   6.794   6.925
10210SOL     OW31528   4.770   6.431   1.914
10210SOL    HW131529   4.845   6.467   1.859
10210SOL    HW231530   4.735   6.503   1.973
10211SOL     OW31531   5.110   6.559   4.202
10211SOL    HW131532   5.121   6.633   4.269
10211SOL    HW231533   5.093   6.473   4.250
10212SOL     OW31534   0.147   0.033   5.481
10212SOL    HW131535   0.189   0.116   5.445
10212SOL    HW231536   0.066   0.010   5.426
10213SOL     OW31537   5.770   2.194   1.869
10213SOL    HW131538   5.759   2.143   1.783
10213SOL    HW231539   5.734   2.287   1.857
10214SOL     OW31540   0.297   1.680   1.554
10214SOL    HW131541   0.332   1.630   1.474
10214SOL    HW231542   0.198   1.691   1.546
10215SOL     OW31543   3.650   3.421   3.926
10215SOL    HW131544   3.579   3.352   3.913
10215SOL    HW231545   3.734   3.391   3.882
10216SOL     OW31546   6.737   1.359   1.675
10216SOL    HW131547   6.730   1.443   1.621
10216SOL    HW231548   6.689   1.285   1.627
10217SOL     OW31549   2.709   1.585   3.532
10217SOL    HW131550   2.657   1.518   3.585
10217SOL    HW231551   2.795   1.605   3.578
10218SOL     OW31552   0.641   1.164   1.833
10218SOL    HW131553   0.697   1.165   1.751
10218SOL    HW231554   0.647   1.073   1.876
10219SOL     OW31555   0.346   2.233   2.692
10219SOL    HW131556   0.326   2.142   2.726
10219SOL    HW231557   0.438   2.260   2.719
10220SOL     OW31558   4.810   1.808   1.029
10220SOL    HW131559   4.770   1.738   1.087
10220SOL    HW231560   4.738   1.853   0.976
10221SOL     OW31561   1.890   3.931   4.433
10221SOL    HW131562   1.835   3.854   4.464
10221SOL    HW231563   1.830   4.004   4.402
10222SOL     OW31564   2.961   4.419   5.294
10222SOL    HW131565   2.943   4.507   5.248
10222SOL    HW231566   2.874   4.375   5.316
10223SOL     OW31567   2.517   4.988   1.270
10223SOL    HW131568   2.554   5.077   1.298
10223SOL    HW231569   2.529   4.976   1.172
10224SOL     OW31570   6.151   2.429   6.211
10224SOL    HW131571   6.206   2.464   6.136
10224SOL    HW231572   6.054   2.440   6.190
10225SOL     OW31573   1.397   6.162   5.195
10225SOL    HW131574   1.460   6.211   5.256
10225SOL    HW231575   1.310   6.211   5.190
10226SOL     OW31576   2.054   0.586   5.969
10226SOL    HW131577   2.104   0.636   5.898
10226SOL    HW231578   2.013   0.504   5.930
10227SOL     OW31579   5.380   4.990   0.680
10227SOL    HW131580   5.470   4.993   0.636
10227SOL    HW231581   5.392   4.984   0.779
10228SOL     OW31582   0.397   6.180   1.742
10228SOL    HW131583   0.367   6.093   1.705
10228SOL    HW231584   0.493   6.194   1.719
10229SOL     OW31585   1.910   3.097   5.138
10229SOL    HW131586   1.934   3.018   5.195
10229SOL    HW231587   1.993   3.135   5.098
10230SOL     OW31588   6.446   6.226   3.090
10230SOL    HW131589   6.489   6.212   3.001
10230SOL    HW231590   6.391   6.310   3.088
10231SOL     OW31591   6.240   4.804   5.216
10231SOL    HW131592   6.222   4.708   5.235
10231SOL    HW231593   6.153   4.852   5.204
10232SOL     OW31594   3.454   1.565   4.188
10232SOL    HW131595   3.462   1.553   4.089
10232SOL    HW231596   3.448   1.663   4.210
10233SOL     OW31597   3.902   3.881   5.254
10233SOL    HW131598   3.876   3.941   5.330
10233SOL    HW231599   3.836   3.890   5.180
10234SOL     OW31600   5.411   0.550   0.690
10234SOL    HW131601   5.414   0.452   0.711
10234SOL    HW231602   5.317   0.583   0.697
10235SOL     OW31603   3.217   2.077   1.349
10235SOL    HW131604   3.152   2.001   1.358
10235SOL    HW231605   3.258   2.077   1.258
10236SOL     OW31606   2.013   1.322   1.154
10236SOL    HW131607   2.009   1.360   1.061
10236SOL    HW231608   2.028   1.223   1.148
10237SOL     OW31609   0.249   4.812   6.164
10237SOL    HW131610   0.184   4.859   6.225
10237SOL    HW231611   0.200   4.743   6.110
10238SOL     OW31612   4.005   3.929   1.959
10238SOL    HW131613   3.936   3.964   2.022
10238SOL    HW231614   4.019   3.831   1.975
10239SOL     OW31615   2.371   3.869   5.982
10239SOL    HW131616   2.323   3.841   6.066
10239SOL    HW231617   2.327   3.826   5.903
10240SOL     OW31618   1.954   4.640   2.256
10240SOL    HW131619   1.921   4.716   2.201
10240SOL    HW231620   2.007   4.577   2.199
10241SOL     OW31621   0.341   6.432   3.528
10241SOL    HW131622   0.294   6.344   3.537
10241SOL    HW231623   0.289   6.503   3.576
10242SOL     OW31624   0.253   1.246   1.521
10242SOL    HW131625   0.341   1.201   1.508
10242SOL    HW231626   0.267   1.344   1.533
10243SOL     OW31627   2.445   4.488   2.687
10243SOL    HW131628   2.510   4.535   2.626
10243SOL    HW231629   2.472   4.505   2.782
10244SOL     OW31630   1.436   4.137   1.365
10244SOL    HW131631   1.379   4.114   1.287
10244SOL    HW231632   1.532   4.144   1.336
10245SOL     OW31633   3.741   3.596   1.481
10245SOL    HW131634   3.689   3.666   1.531
10245SOL    HW231635   3.774   3.527   1.546
10246SOL     OW31636   3.533   3.188   3.542
10246SOL    HW131637   3.472   3.139   3.479
10246SOL    HW231638   3.492   3.277   3.565
10247SOL     OW31639   6.944   4.530   6.416
10247SOL    HW131640   0.004   4.519   6.362
10247SOL    HW231641   6.867   4.484   6.371
10248SOL     OW31642   1.822   6.329   2.800
10248SOL    HW131643   1.762   6.353   2.876
10248SOL    HW231644   1.852   6.412   2.754
10249SOL     OW31645   2.399   6.298   6.467
10249SOL    HW131646   2.336   6.226   6.496
10249SOL    HW231647   2.489   6.283   6.508
10250SOL     OW31648   6.376   2.422   1.615
10250SOL    HW131649   6.301   2.483   1.640
10250SOL    HW231650   6.390   2.355   1.688
10251SOL     OW31651   2.069   1.148   5.098
10251SOL    HW131652   2.100   1.098   5.017
10251SOL    HW231653   2.147   1.186   5.146
10252SOL     OW31654   3.937   4.603   5.945
10252SOL    HW131655   3.853   4.550   5.954
10252SOL    HW231656   3.989   4.570   5.867
10253SOL     OW31657   2.972   0.208   0.809
10253SOL    HW131658   2.934   0.124   0.846
10253SOL    HW231659   2.903   0.254   0.753
10254SOL     OW31660   5.108   1.306   5.398
10254SOL    HW131661   5.080   1.338   5.488
10254SOL    HW231662   5.190   1.250   5.405
10255SOL     OW31663   2.475   6.207   1.248
10255SOL    HW131664   2.387   6.215   1.294
10255SOL    HW231665   2.467   6.143   1.172
10256SOL     OW31666   4.950   1.913   1.876
10256SOL    HW131667   4.910   1.877   1.792
10256SOL    HW231668   5.050   1.916   1.866
10257SOL     OW31669   1.487   4.560   4.601
10257SOL    HW131670   1.389   4.575   4.588
10257SOL    HW231671   1.538   4.612   4.532
10258SOL     OW31672   3.396   1.162   3.832
10258SOL    HW131673   3.429   1.210   3.914
10258SOL    HW231674   3.458   1.086   3.810
10259SOL     OW31675   1.265   5.129   2.830
10259SOL    HW131676   1.319   5.068   2.888
10259SOL    HW231677   1.273   5.102   2.735
10260SOL     OW31678   1.643   1.198   3.883
10260SOL    HW131679   1.556   1.216   3.836
10260SOL    HW231680   1.715   1.253   3.842
10261SOL     OW31681   6.863   4.973   2.442
10261SOL    HW131682   6.803   5.040   2.399
10261SOL    HW231683   6.811   4.920   2.510
10262SOL     OW31684   2.833   6.949   5.500
10262SOL    HW131685   2.863   7.007   5.425
10262SOL    HW231686   2.913   6.908   5.544
10263SOL     OW31687   5.784   6.851   6.802
10263SOL    HW131688   5.709   6.818   6.860
10263SOL    HW231689   5.853   6.779   6.794
10264SOL     OW31690   5.981   6.612   6.704
10264SOL    HW131691   6.023   6.560   6.779
10264SOL    HW231692   6.052   6.665   6.657
10265SOL     OW31693   2.572   2.803   1.283
10265SOL    HW131694   2.611   2.754   1.361
10265SOL    HW231695   2.560   2.899   1.306
10266SOL     OW31696   4.140   3.445   4.001
10266SOL    HW131697   4.171   3.429   3.907
10266SOL    HW231698   4.141   3.543   4.020
10267SOL     OW31699   5.771   2.718   6.929
10267SOL    HW131700   5.867   2.730   6.954
10267SOL    HW231701   5.751   2.621   6.919
10268SOL     OW31702   5.976   5.801   2.610
10268SOL    HW131703   5.951   5.870   2.678
10268SOL    HW231704   5.927   5.820   2.524
10269SOL     OW31705   6.863   3.751   6.895
10269SOL    HW131706   6.953   3.708   6.882
10269SOL    HW231707   6.863   3.800   6.982
10270SOL     OW31708   3.976   4.878   2.595
10270SOL    HW131709   4.070   4.867   2.565
10270SOL    HW231710   3.916   4.888   2.515
10271SOL     OW31711   3.503   2.622   6.654
10271SOL    HW131712   3.461   2.531   6.655
10271SOL    HW231713   3.603   2.613   6.653
10272SOL     OW31714   1.401   1.402   5.339
10272SOL    HW131715   1.423   1.407   5.242
10272SOL    HW231716   1.472   1.351   5.387
10273SOL     OW31717   2.854   5.408   2.715
10273SOL    HW131718   2.918   5.331   2.714
10273SOL    HW231719   2.904   5.493   2.733
10274SOL     OW31720   0.663   5.782   5.597
10274SOL    HW131721   0.670   5.872   5.553
10274SOL    HW231722   0.609   5.721   5.540
10275SOL     OW31723   0.505   6.607   2.346
10275SOL    HW131724   0.543   6.517   2.365
10275SOL    HW231725   0.440   6.601   2.270
10276SOL     OW31726   5.194   4.906   5.557
10276SOL    HW131727   5.108   4.858   5.571
10276SOL    HW231728   5.264   4.868   5.618
10277SOL     OW31729   1.461   5.656   4.081
10277SOL    HW131730   1.512   5.738   4.052
10277SOL    HW231731   1.488   5.579   4.024
10278SOL     OW31732   0.790   1.983   4.075
10278SOL    HW131733   0.861   2.035   4.028
10278SOL    HW231734   0.729   1.942   4.008
10279SOL     OW31735   1.887   5.232   4.156
10279SOL    HW131736   1.856   5.232   4.060
10279SOL    HW231737   1.902   5.138   4.187
10280SOL     OW31738   0.031   3.137   0.678
10280SOL    HW131739   0.089   3.085   0.615
10280SOL    HW231740   0.088   3.177   0.751
10281SOL     OW31741   5.680   1.113   2.962
10281SOL    HW131742   5.611   1.044   2.945
10281SOL    HW231743   5.696   1.167   2.879
10282SOL     OW31744   5.369   3.242   4.421
10282SOL    HW131745   5.369   3.178   4.497
10282SOL    HW231746   5.339   3.332   4.453
10283SOL     OW31747   1.419   3.031   1.024
10283SOL    HW131748   1.381   3.086   1.098
10283SOL    HW231749   1.515   3.013   1.042
10284SOL     OW31750   5.494   2.271   5.061
10284SOL    HW131751   5.474   2.320   5.146
10284SOL    HW231752   5.542   2.332   4.998
10285SOL     OW31753   5.565   0.172   2.653
10285SOL    HW131754   5.562   0.187   2.554
10285SOL    HW231755   5.520   0.086   2.676
10286SOL     OW31756   3.362   1.599   3.073
10286SOL    HW131757   3.391   1.631   2.983
10286SOL    HW231758   3.287   1.533   3.062
10287SOL     OW31759   2.072   6.806   1.578
10287SOL    HW131760   2.056   6.733   1.644
10287SOL    HW231761   2.112   6.768   1.495
10288SOL     OW31762   4.534   5.745   3.416
10288SOL    HW131763   4.457   5.707   3.466
10288SOL    HW231764   4.580   5.814   3.473
10289SOL     OW31765   2.575   6.245   7.008
10289SOL    HW131766   2.631   6.306   0.041
10289SOL    HW231767   2.542   6.293   6.927
10290SOL     OW31768   3.216   3.828   2.618
10290SOL    HW131769   3.227   3.790   2.526
10290SOL    HW231770   3.121   3.814   2.648
10291SOL     OW31771   4.099   1.387   2.754
10291SOL    HW131772   4.184   1.357   2.713
10291SOL    HW231773   4.095   1.357   2.850
10292SOL     OW31774   1.663   1.141   5.394
10292SOL    HW131775   1.649   1.043   5.410
10292SOL    HW231776   1.694   1.185   5.479
10293SOL     OW31777   2.061   4.068   2.332
10293SOL    HW131778   2.111   3.981   2.326
10293SOL    HW231779   2.049   4.093   2.427
10294SOL     OW31780   5.770   3.037   3.281
10294SOL    HW131781   5.719   3.102   3.226
10294SOL    HW231782   5.764   2.946   3.239
10295SOL     OW31783   0.168   4.501   5.468
10295SOL    HW131784   0.191   4.518   5.372
10295SOL    HW231785   0.251   4.476   5.518
10296SOL     OW31786   5.223   1.394   6.999
10296SOL    HW131787   5.315   1.385   6.961
10296SOL    HW231788   5.196   1.490   6.999
10297SOL     OW31789   1.701   6.998   6.455
10297SOL    HW131790   1.786   0.006   6.414
10297SOL    HW231791   1.628   0.042   6.437
10298SOL     OW31792   2.596   4.513   1.549
10298SOL    HW131793   2.612   4.533   1.646
10298SOL    HW231794   2.551   4.424   1.541
10299SOL     OW31795   4.868   4.771   2.978
10299SOL    HW131796   4.944   4.796   3.038
10299SOL    HW231797   4.857   4.840   2.907
10300SOL     OW31798   1.482   4.282   2.613
10300SOL    HW131799   1.559   4.273   2.551
10300SOL    HW231800   1.410   4.218   2.585
10301SOL     OW31801   5.320   2.526   4.333
10301SOL    HW131802   5.319   2.428   4.317
10301SOL    HW231803   5.231   2.556   4.368
10302SOL     OW31804   2.091   6.969   3.915
10302SOL    HW131805   2.042   7.005   3.836
10302SOL    HW231806   2.106   0.020   3.981
10303SOL     OW31807   1.839   6.077   2.916
10303SOL    HW131808   1.827   6.165   2.871
10303SOL    HW231809   1.797   6.079   3.006
10304SOL     OW31810   5.633   6.695   1.433
10304SOL    HW131811   5.534   6.699   1.446
10304SOL    HW231812   5.660   6.758   1.361
10305SOL     OW31813   1.034   4.580   6.792
10305SOL    HW131814   0.967   4.509   6.814
10305SOL    HW231815   1.126   4.548   6.814
10306SOL     OW31816   4.708   6.742   6.245
10306SOL    HW131817   4.632   6.802   6.223
10306SOL    HW231818   4.791   6.775   6.200
10307SOL     OW31819   2.709   2.136   5.450
10307SOL    HW131820   2.620   2.148   5.405
10307SOL    HW231821   2.744   2.044   5.430
10308SOL     OW31822   1.880   4.087   3.296
10308SOL    HW131823   1.907   4.180   3.272
10308SOL    HW231824   1.950   4.023   3.261
10309SOL     OW31825   0.117   1.301   5.684
10309SOL    HW131826   0.090   1.332   5.775
10309SOL    HW231827   0.073   1.213   5.664
10310SOL     OW31828   3.149   3.331   0.872
10310SOL    HW131829   3.171   3.369   0.782
10310SOL    HW231830   3.053   3.347   0.893
10311SOL     OW31831   0.029   6.329   0.366
10311SOL    HW131832   0.119   6.308   0.327
10311SOL    HW231833   6.997   6.245   0.370
10312SOL     OW31834   3.614   6.043   2.580
10312SOL    HW131835   3.682   6.028   2.508
10312SOL    HW231836   3.582   6.137   2.578
10313SOL     OW31837   4.635   6.795   1.730
10313SOL    HW131838   4.625   6.701   1.696
10313SOL    HW231839   4.722   6.802   1.780
10314SOL     OW31840   6.435   0.942   2.344
10314SOL    HW131841   6.400   0.872   2.282
10314SOL    HW231842   6.359   0.997   2.378
10315SOL     OW31843   5.134   5.901   5.446
10315SOL    HW131844   5.191   5.837   5.396
10315SOL    HW231845   5.123   5.985   5.393
10316SOL     OW31846   6.210   1.615   4.199
10316SOL    HW131847   6.211   1.622   4.099
10316SOL    HW231848   6.152   1.538   4.227
10317SOL     OW31849   4.916   6.055   4.469
10317SOL    HW131850   4.906   5.971   4.416
10317SOL    HW231851   4.874   6.130   4.419
10318SOL     OW31852   5.316   6.131   6.741
10318SOL    HW131853   5.229   6.131   6.790
10318SOL    HW231854   5.300   6.148   6.644
10319SOL     OW31855   1.159   2.720   5.600
10319SOL    HW131856   1.185   2.791   5.666
10319SOL    HW231857   1.139   2.635   5.648
10320SOL     OW31858   0.321   1.104   2.916
10320SOL    HW131859   0.239   1.111   2.859
10320SOL    HW231860   0.401   1.132   2.864
10321SOL     OW31861   4.193   1.980   1.734
10321SOL    HW131862   4.200   2.068   1.782
10321SOL    HW231863   4.141   1.915   1.791
10322SOL     OW31864   6.420   5.463   5.367
10322SOL    HW131865   6.476   5.545   5.369
10322SOL    HW231866   6.354   5.469   5.291
10323SOL     OW31867   6.013   2.909   5.692
10323SOL    HW131868   6.019   2.809   5.689
10323SOL    HW231869   5.917   2.936   5.689
10324SOL     OW31870   3.582   3.326   2.467
10324SOL    HW131871   3.572   3.422   2.494
10324SOL    HW231872   3.654   3.317   2.398
10325SOL     OW31873   0.073   4.025   2.023
10325SOL    HW131874   0.040   3.940   2.065
10325SOL    HW231875   0.065   4.100   2.087
10326SOL     OW31876   3.482   4.329   0.407
10326SOL    HW131877   3.383   4.319   0.414
10326SOL    HW231878   3.504   4.405   0.345
10327SOL     OW31879   2.575   1.652   1.483
10327SOL    HW131880   2.586   1.714   1.561
10327SOL    HW231881   2.585   1.558   1.514
10328SOL     OW31882   5.720   2.646   0.718
10328SOL    HW131883   5.668   2.679   0.638
10328SOL    HW231884   5.659   2.595   0.778
10329SOL     OW31885   3.442   7.013   3.904
10329SOL    HW131886   3.472   6.948   3.975
10329SOL    HW231887   3.344   0.009   3.915
10330SOL     OW31888   4.745   0.389   2.399
10330SOL    HW131889   4.781   0.363   2.489
10330SOL    HW231890   4.649   0.361   2.392
10331SOL     OW31891   0.051   1.100   5.419
10331SOL    HW131892   0.050   1.002   5.439
10331SOL    HW231893   0.045   1.115   5.321
10332SOL     OW31894   6.653   0.059   0.547
10332SOL    HW131895   6.619   7.022   0.474
10332SOL    HW231896   6.636   0.016   0.636
10333SOL     OW31897   6.440   4.447   4.511
10333SOL    HW131898   6.503   4.433   4.587
10333SOL    HW231899   6.398   4.538   4.519
10334SOL     OW31900   3.905   6.680   3.932
10334SOL    HW131901   3.991   6.703   3.887
10334SOL    HW231902   3.836   6.749   3.909
10335SOL     OW31903   2.949   4.467   6.788
10335SOL    HW131904   2.998   4.532   6.730
10335SOL    HW231905   2.945   4.378   6.742
10336SOL     OW31906   6.740   6.209   2.624
10336SOL    HW131907   6.797   6.155   2.562
10336SOL    HW231908   6.755   6.306   2.607
10337SOL     OW31909   6.749   6.488   5.852
10337SOL    HW131910   6.703   6.576   5.842
10337SOL    HW231911   6.785   6.479   5.945
10338SOL     OW31912   2.238   5.988   2.486
10338SOL    HW131913   2.146   6.008   2.522
10338SOL    HW231914   2.288   6.073   2.474
10339SOL     OW31915   3.477   4.614   6.983
10339SOL    HW131916   3.422   4.613   0.044
10339SOL    HW231917   3.436   4.677   6.918
10340SOL     OW31918   1.785   4.660   1.218
10340SOL    HW131919   1.866   4.663   1.159
10340SOL    HW231920   1.704   4.682   1.164
10341SOL     OW31921   1.924   3.294   1.650
10341SOL    HW131922   1.930   3.339   1.561
10341SOL    HW231923   2.015   3.277   1.686
10342SOL     OW31924   1.079   0.009   5.452
10342SOL    HW131925   1.125   0.077   5.395
10342SOL    HW231926   1.008   6.986   5.398
10343SOL     OW31927   3.526   5.925   6.846
10343SOL    HW131928   3.524   5.929   6.746
10343SOL    HW231929   3.558   5.835   6.875
10344SOL     OW31930   4.598   4.148   1.655
10344SOL    HW131931   4.539   4.178   1.730
10344SOL    HW231932   4.692   4.180   1.671
10345SOL     OW31933   1.941   1.430   6.809
10345SOL    HW131934   1.884   1.380   6.743
10345SOL    HW231935   1.912   1.525   6.813
10346SOL     OW31936   6.493   6.765   1.554
10346SOL    HW131937   6.449   6.676   1.540
10346SOL    HW231938   6.426   6.838   1.537
10347SOL     OW31939   4.752   2.247   2.528
10347SOL    HW131940   4.719   2.244   2.622
10347SOL    HW231941   4.719   2.167   2.478
10348SOL     OW31942   6.676   1.300   0.320
10348SOL    HW131943   6.663   1.272   0.225
10348SOL    HW231944   6.638   1.391   0.334
10349SOL     OW31945   6.894   0.828   1.178
10349SOL    HW131946   6.847   0.747   1.142
10349SOL    HW231947   6.961   0.801   1.247
10350SOL     OW31948   2.058   6.926   5.364
10350SOL    HW131949   2.136   6.889   5.314
10350SOL    HW231950   1.976   6.874   5.342
10351SOL     OW31951   4.593   5.345   6.476
10351SOL    HW131952   4.674   5.365   6.421
10351SOL    HW231953   4.599   5.251   6.511
10352SOL     OW31954   4.272   2.552   6.473
10352SOL    HW131955   4.256   2.503   6.558
10352SOL    HW231956   4.212   2.515   6.402
10353SOL     OW31957   0.390   2.766   5.980
10353SOL    HW131958   0.386   2.673   5.943
10353SOL    HW231959   0.485   2.790   6.001
10354SOL     OW31960   6.149   2.536   1.850
10354SOL    HW131961   6.064   2.575   1.884
10354SOL    HW231962   6.178   2.583   1.767
10355SOL     OW31963   1.774   0.110   1.808
10355SOL    HW131964   1.871   0.136   1.815
10355SOL    HW231965   1.737   0.145   1.722
10356SOL     OW31966   0.092   4.584   6.010
10356SOL    HW131967   0.026   4.658   6.003
10356SOL    HW231968   0.091   4.530   5.925
10357SOL     OW31969   3.016   3.259   6.119
10357SOL    HW131970   3.034   3.282   6.215
10357SOL    HW231971   2.967   3.335   6.076
10358SOL     OW31972   6.431   2.973   3.195
10358SOL    HW131973   6.506   2.914   3.225
10358SOL    HW231974   6.347   2.918   3.185
10359SOL     OW31975   6.705   1.603   1.565
10359SOL    HW131976   6.792   1.651   1.555
10359SOL    HW231977   6.641   1.631   1.493
10360SOL     OW31978   4.572   5.718   2.629
10360SOL    HW131979   4.512   5.693   2.553
10360SOL    HW231980   4.528   5.696   2.716
10361SOL     OW31981   2.881   0.250   2.879
10361SOL    HW131982   2.875   0.295   2.790
10361SOL    HW231983   2.872   0.319   2.952
10362SOL     OW31984   0.819   4.653   4.142
10362SOL    HW131985   0.735   4.706   4.151
10362SOL    HW231986   0.849   4.623   4.233
10363SOL     OW31987   4.481   2.151   0.638
10363SOL    HW131988   4.527   2.063   0.637
10363SOL    HW231989   4.382   2.138   0.635
10364SOL     OW31990   4.043   3.664   2.466
10364SOL    HW131991   3.955   3.627   2.439
10364SOL    HW231992   4.096   3.593   2.514
10365SOL     OW31993   5.105   4.465   5.449
10365SOL    HW131994   5.037   4.515   5.396
10365SOL    HW231995   5.127   4.379   5.402
10366SOL     OW31996   4.777   0.086   3.842
10366SOL    HW131997   4.737   0.145   3.912
10366SOL    HW231998   4.877   0.098   3.841
10367SOL     OW31999   6.925   1.346   1.883
10367SOL    HW132000   6.893   1.334   1.789
10367SOL    HW232001   6.873   1.285   1.943
10368SOL     OW32002   1.889   0.677   2.143
10368SOL    HW132003   1.803   0.652   2.097
10368SOL    HW232004   1.868   0.720   2.230
10369SOL     OW32005   4.129   1.033   5.137
10369SOL    HW132006   4.226   1.055   5.138
10369SOL    HW232007   4.088   1.064   5.223
10370SOL     OW32008   5.634   2.030   5.322
10370SOL    HW132009   5.616   2.125   5.348
10370SOL    HW232010   5.605   2.015   5.227
10371SOL     OW32011   1.925   6.001   3.998
10371SOL    HW132012   1.980   6.069   3.950
10371SOL    HW232013   1.842   6.045   4.033
10372SOL     OW32014   1.652   1.583   0.255
10372SOL    HW132015   1.672   1.489   0.226
10372SOL    HW232016   1.653   1.588   0.354
10373SOL     OW32017   2.018   6.718   4.279
10373SOL    HW132018   2.106   6.695   4.321
10373SOL    HW232019   1.988   6.643   4.220
10374SOL     OW32020   4.233   0.932   2.613
10374SOL    HW132021   4.307   0.997   2.635
10374SOL    HW232022   4.272   0.850   2.572
10375SOL     OW32023   3.044   1.656   6.530
10375SOL    HW132024   3.084   1.654   6.622
10375SOL    HW232025   3.080   1.735   6.481
10376SOL     OW32026   1.409   6.189   4.115
10376SOL    HW132027   1.343   6.237   4.172
10376SOL    HW232028   1.361   6.142   4.041
10377SOL     OW32029   6.764   1.273   3.782
10377SOL    HW132030   6.665   1.291   3.783
10377SOL    HW232031   6.779   1.175   3.795
10378SOL     OW32032   5.916   0.315   6.094
10378SOL    HW132033   5.996   0.269   6.056
10378SOL    HW232034   5.872   0.372   6.024
10379SOL     OW32035   3.015   6.688   4.747
10379SOL    HW132036   3.061   6.602   4.770
10379SOL    HW232037   3.022   6.705   4.649
10380SOL     OW32038   0.769   2.066   4.327
10380SOL    HW132039   0.773   2.031   4.234
10380SOL    HW232040   0.711   2.148   4.330
10381SOL     OW32041   4.321   4.441   0.513
10381SOL    HW132042   4.383   4.366   0.491
10381SOL    HW232043   4.227   4.413   0.493
10382SOL     OW32044   2.140   4.516   0.488
10382SOL    HW132045   2.093   4.440   0.443
10382SOL    HW232046   2.197   4.563   0.421
10383SOL     OW32047   6.589   3.777   0.603
10383SOL    HW132048   6.550   3.760   0.513
10383SOL    HW232049   6.525   3.745   0.673
10384SOL     OW32050   0.493   6.836   0.675
10384SOL    HW132051   0.556   6.913   0.667
10384SOL    HW232052   0.529   6.758   0.625
10385SOL     OW32053   3.078   6.345   5.554
10385SOL    HW132054   3.083   6.443   5.536
10385SOL    HW232055   3.144   6.296   5.497
10386SOL     OW32056   6.558   2.203   5.973
10386SOL    HW132057   6.530   2.251   6.056
10386SOL    HW232058   6.625   2.259   5.924
10387SOL     OW32059   4.556   1.824   2.995
10387SOL    HW132060   4.589   1.912   3.029
10387SOL    HW232061   4.459   1.831   2.973
10388SOL     OW32062   2.266   5.703   2.536
10388SOL    HW132063   2.223   5.727   2.623
10388SOL    HW232064   2.272   5.785   2.478
10389SOL     OW32065   0.100   6.682   1.610
10389SOL    HW132066   0.109   6.779   1.586
10389SOL    HW232067   0.004   6.655   1.602
10390SOL     OW32068   2.159   2.599   1.625
10390SOL    HW132069   2.234   2.533   1.628
10390SOL    HW232070   2.183   2.673   1.562
10391SOL     OW32071   1.151   5.909   4.280
10391SOL    HW132072   1.235   5.865   4.313
10391SOL    HW232073   1.158   5.923   4.181
10392SOL     OW32074   6.861   4.699   0.141
10392SOL    HW132075   6.789   4.768   0.139
10392SOL    HW232076   6.939   4.732   0.087
10393SOL     OW32077   2.163   2.364   2.474
10393SOL    HW132078   2.203   2.289   2.526
10393SOL    HW232079   2.147   2.443   2.534
10394SOL     OW32080   2.234   6.217   4.649
10394SOL    HW132081   2.287   6.297   4.617
10394SOL    HW232082   2.276   6.181   4.732
10395SOL     OW32083   6.658   0.631   3.468
10395SOL    HW132084   6.705   0.564   3.526
10395SOL    HW232085   6.633   0.590   3.381
10396SOL     OW32086   2.434   0.401   4.149
10396SOL    HW132087   2.474   0.491   4.159
10396SOL    HW232088   2.344   0.399   4.193
10397SOL     OW32089   3.209   2.014   3.635
10397SOL    HW132090   3.199   2.099   3.686
10397SOL    HW232091   3.137   1.950   3.661
10398SOL     OW32092   6.012   2.477   0.381
10398SOL    HW132093   6.016   2.380   0.357
10398SOL    HW232094   6.010   2.532   0.298
10399SOL     OW32095   4.189   1.902   4.583
10399SOL    HW132096   4.209   1.815   4.629
10399SOL    HW232097   4.095   1.901   4.549
10400SOL     OW32098   3.594   5.803   0.986
10400SOL    HW132099   3.667   5.861   0.949
10400SOL    HW232100   3.633   5.741   1.054
10401SOL     OW32101   0.396   0.190   2.713
10401SOL    HW132102   0.318   0.248   2.688
10401SOL    HW232103   0.363   0.110   2.762
10402SOL     OW32104   0.100   2.780   5.807
10402SOL    HW132105   0.115   2.742   5.716
10402SOL    HW232106   0.185   2.819   5.842
10403SOL     OW32107   5.397   1.471   2.712
10403SOL    HW132108   5.403   1.381   2.755
10403SOL    HW232109   5.421   1.463   2.615
10404SOL     OW32110   0.213   6.571   3.803
10404SOL    HW132111   0.142   6.561   3.734
10404SOL    HW232112   0.186   6.640   3.870
10405SOL     OW32113   1.332   5.742   4.710
10405SOL    HW132114   1.432   5.740   4.702
10405SOL    HW232115   1.305   5.699   4.796
10406SOL     OW32116   2.175   3.593   5.166
10406SOL    HW132117   2.098   3.556   5.218
10406SOL    HW232118   2.257   3.593   5.223
10407SOL     OW32119   1.689   0.619   6.828
10407SOL    HW132120   1.785   0.642   6.841
10407SOL    HW232121   1.666   0.627   6.731
10408SOL     OW32122   3.687   6.252   1.908
10408SOL    HW132123   3.781   6.285   1.895
10408SOL    HW232124   3.624   6.329   1.902
10409SOL     OW32125   0.378   3.778   0.790
10409SOL    HW132126   0.357   3.793   0.887
10409SOL    HW232127   0.300   3.803   0.734
10410SOL     OW32128   5.206   1.640   1.403
10410SOL    HW132129   5.256   1.554   1.403
10410SOL    HW232130   5.257   1.709   1.351
10411SOL     OW32131   3.938   5.401   4.551
10411SOL    HW132132   3.858   5.462   4.554
10411SOL    HW232133   4.016   5.446   4.595
10412SOL     OW32134   0.403   1.412   0.821
10412SOL    HW132135   0.496   1.418   0.785
10412SOL    HW232136   0.343   1.472   0.769
10413SOL     OW32137   0.296   1.968   0.861
10413SOL    HW132138   0.235   1.951   0.784
10413SOL    HW232139   0.249   1.944   0.946
10414SOL     OW32140   4.615   6.662   5.820
10414SOL    HW132141   4.713   6.663   5.805
10414SOL    HW232142   4.586   6.569   5.845
10415SOL     OW32143   2.439   4.425   3.757
10415SOL    HW132144   2.401   4.349   3.705
10415SOL    HW232145   2.395   4.430   3.846
10416SOL     OW32146   6.073   0.899   5.448
10416SOL    HW132147   6.041   0.806   5.466
10416SOL    HW232148   6.104   0.941   5.533
10417SOL     OW32149   4.791   4.064   4.226
10417SOL    HW132150   4.772   4.156   4.193
10417SOL    HW232151   4.706   4.020   4.254
10418SOL     OW32152   6.069   4.024   5.473
10418SOL    HW132153   6.131   4.071   5.410
10418SOL    HW232154   6.095   4.046   5.567
10419SOL     OW32155   3.101   0.487   5.493
10419SOL    HW132156   3.141   0.569   5.453
10419SOL    HW232157   3.173   0.419   5.507
10420SOL     OW32158   6.750   3.354   3.608
10420SOL    HW132159   6.687   3.396   3.673
10420SOL    HW232160   6.710   3.270   3.572
10421SOL     OW32161   1.591   3.283   4.882
10421SOL    HW132162   1.564   3.197   4.924
10421SOL    HW232163   1.655   3.265   4.808
10422SOL     OW32164   6.377   3.492   5.578
10422SOL    HW132165   6.301   3.462   5.636
10422SOL    HW232166   6.437   3.553   5.630
10423SOL     OW32167   4.301   4.773   5.127
10423SOL    HW132168   4.223   4.808   5.075
10423SOL    HW232169   4.335   4.690   5.083
10424SOL     OW32170   3.929   2.338   0.282
10424SOL    HW132171   3.938   2.425   0.330
10424SOL    HW232172   3.930   2.354   0.184
10425SOL     OW32173   0.774   5.936   1.522
10425SOL    HW132174   0.726   5.927   1.435
10425SOL    HW232175   0.857   5.990   1.509
10426SOL     OW32176   5.474   3.377   5.380
10426SOL    HW132177   5.528   3.342   5.303
10426SOL    HW232178   5.506   3.469   5.405
10427SOL     OW32179   5.153   6.944   6.748
10427SOL    HW132180   5.229   6.974   6.806
10427SOL    HW232181   5.182   6.864   6.695
10428SOL     OW32182   2.233   1.752   4.540
10428SOL    HW132183   2.258   1.829   4.598
10428SOL    HW232184   2.310   1.689   4.533
10429SOL     OW32185   1.118   3.807   3.316
10429SOL    HW132186   1.051   3.865   3.270
10429SOL    HW232187   1.203   3.804   3.264
10430SOL     OW32188   4.096   6.144   4.594
10430SOL    HW132189   4.073   6.106   4.505
10430SOL    HW232190   4.042   6.099   4.665
10431SOL     OW32191   2.972   0.966   4.401
10431SOL    HW132192   3.023   1.019   4.333
10431SOL    HW232193   3.004   0.872   4.401
10432SOL     OW32194   0.204   1.724   5.407
10432SOL    HW132195   0.114   1.763   5.388
10432SOL    HW232196   0.265   1.743   5.330
10433SOL     OW32197   0.145   6.377   2.218
10433SOL    HW132198   0.229   6.430   2.202
10433SOL    HW232199   0.072   6.414   2.160
10434SOL     OW32200   4.588   6.485   4.885
10434SOL    HW132201   4.525   6.423   4.838
10434SOL    HW232202   4.616   6.557   4.823
10435SOL     OW32203   1.794   2.278   6.028
10435SOL    HW132204   1.812   2.291   5.931
10435SOL    HW232205   1.877   2.246   6.074
10436SOL     OW32206   6.437   4.005   3.942
10436SOL    HW132207   6.389   3.996   4.029
10436SOL    HW232208   6.372   3.997   3.866
10437SOL     OW32209   5.534   4.978   5.017
10437SOL    HW132210   5.607   4.925   5.059
10437SOL    HW232211   5.504   5.050   5.080
10438SOL     OW32212   6.964   6.072   5.897
10438SOL    HW132213   6.947   5.999   5.963
10438SOL    HW232214   0.010   6.043   5.831
10439SOL     OW32215   5.697   1.564   5.245
10439SOL    HW132216   5.709   1.515   5.332
10439SOL    HW232217   5.782   1.560   5.193
10440SOL     OW32218   6.949   6.850   6.834
10440SOL    HW132219   7.000   6.770   6.866
10440SOL    HW232220   6.865   6.860   6.888
10441SOL     OW32221   2.890   1.311   1.034
10441SOL    HW132222   2.854   1.284   1.124
10441SOL    HW232223   2.983   1.275   1.023
10442SOL     OW32224   4.346   0.329   4.539
10442SOL    HW132225   4.299   0.242   4.524
10442SOL    HW232226   4.398   0.353   4.457
10443SOL     OW32227   6.624   2.719   2.934
10443SOL    HW132228   6.552   2.720   3.004
10443SOL    HW232229   6.614   2.639   2.876
10444SOL     OW32230   3.729   4.868   2.398
10444SOL    HW132231   3.701   4.880   2.493
10444SOL    HW232232   3.648   4.866   2.340
10445SOL     OW32233   0.351   3.962   2.845
10445SOL    HW132234   0.445   3.930   2.845
10445SOL    HW232235   0.323   3.984   2.938
10446SOL     OW32236   1.942   3.814   6.240
10446SOL    HW132237   1.909   3.904   6.213
10446SOL    HW232238   1.873   3.745   6.217
10447SOL     OW32239   6.790   0.318   2.260
10447SOL    HW132240   6.785   0.402   2.207
10447SOL    HW232241   6.747   0.331   2.349
10448SOL     OW32242   3.285   0.509   2.551
10448SOL    HW132243   3.375   0.495   2.509
10448SOL    HW232244   3.285   0.469   2.643
10449SOL     OW32245   2.689   5.729   6.541
10449SOL    HW132246   2.689   5.661   6.468
10449SOL    HW232247   2.599   5.771   6.548
10450SOL     OW32248   6.729   0.985   6.425
10450SOL    HW132249   6.748   1.068   6.372
10450SOL    HW232250   6.732   1.006   6.522
10451SOL     OW32251   3.326   0.051   2.693
10451SOL    HW132252   3.327   0.104   2.778
10451SOL    HW232253   3.412   0.001   2.684
10452SOL     OW32254   6.703   3.411   2.641
10452SOL    HW132255   6.670   3.455   2.558
10452SOL    HW232256   6.780   3.350   2.619
10453SOL     OW32257   4.641   6.198   2.418
10453SOL    HW132258   4.711   6.225   2.352
10453SOL    HW232259   4.646   6.099   2.433
10454SOL     OW32260   5.426   1.157   0.997
10454SOL    HW132261   5.485   1.153   1.078
10454SOL    HW232262   5.378   1.245   0.996
10455SOL     OW32263   0.269   5.722   3.961
10455SOL    HW132264   0.292   5.802   4.017
10455SOL    HW232265   0.207   5.749   3.888
10456SOL     OW32266   0.453   5.649   0.585
10456SOL    HW132267   0.518   5.575   0.568
10456SOL    HW232268   0.496   5.737   0.566
10457SOL     OW32269   4.076   2.717   0.271
10457SOL    HW132270   4.109   2.811   0.280
10457SOL    HW232271   4.149   2.653   0.294
10458SOL     OW32272   6.225   6.520   6.976
10458SOL    HW132273   6.201   6.467   6.894
10458SOL    HW232274   6.317   6.496   7.004
10459SOL     OW32275   4.962   5.044   1.116
10459SOL    HW132276   4.989   5.132   1.155
10459SOL    HW232277   4.867   5.024   1.140
10460SOL     OW32278   0.538   3.890   2.154
10460SOL    HW132279   0.620   3.834   2.153
10460SOL    HW232280   0.535   3.944   2.239
10461SOL     OW32281   6.224   4.800   5.600
10461SOL    HW132282   6.184   4.712   5.576
10461SOL    HW232283   6.324   4.796   5.588
10462SOL     OW32284   6.033   2.339   2.773
10462SOL    HW132285   6.016   2.424   2.723
10462SOL    HW232286   5.953   2.317   2.830
10463SOL     OW32287   4.471   2.089   5.912
10463SOL    HW132288   4.488   2.030   5.991
10463SOL    HW232289   4.372   2.101   5.901
10464SOL     OW32290   5.824   6.495   2.088
10464SOL    HW132291   5.884   6.575   2.081
10464SOL    HW232292   5.792   6.470   1.996
10465SOL     OW32293   4.723   5.632   1.601
10465SOL    HW132294   4.727   5.731   1.616
10465SOL    HW232295   4.715   5.613   1.503
10466SOL     OW32296   4.928   4.714   5.606
10466SOL    HW132297   4.935   4.728   5.705
10466SOL    HW232298   4.880   4.791   5.564
10467SOL     OW32299   1.704   2.379   0.679
10467SOL    HW132300   1.675   2.444   0.748
10467SOL    HW232301   1.798   2.400   0.650
10468SOL     OW32302   4.206   5.146   4.168
10468SOL    HW132303   4.140   5.107   4.232
10468SOL    HW232304   4.158   5.189   4.092
10469SOL     OW32305   4.280   4.126   5.611
10469SOL    HW132306   4.378   4.140   5.629
10469SOL    HW232307   4.264   4.031   5.584
10470SOL     OW32308   2.591   1.483   3.309
10470SOL    HW132309   2.622   1.391   3.286
10470SOL    HW232310   2.664   1.533   3.355
10471SOL     OW32311   2.587   0.125   0.581
10471SOL    HW132312   2.616   0.164   0.669
10471SOL    HW232313   2.518   0.054   0.597
10472SOL     OW32314   2.921   5.825   0.306
10472SOL    HW132315   2.967   5.744   0.268
10472SOL    HW232316   2.950   5.837   0.401
10473SOL     OW32317   5.840   6.884   5.749
10473SOL    HW132318   5.896   6.812   5.789
10473SOL    HW232319   5.863   6.971   5.792
10474SOL     OW32320   4.464   1.175   4.170
10474SOL    HW132321   4.399   1.172   4.095
10474SOL    HW232322   4.557   1.175   4.134
10475SOL     OW32323   3.322   6.730   2.115
10475SOL    HW132324   3.421   6.740   2.101
10475SOL    HW232325   3.273   6.790   2.052
10476SOL     OW32326   5.124   6.489   6.113
10476SOL    HW132327   5.154   6.584   6.119
10476SOL    HW232328   5.065   6.467   6.191
10477SOL     OW32329   6.862   1.180   4.988
10477SOL    HW132330   6.807   1.186   5.071
10477SOL    HW232331   6.868   1.084   4.960
10478SOL     OW32332   6.725   6.630   6.976
10478SOL    HW132333   6.699   6.723   7.000
10478SOL    HW232334   6.792   6.596   0.019
10479SOL     OW32335   6.732   1.496   1.998
10479SOL    HW132336   6.753   1.431   2.070
10479SOL    HW232337   6.789   1.477   1.918
10480SOL     OW32338   1.069   1.260   2.165
10480SOL    HW132339   1.151   1.203   2.167
10480SOL    HW232340   1.055   1.302   2.255
10481SOL     OW32341   2.189   6.589   3.357
10481SOL    HW132342   2.145   6.553   3.439
10481SOL    HW232343   2.120   6.627   3.296
10482SOL     OW32344   6.459   5.274   4.489
10482SOL    HW132345   6.520   5.321   4.426
10482SOL    HW232346   6.371   5.322   4.491
10483SOL     OW32347   5.018   5.441   0.595
10483SOL    HW132348   4.921   5.418   0.584
10483SOL    HW232349   5.073   5.381   0.538
10484SOL     OW32350   4.809   1.730   2.022
10484SOL    HW132351   4.857   1.787   1.955
10484SOL    HW232352   4.856   1.642   2.030
10485SOL     OW32353   3.094   4.497   0.548
10485SOL    HW132354   3.069   4.424   0.612
10485SOL    HW232355   3.014   4.554   0.530
10486SOL     OW32356   0.453   0.818   0.697
10486SOL    HW132357   0.451   0.808   0.598
10486SOL    HW232358   0.382   0.760   0.738
10487SOL     OW32359   4.531   0.175   1.447
10487SOL    HW132360   4.535   0.092   1.503
10487SOL    HW232361   4.523   0.255   1.507
10488SOL     OW32362   3.037   1.609   5.587
10488SOL    HW132363   3.100   1.654   5.650
10488SOL    HW232364   3.072   1.616   5.494
10489SOL     OW32365   0.501   6.720   5.310
10489SOL    HW132366   0.409   6.731   5.347
10489SOL    HW232367   0.532   6.807   5.271
10490SOL     OW32368   6.044   1.430   1.342
10490SOL    HW132369   6.055   1.344   1.291
10490SOL    HW232370   6.028   1.505   1.278
10491SOL     OW32371   1.579   3.329   6.966
10491SOL    HW132372   1.563   3.418   7.009
10491SOL    HW232373   1.544   3.331   6.872
10492SOL     OW32374   5.877   4.105   5.317
10492SOL    HW132375   5.819   4.023   5.322
10492SOL    HW232376   5.956   4.093   5.378
10493SOL     OW32377   3.536   0.720   1.591
10493SOL    HW132378   3.511   0.775   1.511
10493SOL    HW232379   3.629   0.685   1.580
10494SOL     OW32380   5.122   3.924   5.927
10494SOL    HW132381   5.066   3.993   5.881
10494SOL    HW232382   5.219   3.945   5.911
10495SOL     OW32383   2.662   6.787   0.034
10495SOL    HW132384   2.657   6.886   0.018
10495SOL    HW232385   2.590   6.741   7.004
10496SOL     OW32386   0.367   4.317   6.499
10496SOL    HW132387   0.405   4.252   6.565
10496SOL    HW232388   0.274   4.340   6.525
10497SOL     OW32389   2.342   0.002   2.157
10497SOL    HW132390   2.431   6.983   2.173
10497SOL    HW232391   2.321   0.000   2.059
10498SOL     OW32392   3.289   5.686   1.443
10498SOL    HW132393   3.207   5.646   1.483
10498SOL    HW232394   3.367   5.625   1.457
10499SOL     OW32395   3.568   6.945   2.659
10499SOL    HW132396   3.628   0.002   2.670
10499SOL    HW232397   3.592   6.875   2.726
10500SOL     OW32398   6.928   1.198   6.281
10500SOL    HW132399   6.931   1.249   6.195
10500SOL    HW232400   7.018   1.159   6.300
10501SOL     OW32401   2.304   5.689   2.919
10501SOL    HW132402   2.363   5.770   2.920
10501SOL    HW232403   2.213   5.713   2.885
10502SOL     OW32404   2.638   0.267   0.904
10502SOL    HW132405   2.686   0.300   0.822
10502SOL    HW232406   2.705   0.235   0.971
10503SOL     OW32407   3.881   2.654   0.444
10503SOL    HW132408   3.950   2.686   0.379
10503SOL    HW232409   3.791   2.690   0.418
10504SOL     OW32410   1.893   1.688   6.770
10504SOL    HW132411   1.807   1.735   6.751
10504SOL    HW232412   1.967   1.735   6.722
10505SOL     OW32413   5.125   6.348   0.602
10505SOL    HW132414   5.108   6.444   0.624
10505SOL    HW232415   5.049   6.292   0.636
10506SOL     OW32416   0.034   5.684   0.054
10506SOL    HW132417   7.013   5.696   6.987
10506SOL    HW232418   0.033   5.587   0.079
10507SOL     OW32419   2.422   0.174   0.130
10507SOL    HW132420   2.371   0.226   0.061
10507SOL    HW232421   2.499   0.127   0.087
10508SOL     OW32422   6.306   6.740   4.599
10508SOL    HW132423   6.355   6.689   4.670
10508SOL    HW232424   6.208   6.720   4.605
10509SOL     OW32425   0.683   6.562   4.734
10509SOL    HW132426   0.713   6.638   4.675
10509SOL    HW232427   0.693   6.476   4.684
10510SOL     OW32428   4.761   5.797   6.506
10510SOL    HW132429   4.823   5.733   6.461
10510SOL    HW232430   4.667   5.766   6.493
10511SOL     OW32431   4.558   1.747   1.700
10511SOL    HW132432   4.607   1.664   1.672
10511SOL    HW232433   4.544   1.746   1.799
10512SOL     OW32434   3.898   6.991   5.417
10512SOL    HW132435   3.954   6.982   5.335
10512SOL    HW232436   3.949   0.017   5.488
10513SOL     OW32437   6.548   2.986   4.309
10513SOL    HW132438   6.470   3.028   4.263
10513SOL    HW232439   6.523   2.894   4.340
10514SOL     OW32440   6.896   3.875   0.103
10514SOL    HW132441   6.835   3.835   0.171
10514SOL    HW232442   6.889   3.975   0.107
10515SOL     OW32443   0.506   3.334   2.927
10515SOL    HW132444   0.510   3.426   2.888
10515SOL    HW232445   0.596   3.291   2.923
10516SOL     OW32446   3.930   0.889   0.425
10516SOL    HW132447   4.002   0.925   0.484
10516SOL    HW232448   3.867   0.834   0.480
10517SOL     OW32449   0.573   2.906   2.297
10517SOL    HW132450   0.500   2.966   2.266
10517SOL    HW232451   0.661   2.954   2.287
10518SOL     OW32452   1.306   5.240   6.759
10518SOL    HW132453   1.226   5.186   6.784
10518SOL    HW232454   1.284   5.296   6.679
10519SOL     OW32455   2.223   3.191   6.761
10519SOL    HW132456   2.154   3.138   6.812
10519SOL    HW232457   2.233   3.281   6.803
10520SOL     OW32458   0.983   2.723   6.688
10520SOL    HW132459   0.993   2.746   6.785
10520SOL    HW232460   1.057   2.766   6.636
10521SOL     OW32461   5.525   6.039   2.030
10521SOL    HW132462   5.496   5.998   2.117
10521SOL    HW232463   5.624   6.041   2.025
10522SOL     OW32464   6.345   0.250   6.226
10522SOL    HW132465   6.427   0.283   6.177
10522SOL    HW232466   6.369   0.232   6.321
10523SOL     OW32467   0.488   4.642   4.011
10523SOL    HW132468   0.563   4.604   3.958
10523SOL    HW232469   0.479   4.592   4.097
10524SOL     OW32470   1.845   0.527   4.712
10524SOL    HW132471   1.884   0.557   4.798
10524SOL    HW232472   1.865   0.595   4.641
10525SOL     OW32473   3.373   6.653   6.056
10525SOL    HW132474   3.292   6.661   6.114
10525SOL    HW232475   3.414   6.743   6.043
10526SOL     OW32476   0.997   6.935   3.561
10526SOL    HW132477   1.025   6.994   3.637
10526SOL    HW232478   0.897   6.940   3.550
10527SOL     OW32479   6.361   2.019   4.666
10527SOL    HW132480   6.324   1.976   4.748
10527SOL    HW232481   6.449   1.977   4.643
10528SOL     OW32482   2.006   3.403   6.046
10528SOL    HW132483   2.077   3.426   6.113
10528SOL    HW232484   2.019   3.308   6.017
10529SOL     OW32485   2.280   5.747   3.968
10529SOL    HW132486   2.313   5.804   3.893
10529SOL    HW232487   2.281   5.801   4.053
10530SOL     OW32488   2.111   0.447   6.692
10530SOL    HW132489   2.133   0.351   6.671
10530SOL    HW232490   2.194   0.502   6.686
10531SOL     OW32491   1.244   3.018   3.826
10531SOL    HW132492   1.216   3.114   3.828
10531SOL    HW232493   1.163   2.960   3.819
10532SOL     OW32494   1.413   4.605   6.271
10532SOL    HW132495   1.372   4.696   6.273
10532SOL    HW232496   1.396   4.558   6.357
10533SOL     OW32497   2.638   1.195   4.882
10533SOL    HW132498   2.694   1.115   4.905
10533SOL    HW232499   2.688   1.279   4.906
10534SOL     OW32500   5.951   5.741   1.592
10534SOL    HW132501   5.905   5.814   1.644
10534SOL    HW232502   6.050   5.750   1.603
10535SOL     OW32503   0.889   1.926   1.450
10535SOL    HW132504   0.934   2.014   1.465
10535SOL    HW232505   0.806   1.920   1.506
10536SOL     OW32506   3.870   0.675   3.112
10536SOL    HW132507   3.903   0.695   3.204
10536SOL    HW232508   3.818   0.754   3.078
10537SOL     OW32509   3.915   5.214   4.256
10537SOL    HW132510   3.825   5.230   4.299
10537SOL    HW232511   3.926   5.117   4.237
10538SOL     OW32512   5.413   2.317   0.355
10538SOL    HW132513   5.351   2.253   0.310
10538SOL    HW232514   5.362   2.375   0.418
10539SOL     OW32515   0.168   3.809   0.048
10539SOL    HW132516   0.215   3.830   0.133
10539SOL    HW232517   0.075   3.845   0.050
10540SOL     OW32518   1.540   3.065   5.042
10540SOL    HW132519   1.451   3.043   5.082
10540SOL    HW232520   1.592   3.120   5.107
10541SOL     OW32521   3.876   3.919   2.326
10541SOL    HW132522   3.947   3.857   2.360
10541SOL    HW232523   3.790   3.900   2.373
10542SOL     OW32524   6.777   0.600   5.549
10542SOL    HW132525   6.747   0.601   5.645
10542SOL    HW232526   6.783   0.693   5.515
10543SOL     OW32527   0.322   1.097   5.439
10543SOL    HW132528   0.337   1.106   5.537
10543SOL    HW232529   0.233   1.134   5.415
10544SOL     OW32530   2.205   6.792   2.107
10544SOL    HW132531   2.268   6.864   2.137
10544SOL    HW232532   2.245   6.742   2.031
10545SOL     OW32533   6.199   1.071   2.941
10545SOL    HW132534   6.167   0.976   2.940
10545SOL    HW232535   6.140   1.127   2.883
10546SOL     OW32536   1.347   0.807   6.933
10546SOL    HW132537   1.250   0.785   6.933
10546SOL    HW232538   1.370   0.853   7.019
10547SOL     OW32539   5.920   2.732   2.035
10547SOL    HW132540   5.848   2.664   2.048
10547SOL    HW232541   5.927   2.756   1.938
10548SOL     OW32542   5.408   4.259   4.767
10548SOL    HW132543   5.415   4.183   4.703
10548SOL    HW232544   5.378   4.226   4.856
10549SOL     OW32545   6.644   6.983   1.717
10549SOL    HW132546   6.615   6.923   1.642
10549SOL    HW232547   6.632   0.056   1.690
10550SOL     OW32548   4.357   6.214   4.518
10550SOL    HW132549   4.335   6.246   4.426
10550SOL    HW232550   4.273   6.186   4.564
10551SOL     OW32551   1.733   2.514   6.571
10551SOL    HW132552   1.830   2.491   6.568
10551SOL    HW232553   1.706   2.554   6.483
10552SOL     OW32554   3.091   1.354   6.541
10552SOL    HW132555   3.066   1.326   6.633
10552SOL    HW232556   3.087   1.454   6.533
10553SOL     OW32557   0.747   5.046   1.625
10553SOL    HW132558   0.675   5.019   1.688
10553SOL    HW232559   0.815   5.102   1.672
10554SOL     OW32560   5.220   5.330   0.279
10554SOL    HW132561   5.208   5.292   0.187
10554SOL    HW232562   5.177   5.269   0.346
10555SOL     OW32563   1.793   3.676   0.683
10555SOL    HW132564   1.836   3.590   0.654
10555SOL    HW232565   1.813   3.748   0.616
10556SOL     OW32566   2.041   1.983   5.373
10556SOL    HW132567   2.097   1.958   5.452
10556SOL    HW232568   2.098   2.028   5.304
10557SOL     OW32569   2.457   1.991   3.024
10557SOL    HW132570   2.379   1.946   3.066
10557SOL    HW232571   2.488   2.066   3.083
10558SOL     OW32572   3.947   1.013   3.492
10558SOL    HW132573   3.995   1.067   3.562
10558SOL    HW232574   3.906   0.933   3.535
10559SOL     OW32575   4.842   0.437   1.109
10559SOL    HW132576   4.835   0.339   1.092
10559SOL    HW232577   4.821   0.487   1.024
10560SOL     OW32578   3.466   5.989   3.663
10560SOL    HW132579   3.436   6.038   3.581
10560SOL    HW232580   3.546   5.933   3.642
10561SOL     OW32581   3.278   4.812   1.209
10561SOL    HW132582   3.357   4.751   1.218
10561SOL    HW232583   3.260   4.829   1.112
10562SOL     OW32584   4.739   5.813   0.343
10562SOL    HW132585   4.729   5.838   0.246
10562SOL    HW232586   4.657   5.840   0.393
10563SOL     OW32587   0.648   1.413   3.720
10563SOL    HW132588   0.689   1.383   3.806
10563SOL    HW232589   0.605   1.336   3.673
10564SOL     OW32590   5.583   6.843   1.845
10564SOL    HW132591   5.668   6.892   1.866
10564SOL    HW232592   5.558   6.784   1.923
10565SOL     OW32593   6.727   0.547   6.429
10565SOL    HW132594   6.753   0.546   6.526
10565SOL    HW232595   6.655   0.480   6.413
10566SOL     OW32596   3.986   2.403   0.017
10566SOL    HW132597   3.987   2.503   0.029
10566SOL    HW232598   4.072   2.374   6.996
10567SOL     OW32599   2.806   1.974   3.944
10567SOL    HW132600   2.888   1.918   3.938
10567SOL    HW232601   2.818   2.045   4.014
10568SOL     OW32602   6.190   2.046   0.971
10568SOL    HW132603   6.283   2.078   0.957
10568SOL    HW232604   6.128   2.098   0.912
10569SOL     OW32605   5.587   2.341   1.680
10569SOL    HW132606   5.617   2.422   1.629
10569SOL    HW232607   5.635   2.260   1.645
10570SOL     OW32608   1.807   5.185   3.382
10570SOL    HW132609   1.839   5.228   3.466
10570SOL    HW232610   1.708   5.193   3.376
10571SOL     OW32611   0.100   5.112   5.185
10571SOL    HW132612   0.034   5.098   5.112
10571SOL    HW232613   0.103   5.031   5.243
10572SOL     OW32614   0.106   4.201   3.953
10572SOL    HW132615   0.136   4.134   4.021
10572SOL    HW232616   0.006   4.201   3.948
10573SOL     OW32617   4.559   6.994   5.129
10573SOL    HW132618   4.468   7.001   5.170
10573SOL    HW232619   4.557   6.927   5.054
10574SOL     OW32620   1.331   1.771   3.917
10574SOL    HW132621   1.319   1.673   3.904
10574SOL    HW232622   1.416   1.787   3.969
10575SOL     OW32623   0.080   1.340   2.811
10575SOL    HW132624   0.012   1.267   2.827
10575SOL    HW232625   0.082   1.363   2.714
10576SOL     OW32626   0.240   5.605   5.443
10576SOL    HW132627   0.246   5.506   5.430
10576SOL    HW232628   0.204   5.647   5.359
10577SOL     OW32629   1.788   2.619   0.112
10577SOL    HW132630   1.699   2.637   0.070
10577SOL    HW232631   1.776   2.604   0.210
10578SOL     OW32632   5.694   0.821   3.255
10578SOL    HW132633   5.707   0.793   3.350
10578SOL    HW232634   5.744   0.906   3.239
10579SOL     OW32635   4.530   2.114   1.232
10579SOL    HW132636   4.569   2.138   1.321
10579SOL    HW232637   4.530   2.194   1.172
10580SOL     OW32638   6.908   0.346   6.951
10580SOL    HW132639   6.818   0.350   6.995
10580SOL    HW232640   6.897   0.320   6.855
10581SOL     OW32641   0.160   0.341   3.084
10581SOL    HW132642   0.193   0.253   3.048
10581SOL    HW232643   0.134   0.329   3.180
10582SOL     OW32644   5.104   5.186   0.064
10582SOL    HW132645   5.049   5.245   0.005
10582SOL    HW232646   5.187   5.158   0.015
10583SOL     OW32647   3.861   1.347   5.234
10583SOL    HW132648   3.824   1.315   5.147
10583SOL    HW232649   3.921   1.426   5.218
10584SOL     OW32650   6.389   6.178   1.591
10584SOL    HW132651   6.313   6.244   1.594
10584SOL    HW232652   6.460   6.212   1.529
10585SOL     OW32653   2.177   2.946   5.706
10585SOL    HW132654   2.225   2.895   5.778
10585SOL    HW232655   2.132   3.026   5.747
10586SOL     OW32656   0.314   5.000   4.391
10586SOL    HW132657   0.391   5.062   4.406
10586SOL    HW232658   0.326   4.954   4.303
10587SOL     OW32659   5.890   4.075   6.980
10587SOL    HW132660   5.905   4.112   0.049
10587SOL    HW232661   5.830   3.995   6.985
10588SOL     OW32662   0.261   3.695   3.455
10588SOL    HW132663   0.169   3.711   3.420
10588SOL    HW232664   0.268   3.729   3.549
10589SOL     OW32665   6.040   1.233   4.725
10589SOL    HW132666   6.101   1.231   4.805
10589SOL    HW232667   6.012   1.140   4.703
10590SOL     OW32668   1.107   0.453   1.660
10590SOL    HW132669   1.115   0.493   1.751
10590SOL    HW232670   1.123   0.354   1.666
10591SOL     OW32671   1.112   1.641   6.351
10591SOL    HW132672   1.106   1.638   6.451
10591SOL    HW232673   1.104   1.548   6.315
10592SOL     OW32674   6.182   3.334   1.053
10592SOL    HW132675   6.266   3.283   1.036
10592SOL    HW232676   6.124   3.332   0.971
10593SOL     OW32677   2.003   5.257   0.400
10593SOL    HW132678   2.092   5.212   0.406
10593SOL    HW232679   1.989   5.314   0.481
10594SOL     OW32680   5.291   0.720   2.022
10594SOL    HW132681   5.353   0.723   2.101
10594SOL    HW232682   5.344   0.721   1.938
10595SOL     OW32683   3.820   6.853   5.097
10595SOL    HW132684   3.815   6.761   5.137
10595SOL    HW232685   3.901   6.900   5.131
10596SOL     OW32686   4.805   7.006   0.085
10596SOL    HW132687   4.832   6.920   0.127
10596SOL    HW232688   4.886   0.043   0.076
10597SOL     OW32689   3.376   1.543   4.967
10597SOL    HW132690   3.351   1.539   4.871
10597SOL    HW232691   3.357   1.634   5.003
10598SOL     OW32692   2.905   2.646   6.692
10598SOL    HW132693   2.893   2.567   6.632
10598SOL    HW232694   2.892   2.618   6.787
10599SOL     OW32695   4.788   2.623   6.442
10599SOL    HW132696   4.855   2.692   6.415
10599SOL    HW232697   4.696   2.659   6.427
10600SOL     OW32698   2.045   2.693   0.722
10600SOL    HW132699   2.011   2.607   0.684
10600SOL    HW232700   2.094   2.744   0.652
10601SOL     OW32701   1.563   4.146   6.209
10601SOL    HW132702   1.580   4.226   6.153
10601SOL    HW232703   1.499   4.168   6.282
10602SOL     OW32704   4.840   2.116   3.512
10602SOL    HW132705   4.843   2.016   3.519
10602SOL    HW232706   4.922   2.148   3.465
10603SOL     OW32707   2.574   5.786   4.045
10603SOL    HW132708   2.501   5.743   3.992
10603SOL    HW232709   2.558   5.885   4.049
10604SOL     OW32710   5.682   3.886   5.325
10604SOL    HW132711   5.610   3.910   5.259
10604SOL    HW232712   5.652   3.909   5.417
10605SOL     OW32713   1.649   5.032   1.047
10605SOL    HW132714   1.746   5.015   1.066
10605SOL    HW232715   1.593   4.977   1.109
10606SOL     OW32716   6.839   6.832   2.069
10606SOL    HW132717   6.877   6.902   2.009
10606SOL    HW232718   6.748   6.805   2.035
10607SOL     OW32719   4.002   4.875   6.318
10607SOL    HW132720   4.022   4.891   6.222
10607SOL    HW232721   4.013   4.778   6.339
10608SOL     OW32722   5.239   2.076   5.813
10608SOL    HW132723   5.244   2.160   5.759
10608SOL    HW232724   5.321   2.069   5.870
10609SOL     OW32725   3.031   6.762   1.546
10609SOL    HW132726   3.089   6.737   1.468
10609SOL    HW232727   2.949   6.808   1.512
10610SOL     OW32728   1.011   3.124   6.048
10610SOL    HW132729   0.982   3.103   5.955
10610SOL    HW232730   1.002   3.042   6.105
10611SOL     OW32731   4.111   3.963   5.897
10611SOL    HW132732   4.201   3.946   5.938
10611SOL    HW232733   4.110   3.926   5.804
10612SOL     OW32734   2.970   0.595   5.732
10612SOL    HW132735   2.994   0.539   5.652
10612SOL    HW232736   2.871   0.591   5.747
10613SOL     OW32737   6.341   6.877   5.554
10613SOL    HW132738   6.280   6.839   5.484
10613SOL    HW232739   6.328   6.976   5.559
10614SOL     OW32740   6.598   2.636   4.617
10614SOL    HW132741   6.552   2.690   4.546
10614SOL    HW232742   6.672   2.583   4.576
10615SOL     OW32743   3.170   5.995   5.658
10615SOL    HW132744   3.094   5.990   5.723
10615SOL    HW232745   3.232   6.069   5.686
10616SOL     OW32746   2.896   6.604   0.874
10616SOL    HW132747   2.949   6.655   0.806
10616SOL    HW232748   2.901   6.651   0.962
10617SOL     OW32749   2.338   2.411   0.584
10617SOL    HW132750   2.297   2.360   0.508
10617SOL    HW232751   2.267   2.434   0.651
10618SOL     OW32752   6.666   3.796   6.345
10618SOL    HW132753   6.590   3.845   6.389
10618SOL    HW232754   6.751   3.848   6.359
10619SOL     OW32755   6.611   4.109   2.416
10619SOL    HW132756   6.628   4.126   2.513
10619SOL    HW232757   6.621   4.195   2.365
10620SOL     OW32758   1.614   5.262   5.581
10620SOL    HW132759   1.617   5.222   5.490
10620SOL    HW232760   1.561   5.347   5.578
10621SOL     OW32761   1.280   6.487   1.796
10621SOL    HW132762   1.260   6.426   1.719
10621SOL    HW232763   1.371   6.467   1.832
10622SOL     OW32764   4.866   1.051   1.182
10622SOL    HW132765   4.957   1.068   1.144
10622SOL    HW232766   4.846   0.953   1.178
10623SOL     OW32767   0.145   4.661   4.383
10623SOL    HW132768   0.198   4.741   4.409
10623SOL    HW232769   0.066   4.652   4.444
10624SOL     OW32770   0.571   1.836   4.468
10624SOL    HW132771   0.601   1.909   4.528
10624SOL    HW232772   0.648   1.803   4.414
10625SOL     OW32773   0.657   4.370   0.127
10625SOL    HW132774   0.722   4.294   0.129
10625SOL    HW232775   0.571   4.340   0.086
10626SOL     OW32776   2.378   3.114   1.017
10626SOL    HW132777   2.476   3.120   1.038
10626SOL    HW232778   2.358   3.023   0.981
10627SOL     OW32779   5.453   5.980   0.900
10627SOL    HW132780   5.355   5.969   0.892
10627SOL    HW232781   5.473   6.045   0.974
10628SOL     OW32782   4.855   5.704   7.016
10628SOL    HW132783   4.845   5.626   0.056
10628SOL    HW232784   4.765   5.735   6.988
10629SOL     OW32785   2.782   4.787   4.757
10629SOL    HW132786   2.687   4.817   4.754
10629SOL    HW232787   2.800   4.741   4.843
10630SOL     OW32788   6.561   1.532   4.123
10630SOL    HW132789   6.548   1.588   4.205
10630SOL    HW232790   6.659   1.520   4.106
10631SOL     OW32791   2.391   5.232   5.109
10631SOL    HW132792   2.441   5.149   5.133
10631SOL    HW232793   2.295   5.208   5.091
10632SOL     OW32794   5.564   1.576   3.743
10632SOL    HW132795   5.536   1.564   3.648
10632SOL    HW232796   5.656   1.614   3.746
10633SOL     OW32797   2.718   3.734   1.500
10633SOL    HW132798   2.677   3.671   1.566
10633SOL    HW232799   2.684   3.827   1.518
10634SOL     OW32800   2.889   5.593   1.094
10634SOL    HW132801   2.870   5.497   1.113
10634SOL    HW232802   2.810   5.648   1.121
10635SOL     OW32803   3.537   1.457   1.110
10635SOL    HW132804   3.468   1.529   1.104
10635SOL    HW232805   3.627   1.498   1.124
10636SOL     OW32806   0.949   1.120   1.745
10636SOL    HW132807   0.921   1.070   1.663
10636SOL    HW232808   0.974   1.214   1.719
10637SOL     OW32809   2.895   4.910   5.562
10637SOL    HW132810   2.835   4.830   5.554
10637SOL    HW232811   2.915   4.945   5.470
10638SOL     OW32812   0.400   5.461   3.012
10638SOL    HW132813   0.483   5.515   3.002
10638SOL    HW232814   0.326   5.518   3.047
10639SOL     OW32815   0.943   3.463   2.789
10639SOL    HW132816   1.000   3.384   2.813
10639SOL    HW232817   0.856   3.456   2.838
10640SOL     OW32818   3.882   0.203   5.724
10640SOL    HW132819   3.837   0.114   5.712
10640SOL    HW232820   3.938   0.201   5.806
10641SOL     OW32821   3.650   2.317   0.328
10641SOL    HW132822   3.749   2.303   0.332
10641SOL    HW232823   3.619   2.360   0.412
10642SOL     OW32824   6.510   3.069   1.673
10642SOL    HW132825   6.598   3.021   1.674
10642SOL    HW232826   6.512   3.145   1.738
10643SOL     OW32827   2.249   4.995   5.263
10643SOL    HW132828   2.292   4.910   5.232
10643SOL    HW232829   2.165   5.010   5.211
10644SOL     OW32830   5.646   2.311   2.973
10644SOL    HW132831   5.559   2.338   3.013
10644SOL    HW232832   5.685   2.389   2.923
10645SOL     OW32833   0.608   1.552   5.036
10645SOL    HW132834   0.522   1.597   5.063
10645SOL    HW232835   0.587   1.465   4.992
10646SOL     OW32836   0.492   1.493   6.369
10646SOL    HW132837   0.395   1.466   6.373
10646SOL    HW232838   0.527   1.505   6.461
10647SOL     OW32839   3.712   5.382   0.008
10647SOL    HW132840   3.718   5.295   0.058
10647SOL    HW232841   3.693   5.364   6.935
10648SOL     OW32842   4.951   4.472   5.912
10648SOL    HW132843   4.957   4.409   5.989
10648SOL    HW232844   4.892   4.434   5.841
10649SOL     OW32845   0.676   4.019   3.258
10649SOL    HW132846   0.658   4.065   3.171
10649SOL    HW232847   0.596   3.966   3.284
10650SOL     OW32848   1.317   6.667   2.822
10650SOL    HW132849   1.266   6.750   2.846
10650SOL    HW232850   1.255   6.600   2.783
10651SOL     OW32851   4.484   6.895   5.924
10651SOL    HW132852   4.559   6.958   5.908
10651SOL    HW232853   4.513   6.802   5.900
10652SOL     OW32854   3.859   0.109   6.495
10652SOL    HW132855   3.801   0.160   6.430
10652SOL    HW232856   3.882   0.020   6.456
10653SOL     OW32857   5.701   3.895   4.236
10653SOL    HW132858   5.631   3.847   4.184
10653SOL    HW232859   5.728   3.839   4.315
10654SOL     OW32860   4.267   1.380   1.099
10654SOL    HW132861   4.336   1.440   1.059
10654SOL    HW232862   4.251   1.405   1.194
10655SOL     OW32863   2.933   5.479   1.368
10655SOL    HW132864   2.896   5.518   1.452
10655SOL    HW232865   2.949   5.381   1.381
10656SOL     OW32866   6.106   2.586   0.995
10656SOL    HW132867   6.039   2.520   0.962
10656SOL    HW232868   6.058   2.662   1.039
10657SOL     OW32869   6.717   0.052   6.799
10657SOL    HW132870   6.667   0.078   6.882
10657SOL    HW232871   6.660   7.013   6.744
10658SOL     OW32872   6.225   3.655   4.466
10658SOL    HW132873   6.263   3.706   4.543
10658SOL    HW232874   6.294   3.645   4.395
10659SOL     OW32875   0.060   6.236   0.876
10659SOL    HW132876   0.040   6.229   0.973
10659SOL    HW232877   0.137   6.176   0.853
10660SOL     OW32878   5.204   4.581   6.538
10660SOL    HW132879   5.111   4.605   6.564
10660SOL    HW232880   5.212   4.580   6.438
10661SOL     OW32881   0.064   6.227   2.648
10661SOL    HW132882   0.155   6.195   2.676
10661SOL    HW232883   0.066   6.252   2.551
10662SOL     OW32884   5.696   0.479   2.083
10662SOL    HW132885   5.658   0.508   2.171
10662SOL    HW232886   5.796   0.489   2.084
10663SOL     OW32887   0.510   0.098   1.853
10663SOL    HW132888   0.466   0.168   1.909
10663SOL    HW232889   0.593   0.066   1.899
10664SOL     OW32890   1.659   4.644   5.063
10664SOL    HW132891   1.724   4.650   5.138
10664SOL    HW232892   1.693   4.581   4.994
10665SOL     OW32893   0.730   0.995   0.581
10665SOL    HW132894   0.672   0.991   0.500
10665SOL    HW232895   0.724   0.907   0.629
10666SOL     OW32896   2.933   4.742   0.671
10666SOL    HW132897   3.011   4.709   0.724
10666SOL    HW232898   2.853   4.749   0.730
10667SOL     OW32899   4.021   2.870   5.525
10667SOL    HW132900   4.007   2.969   5.514
10667SOL    HW232901   3.934   2.823   5.514
10668SOL     OW32902   1.294   2.050   5.277
10668SOL    HW132903   1.336   2.047   5.186
10668SOL    HW232904   1.195   2.052   5.268
10669SOL     OW32905   5.992   6.553   0.562
10669SOL    HW132906   5.934   6.596   0.630
10669SOL    HW232907   6.088   6.575   0.581
10670SOL     OW32908   4.780   3.709   5.357
10670SOL    HW132909   4.755   3.644   5.285
10670SOL    HW232910   4.750   3.801   5.330
10671SOL     OW32911   2.764   2.108   2.434
10671SOL    HW132912   2.733   2.031   2.492
10671SOL    HW232913   2.684   2.155   2.397
10672SOL     OW32914   6.937   2.368   0.431
10672SOL    HW132915   6.870   2.404   0.496
10672SOL    HW232916   7.020   2.341   0.480
10673SOL     OW32917   1.445   2.350   6.999
10673SOL    HW132918   1.518   2.384   6.939
10673SOL    HW232919   1.369   2.415   6.999
10674SOL     OW32920   3.276   3.653   0.922
10674SOL    HW132921   3.178   3.644   0.938
10674SOL    HW232922   3.299   3.611   0.834
10675SOL     OW32923   1.966   0.344   5.877
10675SOL    HW132924   2.042   0.335   5.813
10675SOL    HW232925   1.956   0.259   5.929
10676SOL     OW32926   6.277   6.441   6.386
10676SOL    HW132927   6.236   6.379   6.319
10676SOL    HW232928   6.362   6.479   6.349
10677SOL     OW32929   0.823   0.524   2.010
10677SOL    HW132930   0.850   0.559   2.099
10677SOL    HW232931   0.786   0.431   2.020
10678SOL     OW32932   3.690   5.221   2.712
10678SOL    HW132933   3.657   5.157   2.781
10678SOL    HW232934   3.709   5.309   2.755
10679SOL     OW32935   5.255   4.621   5.959
10679SOL    HW132936   5.222   4.528   5.975
10679SOL    HW232937   5.207   4.684   6.020
10680SOL     OW32938   1.990   2.054   3.791
10680SOL    HW132939   1.937   1.996   3.853
10680SOL    HW232940   2.086   2.051   3.816
10681SOL     OW32941   0.057   4.153   6.561
10681SOL    HW132942   0.025   4.059   6.571
10681SOL    HW232943   7.007   4.216   6.588
10682SOL     OW32944   2.125   2.024   3.030
10682SOL    HW132945   2.174   2.110   3.032
10682SOL    HW232946   2.115   1.988   3.123
10683SOL     OW32947   3.679   1.776   4.027
10683SOL    HW132948   3.698   1.768   3.929
10683SOL    HW232949   3.609   1.846   4.041
10684SOL     OW32950   4.679   3.476   0.495
10684SOL    HW132951   4.755   3.541   0.499
10684SOL    HW232952   4.596   3.524   0.464
10685SOL     OW32953   6.310   4.388   2.117
10685SOL    HW132954   6.370   4.361   2.041
10685SOL    HW232955   6.293   4.308   2.175
10686SOL     OW32956   3.669   5.273   6.758
10686SOL    HW132957   3.729   5.259   6.679
10686SOL    HW232958   3.631   5.185   6.786
10687SOL     OW32959   6.945   5.258   1.635
10687SOL    HW132960   0.020   5.235   1.636
10687SOL    HW232961   6.925   5.318   1.557
10688SOL     OW32962   6.640   4.795   2.613
10688SOL    HW132963   6.562   4.753   2.659
10688SOL    HW232964   6.645   4.892   2.639
10689SOL     OW32965   0.325   0.199   3.787
10689SOL    HW132966   0.358   0.126   3.848
10689SOL    HW232967   0.377   0.282   3.804
10690SOL     OW32968   6.141   5.380   3.991
10690SOL    HW132969   6.086   5.319   3.934
10690SOL    HW232970   6.143   5.344   4.085
10691SOL     OW32971   0.007   1.638   2.595
10691SOL    HW132972   6.937   1.600   2.597
10691SOL    HW232973   0.006   1.726   2.547
10692SOL     OW32974   3.397   4.965   3.508
10692SOL    HW132975   3.467   5.007   3.450
10692SOL    HW232976   3.353   4.891   3.457
10693SOL     OW32977   1.749   0.706   1.737
10693SOL    HW132978   1.734   0.676   1.832
10693SOL    HW232979   1.674   0.674   1.680
10694SOL     OW32980   3.559   5.842   1.618
10694SOL    HW132981   3.492   5.769   1.628
10694SOL    HW232982   3.594   5.844   1.524
10695SOL     OW32983   6.258   1.862   2.705
10695SOL    HW132984   6.282   1.875   2.801
10695SOL    HW232985   6.180   1.921   2.683
10696SOL     OW32986   6.848   4.788   2.234
10696SOL    HW132987   6.889   4.837   2.311
10696SOL    HW232988   6.918   4.768   2.165
10697SOL     OW32989   6.977   6.315   4.442
10697SOL    HW132990   6.998   6.311   4.540
10697SOL    HW232991   0.021   6.374   4.396
10698SOL     OW32992   3.463   6.533   4.462
10698SOL    HW132993   3.423   6.455   4.510
10698SOL    HW232994   3.479   6.510   4.367
10699SOL     OW32995   4.181   1.782   2.434
10699SOL    HW132996   4.206   1.696   2.391
10699SOL    HW232997   4.143   1.764   2.525
10700SOL     OW32998   1.183   6.884   0.573
10700SOL    HW132999   1.275   6.854   0.549
10700SOL    HW233000   1.180   6.912   0.669
10701SOL     OW33001   4.034   5.999   0.129
10701SOL    HW133002   3.972   5.924   0.106
10701SOL    HW233003   4.014   6.031   0.221
10702SOL     OW33004   6.231   2.721   2.391
10702SOL    HW133005   6.191   2.768   2.313
10702SOL    HW233006   6.289   2.646   2.359
10703SOL     OW33007   3.941   3.066   4.023
10703SOL    HW133008   3.885   3.047   4.104
10703SOL    HW233009   4.037   3.064   4.049
10704SOL     OW33010   5.078   5.758   1.712
10704SOL    HW133011   4.999   5.820   1.714
10704SOL    HW233012   5.103   5.734   1.805
10705SOL     OW33013   0.324   3.731   1.319
10705SOL    HW133014   0.275   3.754   1.402
10705SOL    HW233015   0.398   3.797   1.304
10706SOL     OW33016   4.455   6.457   2.402
10706SOL    HW133017   4.380   6.514   2.370
10706SOL    HW233018   4.421   6.366   2.426
10707SOL     OW33019   0.528   0.387   4.954
10707SOL    HW133020   0.496   0.307   4.903
10707SOL    HW233021   0.535   0.364   5.051
10708SOL     OW33022   4.995   0.773   1.880
10708SOL    HW133023   5.018   0.868   1.859
10708SOL    HW233024   5.043   0.746   1.963
10709SOL     OW33025   6.725   1.194   5.218
10709SOL    HW133026   6.693   1.266   5.279
10709SOL    HW233027   6.713   1.105   5.263
10710SOL     OW33028   1.142   6.765   4.936
10710SOL    HW133029   1.193   6.734   4.856
10710SOL    HW233030   1.185   6.730   5.019
10711SOL     OW33031   2.239   6.829   3.512
10711SOL    HW133032   2.288   6.846   3.598
10711SOL    HW233033   2.259   6.737   3.480
10712SOL     OW33034   3.679   0.898   3.066
10712SOL    HW133035   3.730   0.975   3.028
10712SOL    HW233036   3.587   0.898   3.029
10713SOL     OW33037   1.744   4.892   1.839
10713SOL    HW133038   1.669   4.885   1.905
10713SOL    HW233039   1.820   4.834   1.869
10714SOL     OW33040   6.874   3.015   5.116
10714SOL    HW133041   6.783   2.973   5.122
10714SOL    HW233042   6.900   3.051   5.206
10715SOL     OW33043   4.388   0.822   2.981
10715SOL    HW133044   4.472   0.773   3.000
10715SOL    HW233045   4.333   0.827   3.065
10716SOL     OW33046   0.101   2.664   3.136
10716SOL    HW133047   0.192   2.633   3.108
10716SOL    HW233048   0.042   2.585   3.152
10717SOL     OW33049   0.957   2.055   0.971
10717SOL    HW133050   0.915   2.022   0.887
10717SOL    HW233051   0.993   2.147   0.956
10718SOL     OW33052   6.266   5.076   6.998
10718SOL    HW133053   6.320   5.129   0.041
10718SOL    HW233054   6.320   4.999   6.964
10719SOL     OW33055   4.447   6.020   1.737
10719SOL    HW133056   4.377   5.957   1.770
10719SOL    HW233057   4.474   5.994   1.645
10720SOL     OW33058   6.440   3.950   6.122
10720SOL    HW133059   6.468   3.967   6.027
10720SOL    HW233060   6.467   3.858   6.148
10721SOL     OW33061   6.675   2.584   4.297
10721SOL    HW133062   6.617   2.514   4.255
10721SOL    HW233063   6.629   2.673   4.293
10722SOL     OW33064   6.918   3.103   0.292
10722SOL    HW133065   6.944   3.180   0.233
10722SOL    HW233066   7.000   3.064   0.335
10723SOL     OW33067   5.687   4.034   6.677
10723SOL    HW133068   5.745   4.094   6.731
10723SOL    HW233069   5.651   3.960   6.735
10724SOL     OW33070   3.622   6.695   5.734
10724SOL    HW133071   3.525   6.672   5.727
10724SOL    HW233072   3.646   6.760   5.661
10725SOL     OW33073   6.958   5.249   4.102
10725SOL    HW133074   6.955   5.206   4.012
10725SOL    HW233075   6.893   5.204   4.163
10726SOL     OW33076   5.914   6.884   5.280
10726SOL    HW133077   5.824   6.850   5.253
10726SOL    HW233078   5.915   6.984   5.277
10727SOL     OW33079   1.599   5.213   5.311
10727SOL    HW133080   1.696   5.214   5.287
10727SOL    HW233081   1.563   5.306   5.310
10728SOL     OW33082   5.923   6.742   2.107
10728SOL    HW133083   5.935   6.770   2.202
10728SOL    HW233084   5.941   6.820   2.046
10729SOL     OW33085   6.734   1.321   2.553
10729SOL    HW133086   6.695   1.402   2.510
10729SOL    HW233087   6.690   1.306   2.642
10730SOL     OW33088   2.614   6.647   1.844
10730SOL    HW133089   2.624   6.554   1.880
10730SOL    HW233090   2.663   6.654   1.758
10731SOL     OW33091   2.693   5.494   0.230
10731SOL    HW133092   2.735   5.427   0.290
10731SOL    HW233093   2.738   5.493   0.141
10732SOL     OW33094   6.961   0.166   2.820
10732SOL    HW133095   7.004   0.083   2.855
10732SOL    HW233096   6.904   0.207   2.891
10733SOL     OW33097   6.025   1.978   0.069
10733SOL    HW133098   5.948   1.915   0.053
10733SOL    HW233099   6.059   2.011   7.004
10734SOL     OW33100   1.114   0.897   6.695
10734SOL    HW133101   1.044   0.966   6.675
10734SOL    HW233102   1.122   0.834   6.618
10735SOL     OW33103   1.005   5.064   2.455
10735SOL    HW133104   1.017   4.972   2.418
10735SOL    HW233105   0.942   5.061   2.533
10736SOL     OW33106   0.720   0.904   2.992
10736SOL    HW133107   0.630   0.869   3.016
10736SOL    HW233108   0.746   0.977   3.055
10737SOL     OW33109   0.812   2.328   0.582
10737SOL    HW133110   0.726   2.354   0.538
10737SOL    HW233111   0.799   2.326   0.682
10738SOL     OW33112   2.623   6.953   2.448
10738SOL    HW133113   2.689   6.932   2.521
10738SOL    HW233114   2.672   6.989   2.369
10739SOL     OW33115   6.848   1.966   2.809
10739SOL    HW133116   6.873   2.032   2.738
10739SOL    HW233117   6.921   1.897   2.818
10740SOL     OW33118   1.220   5.634   5.699
10740SOL    HW133119   1.168   5.673   5.623
10740SOL    HW233120   1.267   5.707   5.748
10741SOL     OW33121   1.618   1.722   3.723
10741SOL    HW133122   1.549   1.651   3.727
10741SOL    HW233123   1.579   1.805   3.683
10742SOL     OW33124   6.108   0.198   2.277
10742SOL    HW133125   6.162   0.282   2.270
10742SOL    HW233126   6.169   0.119   2.281
10743SOL     OW33127   2.920   2.295   4.386
10743SOL    HW133128   2.822   2.306   4.370
10743SOL    HW233129   2.943   2.329   4.477
10744SOL     OW33130   3.283   1.148   2.038
10744SOL    HW133131   3.323   1.061   2.067
10744SOL    HW233132   3.243   1.194   2.118
10745SOL     OW33133   2.110   4.797   0.577
10745SOL    HW133134   2.182   4.727   0.574
10745SOL    HW233135   2.084   4.822   0.484
10746SOL     OW33136   1.838   5.534   1.328
10746SOL    HW133137   1.883   5.585   1.402
10746SOL    HW233138   1.848   5.436   1.345
10747SOL     OW33139   5.383   1.792   3.336
10747SOL    HW133140   5.366   1.695   3.352
10747SOL    HW233141   5.434   1.803   3.251
10748SOL     OW33142   5.421   5.646   1.186
10748SOL    HW133143   5.354   5.590   1.138
10748SOL    HW233144   5.467   5.707   1.121
10749SOL     OW33145   0.187   5.307   2.927
10749SOL    HW133146   0.222   5.291   2.835
10749SOL    HW233147   0.251   5.366   2.977
10750SOL     OW33148   4.811   4.098   4.850
10750SOL    HW133149   4.806   4.057   4.760
10750SOL    HW233150   4.857   4.036   4.913
10751SOL     OW33151   1.237   3.246   4.795
10751SOL    HW133152   1.205   3.179   4.861
10751SOL    HW233153   1.262   3.330   4.842
10752SOL     OW33154   6.157   4.468   6.550
10752SOL    HW133155   6.079   4.407   6.547
10752SOL    HW233156   6.126   4.562   6.569
10753SOL     OW33157   5.731   0.089   4.107
10753SOL    HW133158   5.820   0.060   4.143
10753SOL    HW233159   5.741   0.114   4.011
10754SOL     OW33160   1.975   2.260   2.273
10754SOL    HW133161   1.994   2.312   2.357
10754SOL    HW233162   2.021   2.171   2.278
10755SOL     OW33163   6.690   2.074   0.556
10755SOL    HW133164   6.646   2.028   0.479
10755SOL    HW233165   6.632   2.149   0.587
10756SOL     OW33166   6.261   3.022   0.351
10756SOL    HW133167   6.268   2.952   0.280
10756SOL    HW233168   6.349   3.068   0.362
10757SOL     OW33169   7.001   3.912   0.536
10757SOL    HW133170   0.029   3.841   0.488
10757SOL    HW233171   0.036   3.951   0.609
10758SOL     OW33172   0.560   5.618   5.426
10758SOL    HW133173   0.587   5.522   5.435
10758SOL    HW233174   0.464   5.623   5.399
10759SOL     OW33175   1.841   3.230   6.435
10759SOL    HW133176   1.867   3.185   6.520
10759SOL    HW233177   1.751   3.272   6.445
10760SOL     OW33178   0.023   6.140   1.480
10760SOL    HW133179   0.076   6.118   1.397
10760SOL    HW233180   6.964   6.190   1.454
10761SOL     OW33181   1.193   2.864   6.543
10761SOL    HW133182   1.201   2.886   6.446
10761SOL    HW233183   1.279   2.827   6.576
10762SOL     OW33184   4.940   0.830   5.235
10762SOL    HW133185   4.867   0.793   5.176
10762SOL    HW233186   5.005   0.757   5.257
10763SOL     OW33187   4.236   0.562   1.600
10763SOL    HW133188   4.171   0.613   1.656
10763SOL    HW233189   4.297   0.627   1.553
10764SOL     OW33190   5.108   1.438   6.246
10764SOL    HW133191   5.023   1.475   6.209
10764SOL    HW233192   5.168   1.513   6.274
10765SOL     OW33193   5.927   0.917   1.752
10765SOL    HW133194   5.953   0.978   1.677
10765SOL    HW233195   5.887   0.833   1.714
10766SOL     OW33196   2.268   3.342   0.376
10766SOL    HW133197   2.300   3.326   0.283
10766SOL    HW233198   2.219   3.429   0.380
10767SOL     OW33199   1.584   6.885   0.760
10767SOL    HW133200   1.677   6.851   0.769
10767SOL    HW233201   1.577   6.942   0.678
10768SOL     OW33202   5.712   5.690   0.282
10768SOL    HW133203   5.807   5.712   0.260
10768SOL    HW233204   5.653   5.719   0.206
10769SOL     OW33205   2.699   4.715   5.484
10769SOL    HW133206   2.720   4.661   5.566
10769SOL    HW233207   2.601   4.708   5.464
10770SOL     OW33208   5.394   0.560   4.812
10770SOL    HW133209   5.388   0.463   4.791
10770SOL    HW233210   5.478   0.579   4.862
10771SOL     OW33211   4.342   0.297   5.023
10771SOL    HW133212   4.375   0.252   4.940
10771SOL    HW233213   4.362   0.395   5.018
10772SOL     OW33214   6.814   6.839   3.824
10772SOL    HW133215   6.843   6.743   3.828
10772SOL    HW233216   6.865   6.886   3.752
10773SOL     OW33217   6.823   4.955   6.910
10773SOL    HW133218   6.839   4.866   6.867
10773SOL    HW233219   6.898   4.977   6.971
10774SOL     OW33220   1.473   2.222   1.158
10774SOL    HW133221   1.480   2.318   1.184
10774SOL    HW233222   1.508   2.165   1.233
10775SOL     OW33223   2.401   4.198   0.490
10775SOL    HW133224   2.378   4.292   0.513
10775SOL    HW233225   2.352   4.136   0.552
10776SOL     OW33226   0.068   6.379   1.758
10776SOL    HW133227   0.056   6.434   1.841
10776SOL    HW233228   0.146   6.413   1.706
10777SOL     OW33229   3.905   0.386   3.284
10777SOL    HW133230   3.840   0.370   3.210
10777SOL    HW233231   3.863   0.444   3.354
10778SOL     OW33232   0.058   6.985   4.815
10778SOL    HW133233   0.106   0.033   4.762
10778SOL    HW233234   7.013   0.005   4.875
10779SOL     OW33235   0.088   4.993   2.311
10779SOL    HW133236   0.139   4.936   2.375
10779SOL    HW233237   7.020   5.013   2.348
10780SOL     OW33238   0.583   5.784   3.582
10780SOL    HW133239   0.510   5.718   3.603
10780SOL    HW233240   0.550   5.877   3.600
10781SOL     OW33241   4.531   1.753   4.655
10781SOL    HW133242   4.531   1.710   4.565
10781SOL    HW233243   4.460   1.712   4.712
10782SOL     OW33244   6.300   2.356   3.537
10782SOL    HW133245   6.244   2.384   3.615
10782SOL    HW233246   6.304   2.430   3.470
10783SOL     OW33247   2.073   3.238   2.355
10783SOL    HW133248   2.006   3.308   2.378
10783SOL    HW233249   2.077   3.228   2.255
10784SOL     OW33250   2.527   6.695   1.247
10784SOL    HW133251   2.552   6.598   1.252
10784SOL    HW233252   2.507   6.719   1.152
10785SOL     OW33253   1.677   4.692   1.589
10785SOL    HW133254   1.704   4.769   1.646
10785SOL    HW233255   1.742   4.681   1.513
10786SOL     OW33256   5.456   2.704   2.044
10786SOL    HW133257   5.507   2.762   1.980
10786SOL    HW233258   5.476   2.732   2.138
10787SOL     OW33259   3.545   1.288   4.446
10787SOL    HW133260   3.458   1.291   4.497
10787SOL    HW233261   3.591   1.377   4.456
10788SOL     OW33262   2.062   4.014   0.372
10788SOL    HW133263   2.106   4.071   0.302
10788SOL    HW233264   2.125   3.940   0.398
10789SOL     OW33265   5.943   0.725   0.581
10789SOL    HW133266   5.887   0.657   0.628
10789SOL    HW233267   6.038   0.717   0.610
10790SOL     OW33268   0.475   0.779   5.498
10790SOL    HW133269   0.382   0.750   5.473
10790SOL    HW233270   0.532   0.699   5.514
10791SOL     OW33271   1.497   1.598   2.043
10791SOL    HW133272   1.481   1.638   1.952
10791SOL    HW233273   1.455   1.657   2.112
10792SOL     OW33274   3.178   3.127   1.625
10792SOL    HW133275   3.150   3.125   1.721
10792SOL    HW233276   3.197   3.034   1.594
10793SOL     OW33277   5.673   2.440   4.106
10793SOL    HW133278   5.579   2.407   4.116
10793SOL    HW233279   5.726   2.373   4.055
10794SOL     OW33280   3.651   4.074   1.986
10794SOL    HW133281   3.632   4.155   1.931
10794SOL    HW233282   3.670   4.102   2.081
10795SOL     OW33283   6.332   4.260   2.685
10795SOL    HW133284   6.338   4.287   2.589
10795SOL    HW233285   6.238   4.236   2.707
10796SOL     OW33286   3.248   0.012   6.529
10796SOL    HW133287   3.300   0.080   6.580
10796SOL    HW233288   3.153   0.014   6.559
10797SOL     OW33289   3.912   2.430   0.602
10797SOL    HW133290   3.839   2.362   0.609
10797SOL    HW233291   3.875   2.516   0.565
10798SOL     OW33292   2.278   0.255   0.351
10798SOL    HW133293   2.339   0.304   0.414
10798SOL    HW233294   2.328   0.233   0.267
10799SOL     OW33295   3.507   2.088   2.391
10799SOL    HW133296   3.421   2.138   2.403
10799SOL    HW233297   3.540   2.101   2.298
10800SOL     OW33298   2.041   6.069   0.661
10800SOL    HW133299   2.055   6.166   0.639
10800SOL    HW233300   2.115   6.038   0.720
10801SOL     OW33301   1.959   0.318   3.885
10801SOL    HW133302   1.926   0.232   3.845
10801SOL    HW233303   1.984   0.381   3.811
10802SOL     OW33304   2.307   2.789   4.916
10802SOL    HW133305   2.237   2.740   4.969
10802SOL    HW233306   2.352   2.856   4.974
10803SOL     OW33307   5.016   4.790   5.221
10803SOL    HW133308   5.107   4.825   5.199
10803SOL    HW233309   4.970   4.853   5.284
10804SOL     OW33310   6.865   4.346   0.643
10804SOL    HW133311   6.801   4.400   0.588
10804SOL    HW233312   6.931   4.407   0.686
10805SOL     OW33313   3.493   0.738   6.825
10805SOL    HW133314   3.469   0.671   6.754
10805SOL    HW233315   3.469   0.701   6.915
10806SOL     OW33316   5.523   4.259   0.315
10806SOL    HW133317   5.607   4.301   0.280
10806SOL    HW233318   5.449   4.271   0.249
10807SOL     OW33319   3.243   6.668   3.541
10807SOL    HW133320   3.175   6.696   3.473
10807SOL    HW233321   3.255   6.742   3.608
10808SOL     OW33322   6.851   4.144   0.097
10808SOL    HW133323   6.801   4.208   0.155
10808SOL    HW233324   6.833   4.164   0.001
10809SOL     OW33325   2.815   0.583   4.433
10809SOL    HW133326   2.826   0.586   4.532
10809SOL    HW233327   2.796   0.489   4.404
10810SOL     OW33328   0.973   1.444   5.861
10810SOL    HW133329   1.017   1.531   5.883
10810SOL    HW233330   1.043   1.375   5.845
10811SOL     OW33331   3.938   5.147   5.639
10811SOL    HW133332   3.902   5.111   5.726
10811SOL    HW233333   3.947   5.246   5.646
10812SOL     OW33334   0.419   3.545   1.915
10812SOL    HW133335   0.477   3.471   1.951
10812SOL    HW233336   0.470   3.631   1.915
10813SOL     OW33337   2.893   6.397   1.058
10813SOL    HW133338   2.804   6.405   1.103
10813SOL    HW233339   2.897   6.460   0.980
10814SOL     OW33340   1.348   0.404   5.717
10814SOL    HW133341   1.368   0.369   5.626
10814SOL    HW233342   1.377   0.337   5.786
10815SOL     OW33343   5.077   4.841   3.498
10815SOL    HW133344   5.041   4.910   3.435
10815SOL    HW233345   5.044   4.751   3.471
10816SOL     OW33346   1.851   1.154   2.124
10816SOL    HW133347   1.825   1.239   2.170
10816SOL    HW233348   1.870   1.173   2.028
10817SOL     OW33349   5.762   6.864   2.802
10817SOL    HW133350   5.675   6.829   2.835
10817SOL    HW233351   5.760   6.873   2.703
10818SOL     OW33352   5.954   2.372   5.869
10818SOL    HW133353   5.942   2.388   5.967
10818SOL    HW233354   5.979   2.277   5.853
10819SOL     OW33355   0.781   4.136   6.670
10819SOL    HW133356   0.789   4.045   6.710
10819SOL    HW233357   0.768   4.128   6.571
10820SOL     OW33358   0.144   6.483   4.346
10820SOL    HW133359   0.168   6.568   4.392
10820SOL    HW233360   0.216   6.457   4.281
10821SOL     OW33361   6.023   6.600   3.002
10821SOL    HW133362   6.002   6.519   2.946
10821SOL    HW233363   5.978   6.592   3.090
10822SOL     OW33364   1.522   3.016   2.780
10822SOL    HW133365   1.490   2.988   2.871
10822SOL    HW233366   1.451   3.070   2.734
10823SOL     OW33367   1.784   5.037   1.512
10823SOL    HW133368   1.731   5.097   1.453
10823SOL    HW233369   1.762   5.055   1.608
10824SOL     OW33370   4.993   6.862   3.567
10824SOL    HW133371   5.002   6.763   3.564
10824SOL    HW233372   4.902   6.886   3.603
10825SOL     OW33373   2.712   0.940   0.678
10825SOL    HW133374   2.642   0.975   0.615
10825SOL    HW233375   2.674   0.934   0.770
10826SOL     OW33376   6.441   3.469   2.796
10826SOL    HW133377   6.487   3.519   2.869
10826SOL    HW233378   6.508   3.419   2.741
10827SOL     OW33379   6.202   3.222   3.561
10827SOL    HW133380   6.103   3.235   3.558
10827SOL    HW233381   6.223   3.134   3.604
10828SOL     OW33382   1.293   6.041   2.136
10828SOL    HW133383   1.240   5.960   2.111
10828SOL    HW233384   1.318   6.091   2.053
10829SOL     OW33385   2.791   3.277   1.213
10829SOL    HW133386   2.729   3.296   1.289
10829SOL    HW233387   2.857   3.206   1.240
10830SOL     OW33388   5.083   2.198   3.388
10830SOL    HW133389   5.122   2.199   3.480
10830SOL    HW233390   5.121   2.122   3.335
10831SOL     OW33391   4.974   6.957   1.752
10831SOL    HW133392   4.933   6.872   1.785
10831SOL    HW233393   5.070   6.942   1.729
10832SOL     OW33394   0.514   2.344   0.552
10832SOL    HW133395   0.562   2.410   0.493
10832SOL    HW233396   0.464   2.394   0.623
10833SOL     OW33397   1.986   0.497   3.675
10833SOL    HW133398   2.009   0.433   3.602
10833SOL    HW233399   1.893   0.530   3.662
10834SOL     OW33400   0.734   1.382   5.782
10834SOL    HW133401   0.726   1.398   5.684
10834SOL    HW233402   0.828   1.399   5.811
10835SOL     OW33403   5.727   1.267   0.982
10835SOL    HW133404   5.680   1.191   1.025
10835SOL    HW233405   5.765   1.327   1.052
10836SOL     OW33406   6.940   1.593   5.834
10836SOL    HW133407   6.882   1.525   5.791
10836SOL    HW233408   7.015   1.547   5.883
10837SOL     OW33409   6.684   4.894   0.173
10837SOL    HW133410   6.702   4.985   0.135
10837SOL    HW233411   6.690   4.898   0.273
10838SOL     OW33412   6.218   0.489   5.000
10838SOL    HW133413   6.223   0.555   5.075
10838SOL    HW233414   6.122   0.465   4.983
10839SOL     OW33415   2.783   3.330   0.294
10839SOL    HW133416   2.727   3.264   0.343
10839SOL    HW233417   2.878   3.297   0.291
10840SOL     OW33418   3.787   5.674   1.203
10840SOL    HW133419   3.759   5.579   1.213
10840SOL    HW233420   3.726   5.733   1.256
10841SOL     OW33421   3.161   5.671   5.640
10841SOL    HW133422   3.151   5.689   5.738
10841SOL    HW233423   3.209   5.746   5.596
10842SOL     OW33424   6.055   3.362   0.815
10842SOL    HW133425   6.054   3.271   0.774
10842SOL    HW233426   5.963   3.401   0.814
10843SOL     OW33427   0.573   1.629   1.826
10843SOL    HW133428   0.473   1.625   1.836
10843SOL    HW233429   0.616   1.571   1.894
10844SOL     OW33430   0.378   6.062   4.348
10844SOL    HW133431   0.283   6.085   4.366
10844SOL    HW233432   0.409   5.994   4.414
10845SOL     OW33433   1.986   1.048   1.085
10845SOL    HW133434   2.010   0.957   1.119
10845SOL    HW233435   1.887   1.054   1.072
10846SOL     OW33436   4.703   2.236   0.878
10846SOL    HW133437   4.634   2.209   0.812
10846SOL    HW233438   4.660   2.260   0.965
10847SOL     OW33439   2.786   1.683   6.219
10847SOL    HW133440   2.743   1.604   6.176
10847SOL    HW233441   2.821   1.745   6.148
10848SOL     OW33442   2.743   1.774   6.848
10848SOL    HW133443   2.802   1.695   6.862
10848SOL    HW233444   2.689   1.790   6.931
10849SOL     OW33445   4.080   4.778   3.977
10849SOL    HW133446   4.008   4.714   3.947
10849SOL    HW233447   4.040   4.845   4.039
10850SOL     OW33448   3.650   6.951   6.958
10850SOL    HW133449   3.565   6.914   6.995
10850SOL    HW233450   3.651   6.943   6.859
10851SOL     OW33451   2.925   2.614   6.139
10851SOL    HW133452   3.019   2.584   6.155
10851SOL    HW233453   2.908   2.699   6.189
10852SOL     OW33454   0.500   0.346   6.427
10852SOL    HW133455   0.452   0.278   6.371
10852SOL    HW233456   0.565   0.300   6.487
10853SOL     OW33457   3.917   1.794   4.662
10853SOL    HW133458   3.996   1.732   4.660
10853SOL    HW233459   3.839   1.747   4.702
10854SOL     OW33460   6.111   0.014   6.488
10854SOL    HW133461   6.030   6.986   6.459
10854SOL    HW233462   6.095   0.112   6.477
10855SOL     OW33463   2.638   6.190   2.639
10855SOL    HW133464   2.727   6.196   2.683
10855SOL    HW233465   2.581   6.267   2.668
10856SOL     OW33466   5.734   0.646   0.849
10856SOL    HW133467   5.787   0.684   0.925
10856SOL    HW233468   5.709   0.719   0.785
10857SOL     OW33469   6.054   2.971   3.328
10857SOL    HW133470   5.956   2.985   3.315
10857SOL    HW233471   6.104   3.046   3.285
10858SOL     OW33472   1.979   2.834   6.476
10858SOL    HW133473   1.962   2.778   6.396
10858SOL    HW233474   1.994   2.775   6.556
10859SOL     OW33475   1.682   3.803   3.533
10859SOL    HW133476   1.591   3.786   3.569
10859SOL    HW233477   1.689   3.765   3.440
10860SOL     OW33478   6.399   1.232   6.332
10860SOL    HW133479   6.472   1.261   6.269
10860SOL    HW233480   6.440   1.190   6.413
10861SOL     OW33481   3.721   2.607   1.696
10861SOL    HW133482   3.714   2.687   1.756
10861SOL    HW233483   3.722   2.523   1.752
10862SOL     OW33484   2.476   1.698   6.272
10862SOL    HW133485   2.566   1.735   6.296
10862SOL    HW233486   2.428   1.671   6.356
10863SOL     OW33487   3.432   0.970   2.579
10863SOL    HW133488   3.361   0.916   2.535
10863SOL    HW233489   3.440   1.058   2.532
10864SOL     OW33490   2.063   4.455   1.258
10864SOL    HW133491   1.993   4.494   1.317
10864SOL    HW233492   2.145   4.434   1.311
10865SOL     OW33493   5.816   2.620   3.429
10865SOL    HW133494   5.820   2.536   3.376
10865SOL    HW233495   5.721   2.651   3.434
10866SOL     OW33496   5.643   3.406   0.932
10866SOL    HW133497   5.670   3.353   0.852
10866SOL    HW233498   5.685   3.496   0.929
10867SOL     OW33499   2.201   2.882   0.431
10867SOL    HW133500   2.114   2.886   0.383
10867SOL    HW233501   2.276   2.888   0.365
10868SOL     OW33502   1.564   2.245   3.075
10868SOL    HW133503   1.580   2.221   2.980
10868SOL    HW233504   1.539   2.341   3.081
10869NA      NA33505   0.657   2.223   6.392
10870NA      NA33506   4.376   4.551   5.279
10871NA      NA33507   2.082   4.727   2.503
10872NA      NA33508   5.200   4.626   3.862
10873NA      NA33509   4.366   2.445   5.206
10874NA      NA33510   3.402   4.232   1.556
10875NA      NA33511   1.098   4.698   0.232
10876NA      NA33512   4.077   4.128   1.592
10877NA      NA33513   4.465   4.322   1.045
10878NA      NA33514   3.628   1.071   5.449
10879NA      NA33515   5.194   5.646   1.543
10880NA      NA33516   1.532   0.563   5.769
10881NA      NA33517   4.890   4.869   2.350
10882NA      NA33518   3.645   3.270   0.550
   7.02260   7.02260   7.02260
