Generated by trjconv : CNT in water t= 233.00000
33518
    1C        C    1   2.844   2.770   4.747
    1C        C    2   2.901   2.723   4.867
    1C        C    3   2.853   2.780   4.986
    1C        C    4   2.857   2.783   4.263
    1C        C    5   2.909   2.733   4.384
    1C        C    6   2.852   2.776   4.506
    1C        C    7   3.017   2.641   4.628
    1C        C    8   2.901   2.722   4.627
    1C        C    9   3.081   2.607   4.749
    1C        C   10   3.010   2.633   4.868
    1C        C   11   3.182   2.494   4.978
    1C        C   12   3.062   2.566   4.980
    1C        C   13   2.858   2.777   3.774
    1C        C   14   2.908   2.728   3.896
    1C        C   15   2.858   2.778   4.018
    1C        C   16   3.023   2.649   4.140
    1C        C   17   2.910   2.734   4.142
    1C        C   18   3.083   2.612   4.263
    1C        C   19   3.021   2.646   4.385
    1C        C   20   3.213   2.556   4.508
    1C        C   21   3.082   2.609   4.507
    1C        C   22   3.280   2.532   4.629
    1C        C   23   3.209   2.544   4.750
    1C        C   24   3.416   2.479   4.867
    1C        C   25   3.274   2.500   4.869
    1C        C   26   3.491   2.478   4.985
    1C        C   27   2.858   2.775   3.283
    1C        C   28   2.910   2.729   3.406
    1C        C   29   2.860   2.778   3.528
    1C        C   30   3.021   2.642   3.652
    1C        C   31   2.911   2.730   3.651
    1C        C   32   3.079   2.602   3.775
    1C        C   33   3.019   2.640   3.897
    1C        C   34   3.212   2.552   4.019
    1C        C   35   3.081   2.605   4.019
    1C        C   36   3.280   2.532   4.141
    1C        C   37   3.214   2.560   4.263
    1C        C   38   3.419   2.509   4.384
    1C        C   39   3.281   2.539   4.385
    1C        C   40   3.488   2.501   4.507
    1C        C   41   3.419   2.505   4.630
    1C        C   42   3.634   2.481   4.745
    1C        C   43   3.492   2.475   4.747
    1C        C   44   3.708   2.486   4.865
    1C        C   45   3.630   2.489   4.982
    1C        C   46   2.836   2.755   2.795
    1C        C   47   2.892   2.713   2.918
    1C        C   48   2.840   2.763   3.039
    1C        C   49   3.017   2.639   3.164
    1C        C   50   2.905   2.726   3.159
    1C        C   51   3.079   2.602   3.285
    1C        C   52   3.021   2.641   3.408
    1C        C   53   3.213   2.549   3.528
    1C        C   54   3.084   2.607   3.530
    1C        C   55   3.278   2.530   3.652
    1C        C   56   3.211   2.552   3.775
    1C        C   57   3.418   2.505   3.895
    1C        C   58   3.278   2.529   3.897
    1C        C   59   3.488   2.498   4.017
    1C        C   60   3.419   2.504   4.140
    1C        C   61   3.631   2.500   4.260
    1C        C   62   3.490   2.498   4.262
    1C        C   63   3.703   2.502   4.381
    1C        C   64   3.630   2.497   4.502
    1C        C   65   3.837   2.542   4.623
    1C        C   66   3.701   2.501   4.623
    1C        C   67   3.908   2.566   4.742
    1C        C   68   3.840   2.536   4.862
    1C        C   69   4.050   2.591   4.978
    1C        C   70   3.923   2.532   4.975
    1C        C   71   2.826   2.737   2.311
    1C        C   72   2.884   2.695   2.433
    1C        C   73   2.827   2.746   2.552
    1C        C   74   3.006   2.629   2.677
    1C        C   75   2.887   2.705   2.673
    1C        C   76   3.071   2.599   2.799
    1C        C   77   3.010   2.635   2.921
    1C        C   78   3.207   2.549   3.041
    1C        C   79   3.078   2.605   3.041
    1C        C   80   3.276   2.523   3.161
    1C        C   81   3.210   2.549   3.283
    1C        C   82   3.416   2.496   3.405
    1C        C   83   3.278   2.525   3.405
    1C        C   84   3.488   2.490   3.527
    1C        C   85   3.417   2.502   3.648
    1C        C   86   3.627   2.503   3.771
    1C        C   87   3.486   2.497   3.771
    1C        C   88   3.700   2.508   3.892
    1C        C   89   3.630   2.500   4.014
    1C        C   90   3.834   2.553   4.137
    1C        C   91   3.699   2.513   4.137
    1C        C   92   3.904   2.570   4.258
    1C        C   93   3.840   2.536   4.379
    1C        C   94   4.026   2.638   4.500
    1C        C   95   3.905   2.565   4.501
    1C        C   96   4.090   2.676   4.620
    1C        C   97   4.036   2.629   4.742
    1C        C   98   4.196   2.766   4.862
    1C        C   99   4.103   2.657   4.863
    1C        C  100   4.219   2.844   4.977
    1C        C  101   2.828   2.737   2.071
    1C        C  102   2.990   2.595   2.195
    1C        C  103   2.874   2.679   2.190
    1C        C  104   3.064   2.577   2.315
    1C        C  105   3.004   2.621   2.435
    1C        C  106   3.202   2.540   2.555
    1C        C  107   3.072   2.596   2.557
    1C        C  108   3.270   2.520   2.676
    1C        C  109   3.201   2.543   2.797
    1C        C  110   3.412   2.499   2.917
    1C        C  111   3.274   2.531   2.917
    1C        C  112   3.484   2.488   3.038
    1C        C  113   3.415   2.498   3.161
    1C        C  114   3.627   2.501   3.281
    1C        C  115   3.486   2.493   3.283
    1C        C  116   3.697   2.512   3.404
    1C        C  117   3.629   2.501   3.527
    1C        C  118   3.836   2.546   3.647
    1C        C  119   3.699   2.511   3.650
    1C        C  120   3.900   2.573   3.770
    1C        C  121   3.835   2.549   3.893
    1C        C  122   4.026   2.644   4.012
    1C        C  123   3.900   2.580   4.015
    1C        C  124   4.085   2.683   4.135
    1C        C  125   4.025   2.644   4.256
    1C        C  126   4.195   2.768   4.378
    1C        C  127   4.086   2.678   4.379
    1C        C  128   4.240   2.826   4.498
    1C        C  129   4.193   2.773   4.620
    1C        C  130   4.333   2.934   4.743
    1C        C  131   4.248   2.821   4.741
    1C        C  132   4.357   3.008   4.861
    1C        C  133   4.291   2.963   4.975
    1C        C  134   3.172   2.473   2.084
    1C        C  135   3.038   2.512   2.089
    1C        C  136   3.260   2.487   2.193
    1C        C  137   3.196   2.523   2.313
    1C        C  138   3.407   2.484   2.431
    1C        C  139   3.268   2.509   2.434
    1C        C  140   3.482   2.486   2.551
    1C        C  141   3.409   2.494   2.672
    1C        C  142   3.621   2.493   2.794
    1C        C  143   3.480   2.490   2.794
    1C        C  144   3.695   2.504   2.914
    1C        C  145   3.625   2.497   3.037
    1C        C  146   3.834   2.538   3.157
    1C        C  147   3.697   2.506   3.158
    1C        C  148   3.900   2.567   3.279
    1C        C  149   3.834   2.545   3.401
    1C        C  150   4.028   2.630   3.524
    1C        C  151   3.902   2.567   3.524
    1C        C  152   4.085   2.674   3.645
    1C        C  153   4.022   2.644   3.768
    1C        C  154   4.195   2.769   3.890
    1C        C  155   4.083   2.684   3.889
    1C        C  156   4.247   2.820   4.011
    1C        C  157   4.194   2.772   4.133
    1C        C  158   4.336   2.927   4.256
    1C        C  159   4.247   2.817   4.256
    1C        C  160   4.376   2.987   4.378
    1C        C  161   4.329   2.936   4.501
    1C        C  162   4.446   3.116   4.620
    1C        C  163   4.374   2.994   4.622
    1C        C  164   4.476   3.186   4.738
    1C        C  165   4.434   3.127   4.859
    1C        C  166   4.518   3.323   4.979
    1C        C  167   4.486   3.188   4.974
    1C        C  168   3.478   2.438   2.079
    1C        C  169   3.399   2.462   2.192
    1C        C  170   3.619   2.469   2.310
    1C        C  171   3.477   2.464   2.310
    1C        C  172   3.694   2.486   2.428
    1C        C  173   3.623   2.492   2.550
    1C        C  174   3.829   2.542   2.669
    1C        C  175   3.693   2.504   2.672
    1C        C  176   3.897   2.564   2.791
    1C        C  177   3.829   2.548   2.914
    1C        C  178   4.026   2.628   3.033
    1C        C  179   3.898   2.568   3.035
    1C        C  180   4.086   2.667   3.156
    1C        C  181   4.026   2.631   3.279
    1C        C  182   4.197   2.755   3.398
    1C        C  183   4.089   2.664   3.401
    1C        C  184   4.246   2.806   3.521
    1C        C  185   4.198   2.759   3.644
    1C        C  186   4.337   2.922   3.766
    1C        C  187   4.248   2.811   3.766
    1C        C  188   4.380   2.982   3.886
    1C        C  189   4.336   2.929   4.010
    1C        C  190   4.445   3.108   4.132
    1C        C  191   4.376   2.985   4.134
    1C        C  192   4.473   3.174   4.254
    1C        C  193   4.445   3.110   4.376
    1C        C  194   4.512   3.315   4.495
    1C        C  195   4.473   3.179   4.496
    1C        C  196   4.524   3.390   4.615
    1C        C  197   4.514   3.323   4.739
    1C        C  198   4.553   3.536   4.856
    1C        C  199   4.541   3.393   4.859
    1C        C  200   4.589   3.623   4.963
    1C        C  201   3.617   2.424   2.073
    1C        C  202   3.826   2.515   2.184
    1C        C  203   3.690   2.470   2.187
    1C        C  204   3.896   2.546   2.304
    1C        C  205   3.830   2.523   2.427
    1C        C  206   4.022   2.625   2.544
    1C        C  207   3.898   2.558   2.546
    1C        C  208   4.086   2.661   2.665
    1C        C  209   4.023   2.628   2.787
    1C        C  210   4.197   2.748   2.908
    1C        C  211   4.083   2.664   2.909
    1C        C  212   4.244   2.804   3.029
    1C        C  213   4.194   2.757   3.152
    1C        C  214   4.334   2.914   3.275
    1C        C  215   4.247   2.803   3.275
    1C        C  216   4.372   2.975   3.397
    1C        C  217   4.332   2.918   3.520
    1C        C  218   4.437   3.104   3.641
    1C        C  219   4.371   2.979   3.642
    1C        C  220   4.466   3.171   3.762
    1C        C  221   4.445   3.107   3.886
    1C        C  222   4.507   3.309   4.008
    1C        C  223   4.471   3.172   4.009
    1C        C  224   4.520   3.382   4.128
    1C        C  225   4.506   3.311   4.250
    1C        C  226   4.529   3.523   4.371
    1C        C  227   4.521   3.382   4.371
    1C        C  228   4.525   3.600   4.489
    1C        C  229   4.532   3.531   4.612
    1C        C  230   4.503   3.743   4.730
    1C        C  231   4.537   3.605   4.732
    1C        C  232   4.495   3.821   4.847
    1C        C  233   4.539   3.754   4.963
    1C        C  234   4.016   2.614   2.067
    1C        C  235   3.895   2.545   2.066
    1C        C  236   4.087   2.653   2.182
    1C        C  237   4.023   2.611   2.300
    1C        C  238   4.199   2.737   2.420
    1C        C  239   4.084   2.654   2.420
    1C        C  240   4.254   2.787   2.540
    1C        C  241   4.200   2.744   2.663
    1C        C  242   4.338   2.904   2.786
    1C        C  243   4.249   2.795   2.786
    1C        C  244   4.380   2.963   2.907
    1C        C  245   4.336   2.911   3.031
    1C        C  246   4.439   3.098   3.151
    1C        C  247   4.375   2.972   3.153
    1C        C  248   4.462   3.165   3.273
    1C        C  249   4.433   3.102   3.396
    1C        C  250   4.501   3.304   3.517
    1C        C  251   4.460   3.169   3.518
    1C        C  252   4.517   3.374   3.638
    1C        C  253   4.502   3.308   3.762
    1C        C  254   4.526   3.518   3.880
    1C        C  255   4.519   3.377   3.885
    1C        C  256   4.517   3.589   4.002
    1C        C  257   4.520   3.523   4.126
    1C        C  258   4.491   3.732   4.243
    1C        C  259   4.517   3.594   4.249
    1C        C  260   4.467   3.802   4.364
    1C        C  261   4.488   3.736   4.487
    1C        C  262   4.425   3.941   4.604
    1C        C  263   4.474   3.808   4.608
    1C        C  264   4.392   4.005   4.725
    1C        C  265   4.431   3.946   4.848
    1C        C  266   4.320   4.135   4.959
    1C        C  267   4.396   4.019   4.962
    1C        C  268   4.267   2.777   2.062
    1C        C  269   4.203   2.733   2.178
    1C        C  270   4.345   2.894   2.298
    1C        C  271   4.256   2.784   2.299
    1C        C  272   4.386   2.955   2.419
    1C        C  273   4.346   2.895   2.541
    1C        C  274   4.447   3.082   2.664
    1C        C  275   4.382   2.956   2.662
    1C        C  276   4.470   3.153   2.784
    1C        C  277   4.450   3.086   2.907
    1C        C  278   4.506   3.295   3.026
    1C        C  279   4.471   3.158   3.027
    1C        C  280   4.517   3.367   3.147
    1C        C  281   4.502   3.301   3.271
    1C        C  282   4.521   3.513   3.392
    1C        C  283   4.514   3.372   3.393
    1C        C  284   4.519   3.585   3.514
    1C        C  285   4.521   3.516   3.637
    1C        C  286   4.500   3.728   3.755
    1C        C  287   4.520   3.589   3.758
    1C        C  288   4.476   3.795   3.877
    1C        C  289   4.497   3.729   4.001
    1C        C  290   4.428   3.933   4.117
    1C        C  291   4.478   3.801   4.120
    1C        C  292   4.398   4.000   4.238
    1C        C  293   4.419   3.935   4.361
    1C        C  294   4.317   4.122   4.480
    1C        C  295   4.393   4.003   4.482
    1C        C  296   4.278   4.183   4.601
    1C        C  297   4.323   4.129   4.724
    1C        C  298   4.199   4.316   4.841
    1C        C  299   4.281   4.199   4.841
    1C        C  300   4.172   4.407   4.948
    1C        C  301   4.359   2.881   2.060
    1C        C  302   4.476   3.068   2.179
    1C        C  303   4.400   2.946   2.178
    1C        C  304   4.485   3.143   2.299
    1C        C  305   4.450   3.081   2.421
    1C        C  306   4.511   3.285   2.538
    1C        C  307   4.474   3.149   2.542
    1C        C  308   4.511   3.359   2.658
    1C        C  309   4.504   3.290   2.781
    1C        C  310   4.526   3.502   2.901
    1C        C  311   4.519   3.361   2.902
    1C        C  312   4.517   3.574   3.022
    1C        C  313   4.517   3.508   3.147
    1C        C  314   4.486   3.719   3.267
    1C        C  315   4.515   3.580   3.268
    1C        C  316   4.477   3.791   3.388
    1C        C  317   4.499   3.725   3.511
    1C        C  318   4.430   3.927   3.631
    1C        C  319   4.483   3.797   3.632
    1C        C  320   4.393   3.990   3.752
    1C        C  321   4.421   3.925   3.874
    1C        C  322   4.317   4.113   3.992
    1C        C  323   4.394   3.995   3.994
    1C        C  324   4.279   4.174   4.114
    1C        C  325   4.327   4.122   4.236
    1C        C  326   4.195   4.292   4.355
    1C        C  327   4.285   4.183   4.356
    1C        C  328   4.139   4.341   4.475
    1C        C  329   4.188   4.292   4.597
    1C        C  330   4.025   4.435   4.716
    1C        C  331   4.141   4.352   4.716
    1C        C  332   3.972   4.495   4.832
    1C        C  333   4.053   4.481   4.945
    1C        C  334   4.552   3.268   2.064
    1C        C  335   4.540   3.128   2.066
    1C        C  336   4.539   3.352   2.175
    1C        C  337   4.518   3.281   2.296
    1C        C  338   4.525   3.497   2.415
    1C        C  339   4.526   3.355   2.416
    1C        C  340   4.526   3.571   2.535
    1C        C  341   4.519   3.500   2.657
    1C        C  342   4.498   3.712   2.777
    1C        C  343   4.520   3.572   2.778
    1C        C  344   4.479   3.782   2.898
    1C        C  345   4.492   3.713   3.021
    1C        C  346   4.420   3.915   3.139
    1C        C  347   4.468   3.782   3.142
    1C        C  348   4.390   3.981   3.260
    1C        C  349   4.427   3.923   3.384
    1C        C  350   4.322   4.106   3.504
    1C        C  351   4.399   3.987   3.506
    1C        C  352   4.275   4.165   3.624
    1C        C  353   4.316   4.109   3.747
    1C        C  354   4.180   4.271   3.869
    1C        C  355   4.278   4.170   3.868
    1C        C  356   4.125   4.317   3.991
    1C        C  357   4.179   4.273   4.114
    1C        C  358   4.015   4.410   4.231
    1C        C  359   4.130   4.329   4.235
    1C        C  360   3.955   4.451   4.352
    1C        C  361   4.018   4.415   4.474
    1C        C  362   3.831   4.519   4.596
    1C        C  363   3.957   4.457   4.594
    1C        C  364   3.763   4.552   4.716
    1C        C  365   3.838   4.540   4.835
    1C        C  366   3.629   4.601   4.953
    1C        C  367   3.765   4.572   4.950
    1C        C  368   4.504   3.563   2.054
    1C        C  369   4.533   3.493   2.172
    1C        C  370   4.509   3.707   2.289
    1C        C  371   4.523   3.566   2.292
    1C        C  372   4.485   3.776   2.410
    1C        C  373   4.504   3.711   2.534
    1C        C  374   4.428   3.910   2.649
    1C        C  375   4.487   3.782   2.655
    1C        C  376   4.395   3.973   2.771
    1C        C  377   4.432   3.915   2.894
    1C        C  378   4.320   4.098   3.013
    1C        C  379   4.394   3.978   3.015
    1C        C  380   4.278   4.157   3.134
    1C        C  381   4.315   4.101   3.258
    1C        C  382   4.178   4.260   3.380
    1C        C  383   4.277   4.159   3.382
    1C        C  384   4.125   4.312   3.500
    1C        C  385   4.177   4.267   3.623
    1C        C  386   4.007   4.391   3.744
    1C        C  387   4.127   4.316   3.746
    1C        C  388   3.946   4.432   3.865
    1C        C  389   4.010   4.399   3.986
    1C        C  390   3.821   4.496   4.112
    1C        C  391   3.950   4.439   4.108
    1C        C  392   3.755   4.522   4.234
    1C        C  393   3.827   4.509   4.355
    1C        C  394   3.619   4.559   4.475
    1C        C  395   3.758   4.533   4.476
    1C        C  396   3.549   4.572   4.597
    1C        C  397   3.623   4.574   4.717
    1C        C  398   3.412   4.557   4.839
    1C        C  399   3.551   4.582   4.838
    1C        C  400   3.343   4.527   4.958
    1C        C  401   4.503   3.702   2.052
    1C        C  402   4.459   3.916   2.167
    1C        C  403   4.491   3.778   2.169
    1C        C  404   4.413   3.976   2.285
    1C        C  405   4.440   3.910   2.407
    1C        C  406   4.329   4.096   2.524
    1C        C  407   4.406   3.977   2.527
    1C        C  408   4.284   4.150   2.646
    1C        C  409   4.319   4.092   2.770
    1C        C  410   4.179   4.255   2.890
    1C        C  411   4.276   4.152   2.890
    1C        C  412   4.124   4.299   3.012
    1C        C  413   4.181   4.260   3.136
    1C        C  414   4.010   4.386   3.255
    1C        C  415   4.126   4.306   3.257
    1C        C  416   3.947   4.423   3.376
    1C        C  417   4.006   4.388   3.500
    1C        C  418   3.816   4.483   3.621
    1C        C  419   3.943   4.422   3.622
    1C        C  420   3.751   4.511   3.744
    1C        C  421   3.816   4.486   3.867
    1C        C  422   3.614   4.543   3.987
    1C        C  423   3.752   4.515   3.990
    1C        C  424   3.544   4.541   4.110
    1C        C  425   3.616   4.546   4.232
    1C        C  426   3.405   4.553   4.360
    1C        C  427   3.546   4.558   4.354
    1C        C  428   3.332   4.550   4.481
    1C        C  429   3.407   4.564   4.600
    1C        C  430   3.196   4.524   4.722
    1C        C  431   3.336   4.551   4.721
    1C        C  432   3.126   4.493   4.842
    1C        C  433   3.207   4.498   4.956
    1C        C  434   4.388   4.123   2.051
    1C        C  435   4.450   3.997   2.053
    1C        C  436   4.307   4.163   2.163
    1C        C  437   4.334   4.095   2.284
    1C        C  438   4.185   4.252   2.403
    1C        C  439   4.290   4.157   2.403
    1C        C  440   4.128   4.294   2.525
    1C        C  441   4.184   4.250   2.646
    1C        C  442   4.012   4.381   2.767
    1C        C  443   4.128   4.300   2.766
    1C        C  444   3.948   4.417   2.887
    1C        C  445   4.006   4.377   3.010
    1C        C  446   3.815   4.468   3.132
    1C        C  447   3.945   4.413   3.132
    1C        C  448   3.751   4.497   3.255
    1C        C  449   3.817   4.477   3.378
    1C        C  450   3.610   4.534   3.498
    1C        C  451   3.749   4.504   3.499
    1C        C  452   3.543   4.543   3.622
    1C        C  453   3.614   4.545   3.745
    1C        C  454   3.401   4.553   3.867
    1C        C  455   3.543   4.556   3.866
    1C        C  456   3.335   4.530   3.990
    1C        C  457   3.403   4.534   4.114
    1C        C  458   3.199   4.506   4.235
    1C        C  459   3.335   4.542   4.237
    1C        C  460   3.129   4.489   4.357
    1C        C  461   3.195   4.518   4.479
    1C        C  462   2.999   4.438   4.601
    1C        C  463   3.128   4.496   4.602
    1C        C  464   2.932   4.406   4.721
    1C        C  465   2.991   4.447   4.844
    1C        C  466   2.806   4.338   4.961
    1C        C  467   2.909   4.433   4.961
    1C        C  468   4.124   4.283   2.043
    1C        C  469   4.187   4.241   2.161
    1C        C  470   4.011   4.373   2.280
    1C        C  471   4.130   4.295   2.280
    1C        C  472   3.944   4.403   2.400
    1C        C  473   4.010   4.372   2.521
    1C        C  474   3.817   4.459   2.645
    1C        C  475   3.949   4.408   2.643
    1C        C  476   3.750   4.487   2.766
    1C        C  477   3.817   4.469   2.889
    1C        C  478   3.609   4.519   3.009
    1C        C  479   3.747   4.489   3.010
    1C        C  480   3.540   4.532   3.132
    1C        C  481   3.613   4.525   3.253
    1C        C  482   3.401   4.532   3.378
    1C        C  483   3.542   4.534   3.375
    1C        C  484   3.331   4.528   3.501
    1C        C  485   3.402   4.544   3.622
    1C        C  486   3.197   4.496   3.747
    1C        C  487   3.331   4.541   3.745
    1C        C  488   3.133   4.468   3.869
    1C        C  489   3.199   4.495   3.991
    1C        C  490   3.009   4.408   4.115
    1C        C  491   3.131   4.478   4.114
    1C        C  492   2.950   4.373   4.238
    1C        C  493   3.006   4.420   4.359
    1C        C  494   2.830   4.304   4.484
    1C        C  495   2.941   4.391   4.481
    1C        C  496   2.773   4.261   4.606
    1C        C  497   2.822   4.316   4.726
    1C        C  498   2.670   4.164   4.845
    1C        C  499   2.759   4.274   4.845
    1C        C  500   2.599   4.120   4.957
    1C        C  501   4.007   4.358   2.041
    1C        C  502   3.818   4.460   2.158
    1C        C  503   3.949   4.407   2.159
    1C        C  504   3.746   4.477   2.278
    1C        C  505   3.810   4.450   2.401
    1C        C  506   3.608   4.507   2.521
    1C        C  507   3.746   4.475   2.524
    1C        C  508   3.539   4.515   2.644
    1C        C  509   3.610   4.509   2.766
    1C        C  510   3.397   4.524   2.889
    1C        C  511   3.538   4.524   2.887
    1C        C  512   3.328   4.522   3.012
    1C        C  513   3.398   4.532   3.134
    1C        C  514   3.192   4.487   3.258
    1C        C  515   3.329   4.522   3.257
    1C        C  516   3.126   4.467   3.381
    1C        C  517   3.194   4.493   3.502
    1C        C  518   3.003   4.409   3.626
    1C        C  519   3.130   4.471   3.625
    1C        C  520   2.944   4.369   3.748
    1C        C  521   3.009   4.400   3.870
    1C        C  522   2.837   4.282   3.995
    1C        C  523   2.948   4.370   3.993
    1C        C  524   2.787   4.237   4.120
    1C        C  525   2.838   4.287   4.242
    1C        C  526   2.693   4.138   4.363
    1C        C  527   2.778   4.251   4.364
    1C        C  528   2.650   4.083   4.486
    1C        C  529   2.684   4.151   4.605
    1C        C  530   2.580   3.965   4.733
    1C        C  531   2.636   4.095   4.726
    1C        C  532   2.541   3.904   4.855
    1C        C  533   2.527   4.000   4.961
    1C        C  534   3.621   4.559   2.042
    1C        C  535   3.752   4.511   2.046
    1C        C  536   3.538   4.539   2.157
    1C        C  537   3.607   4.508   2.277
    1C        C  538   3.396   4.513   2.403
    1C        C  539   3.537   4.514   2.399
    1C        C  540   3.326   4.504   2.525
    1C        C  541   3.398   4.516   2.646
    1C        C  542   3.189   4.481   2.768
    1C        C  543   3.325   4.517   2.767
    1C        C  544   3.122   4.461   2.891
    1C        C  545   3.192   4.485   3.011
    1C        C  546   3.002   4.399   3.138
    1C        C  547   3.126   4.467   3.135
    1C        C  548   2.943   4.360   3.260
    1C        C  549   3.002   4.399   3.383
    1C        C  550   2.831   4.277   3.505
    1C        C  551   2.941   4.366   3.506
    1C        C  552   2.780   4.231   3.629
    1C        C  553   2.836   4.278   3.749
    1C        C  554   2.698   4.122   3.876
    1C        C  555   2.790   4.229   3.873
    1C        C  556   2.657   4.066   3.999
    1C        C  557   2.695   4.130   4.118
    1C        C  558   2.595   3.948   4.245
    1C        C  559   2.654   4.076   4.242
    1C        C  560   2.570   3.884   4.369
    1C        C  561   2.593   3.954   4.490
    1C        C  562   2.533   3.754   4.617
    1C        C  563   2.569   3.890   4.613
    1C        C  564   2.515   3.684   4.739
    1C        C  565   2.525   3.762   4.857
    1C        C  566   2.534   3.549   4.979
    1C        C  567   2.531   3.688   4.976
    1C        C  568   3.327   4.483   2.044
    1C        C  569   3.397   4.517   2.160
    1C        C  570   3.185   4.477   2.280
    1C        C  571   3.324   4.505   2.281
    1C        C  572   3.117   4.458   2.403
    1C        C  573   3.187   4.480   2.524
    1C        C  574   2.990   4.403   2.652
    1C        C  575   3.120   4.459   2.647
    1C        C  576   2.930   4.364   2.774
    1C        C  577   2.994   4.401   2.894
    1C        C  578   2.829   4.271   3.020
    1C        C  579   2.941   4.358   3.018
    1C        C  580   2.776   4.224   3.142
    1C        C  581   2.831   4.274   3.262
    1C        C  582   2.691   4.115   3.386
    1C        C  583   2.782   4.223   3.384
    1C        C  584   2.651   4.060   3.510
    1C        C  585   2.691   4.121   3.631
    1C        C  586   2.589   3.938   3.759
    1C        C  587   2.657   4.062   3.754
    1C        C  588   2.562   3.874   3.882
    1C        C  589   2.591   3.941   4.003
    1C        C  590   2.535   3.739   4.129
    1C        C  591   2.567   3.877   4.127
    1C        C  592   2.522   3.676   4.255
    1C        C  593   2.531   3.749   4.376
    1C        C  594   2.525   3.537   4.499
    1C        C  595   2.524   3.678   4.498
    1C        C  596   2.530   3.466   4.621
    1C        C  597   2.519   3.542   4.740
    1C        C  598   2.538   3.331   4.870
    1C        C  599   2.527   3.472   4.863
    1C        C  600   2.537   3.247   4.981
    1C        C  601   3.195   4.442   2.043
    1C        C  602   2.982   4.396   2.162
    1C        C  603   3.117   4.446   2.160
    1C        C  604   2.926   4.361   2.288
    1C        C  605   2.988   4.401   2.409
    1C        C  606   2.822   4.271   2.531
    1C        C  607   2.929   4.364   2.531
    1C        C  608   2.774   4.220   2.654
    1C        C  609   2.823   4.273   2.775
    1C        C  610   2.691   4.109   2.896
    1C        C  611   2.780   4.219   2.899
    1C        C  612   2.650   4.054   3.019
    1C        C  613   2.688   4.113   3.142
    1C        C  614   2.582   3.931   3.269
    1C        C  615   2.647   4.057   3.265
    1C        C  616   2.560   3.868   3.394
    1C        C  617   2.588   3.934   3.516
    1C        C  618   2.523   3.734   3.639
    1C        C  619   2.559   3.871   3.639
    1C        C  620   2.516   3.666   3.762
    1C        C  621   2.526   3.737   3.884
    1C        C  622   2.510   3.529   4.009
    1C        C  623   2.515   3.670   4.007
    1C        C  624   2.513   3.463   4.134
    1C        C  625   2.515   3.535   4.255
    1C        C  626   2.545   3.326   4.380
    1C        C  627   2.522   3.465   4.378
    1C        C  628   2.559   3.257   4.503
    1C        C  629   2.548   3.326   4.626
    1C        C  630   2.602   3.125   4.747
    1C        C  631   2.556   3.259   4.750
    1C        C  632   2.622   3.052   4.868
    1C        C  633   2.563   3.109   4.985
    1C        C  634   2.785   4.299   2.056
    1C        C  635   2.892   4.390   2.052
    1C        C  636   2.748   4.231   2.173
    1C        C  637   2.812   4.277   2.290
    1C        C  638   2.676   4.113   2.411
    1C        C  639   2.764   4.223   2.412
    1C        C  640   2.639   4.051   2.532
    1C        C  641   2.683   4.112   2.652
    1C        C  642   2.581   3.926   2.780
    1C        C  643   2.647   4.051   2.775
    1C        C  644   2.561   3.858   2.902
    1C        C  645   2.586   3.928   3.023
    1C        C  646   2.519   3.730   3.150
    1C        C  647   2.561   3.865   3.147
    1C        C  648   2.508   3.659   3.272
    1C        C  649   2.525   3.731   3.393
    1C        C  650   2.508   3.523   3.517
    1C        C  651   2.510   3.665   3.516
    1C        C  652   2.510   3.457   3.641
    1C        C  653   2.508   3.525   3.765
    1C        C  654   2.535   3.316   3.890
    1C        C  655   2.512   3.456   3.888
    1C        C  656   2.559   3.254   4.015
    1C        C  657   2.543   3.325   4.137
    1C        C  658   2.615   3.125   4.260
    1C        C  659   2.560   3.256   4.259
    1C        C  660   2.643   3.062   4.383
    1C        C  661   2.606   3.124   4.505
    1C        C  662   2.713   2.941   4.627
    1C        C  663   2.636   3.060   4.627
    1C        C  664   2.753   2.879   4.747
    1C        C  665   2.704   2.934   4.868
    1C        C  666   2.745   2.867   4.984
    1C        C  667   2.671   4.030   2.052
    1C        C  668   2.688   4.103   2.171
    1C        C  669   2.587   3.915   2.293
    1C        C  670   2.643   4.045   2.291
    1C        C  671   2.559   3.850   2.415
    1C        C  672   2.580   3.923   2.535
    1C        C  673   2.517   3.724   2.662
    1C        C  674   2.556   3.859   2.659
    1C        C  675   2.507   3.651   2.783
    1C        C  676   2.522   3.722   2.904
    1C        C  677   2.503   3.516   3.029
    1C        C  678   2.511   3.657   3.029
    1C        C  679   2.503   3.447   3.152
    1C        C  680   2.497   3.519   3.274
    1C        C  681   2.533   3.310   3.402
    1C        C  682   2.511   3.449   3.396
    1C        C  683   2.555   3.247   3.526
    1C        C  684   2.538   3.318   3.647
    1C        C  685   2.613   3.119   3.773
    1C        C  686   2.556   3.248   3.768
    1C        C  687   2.648   3.059   3.896
    1C        C  688   2.614   3.124   4.016
    1C        C  689   2.719   2.941   4.140
    1C        C  690   2.644   3.061   4.138
    1C        C  691   2.763   2.889   4.263
    1C        C  692   2.720   2.943   4.386
    1C        C  693   2.766   2.888   4.507
    1C        C  694   2.627   3.897   2.057
    1C        C  695   2.524   3.708   2.177
    1C        C  696   2.579   3.838   2.174
    1C        C  697   2.505   3.641   2.301
    1C        C  698   2.518   3.715   2.420
    1C        C  699   2.482   3.508   2.544
    1C        C  700   2.501   3.648   2.543
    1C        C  701   2.494   3.436   2.665
    1C        C  702   2.496   3.511   2.785
    1C        C  703   2.518   3.301   2.912
    1C        C  704   2.500   3.441   2.909
    1C        C  705   2.543   3.236   3.035
    1C        C  706   2.533   3.309   3.156
    1C        C  707   2.605   3.111   3.283
    1C        C  708   2.556   3.243   3.279
    1C        C  709   2.640   3.051   3.406
    1C        C  710   2.609   3.116   3.527
    1C        C  711   2.719   2.937   3.650
    1C        C  712   2.638   3.053   3.650
    1C        C  713   2.764   2.883   3.772
    1C        C  714   2.725   2.940   3.895
    1C        C  715   2.765   2.885   4.019
    1C        C  716   2.450   3.501   2.064
    1C        C  717   2.486   3.636   2.063
    1C        C  718   2.466   3.425   2.185
    1C        C  719   2.485   3.501   2.304
    1C        C  720   2.510   3.292   2.427
    1C        C  721   2.481   3.430   2.426
    1C        C  722   2.539   3.228   2.550
    1C        C  723   2.512   3.296   2.671
    1C        C  724   2.578   3.094   2.793
    1C        C  725   2.532   3.227   2.793
    1C        C  726   2.614   3.033   2.916
    1C        C  727   2.587   3.102   3.037
    1C        C  728   2.712   2.931   3.161
    1C        C  729   2.634   3.049   3.159
    1C        C  730   2.763   2.878   3.282
    1C        C  731   2.721   2.935   3.405
    1C        C  732   2.765   2.882   3.528
    1C        C  733   2.495   3.199   2.076
    1C        C  734   2.489   3.284   2.188
    1C        C  735   2.583   3.088   2.308
    1C        C  736   2.527   3.219   2.308
    1C        C  737   2.618   3.026   2.430
    1C        C  738   2.589   3.096   2.549
    1C        C  739   2.693   2.913   2.674
    1C        C  740   2.617   3.032   2.672
    1C        C  741   2.739   2.857   2.796
    1C        C  742   2.697   2.919   2.916
    1C        C  743   2.746   2.868   3.039
    1C        C  744   2.549   3.071   2.074
    1C        C  745   2.685   2.899   2.188
    1C        C  746   2.605   3.015   2.189
    1C        C  747   2.731   2.843   2.310
    1C        C  748   2.688   2.903   2.430
    1C        C  749   2.734   2.852   2.553
    1C        C  750   2.741   2.845   2.071
    1C        C  751   3.659   2.294   2.015
    1C        O  752   3.662   2.182   2.072
    1C        O  753   3.714   2.282   1.886
    1C        C  754   4.662   3.065   2.010
    1C        O  755   4.689   3.054   1.887
    1C        O  756   4.751   2.985   2.081
    1C        C  757   4.419   4.216   1.941
    1C        O  758   4.522   4.288   1.942
    1C        O  759   4.351   4.215   1.818
    1C        C  760   3.589   4.658   1.936
    1C        O  761   3.605   4.783   1.941
    1C        O  762   3.553   4.606   1.811
    1C        C  763   2.858   4.515   1.980
    1C        O  764   2.909   4.535   1.867
    1C        O  765   2.740   4.586   2.004
    1C        C  766   2.344   3.468   1.966
    1C        O  767   2.371   3.471   1.843
    1C        O  768   2.216   3.517   1.994
    1C        C  769   4.717   3.587   5.027
    1C        O  770   4.726   3.566   5.151
    1C        O  771   4.839   3.586   4.957
    1C        C  772   4.287   4.459   5.025
    1C        O  773   4.324   4.403   5.132
    1C        O  774   4.366   4.560   4.969
    1C        C  775   4.133   2.506   5.067
    1C        O  776   4.217   2.431   5.011
    1C        O  777   4.165   2.559   5.193
    1C        C  778   2.879   4.546   5.052
    1C        O  779   2.812   4.645   5.012
    1C        O  780   2.922   4.563   5.184
    1C        C  781   2.467   3.030   5.065
    1C        O  782   2.367   2.961   5.029
    1C        O  783   2.484   3.017   5.202
    1C        C  784   2.411   4.001   5.053
    1C        O  785   2.301   4.045   5.011
    1C        O  786   2.430   3.985   5.191
    1C        C  787   2.947   2.447   1.992
    1C        O  788   2.952   2.474   1.869
    1C        O  789   2.893   2.320   2.005
    1C        C  790   3.185   2.372   5.063
    1C        O  791   3.118   2.267   5.043
    1C        O  792   3.243   2.380   5.190
    1C        H  793   4.292   3.012   5.070
    1C        H  794   4.177   2.810   5.069
    1C        H  795   4.519   3.128   5.056
    1C        H  796   4.579   3.352   5.062
    1C        H  797   4.550   3.813   5.051
    1C        H  798   4.434   3.996   5.059
    1C        H  799   4.273   4.169   5.049
    1C        H  800   4.013   4.511   5.039
    1C        H  801   3.810   4.572   5.047
    1C        H  802   3.600   4.668   5.031
    1C        H  803   3.400   4.469   5.027
    1C        H  804   3.157   4.496   5.051
    1C        H  805   3.889   2.480   5.062
    1C        H  806   3.674   2.516   5.076
    1C        H  807   3.002   2.550   5.067
    1C        H  808   3.450   2.544   5.059
    1C        H  809   2.923   2.781   5.066
    1C        H  810   2.683   2.876   5.071
    1C        H  811   2.478   3.288   5.061
    1C        H  812   2.577   3.503   5.066
    1C        H  813   2.530   3.737   5.071
    1C        H  814   2.581   4.187   5.038
    1C        H  815   2.801   4.282   5.051
    1C        H  816   2.747   2.911   1.987
    1C        H  817   2.880   2.714   1.981
    1C        H  818   3.186   2.381   2.030
    1C        H  819   3.428   2.430   1.984
    1C        H  820   3.882   2.478   1.984
    1C        H  821   4.067   2.617   1.973
    1C        H  822   4.259   2.713   1.977
    1C        H  823   4.416   2.891   1.969
    1C        H  824   4.595   3.311   1.976
    1C        H  825   4.479   3.514   1.962
    1C        H  826   4.567   3.745   1.978
    1C        H  827   3.783   4.462   1.956
    1C        H  828   3.963   4.374   1.945
    1C        H  829   4.154   4.246   1.947
    1C        H  830   4.490   3.967   1.958
    1C        H  831   2.657   3.833   1.977
    1C        H  832   2.697   4.067   1.955
    1C        H  833   2.726   4.287   1.968
    1C        H  834   3.378   4.486   1.950
    1C        H  835   3.165   4.370   1.970
    1C        H  836   2.525   3.008   1.990
    1C        H  837   2.444   3.233   1.989
    1C        H  838   2.446   3.698   1.986
    2V3OU   H29  839   2.807   3.554   2.393
    2V3OU   C27  840   2.791   3.507   2.493
    2V3OU   H27  841   2.734   3.572   2.564
    2V3OU   H28  842   2.742   3.407   2.483
    2V3OU   O11  843   2.910   3.479   2.567
    2V3OU   C15  844   2.919   3.395   2.676
    2V3OU   C13  845   3.051   3.375   2.721
    2V3OU   C14  846   3.076   3.274   2.815
    2V3OU   C16  847   2.982   3.194   2.879
    2V3OU    H6  848   3.002   3.105   2.941
    2V3OU   C12  849   3.216   3.233   2.837
    2V3OU    O2  850   3.244   3.128   2.899
    2V3OU   C10  851   3.327   3.305   2.773
    2V3OU    C8  852   3.460   3.267   2.787
    2V3OU   O10  853   3.495   3.157   2.860
    2V3OU   H26  854   3.411   3.116   2.888
    2V3OU    C6  855   3.567   3.349   2.741
    2V3OU    C5  856   3.538   3.468   2.674
    2V3OU    C4  857   3.705   3.294   2.746
    2V3OU    H4  858   3.722   3.227   2.835
    2V3OU    H5  859   3.718   3.228   2.654
    2V3OU    C2  860   3.814   3.401   2.749
    2V3OU    O6  861   3.801   3.481   2.867
    2V3OU   H21  862   3.766   3.561   2.825
    2V3OU    C3  863   3.783   3.499   2.636
    2V3OU    H2  864   3.861   3.580   2.633
    2V3OU    H3  865   3.788   3.441   2.541
    2V3OU   C25  866   3.946   3.327   2.731
    2V3OU    O7  867   3.993   3.291   2.622
    2V3OU   C26  868   4.028   3.284   2.852
    2V3OU   H22  869   4.059   3.379   2.902
    2V3OU   H23  870   4.121   3.232   2.818
    2V3OU    O8  871   3.959   3.207   2.947
    2V3OU   H24  872   3.923   3.270   3.012
    2V3OU    C1  873   3.647   3.566   2.646
    2V3OU    H1  874   3.629   3.623   2.550
    2V3OU    O3  875   3.662   3.659   2.754
    2V3OU   C19  876   3.618   3.794   2.740
    2V3OU    H9  877   3.519   3.804   2.687
    2V3OU    O4  878   3.718   3.848   2.657
    2V3OU   C20  879   3.844   3.878   2.717
    2V3OU   H10  880   3.894   3.777   2.729
    2V3OU   C24  881   3.612   3.856   2.880
    2V3OU   H16  882   3.548   3.793   2.947
    2V3OU   H17  883   3.563   3.956   2.871
    2V3OU   C23  884   3.750   3.877   2.943
    2V3OU   H15  885   3.792   3.773   2.960
    2V3OU    N1  886   3.734   3.952   3.066
    2V3OU   H19  887   3.812   3.927   3.124
    2V3OU   H20  888   3.648   3.927   3.109
    2V3OU   C21  889   3.855   3.948   2.853
    2V3OU   H11  890   3.954   3.926   2.902
    2V3OU    O5  891   3.842   4.089   2.851
    2V3OU   H18  892   3.785   4.101   2.929
    2V3OU   C22  893   3.919   3.953   2.608
    2V3OU   H12  894   3.869   4.052   2.596
    2V3OU   H13  895   3.917   3.893   2.513
    2V3OU   H14  896   4.027   3.963   2.638
    2V3OU   C11  897   3.159   3.471   2.691
    2V3OU    O1  898   3.137   3.589   2.655
    2V3OU    C9  899   3.300   3.429   2.710
    2V3OU    C7  900   3.402   3.507   2.657
    2V3OU    O9  901   3.382   3.619   2.579
    2V3OU   H25  902   3.287   3.636   2.584
    2V3OU   C17  903   2.827   3.320   2.752
    2V3OU    H7  904   2.725   3.353   2.737
    2V3OU   C18  905   2.849   3.226   2.853
    2V3OU    H8  906   2.776   3.179   2.920
    3SOL     OW  907   2.859   4.906   0.621
    3SOL    HW1  908   2.780   4.894   0.560
    3SOL    HW2  909   2.828   4.948   0.707
    4SOL     OW  910   0.186   6.326   2.159
    4SOL    HW1  911   0.222   6.318   2.252
    4SOL    HW2  912   0.259   6.354   2.097
    5SOL     OW  913   4.420   1.368   2.742
    5SOL    HW1  914   4.330   1.402   2.770
    5SOL    HW2  915   4.485   1.444   2.741
    6SOL     OW  916   4.236   0.707   1.798
    6SOL    HW1  917   4.185   0.676   1.718
    6SOL    HW2  918   4.288   0.790   1.774
    7SOL     OW  919   6.843   3.274   2.307
    7SOL    HW1  920   6.796   3.226   2.382
    7SOL    HW2  921   6.866   3.367   2.336
    8SOL     OW  922   3.168   0.649   0.021
    8SOL    HW1  923   3.073   0.642   7.018
    8SOL    HW2  924   3.193   0.567   0.073
    9SOL     OW  925   5.679   0.309   6.126
    9SOL    HW1  926   5.669   0.210   6.124
    9SOL    HW2  927   5.611   0.348   6.188
   10SOL     OW  928   1.549   5.083   6.473
   10SOL    HW1  929   1.584   5.038   6.555
   10SOL    HW2  930   1.562   5.023   6.394
   11SOL     OW  931   2.869   0.063   6.083
   11SOL    HW1  932   2.896   7.007   6.130
   11SOL    HW2  933   2.796   0.109   6.136
   12SOL     OW  934   3.625   5.906   3.372
   12SOL    HW1  935   3.585   5.980   3.317
   12SOL    HW2  936   3.674   5.843   3.313
   13SOL     OW  937   4.017   6.333   4.072
   13SOL    HW1  938   3.939   6.395   4.061
   13SOL    HW2  939   4.098   6.372   4.028
   14SOL     OW  940   3.330   6.038   5.664
   14SOL    HW1  941   3.269   6.083   5.600
   14SOL    HW2  942   3.421   6.028   5.623
   15SOL     OW  943   1.066   6.080   1.709
   15SOL    HW1  944   1.011   6.002   1.683
   15SOL    HW2  945   1.007   6.158   1.730
   16SOL     OW  946   4.821   2.734   5.824
   16SOL    HW1  947   4.898   2.797   5.817
   16SOL    HW2  948   4.737   2.785   5.840
   17SOL     OW  949   5.412   6.194   5.977
   17SOL    HW1  950   5.456   6.174   5.889
   17SOL    HW2  951   5.359   6.278   5.969
   18SOL     OW  952   3.468   1.121   6.005
   18SOL    HW1  953   3.415   1.174   6.071
   18SOL    HW2  954   3.426   1.031   5.992
   19SOL     OW  955   0.224   1.496   3.181
   19SOL    HW1  956   0.231   1.408   3.136
   19SOL    HW2  957   0.316   1.528   3.206
   20SOL     OW  958   5.377   1.824   3.917
   20SOL    HW1  959   5.306   1.850   3.852
   20SOL    HW2  960   5.439   1.759   3.875
   21SOL     OW  961   3.598   1.713   2.335
   21SOL    HW1  962   3.585   1.748   2.243
   21SOL    HW2  963   3.552   1.624   2.343
   22SOL     OW  964   2.286   6.501   0.468
   22SOL    HW1  965   2.351   6.485   0.542
   22SOL    HW2  966   2.335   6.540   0.390
   23SOL     OW  967   5.353   5.587   3.285
   23SOL    HW1  968   5.411   5.665   3.261
   23SOL    HW2  969   5.286   5.573   3.212
   24SOL     OW  970   4.368   0.457   3.375
   24SOL    HW1  971   4.432   0.533   3.366
   24SOL    HW2  972   4.307   0.473   3.453
   25SOL     OW  973   3.197   0.703   4.938
   25SOL    HW1  974   3.192   0.742   4.845
   25SOL    HW2  975   3.219   0.776   5.003
   26SOL     OW  976   0.511   0.818   0.145
   26SOL    HW1  977   0.574   0.872   0.090
   26SOL    HW2  978   0.519   0.844   0.241
   27SOL     OW  979   1.114   2.560   2.362
   27SOL    HW1  980   1.114   2.658   2.345
   27SOL    HW2  981   1.138   2.542   2.458
   28SOL     OW  982   2.999   2.062   5.525
   28SOL    HW1  983   2.968   2.144   5.477
   28SOL    HW2  984   3.060   2.089   5.600
   29SOL     OW  985   5.952   1.335   1.879
   29SOL    HW1  986   5.925   1.275   1.955
   29SOL    HW2  987   6.036   1.300   1.837
   30SOL     OW  988   4.290   0.629   4.335
   30SOL    HW1  989   4.384   0.607   4.310
   30SOL    HW2  990   4.267   0.586   4.422
   31SOL     OW  991   0.882   2.427   6.505
   31SOL    HW1  992   0.798   2.473   6.477
   31SOL    HW2  993   0.929   2.482   6.574
   32SOL     OW  994   0.379   1.605   2.369
   32SOL    HW1  995   0.447   1.585   2.298
   32SOL    HW2  996   0.324   1.684   2.341
   33SOL     OW  997   1.780   4.587   6.249
   33SOL    HW1  998   1.750   4.569   6.155
   33SOL    HW2  999   1.711   4.642   6.296
   34SOL     OW 1000   2.729   0.268   4.331
   34SOL    HW1 1001   2.822   0.234   4.316
   34SOL    HW2 1002   2.728   0.325   4.413
   35SOL     OW 1003   3.676   4.019   6.859
   35SOL    HW1 1004   3.661   4.033   6.761
   35SOL    HW2 1005   3.750   3.953   6.873
   36SOL     OW 1006   5.909   1.101   4.676
   36SOL    HW1 1007   5.898   1.003   4.689
   36SOL    HW2 1008   5.824   1.148   4.700
   37SOL     OW 1009   1.216   1.608   0.339
   37SOL    HW1 1010   1.270   1.611   0.255
   37SOL    HW2 1011   1.178   1.516   0.350
   38SOL     OW 1012   0.006   4.883   2.449
   38SOL    HW1 1013   7.024   4.788   2.420
   38SOL    HW2 1014   0.102   4.902   2.469
   39SOL     OW 1015   7.021   4.904   6.770
   39SOL    HW1 1016   7.021   5.000   6.798
   39SOL    HW2 1017   0.087   4.875   6.752
   40SOL     OW 1018   5.197   1.634   0.319
   40SOL    HW1 1019   5.226   1.565   0.385
   40SOL    HW2 1020   5.108   1.671   0.346
   41SOL     OW 1021   6.689   5.320   3.157
   41SOL    HW1 1022   6.669   5.387   3.229
   41SOL    HW2 1023   6.626   5.334   3.080
   42SOL     OW 1024   2.983   5.266   5.348
   42SOL    HW1 1025   2.910   5.227   5.292
   42SOL    HW2 1026   2.953   5.353   5.386
   43SOL     OW 1027   5.906   0.003   5.582
   43SOL    HW1 1028   6.001   0.029   5.603
   43SOL    HW2 1029   5.898   6.931   5.589
   44SOL     OW 1030   4.389   1.621   5.997
   44SOL    HW1 1031   4.429   1.699   6.046
   44SOL    HW2 1032   4.346   1.559   6.062
   45SOL     OW 1033   4.077   5.909   2.533
   45SOL    HW1 1034   4.110   5.888   2.625
   45SOL    HW2 1035   4.024   5.993   2.535
   46SOL     OW 1036   0.317   2.884   2.974
   46SOL    HW1 1037   0.410   2.919   2.966
   46SOL    HW2 1038   0.271   2.927   3.052
   47SOL     OW 1039   5.153   4.236   0.916
   47SOL    HW1 1040   5.068   4.235   0.864
   47SOL    HW2 1041   5.211   4.159   0.887
   48SOL     OW 1042   0.155   3.149   5.727
   48SOL    HW1 1043   0.243   3.179   5.689
   48SOL    HW2 1044   0.167   3.123   5.822
   49SOL     OW 1045   4.962   3.961   1.827
   49SOL    HW1 1046   4.970   3.864   1.807
   49SOL    HW2 1047   5.001   4.014   1.751
   50SOL     OW 1048   5.466   0.787   4.863
   50SOL    HW1 1049   5.515   0.874   4.861
   50SOL    HW2 1050   5.499   0.728   4.789
   51SOL     OW 1051   2.477   6.903   2.912
   51SOL    HW1 1052   2.436   6.936   2.827
   51SOL    HW2 1053   2.495   6.980   2.973
   52SOL     OW 1054   5.962   3.043   2.452
   52SOL    HW1 1055   5.959   2.945   2.472
   52SOL    HW2 1056   6.057   3.072   2.440
   53SOL     OW 1057   3.656   6.742   4.028
   53SOL    HW1 1058   3.567   6.696   4.027
   53SOL    HW2 1059   3.687   6.756   3.934
   54SOL     OW 1060   3.545   4.915   1.192
   54SOL    HW1 1061   3.528   4.989   1.257
   54SOL    HW2 1062   3.639   4.882   1.203
   55SOL     OW 1063   2.488   2.713   6.248
   55SOL    HW1 1064   2.410   2.662   6.211
   55SOL    HW2 1065   2.456   2.780   6.314
   56SOL     OW 1066   0.101   0.099   0.788
   56SOL    HW1 1067   0.161   0.120   0.711
   56SOL    HW2 1068   0.118   0.005   0.819
   57SOL     OW 1069   4.717   0.983   1.427
   57SOL    HW1 1070   4.760   1.066   1.461
   57SOL    HW2 1071   4.780   0.906   1.437
   58SOL     OW 1072   0.133   6.241   5.616
   58SOL    HW1 1073   0.194   6.227   5.694
   58SOL    HW2 1074   0.150   6.332   5.577
   59SOL     OW 1075   1.128   2.442   5.551
   59SOL    HW1 1076   1.167   2.389   5.626
   59SOL    HW2 1077   1.044   2.399   5.519
   60SOL     OW 1078   5.430   2.705   5.086
   60SOL    HW1 1079   5.502   2.692   5.018
   60SOL    HW2 1080   5.430   2.628   5.150
   61SOL     OW 1081   6.126   2.261   4.701
   61SOL    HW1 1082   6.088   2.343   4.658
   61SOL    HW2 1083   6.151   2.195   4.630
   62SOL     OW 1084   0.620   1.092   1.626
   62SOL    HW1 1085   0.614   1.135   1.716
   62SOL    HW2 1086   0.695   1.133   1.574
   63SOL     OW 1087   5.274   1.241   3.494
   63SOL    HW1 1088   5.182   1.201   3.497
   63SOL    HW2 1089   5.338   1.176   3.454
   64SOL     OW 1090   0.120   3.618   5.734
   64SOL    HW1 1091   0.204   3.567   5.718
   64SOL    HW2 1092   0.057   3.563   5.788
   65SOL     OW 1093   0.672   5.115   6.316
   65SOL    HW1 1094   0.737   5.052   6.358
   65SOL    HW2 1095   0.663   5.197   6.372
   66SOL     OW 1096   4.286   1.246   5.333
   66SOL    HW1 1097   4.317   1.189   5.257
   66SOL    HW2 1098   4.345   1.327   5.340
   67SOL     OW 1099   5.508   3.789   5.698
   67SOL    HW1 1100   5.495   3.715   5.764
   67SOL    HW2 1101   5.445   3.864   5.720
   68SOL     OW 1102   5.785   0.955   6.723
   68SOL    HW1 1103   5.739   0.975   6.637
   68SOL    HW2 1104   5.834   0.868   6.716
   69SOL     OW 1105   0.854   3.466   6.066
   69SOL    HW1 1106   0.859   3.451   5.967
   69SOL    HW2 1107   0.930   3.525   6.094
   70SOL     OW 1108   5.391   4.063   5.003
   70SOL    HW1 1109   5.332   4.014   4.939
   70SOL    HW2 1110   5.453   4.123   4.952
   71SOL     OW 1111   4.508   1.619   3.138
   71SOL    HW1 1112   4.471   1.539   3.185
   71SOL    HW2 1113   4.607   1.611   3.131
   72SOL     OW 1114   2.190   6.899   4.300
   72SOL    HW1 1115   2.102   6.923   4.257
   72SOL    HW2 1116   2.178   6.819   4.358
   73SOL     OW 1117   3.484   0.526   1.495
   73SOL    HW1 1118   3.540   0.471   1.434
   73SOL    HW2 1119   3.496   0.623   1.473
   74SOL     OW 1120   4.346   6.819   0.047
   74SOL    HW1 1121   4.282   6.872   7.019
   74SOL    HW2 1122   4.356   6.862   0.137
   75SOL     OW 1123   4.617   0.247   1.147
   75SOL    HW1 1124   4.700   0.195   1.167
   75SOL    HW2 1125   4.538   0.186   1.152
   76SOL     OW 1126   3.240   3.430   1.458
   76SOL    HW1 1127   3.323   3.421   1.513
   76SOL    HW2 1128   3.160   3.430   1.518
   77SOL     OW 1129   0.494   6.895   3.185
   77SOL    HW1 1130   0.488   6.803   3.145
   77SOL    HW2 1131   0.424   6.953   3.144
   78SOL     OW 1132   6.180   1.741   0.156
   78SOL    HW1 1133   6.113   1.795   0.106
   78SOL    HW2 1134   6.227   1.799   0.223
   79SOL     OW 1135   2.974   5.783   0.967
   79SOL    HW1 1136   3.050   5.728   1.001
   79SOL    HW2 1137   2.892   5.764   1.021
   80SOL     OW 1138   5.133   1.269   4.451
   80SOL    HW1 1139   5.133   1.324   4.367
   80SOL    HW2 1140   5.211   1.296   4.508
   81SOL     OW 1141   1.971   0.426   2.200
   81SOL    HW1 1142   1.954   0.491   2.126
   81SOL    HW2 1143   1.971   0.333   2.163
   82SOL     OW 1144   5.958   4.702   0.731
   82SOL    HW1 1145   6.027   4.630   0.730
   82SOL    HW2 1146   6.003   4.792   0.734
   83SOL     OW 1147   0.587   0.390   0.234
   83SOL    HW1 1148   0.682   0.358   0.230
   83SOL    HW2 1149   0.525   0.312   0.232
   84SOL     OW 1150   6.168   3.031   3.232
   84SOL    HW1 1151   6.229   2.999   3.160
   84SOL    HW2 1152   6.073   3.010   3.208
   85SOL     OW 1153   1.782   0.811   3.844
   85SOL    HW1 1154   1.706   0.747   3.855
   85SOL    HW2 1155   1.750   0.893   3.796
   86SOL     OW 1156   0.378   1.487   5.658
   86SOL    HW1 1157   0.293   1.454   5.618
   86SOL    HW2 1158   0.369   1.585   5.678
   87SOL     OW 1159   4.860   3.921   1.084
   87SOL    HW1 1160   4.886   3.834   1.042
   87SOL    HW2 1161   4.943   3.966   1.118
   88SOL     OW 1162   3.542   1.782   5.700
   88SOL    HW1 1163   3.446   1.782   5.671
   88SOL    HW2 1164   3.582   1.692   5.686
   89SOL     OW 1165   1.868   2.841   5.752
   89SOL    HW1 1166   1.938   2.836   5.824
   89SOL    HW2 1167   1.825   2.751   5.742
   90SOL     OW 1168   3.500   5.081   2.254
   90SOL    HW1 1169   3.555   5.116   2.329
   90SOL    HW2 1170   3.548   5.096   2.167
   91SOL     OW 1171   5.743   4.068   5.427
   91SOL    HW1 1172   5.664   4.127   5.439
   91SOL    HW2 1173   5.811   4.115   5.369
   92SOL     OW 1174   4.347   4.667   0.652
   92SOL    HW1 1175   4.296   4.612   0.586
   92SOL    HW2 1176   4.376   4.753   0.609
   93SOL     OW 1177   3.150   3.808   0.202
   93SOL    HW1 1178   3.056   3.784   0.225
   93SOL    HW2 1179   3.152   3.898   0.159
   94SOL     OW 1180   2.088   6.010   6.255
   94SOL    HW1 1181   2.029   6.087   6.230
   94SOL    HW2 1182   2.045   5.958   6.329
   95SOL     OW 1183   0.888   0.348   3.421
   95SOL    HW1 1184   0.965   0.396   3.464
   95SOL    HW2 1185   0.863   0.269   3.478
   96SOL     OW 1186   2.837   0.868   4.896
   96SOL    HW1 1187   2.855   0.939   4.828
   96SOL    HW2 1188   2.838   0.909   4.987
   97SOL     OW 1189   2.360   3.329   6.190
   97SOL    HW1 1190   2.277   3.300   6.143
   97SOL    HW2 1191   2.440   3.298   6.139
   98SOL     OW 1192   0.839   3.488   1.077
   98SOL    HW1 1193   0.862   3.486   1.174
   98SOL    HW2 1194   0.885   3.412   1.030
   99SOL     OW 1195   3.985   2.434   1.337
   99SOL    HW1 1196   4.055   2.505   1.343
   99SOL    HW2 1197   4.023   2.353   1.293
  100SOL     OW 1198   0.346   6.909   4.947
  100SOL    HW1 1199   0.300   6.820   4.940
  100SOL    HW2 1200   0.316   6.955   5.031
  101SOL     OW 1201   1.391   5.212   2.541
  101SOL    HW1 1202   1.306   5.190   2.589
  101SOL    HW2 1203   1.398   5.156   2.459
  102SOL     OW 1204   4.114   5.660   1.578
  102SOL    HW1 1205   4.127   5.566   1.609
  102SOL    HW2 1206   4.199   5.712   1.590
  103SOL     OW 1207   2.225   2.133   1.541
  103SOL    HW1 1208   2.321   2.141   1.565
  103SOL    HW2 1209   2.216   2.119   1.442
  104SOL     OW 1210   1.286   5.401   2.253
  104SOL    HW1 1211   1.329   5.352   2.177
  104SOL    HW2 1212   1.244   5.336   2.315
  105SOL     OW 1213   6.491   1.501   6.805
  105SOL    HW1 1214   6.416   1.501   6.872
  105SOL    HW2 1215   6.557   1.573   6.828
  106SOL     OW 1216   3.550   6.034   4.720
  106SOL    HW1 1217   3.504   5.948   4.699
  106SOL    HW2 1218   3.585   6.075   4.635
  107SOL     OW 1219   1.233   1.072   1.278
  107SOL    HW1 1220   1.295   1.007   1.323
  107SOL    HW2 1221   1.229   1.051   1.181
  108SOL     OW 1222   2.393   6.515   5.636
  108SOL    HW1 1223   2.372   6.422   5.608
  108SOL    HW2 1224   2.334   6.541   5.713
  109SOL     OW 1225   0.849   0.520   1.952
  109SOL    HW1 1226   0.784   0.448   1.928
  109SOL    HW2 1227   0.908   0.489   2.026
  110SOL     OW 1228   2.917   5.681   4.158
  110SOL    HW1 1229   2.855   5.751   4.193
  110SOL    HW2 1230   2.915   5.602   4.219
  111SOL     OW 1231   1.335   0.895   4.342
  111SOL    HW1 1232   1.367   0.875   4.435
  111SOL    HW2 1233   1.353   0.816   4.284
  112SOL     OW 1234   3.422   6.581   6.363
  112SOL    HW1 1235   3.445   6.675   6.390
  112SOL    HW2 1236   3.505   6.527   6.353
  113SOL     OW 1237   0.569   5.156   3.087
  113SOL    HW1 1238   0.547   5.060   3.105
  113SOL    HW2 1239   0.517   5.215   3.150
  114SOL     OW 1240   1.282   6.829   2.127
  114SOL    HW1 1241   1.223   6.829   2.208
  114SOL    HW2 1242   1.227   6.848   2.045
  115SOL     OW 1243   4.968   1.557   3.316
  115SOL    HW1 1244   4.931   1.539   3.408
  115SOL    HW2 1245   5.012   1.647   3.316
  116SOL     OW 1246   6.133   5.614   2.004
  116SOL    HW1 1247   6.081   5.603   2.089
  116SOL    HW2 1248   6.127   5.709   1.973
  117SOL     OW 1249   1.497   1.930   0.486
  117SOL    HW1 1250   1.410   1.910   0.440
  117SOL    HW2 1251   1.496   1.887   0.577
  118SOL     OW 1252   1.892   0.963   2.373
  118SOL    HW1 1253   1.877   1.008   2.284
  118SOL    HW2 1254   1.928   0.871   2.357
  119SOL     OW 1255   0.377   0.214   0.127
  119SOL    HW1 1256   0.344   0.167   0.045
  119SOL    HW2 1257   0.446   0.158   0.172
  120SOL     OW 1258   5.382   0.560   6.705
  120SOL    HW1 1259   5.423   0.516   6.625
  120SOL    HW2 1260   5.323   0.636   6.675
  121SOL     OW 1261   1.251   3.139   5.817
  121SOL    HW1 1262   1.287   3.222   5.775
  121SOL    HW2 1263   1.214   3.160   5.907
  122SOL     OW 1264   1.857   3.384   6.202
  122SOL    HW1 1265   1.802   3.427   6.130
  122SOL    HW2 1266   1.944   3.433   6.210
  123SOL     OW 1267   0.672   1.144   2.553
  123SOL    HW1 1268   0.772   1.150   2.561
  123SOL    HW2 1269   0.635   1.232   2.524
  124SOL     OW 1270   3.753   2.590   0.246
  124SOL    HW1 1271   3.700   2.590   0.161
  124SOL    HW2 1272   3.697   2.626   0.320
  125SOL     OW 1273   3.631   1.797   0.559
  125SOL    HW1 1274   3.661   1.887   0.591
  125SOL    HW2 1275   3.586   1.749   0.634
  126SOL     OW 1276   2.039   4.210   0.691
  126SOL    HW1 1277   1.941   4.231   0.689
  126SOL    HW2 1278   2.088   4.268   0.626
  127SOL     OW 1279   0.646   5.004   6.962
  127SOL    HW1 1280   0.651   5.047   6.871
  127SOL    HW2 1281   0.673   4.908   6.955
  128SOL     OW 1282   5.268   1.917   1.258
  128SOL    HW1 1283   5.184   1.958   1.222
  128SOL    HW2 1284   5.256   1.898   1.355
  129SOL     OW 1285   2.654   3.314   6.317
  129SOL    HW1 1286   2.695   3.361   6.238
  129SOL    HW2 1287   2.660   3.215   6.303
  130SOL     OW 1288   1.314   1.881   4.421
  130SOL    HW1 1289   1.287   1.871   4.326
  130SOL    HW2 1290   1.405   1.841   4.435
  131SOL     OW 1291   4.540   1.006   3.301
  131SOL    HW1 1292   4.587   1.094   3.304
  131SOL    HW2 1293   4.586   0.941   3.362
  132SOL     OW 1294   2.942   3.097   1.568
  132SOL    HW1 1295   2.975   3.015   1.614
  132SOL    HW2 1296   2.842   3.097   1.570
  133SOL     OW 1297   5.267   0.879   4.245
  133SOL    HW1 1298   5.343   0.818   4.265
  133SOL    HW2 1299   5.205   0.882   4.323
  134SOL     OW 1300   6.622   0.831   2.530
  134SOL    HW1 1301   6.540   0.803   2.480
  134SOL    HW2 1302   6.597   0.865   2.620
  135SOL     OW 1303   5.705   3.628   3.627
  135SOL    HW1 1304   5.745   3.647   3.537
  135SOL    HW2 1305   5.777   3.599   3.690
  136SOL     OW 1306   1.958   4.876   6.181
  136SOL    HW1 1307   1.935   4.859   6.085
  136SOL    HW2 1308   1.987   4.791   6.224
  137SOL     OW 1309   5.803   2.057   3.306
  137SOL    HW1 1310   5.896   2.058   3.269
  137SOL    HW2 1311   5.773   1.963   3.319
  138SOL     OW 1312   1.204   4.590   2.379
  138SOL    HW1 1313   1.148   4.556   2.455
  138SOL    HW2 1314   1.293   4.546   2.380
  139SOL     OW 1315   1.431   0.137   5.397
  139SOL    HW1 1316   1.421   0.054   5.342
  139SOL    HW2 1317   1.432   0.217   5.337
  140SOL     OW 1318   1.270   6.460   3.777
  140SOL    HW1 1319   1.345   6.447   3.712
  140SOL    HW2 1320   1.248   6.557   3.783
  141SOL     OW 1321   0.225   2.655   5.069
  141SOL    HW1 1322   0.189   2.691   5.155
  141SOL    HW2 1323   0.309   2.704   5.045
  142SOL     OW 1324   1.197   4.004   1.349
  142SOL    HW1 1325   1.175   3.920   1.399
  142SOL    HW2 1326   1.148   4.081   1.390
  143SOL     OW 1327   5.399   4.217   0.424
  143SOL    HW1 1328   5.494   4.193   0.406
  143SOL    HW2 1329   5.357   4.249   0.339
  144SOL     OW 1330   1.665   4.612   5.992
  144SOL    HW1 1331   1.640   4.597   5.896
  144SOL    HW2 1332   1.704   4.704   6.003
  145SOL     OW 1333   0.637   5.391   0.806
  145SOL    HW1 1334   0.714   5.428   0.753
  145SOL    HW2 1335   0.597   5.463   0.862
  146SOL     OW 1336   4.726   0.628   5.908
  146SOL    HW1 1337   4.798   0.558   5.907
  146SOL    HW2 1338   4.641   0.588   5.872
  147SOL     OW 1339   5.776   3.138   6.862
  147SOL    HW1 1340   5.856   3.191   6.834
  147SOL    HW2 1341   5.789   3.106   6.955
  148SOL     OW 1342   6.606   5.475   0.902
  148SOL    HW1 1343   6.579   5.483   0.998
  148SOL    HW2 1344   6.571   5.554   0.851
  149SOL     OW 1345   4.268   2.313   4.157
  149SOL    HW1 1346   4.361   2.276   4.163
  149SOL    HW2 1347   4.231   2.295   4.066
  150SOL     OW 1348   6.005   6.873   0.813
  150SOL    HW1 1349   5.914   6.863   0.773
  150SOL    HW2 1350   6.072   6.830   0.753
  151SOL     OW 1351   2.958   2.276   1.250
  151SOL    HW1 1352   2.995   2.229   1.170
  151SOL    HW2 1353   2.972   2.220   1.332
  152SOL     OW 1354   0.125   0.521   1.739
  152SOL    HW1 1355   0.192   0.584   1.779
  152SOL    HW2 1356   0.035   0.566   1.735
  153SOL     OW 1357   2.775   1.005   3.498
  153SOL    HW1 1358   2.788   1.027   3.402
  153SOL    HW2 1359   2.727   0.917   3.506
  154SOL     OW 1360   0.948   3.478   2.062
  154SOL    HW1 1361   0.954   3.382   2.088
  154SOL    HW2 1362   1.015   3.497   1.990
  155SOL     OW 1363   0.607   1.437   4.301
  155SOL    HW1 1364   0.602   1.404   4.207
  155SOL    HW2 1365   0.669   1.515   4.306
  156SOL     OW 1366   0.041   0.485   0.709
  156SOL    HW1 1367   0.087   0.514   0.792
  156SOL    HW2 1368   0.007   0.565   0.659
  157SOL     OW 1369   5.294   3.105   1.707
  157SOL    HW1 1370   5.231   3.027   1.701
  157SOL    HW2 1371   5.310   3.126   1.804
  158SOL     OW 1372   1.907   4.100   2.488
  158SOL    HW1 1373   1.884   4.004   2.508
  158SOL    HW2 1374   2.005   4.114   2.505
  159SOL     OW 1375   4.873   3.802   2.845
  159SOL    HW1 1376   4.862   3.703   2.845
  159SOL    HW2 1377   4.852   3.838   2.755
  160SOL     OW 1378   5.384   5.889   1.016
  160SOL    HW1 1379   5.474   5.927   0.997
  160SOL    HW2 1380   5.348   5.846   0.933
  161SOL     OW 1381   1.838   5.906   3.660
  161SOL    HW1 1382   1.835   5.849   3.743
  161SOL    HW2 1383   1.848   6.002   3.687
  162SOL     OW 1384   3.536   6.193   0.411
  162SOL    HW1 1385   3.585   6.166   0.494
  162SOL    HW2 1386   3.577   6.149   0.331
  163SOL     OW 1387   6.164   5.792   1.158
  163SOL    HW1 1388   6.150   5.845   1.075
  163SOL    HW2 1389   6.217   5.846   1.223
  164SOL     OW 1390   6.746   4.087   2.126
  164SOL    HW1 1391   6.660   4.084   2.176
  164SOL    HW2 1392   6.822   4.087   2.191
  165SOL     OW 1393   5.261   3.102   1.273
  165SOL    HW1 1394   5.291   3.038   1.203
  165SOL    HW2 1395   5.318   3.184   1.270
  166SOL     OW 1396   1.225   3.989   2.461
  166SOL    HW1 1397   1.181   4.040   2.387
  166SOL    HW2 1398   1.291   3.924   2.423
  167SOL     OW 1399   5.009   3.111   6.906
  167SOL    HW1 1400   5.030   3.017   6.934
  167SOL    HW2 1401   4.928   3.111   6.847
  168SOL     OW 1402   3.126   3.096   1.362
  168SOL    HW1 1403   3.141   3.148   1.446
  168SOL    HW2 1404   3.065   3.019   1.381
  169SOL     OW 1405   5.497   1.967   1.534
  169SOL    HW1 1406   5.470   1.915   1.453
  169SOL    HW2 1407   5.557   1.911   1.591
  170SOL     OW 1408   0.758   0.124   2.820
  170SOL    HW1 1409   0.666   0.151   2.845
  170SOL    HW2 1410   0.786   0.171   2.737
  171SOL     OW 1411   2.508   4.598   6.704
  171SOL    HW1 1412   2.551   4.510   6.728
  171SOL    HW2 1413   2.578   4.661   6.671
  172SOL     OW 1414   6.545   1.185   2.782
  172SOL    HW1 1415   6.477   1.227   2.721
  172SOL    HW2 1416   6.506   1.176   2.874
  173SOL     OW 1417   6.455   1.000   4.054
  173SOL    HW1 1418   6.415   1.062   3.986
  173SOL    HW2 1419   6.551   1.024   4.069
  174SOL     OW 1420   3.848   5.539   3.528
  174SOL    HW1 1421   3.778   5.610   3.524
  174SOL    HW2 1422   3.879   5.518   3.435
  175SOL     OW 1423   3.267   0.043   1.888
  175SOL    HW1 1424   3.365   0.056   1.874
  175SOL    HW2 1425   3.227   0.128   1.923
  176SOL     OW 1426   6.755   4.120   0.836
  176SOL    HW1 1427   6.725   4.057   0.908
  176SOL    HW2 1428   6.701   4.204   0.842
  177SOL     OW 1429   5.676   2.796   2.574
  177SOL    HW1 1430   5.664   2.745   2.488
  177SOL    HW2 1431   5.771   2.785   2.605
  178SOL     OW 1432   2.369   3.180   6.522
  178SOL    HW1 1433   2.319   3.169   6.436
  178SOL    HW2 1434   2.403   3.274   6.529
  179SOL     OW 1435   4.291   1.582   5.434
  179SOL    HW1 1436   4.289   1.640   5.516
  179SOL    HW2 1437   4.238   1.625   5.362
  180SOL     OW 1438   2.236   6.804   0.242
  180SOL    HW1 1439   2.137   6.797   0.228
  180SOL    HW2 1440   2.254   6.825   0.338
  181SOL     OW 1441   3.402   3.311   6.022
  181SOL    HW1 1442   3.342   3.350   5.952
  181SOL    HW2 1443   3.349   3.295   6.105
  182SOL     OW 1444   3.656   2.116   5.262
  182SOL    HW1 1445   3.559   2.142   5.255
  182SOL    HW2 1446   3.680   2.058   5.184
  183SOL     OW 1447   3.750   2.122   3.329
  183SOL    HW1 1448   3.786   2.030   3.342
  183SOL    HW2 1449   3.826   2.188   3.334
  184SOL     OW 1450   0.811   6.532   4.562
  184SOL    HW1 1451   0.854   6.539   4.652
  184SOL    HW2 1452   0.711   6.535   4.573
  185SOL     OW 1453   1.077   1.294   6.193
  185SOL    HW1 1454   1.005   1.225   6.183
  185SOL    HW2 1455   1.165   1.248   6.207
  186SOL     OW 1456   5.463   0.658   4.256
  186SOL    HW1 1457   5.531   0.592   4.287
  186SOL    HW2 1458   5.419   0.623   4.172
  187SOL     OW 1459   4.850   0.175   2.340
  187SOL    HW1 1460   4.910   0.135   2.271
  187SOL    HW2 1461   4.886   0.153   2.431
  188SOL     OW 1462   0.732   2.736   2.951
  188SOL    HW1 1463   0.813   2.790   2.974
  188SOL    HW2 1464   0.735   2.649   3.000
  189SOL     OW 1465   2.121   4.981   1.311
  189SOL    HW1 1466   2.027   4.955   1.289
  189SOL    HW2 1467   2.121   5.052   1.381
  190SOL     OW 1468   4.925   2.615   4.833
  190SOL    HW1 1469   4.921   2.550   4.758
  190SOL    HW2 1470   4.838   2.663   4.840
  191SOL     OW 1471   5.686   0.536   6.778
  191SOL    HW1 1472   5.607   0.550   6.719
  191SOL    HW2 1473   5.675   0.450   6.828
  192SOL     OW 1474   0.965   5.485   2.001
  192SOL    HW1 1475   0.933   5.543   1.927
  192SOL    HW2 1476   1.026   5.537   2.061
  193SOL     OW 1477   4.402   3.604   5.226
  193SOL    HW1 1478   4.317   3.581   5.179
  193SOL    HW2 1479   4.480   3.565   5.175
  194SOL     OW 1480   4.121   1.213   3.180
  194SOL    HW1 1481   4.200   1.209   3.242
  194SOL    HW2 1482   4.139   1.156   3.100
  195SOL     OW 1483   1.556   0.104   4.525
  195SOL    HW1 1484   1.472   0.077   4.572
  195SOL    HW2 1485   1.621   0.140   4.592
  196SOL     OW 1486   2.723   0.773   0.929
  196SOL    HW1 1487   2.730   0.855   0.985
  196SOL    HW2 1488   2.646   0.718   0.960
  197SOL     OW 1489   2.708   6.983   1.684
  197SOL    HW1 1490   2.609   6.995   1.695
  197SOL    HW2 1491   2.730   6.969   1.588
  198SOL     OW 1492   5.265   0.063   1.360
  198SOL    HW1 1493   5.198   0.074   1.433
  198SOL    HW2 1494   5.230   0.103   1.276
  199SOL     OW 1495   0.429   1.480   3.997
  199SOL    HW1 1496   0.499   1.419   3.961
  199SOL    HW2 1497   0.339   1.436   3.990
  200SOL     OW 1498   0.620   4.246   1.651
  200SOL    HW1 1499   0.687   4.321   1.661
  200SOL    HW2 1500   0.606   4.226   1.554
  201SOL     OW 1501   6.498   6.767   5.905
  201SOL    HW1 1502   6.589   6.727   5.896
  201SOL    HW2 1503   6.493   6.854   5.856
  202SOL     OW 1504   4.430   0.996   6.564
  202SOL    HW1 1505   4.338   0.967   6.592
  202SOL    HW2 1506   4.433   1.096   6.564
  203SOL     OW 1507   4.908   2.444   4.368
  203SOL    HW1 1508   5.002   2.473   4.387
  203SOL    HW2 1509   4.908   2.374   4.297
  204SOL     OW 1510   0.780   0.957   5.966
  204SOL    HW1 1511   0.787   0.878   6.028
  204SOL    HW2 1512   0.694   0.952   5.916
  205SOL     OW 1513   0.692   1.226   2.914
  205SOL    HW1 1514   0.770   1.249   2.972
  205SOL    HW2 1515   0.722   1.165   2.840
  206SOL     OW 1516   6.879   4.745   1.053
  206SOL    HW1 1517   6.872   4.653   1.092
  206SOL    HW2 1518   6.913   4.739   0.960
  207SOL     OW 1519   5.755   1.586   3.297
  207SOL    HW1 1520   5.827   1.518   3.288
  207SOL    HW2 1521   5.709   1.576   3.385
  208SOL     OW 1522   5.554   2.545   4.882
  208SOL    HW1 1523   5.542   2.471   4.816
  208SOL    HW2 1524   5.650   2.547   4.912
  209SOL     OW 1525   0.365   4.528   3.713
  209SOL    HW1 1526   0.395   4.520   3.618
  209SOL    HW2 1527   0.369   4.438   3.757
  210SOL     OW 1528   4.091   2.258   1.004
  210SOL    HW1 1529   4.131   2.279   1.094
  210SOL    HW2 1530   3.992   2.265   1.010
  211SOL     OW 1531   2.355   5.975   2.838
  211SOL    HW1 1532   2.379   5.936   2.927
  211SOL    HW2 1533   2.327   5.902   2.776
  212SOL     OW 1534   1.089   4.542   1.476
  212SOL    HW1 1535   1.107   4.635   1.510
  212SOL    HW2 1536   1.175   4.492   1.467
  213SOL     OW 1537   3.453   0.644   0.695
  213SOL    HW1 1538   3.359   0.611   0.697
  213SOL    HW2 1539   3.459   0.723   0.634
  214SOL     OW 1540   4.886   5.017   1.443
  214SOL    HW1 1541   4.897   4.922   1.474
  214SOL    HW2 1542   4.869   5.017   1.344
  215SOL     OW 1543   2.521   3.731   0.719
  215SOL    HW1 1544   2.550   3.644   0.759
  215SOL    HW2 1545   2.529   3.726   0.619
  216SOL     OW 1546   2.380   5.804   3.818
  216SOL    HW1 1547   2.335   5.731   3.766
  216SOL    HW2 1548   2.424   5.765   3.899
  217SOL     OW 1549   1.269   2.399   3.971
  217SOL    HW1 1550   1.320   2.328   4.018
  217SOL    HW2 1551   1.172   2.390   3.992
  218SOL     OW 1552   0.515   4.026   4.434
  218SOL    HW1 1553   0.522   3.987   4.342
  218SOL    HW2 1554   0.511   4.126   4.428
  219SOL     OW 1555   4.463   6.999   6.443
  219SOL    HW1 1556   4.551   6.952   6.435
  219SOL    HW2 1557   4.395   6.955   6.384
  220SOL     OW 1558   2.710   0.229   1.033
  220SOL    HW1 1559   2.679   0.279   0.952
  220SOL    HW2 1560   2.810   0.227   1.034
  221SOL     OW 1561   6.651   3.095   1.317
  221SOL    HW1 1562   6.610   3.042   1.391
  221SOL    HW2 1563   6.707   3.168   1.355
  222SOL     OW 1564   2.329   5.217   5.772
  222SOL    HW1 1565   2.360   5.298   5.722
  222SOL    HW2 1566   2.400   5.147   5.767
  223SOL     OW 1567   6.064   2.871   6.743
  223SOL    HW1 1568   5.990   2.860   6.677
  223SOL    HW2 1569   6.049   2.808   6.820
  224SOL     OW 1570   1.606   1.502   4.684
  224SOL    HW1 1571   1.522   1.447   4.686
  224SOL    HW2 1572   1.582   1.599   4.689
  225SOL     OW 1573   4.470   3.265   6.014
  225SOL    HW1 1574   4.567   3.251   5.997
  225SOL    HW2 1575   4.456   3.353   6.060
  226SOL     OW 1576   1.272   0.798   5.769
  226SOL    HW1 1577   1.289   0.850   5.852
  226SOL    HW2 1578   1.272   0.859   5.690
  227SOL     OW 1579   1.784   3.424   2.544
  227SOL    HW1 1580   1.754   3.496   2.482
  227SOL    HW2 1581   1.876   3.445   2.577
  228SOL     OW 1582   3.035   6.031   4.119
  228SOL    HW1 1583   3.030   6.102   4.049
  228SOL    HW2 1584   3.039   5.941   4.075
  229SOL     OW 1585   5.428   6.139   6.731
  229SOL    HW1 1586   5.371   6.150   6.650
  229SOL    HW2 1587   5.373   6.150   6.814
  230SOL     OW 1588   3.257   4.931   3.701
  230SOL    HW1 1589   3.233   5.028   3.701
  230SOL    HW2 1590   3.332   4.915   3.765
  231SOL     OW 1591   6.222   1.894   6.050
  231SOL    HW1 1592   6.133   1.940   6.053
  231SOL    HW2 1593   6.228   1.829   6.126
  232SOL     OW 1594   1.244   3.187   6.430
  232SOL    HW1 1595   1.342   3.191   6.453
  232SOL    HW2 1596   1.232   3.143   6.341
  233SOL     OW 1597   2.874   1.852   3.863
  233SOL    HW1 1598   2.887   1.884   3.769
  233SOL    HW2 1599   2.784   1.880   3.895
  234SOL     OW 1600   5.052   0.186   5.174
  234SOL    HW1 1601   5.127   0.192   5.240
  234SOL    HW2 1602   4.996   0.269   5.180
  235SOL     OW 1603   3.477   2.685   1.615
  235SOL    HW1 1604   3.456   2.780   1.593
  235SOL    HW2 1605   3.575   2.669   1.607
  236SOL     OW 1606   4.889   3.318   6.511
  236SOL    HW1 1607   4.805   3.330   6.460
  236SOL    HW2 1608   4.965   3.301   6.448
  237SOL     OW 1609   5.821   4.447   2.135
  237SOL    HW1 1610   5.786   4.396   2.056
  237SOL    HW2 1611   5.887   4.390   2.185
  238SOL     OW 1612   4.864   2.433   0.496
  238SOL    HW1 1613   4.909   2.344   0.492
  238SOL    HW2 1614   4.874   2.472   0.588
  239SOL     OW 1615   0.720   5.795   6.241
  239SOL    HW1 1616   0.718   5.890   6.269
  239SOL    HW2 1617   0.655   5.782   6.165
  240SOL     OW 1618   0.352   2.676   3.219
  240SOL    HW1 1619   0.444   2.642   3.235
  240SOL    HW2 1620   0.292   2.600   3.194
  241SOL     OW 1621   2.226   0.698   4.858
  241SOL    HW1 1622   2.221   0.701   4.758
  241SOL    HW2 1623   2.321   0.686   4.886
  242SOL     OW 1624   3.543   2.974   4.799
  242SOL    HW1 1625   3.624   2.950   4.745
  242SOL    HW2 1626   3.549   2.931   4.889
  243SOL     OW 1627   4.047   0.310   5.606
  243SOL    HW1 1628   3.952   0.339   5.609
  243SOL    HW2 1629   4.051   0.213   5.583
  244SOL     OW 1630   5.701   2.708   4.495
  244SOL    HW1 1631   5.666   2.679   4.406
  244SOL    HW2 1632   5.759   2.636   4.533
  245SOL     OW 1633   6.405   4.159   3.870
  245SOL    HW1 1634   6.494   4.127   3.903
  245SOL    HW2 1635   6.332   4.116   3.923
  246SOL     OW 1636   4.769   2.803   3.726
  246SOL    HW1 1637   4.697   2.736   3.712
  246SOL    HW2 1638   4.848   2.779   3.669
  247SOL     OW 1639   3.028   1.983   1.306
  247SOL    HW1 1640   2.973   1.956   1.227
  247SOL    HW2 1641   2.978   1.963   1.390
  248SOL     OW 1642   3.599   2.013   2.709
  248SOL    HW1 1643   3.676   2.051   2.761
  248SOL    HW2 1644   3.546   1.952   2.768
  249SOL     OW 1645   4.347   6.977   5.206
  249SOL    HW1 1646   4.295   0.035   5.202
  249SOL    HW2 1647   4.408   6.978   5.285
  250SOL     OW 1648   5.268   2.656   1.070
  250SOL    HW1 1649   5.269   2.748   1.108
  250SOL    HW2 1650   5.333   2.651   0.994
  251SOL     OW 1651   4.675   4.286   5.868
  251SOL    HW1 1652   4.708   4.195   5.844
  251SOL    HW2 1653   4.733   4.326   5.939
  252SOL     OW 1654   6.120   6.195   0.151
  252SOL    HW1 1655   6.197   6.131   0.146
  252SOL    HW2 1656   6.066   6.189   0.066
  253SOL     OW 1657   3.047   5.126   0.268
  253SOL    HW1 1658   3.097   5.165   0.191
  253SOL    HW2 1659   2.986   5.195   0.307
  254SOL     OW 1660   5.314   2.888   3.330
  254SOL    HW1 1661   5.348   2.909   3.422
  254SOL    HW2 1662   5.305   2.789   3.320
  255SOL     OW 1663   1.713   3.382   4.582
  255SOL    HW1 1664   1.684   3.287   4.598
  255SOL    HW2 1665   1.640   3.433   4.538
  256SOL     OW 1666   6.641   4.136   6.177
  256SOL    HW1 1667   6.664   4.039   6.169
  256SOL    HW2 1668   6.542   4.148   6.173
  257SOL     OW 1669   4.975   6.639   3.650
  257SOL    HW1 1670   4.954   6.621   3.553
  257SOL    HW2 1671   4.890   6.646   3.701
  258SOL     OW 1672   1.915   4.699   4.499
  258SOL    HW1 1673   1.985   4.742   4.556
  258SOL    HW2 1674   1.887   4.763   4.427
  259SOL     OW 1675   0.997   1.755   1.930
  259SOL    HW1 1676   1.003   1.657   1.909
  259SOL    HW2 1677   1.064   1.805   1.875
  260SOL     OW 1678   4.288   1.200   1.356
  260SOL    HW1 1679   4.276   1.107   1.389
  260SOL    HW2 1680   4.385   1.216   1.334
  261SOL     OW 1681   6.471   3.749   0.334
  261SOL    HW1 1682   6.457   3.651   0.346
  261SOL    HW2 1683   6.385   3.797   0.352
  262SOL     OW 1684   6.600   4.081   0.597
  262SOL    HW1 1685   6.675   4.099   0.661
  262SOL    HW2 1686   6.632   4.095   0.503
  263SOL     OW 1687   0.948   1.103   3.805
  263SOL    HW1 1688   0.977   1.129   3.712
  263SOL    HW2 1689   1.026   1.109   3.867
  264SOL     OW 1690   5.057   3.517   6.563
  264SOL    HW1 1691   4.985   3.448   6.574
  264SOL    HW2 1692   5.065   3.570   6.648
  265SOL     OW 1693   4.754   5.280   2.678
  265SOL    HW1 1694   4.702   5.303   2.596
  265SOL    HW2 1695   4.845   5.247   2.652
  266SOL     OW 1696   3.045   2.868   5.635
  266SOL    HW1 1697   3.133   2.834   5.667
  266SOL    HW2 1698   3.043   2.968   5.642
  267SOL     OW 1699   0.404   1.741   6.775
  267SOL    HW1 1700   0.329   1.775   6.719
  267SOL    HW2 1701   0.424   1.646   6.751
  268SOL     OW 1702   3.751   0.644   5.488
  268SOL    HW1 1703   3.781   0.657   5.393
  268SOL    HW2 1704   3.695   0.723   5.516
  269SOL     OW 1705   1.224   3.561   1.633
  269SOL    HW1 1706   1.150   3.621   1.665
  269SOL    HW2 1707   1.194   3.466   1.638
  270SOL     OW 1708   7.025   0.393   0.006
  270SOL    HW1 1709   7.027   0.294   0.018
  270SOL    HW2 1710   6.933   0.427   0.025
  271SOL     OW 1711   1.346   1.475   0.107
  271SOL    HW1 1712   1.424   1.538   0.107
  271SOL    HW2 1713   1.368   1.395   0.162
  272SOL     OW 1714   3.380   4.971   4.004
  272SOL    HW1 1715   3.385   5.065   3.970
  272SOL    HW2 1716   3.326   4.969   4.088
  273SOL     OW 1717   1.737   3.848   5.072
  273SOL    HW1 1718   1.739   3.905   5.155
  273SOL    HW2 1719   1.778   3.899   4.996
  274SOL     OW 1720   4.833   1.509   2.513
  274SOL    HW1 1721   4.816   1.608   2.510
  274SOL    HW2 1722   4.882   1.482   2.430
  275SOL     OW 1723   6.001   4.965   5.196
  275SOL    HW1 1724   5.951   5.050   5.185
  275SOL    HW2 1725   6.093   4.984   5.229
  276SOL     OW 1726   0.119   5.788   2.454
  276SOL    HW1 1727   0.057   5.806   2.378
  276SOL    HW2 1728   0.134   5.690   2.463
  277SOL     OW 1729   1.547   3.763   0.753
  277SOL    HW1 1730   1.527   3.683   0.695
  277SOL    HW2 1731   1.627   3.742   0.810
  278SOL     OW 1732   6.049   5.289   1.648
  278SOL    HW1 1733   6.010   5.196   1.645
  278SOL    HW2 1734   6.068   5.319   1.555
  279SOL     OW 1735   5.981   2.788   4.732
  279SOL    HW1 1736   6.080   2.802   4.726
  279SOL    HW2 1737   5.934   2.864   4.687
  280SOL     OW 1738   3.068   0.062   3.082
  280SOL    HW1 1739   3.162   0.086   3.056
  280SOL    HW2 1740   3.070   7.012   3.146
  281SOL     OW 1741   3.258   4.982   2.321
  281SOL    HW1 1742   3.344   5.034   2.318
  281SOL    HW2 1743   3.214   4.984   2.231
  282SOL     OW 1744   3.595   1.537   5.579
  282SOL    HW1 1745   3.529   1.549   5.505
  282SOL    HW2 1746   3.677   1.492   5.544
  283SOL     OW 1747   6.514   1.445   6.009
  283SOL    HW1 1748   6.491   1.358   6.052
  283SOL    HW2 1749   6.490   1.441   5.912
  284SOL     OW 1750   1.188   4.099   4.683
  284SOL    HW1 1751   1.204   4.022   4.622
  284SOL    HW2 1752   1.214   4.073   4.776
  285SOL     OW 1753   6.031   4.772   5.665
  285SOL    HW1 1754   6.106   4.764   5.598
  285SOL    HW2 1755   5.948   4.731   5.627
  286SOL     OW 1756   3.271   5.862   5.432
  286SOL    HW1 1757   3.353   5.806   5.426
  286SOL    HW2 1758   3.255   5.887   5.528
  287SOL     OW 1759   0.276   4.522   0.076
  287SOL    HW1 1760   0.299   4.425   0.090
  287SOL    HW2 1761   0.316   4.577   0.149
  288SOL     OW 1762   3.672   2.027   5.797
  288SOL    HW1 1763   3.665   2.092   5.722
  288SOL    HW2 1764   3.621   1.945   5.776
  289SOL     OW 1765   0.211   4.891   4.804
  289SOL    HW1 1766   0.237   4.979   4.765
  289SOL    HW2 1767   0.201   4.900   4.904
  290SOL     OW 1768   5.489   1.918   4.156
  290SOL    HW1 1769   5.426   1.906   4.079
  290SOL    HW2 1770   5.473   1.845   4.223
  291SOL     OW 1771   1.635   2.046   4.684
  291SOL    HW1 1772   1.588   2.104   4.750
  291SOL    HW2 1773   1.595   1.954   4.686
  292SOL     OW 1774   1.540   1.745   3.055
  292SOL    HW1 1775   1.467   1.792   3.004
  292SOL    HW2 1776   1.610   1.812   3.081
  293SOL     OW 1777   4.527   4.666   1.690
  293SOL    HW1 1778   4.500   4.571   1.677
  293SOL    HW2 1779   4.452   4.717   1.731
  294SOL     OW 1780   6.103   5.471   6.443
  294SOL    HW1 1781   6.017   5.519   6.427
  294SOL    HW2 1782   6.117   5.461   6.542
  295SOL     OW 1783   3.100   1.884   4.306
  295SOL    HW1 1784   3.033   1.886   4.233
  295SOL    HW2 1785   3.095   1.969   4.359
  296SOL     OW 1786   5.139   1.610   2.404
  296SOL    HW1 1787   5.089   1.652   2.328
  296SOL    HW2 1788   5.215   1.556   2.368
  297SOL     OW 1789   2.356   4.334   2.876
  297SOL    HW1 1790   2.381   4.353   2.782
  297SOL    HW2 1791   2.412   4.389   2.938
  298SOL     OW 1792   3.639   6.209   0.684
  298SOL    HW1 1793   3.630   6.118   0.725
  298SOL    HW2 1794   3.561   6.265   0.712
  299SOL     OW 1795   4.152   3.599   6.427
  299SOL    HW1 1796   4.055   3.608   6.404
  299SOL    HW2 1797   4.177   3.502   6.432
  300SOL     OW 1798   5.596   0.679   1.467
  300SOL    HW1 1799   5.633   0.604   1.521
  300SOL    HW2 1800   5.629   0.766   1.504
  301SOL     OW 1801   5.157   2.945   0.958
  301SOL    HW1 1802   5.237   2.949   1.017
  301SOL    HW2 1803   5.107   3.032   0.963
  302SOL     OW 1804   0.743   0.883   3.622
  302SOL    HW1 1805   0.753   0.965   3.679
  302SOL    HW2 1806   0.668   0.895   3.558
  303SOL     OW 1807   6.329   6.953   1.155
  303SOL    HW1 1808   6.339   0.025   1.156
  303SOL    HW2 1809   6.359   6.916   1.243
  304SOL     OW 1810   2.390   0.021   4.641
  304SOL    HW1 1811   2.319   0.004   4.709
  304SOL    HW2 1812   2.476   0.044   4.688
  305SOL     OW 1813   0.500   3.110   0.428
  305SOL    HW1 1814   0.495   3.046   0.352
  305SOL    HW2 1815   0.461   3.198   0.400
  306SOL     OW 1816   2.060   0.395   3.629
  306SOL    HW1 1817   2.080   0.372   3.724
  306SOL    HW2 1818   1.963   0.418   3.620
  307SOL     OW 1819   4.931   6.540   0.225
  307SOL    HW1 1820   4.866   6.616   0.221
  307SOL    HW2 1821   4.887   6.460   0.264
  308SOL     OW 1822   6.237   3.470   5.218
  308SOL    HW1 1823   6.175   3.532   5.267
  308SOL    HW2 1824   6.224   3.480   5.120
  309SOL     OW 1825   3.517   5.970   6.705
  309SOL    HW1 1826   3.557   5.959   6.614
  309SOL    HW2 1827   3.423   6.004   6.697
  310SOL     OW 1828   6.474   0.103   4.951
  310SOL    HW1 1829   6.427   0.044   5.016
  310SOL    HW2 1830   6.495   0.051   4.868
  311SOL     OW 1831   4.950   4.695   2.709
  311SOL    HW1 1832   4.883   4.753   2.754
  311SOL    HW2 1833   5.041   4.713   2.748
  312SOL     OW 1834   3.918   0.872   5.483
  312SOL    HW1 1835   3.851   0.896   5.413
  312SOL    HW2 1836   3.955   0.781   5.464
  313SOL     OW 1837   3.267   3.695   2.217
  313SOL    HW1 1838   3.338   3.651   2.271
  313SOL    HW2 1839   3.307   3.769   2.163
  314SOL     OW 1840   3.573   5.466   6.600
  314SOL    HW1 1841   3.585   5.419   6.688
  314SOL    HW2 1842   3.651   5.525   6.583
  315SOL     OW 1843   1.596   2.719   3.598
  315SOL    HW1 1844   1.679   2.682   3.557
  315SOL    HW2 1845   1.528   2.738   3.526
  316SOL     OW 1846   3.039   1.649   3.945
  316SOL    HW1 1847   2.980   1.725   3.917
  316SOL    HW2 1848   3.008   1.565   3.901
  317SOL     OW 1849   0.549   0.737   0.826
  317SOL    HW1 1850   0.610   0.708   0.900
  317SOL    HW2 1851   0.506   0.657   0.784
  318SOL     OW 1852   1.125   5.829   6.549
  318SOL    HW1 1853   1.180   5.753   6.585
  318SOL    HW2 1854   1.086   5.802   6.461
  319SOL     OW 1855   6.715   0.635   3.783
  319SOL    HW1 1856   6.787   0.695   3.818
  319SOL    HW2 1857   6.635   0.641   3.842
  320SOL     OW 1858   6.407   2.356   0.427
  320SOL    HW1 1859   6.312   2.364   0.459
  320SOL    HW2 1860   6.427   2.259   0.409
  321SOL     OW 1861   3.977   1.600   0.403
  321SOL    HW1 1862   3.954   1.526   0.340
  321SOL    HW2 1863   3.953   1.572   0.497
  322SOL     OW 1864   4.025   3.533   4.343
  322SOL    HW1 1865   4.074   3.546   4.430
  322SOL    HW2 1866   4.016   3.436   4.324
  323SOL     OW 1867   0.916   2.849   6.466
  323SOL    HW1 1868   1.008   2.875   6.493
  323SOL    HW2 1869   0.919   2.804   6.377
  324SOL     OW 1870   2.533   1.930   4.732
  324SOL    HW1 1871   2.542   1.910   4.634
  324SOL    HW2 1872   2.523   2.028   4.745
  325SOL     OW 1873   0.949   2.933   1.680
  325SOL    HW1 1874   0.960   2.842   1.720
  325SOL    HW2 1875   0.893   2.990   1.741
  326SOL     OW 1876   1.002   5.053   6.874
  326SOL    HW1 1877   1.070   5.116   6.838
  326SOL    HW2 1878   0.962   5.091   6.957
  327SOL     OW 1879   1.535   5.152   3.985
  327SOL    HW1 1880   1.555   5.220   4.055
  327SOL    HW2 1881   1.486   5.075   4.026
  328SOL     OW 1882   0.934   5.001   1.802
  328SOL    HW1 1883   0.935   5.054   1.886
  328SOL    HW2 1884   0.840   4.984   1.773
  329SOL     OW 1885   3.987   3.787   4.565
  329SOL    HW1 1886   3.921   3.722   4.528
  329SOL    HW2 1887   3.948   3.879   4.562
  330SOL     OW 1888   3.127   0.125   1.406
  330SOL    HW1 1889   3.051   0.186   1.426
  330SOL    HW2 1890   3.205   0.149   1.464
  331SOL     OW 1891   3.953   5.698   0.878
  331SOL    HW1 1892   3.990   5.643   0.953
  331SOL    HW2 1893   3.958   5.645   0.793
  332SOL     OW 1894   3.665   1.829   4.681
  332SOL    HW1 1895   3.664   1.774   4.764
  332SOL    HW2 1896   3.697   1.774   4.604
  333SOL     OW 1897   3.307   0.063   6.065
  333SOL    HW1 1898   3.386   0.003   6.077
  333SOL    HW2 1899   3.300   0.125   6.143
  334SOL     OW 1900   2.408   0.956   1.496
  334SOL    HW1 1901   2.414   0.967   1.397
  334SOL    HW2 1902   2.312   0.949   1.523
  335SOL     OW 1903   4.116   6.444   4.849
  335SOL    HW1 1904   4.136   6.542   4.848
  335SOL    HW2 1905   4.198   6.392   4.827
  336SOL     OW 1906   2.009   0.713   3.940
  336SOL    HW1 1907   2.061   0.797   3.928
  336SOL    HW2 1908   1.926   0.716   3.883
  337SOL     OW 1909   0.513   2.929   0.196
  337SOL    HW1 1910   0.599   2.895   0.157
  337SOL    HW2 1911   0.447   2.944   0.122
  338SOL     OW 1912   2.766   2.594   1.744
  338SOL    HW1 1913   2.779   2.576   1.647
  338SOL    HW2 1914   2.836   2.545   1.797
  339SOL     OW 1915   3.008   6.831   4.107
  339SOL    HW1 1916   2.948   6.764   4.149
  339SOL    HW2 1917   3.052   6.791   4.027
  340SOL     OW 1918   4.994   4.694   5.571
  340SOL    HW1 1919   4.926   4.742   5.515
  340SOL    HW2 1920   5.069   4.662   5.512
  341SOL     OW 1921   6.425   1.504   4.803
  341SOL    HW1 1922   6.424   1.597   4.766
  341SOL    HW2 1923   6.509   1.490   4.857
  342SOL     OW 1924   6.223   4.006   6.922
  342SOL    HW1 1925   6.237   4.091   6.871
  342SOL    HW2 1926   6.295   3.998   6.992
  343SOL     OW 1927   1.956   4.519   0.704
  343SOL    HW1 1928   2.024   4.556   0.640
  343SOL    HW2 1929   1.970   4.558   0.795
  344SOL     OW 1930   0.769   5.072   2.188
  344SOL    HW1 1931   0.762   5.072   2.288
  344SOL    HW2 1932   0.686   5.033   2.149
  345SOL     OW 1933   5.303   1.701   3.641
  345SOL    HW1 1934   5.395   1.734   3.620
  345SOL    HW2 1935   5.308   1.606   3.672
  346SOL     OW 1936   1.655   1.039   2.554
  346SOL    HW1 1937   1.658   1.128   2.599
  346SOL    HW2 1938   1.723   1.036   2.481
  347SOL     OW 1939   3.229   5.814   6.345
  347SOL    HW1 1940   3.284   5.732   6.360
  347SOL    HW2 1941   3.288   5.889   6.316
  348SOL     OW 1942   5.200   4.197   1.615
  348SOL    HW1 1943   5.208   4.173   1.712
  348SOL    HW2 1944   5.289   4.189   1.571
  349SOL     OW 1945   6.656   4.608   0.812
  349SOL    HW1 1946   6.618   4.687   0.860
  349SOL    HW2 1947   6.698   4.638   0.726
  350SOL     OW 1948   3.513   3.163   0.813
  350SOL    HW1 1949   3.563   3.202   0.890
  350SOL    HW2 1950   3.418   3.194   0.816
  351SOL     OW 1951   1.970   2.397   0.177
  351SOL    HW1 1952   1.981   2.463   0.251
  351SOL    HW2 1953   1.927   2.442   0.098
  352SOL     OW 1954   3.050   1.035   4.550
  352SOL    HW1 1955   2.972   1.070   4.603
  352SOL    HW2 1956   3.052   1.080   4.461
  353SOL     OW 1957   2.656   6.006   0.979
  353SOL    HW1 1958   2.711   5.988   0.897
  353SOL    HW2 1959   2.561   5.979   0.962
  354SOL     OW 1960   3.339   2.680   0.458
  354SOL    HW1 1961   3.374   2.745   0.526
  354SOL    HW2 1962   3.260   2.632   0.496
  355SOL     OW 1963   0.412   3.482   2.780
  355SOL    HW1 1964   0.451   3.551   2.840
  355SOL    HW2 1965   0.346   3.525   2.718
  356SOL     OW 1966   3.259   6.506   5.223
  356SOL    HW1 1967   3.208   6.433   5.176
  356SOL    HW2 1968   3.303   6.564   5.155
  357SOL     OW 1969   6.451   6.995   5.741
  357SOL    HW1 1970   6.440   6.927   5.669
  357SOL    HW2 1971   6.513   0.040   5.709
  358SOL     OW 1972   5.074   0.135   1.548
  358SOL    HW1 1973   5.099   0.197   1.622
  358SOL    HW2 1974   4.977   0.145   1.527
  359SOL     OW 1975   1.354   2.076   2.045
  359SOL    HW1 1976   1.326   2.167   2.015
  359SOL    HW2 1977   1.349   2.070   2.144
  360SOL     OW 1978   1.030   5.740   6.310
  360SOL    HW1 1979   1.078   5.790   6.238
  360SOL    HW2 1980   0.933   5.760   6.305
  361SOL     OW 1981   5.817   5.666   3.498
  361SOL    HW1 1982   5.738   5.610   3.525
  361SOL    HW2 1983   5.791   5.763   3.500
  362SOL     OW 1984   3.763   3.714   1.145
  362SOL    HW1 1985   3.716   3.756   1.222
  362SOL    HW2 1986   3.859   3.743   1.144
  363SOL     OW 1987   5.071   4.784   3.673
  363SOL    HW1 1988   5.107   4.692   3.658
  363SOL    HW2 1989   5.088   4.811   3.768
  364SOL     OW 1990   6.357   5.505   5.972
  364SOL    HW1 1991   6.411   5.497   5.888
  364SOL    HW2 1992   6.355   5.600   6.002
  365SOL     OW 1993   5.814   5.770   2.347
  365SOL    HW1 1994   5.890   5.720   2.388
  365SOL    HW2 1995   5.736   5.770   2.409
  366SOL     OW 1996   6.146   0.656   6.696
  366SOL    HW1 1997   6.193   0.699   6.773
  366SOL    HW2 1998   6.047   0.668   6.706
  367SOL     OW 1999   5.000   2.990   1.298
  367SOL    HW1 2000   4.983   2.964   1.393
  367SOL    HW2 2001   5.087   3.038   1.291
  368SOL     OW 2002   0.085   3.635   5.084
  368SOL    HW1 2003   0.154   3.676   5.025
  368SOL    HW2 2004   0.074   3.539   5.060
  369SOL     OW 2005   6.213   5.478   1.462
  369SOL    HW1 2006   6.173   5.467   1.371
  369SOL    HW2 2007   6.263   5.565   1.466
  370SOL     OW 2008   2.655   2.000   5.539
  370SOL    HW1 2009   2.561   2.028   5.523
  370SOL    HW2 2010   2.717   2.067   5.497
  371SOL     OW 2011   2.786   3.432   0.024
  371SOL    HW1 2012   2.723   3.510   0.024
  371SOL    HW2 2013   2.873   3.459   7.010
  372SOL     OW 2014   0.850   6.905   5.661
  372SOL    HW1 2015   0.948   6.895   5.676
  372SOL    HW2 2016   0.812   6.971   5.727
  373SOL     OW 2017   6.283   5.971   4.935
  373SOL    HW1 2018   6.251   5.882   4.903
  373SOL    HW2 2019   6.229   6.043   4.891
  374SOL     OW 2020   3.106   1.744   2.912
  374SOL    HW1 2021   3.092   1.770   2.817
  374SOL    HW2 2022   3.082   1.821   2.972
  375SOL     OW 2023   0.976   4.654   3.752
  375SOL    HW1 2024   0.889   4.605   3.752
  375SOL    HW2 2025   1.050   4.591   3.730
  376SOL     OW 2026   1.855   1.537   4.568
  376SOL    HW1 2027   1.910   1.461   4.603
  376SOL    HW2 2028   1.758   1.516   4.581
  377SOL     OW 2029   0.431   2.343   1.713
  377SOL    HW1 2030   0.447   2.313   1.807
  377SOL    HW2 2031   0.382   2.430   1.714
  378SOL     OW 2032   3.334   2.543   5.637
  378SOL    HW1 2033   3.295   2.454   5.660
  378SOL    HW2 2034   3.341   2.551   5.538
  379SOL     OW 2035   6.134   4.228   1.026
  379SOL    HW1 2036   6.216   4.229   0.968
  379SOL    HW2 2037   6.067   4.292   0.989
  380SOL     OW 2038   3.074   1.110   1.392
  380SOL    HW1 2039   3.001   1.172   1.422
  380SOL    HW2 2040   3.131   1.085   1.470
  381SOL     OW 2041   1.330   4.540   2.788
  381SOL    HW1 2042   1.316   4.525   2.690
  381SOL    HW2 2043   1.337   4.638   2.806
  382SOL     OW 2044   5.220   6.334   5.430
  382SOL    HW1 2045   5.270   6.367   5.350
  382SOL    HW2 2046   5.240   6.237   5.444
  383SOL     OW 2047   4.886   3.044   5.709
  383SOL    HW1 2048   4.867   2.967   5.648
  383SOL    HW2 2049   4.974   3.030   5.754
  384SOL     OW 2050   6.128   5.396   4.533
  384SOL    HW1 2051   6.075   5.334   4.591
  384SOL    HW2 2052   6.225   5.376   4.544
  385SOL     OW 2053   4.504   6.112   5.523
  385SOL    HW1 2054   4.484   6.192   5.579
  385SOL    HW2 2055   4.420   6.081   5.478
  386SOL     OW 2056   2.643   5.919   5.205
  386SOL    HW1 2057   2.649   6.018   5.193
  386SOL    HW2 2058   2.731   5.884   5.238
  387SOL     OW 2059   0.646   6.537   3.302
  387SOL    HW1 2060   0.621   6.588   3.384
  387SOL    HW2 2061   0.704   6.594   3.244
  388SOL     OW 2062   1.713   1.969   3.629
  388SOL    HW1 2063   1.806   1.933   3.630
  388SOL    HW2 2064   1.672   1.957   3.720
  389SOL     OW 2065   4.434   4.164   1.359
  389SOL    HW1 2066   4.426   4.152   1.459
  389SOL    HW2 2067   4.343   4.162   1.318
  390SOL     OW 2068   3.568   1.137   0.102
  390SOL    HW1 2069   3.594   1.209   0.167
  390SOL    HW2 2070   3.624   1.144   0.020
  391SOL     OW 2071   1.906   4.155   5.697
  391SOL    HW1 2072   1.863   4.231   5.648
  391SOL    HW2 2073   1.991   4.131   5.651
  392SOL     OW 2074   1.558   4.051   1.433
  392SOL    HW1 2075   1.554   4.128   1.369
  392SOL    HW2 2076   1.487   3.985   1.411
  393SOL     OW 2077   0.919   4.823   6.972
  393SOL    HW1 2078   0.928   4.751   6.903
  393SOL    HW2 2079   0.943   4.911   6.930
  394SOL     OW 2080   0.396   2.491   6.781
  394SOL    HW1 2081   0.371   2.551   6.857
  394SOL    HW2 2082   0.478   2.439   6.805
  395SOL     OW 2083   4.865   4.606   3.194
  395SOL    HW1 2084   4.880   4.556   3.108
  395SOL    HW2 2085   4.945   4.663   3.214
  396SOL     OW 2086   2.827   3.275   1.935
  396SOL    HW1 2087   2.768   3.265   1.854
  396SOL    HW2 2088   2.770   3.293   2.015
  397SOL     OW 2089   5.200   2.144   6.017
  397SOL    HW1 2090   5.206   2.229   6.069
  397SOL    HW2 2091   5.208   2.066   6.080
  398SOL     OW 2092   1.842   6.985   3.027
  398SOL    HW1 2093   1.932   6.950   2.999
  398SOL    HW2 2094   1.822   6.955   3.120
  399SOL     OW 2095   5.652   6.218   4.279
  399SOL    HW1 2096   5.742   6.222   4.236
  399SOL    HW2 2097   5.622   6.310   4.304
  400SOL     OW 2098   5.992   6.364   5.898
  400SOL    HW1 2099   5.897   6.361   5.929
  400SOL    HW2 2100   6.047   6.412   5.966
  401SOL     OW 2101   5.016   0.101   5.914
  401SOL    HW1 2102   4.961   0.145   5.843
  401SOL    HW2 2103   5.060   0.171   5.970
  402SOL     OW 2104   6.655   0.899   3.195
  402SOL    HW1 2105   6.636   0.987   3.153
  402SOL    HW2 2106   6.583   0.834   3.170
  403SOL     OW 2107   3.784   0.716   5.230
  403SOL    HW1 2108   3.875   0.682   5.254
  403SOL    HW2 2109   3.741   0.652   5.166
  404SOL     OW 2110   1.862   4.898   4.955
  404SOL    HW1 2111   1.888   4.964   4.884
  404SOL    HW2 2112   1.773   4.858   4.932
  405SOL     OW 2113   2.076   3.308   2.821
  405SOL    HW1 2114   2.078   3.346   2.729
  405SOL    HW2 2115   2.022   3.367   2.881
  406SOL     OW 2116   0.225   4.359   4.971
  406SOL    HW1 2117   0.321   4.333   4.969
  406SOL    HW2 2118   0.189   4.361   4.878
  407SOL     OW 2119   1.537   2.288   5.070
  407SOL    HW1 2120   1.502   2.210   5.018
  407SOL    HW2 2121   1.601   2.256   5.140
  408SOL     OW 2122   3.451   1.950   2.937
  408SOL    HW1 2123   3.512   1.999   2.999
  408SOL    HW2 2124   3.426   1.862   2.977
  409SOL     OW 2125   6.442   3.436   1.288
  409SOL    HW1 2126   6.472   3.377   1.363
  409SOL    HW2 2127   6.491   3.523   1.293
  410SOL     OW 2128   1.308   1.856   1.094
  410SOL    HW1 2129   1.275   1.766   1.063
  410SOL    HW2 2130   1.400   1.846   1.132
  411SOL     OW 2131   6.378   0.530   1.550
  411SOL    HW1 2132   6.350   0.440   1.518
  411SOL    HW2 2133   6.299   0.590   1.554
  412SOL     OW 2134   3.502   4.971   3.073
  412SOL    HW1 2135   3.551   4.967   3.160
  412SOL    HW2 2136   3.530   4.894   3.016
  413SOL     OW 2137   4.649   4.300   1.461
  413SOL    HW1 2138   4.592   4.268   1.385
  413SOL    HW2 2139   4.698   4.383   1.433
  414SOL     OW 2140   2.802   6.670   4.212
  414SOL    HW1 2141   2.841   6.580   4.226
  414SOL    HW2 2142   2.702   6.664   4.213
  415SOL     OW 2143   0.574   0.408   6.885
  415SOL    HW1 2144   0.544   0.452   6.970
  415SOL    HW2 2145   0.495   0.370   6.837
  416SOL     OW 2146   4.884   5.262   4.977
  416SOL    HW1 2147   4.980   5.247   5.002
  416SOL    HW2 2148   4.870   5.235   4.881
  417SOL     OW 2149   2.302   0.453   6.017
  417SOL    HW1 2150   2.282   0.543   6.055
  417SOL    HW2 2151   2.393   0.454   5.974
  418SOL     OW 2152   2.747   6.723   6.167
  418SOL    HW1 2153   2.734   6.740   6.069
  418SOL    HW2 2154   2.756   6.811   6.214
  419SOL     OW 2155   0.769   6.896   2.885
  419SOL    HW1 2156   0.750   6.863   2.793
  419SOL    HW2 2157   0.798   6.992   2.881
  420SOL     OW 2158   5.735   1.319   6.577
  420SOL    HW1 2159   5.763   1.282   6.488
  420SOL    HW2 2160   5.637   1.305   6.589
  421SOL     OW 2161   5.894   3.435   5.040
  421SOL    HW1 2162   5.841   3.488   4.974
  421SOL    HW2 2163   5.865   3.459   5.133
  422SOL     OW 2164   4.834   3.158   0.466
  422SOL    HW1 2165   4.805   3.248   0.498
  422SOL    HW2 2166   4.759   3.116   0.413
  423SOL     OW 2167   2.399   1.377   6.840
  423SOL    HW1 2168   2.392   1.370   6.740
  423SOL    HW2 2169   2.480   1.327   6.871
  424SOL     OW 2170   1.514   4.799   2.657
  424SOL    HW1 2171   1.524   4.886   2.608
  424SOL    HW2 2172   1.444   4.808   2.728
  425SOL     OW 2173   5.163   1.791   4.367
  425SOL    HW1 2174   5.104   1.746   4.300
  425SOL    HW2 2175   5.161   1.890   4.352
  426SOL     OW 2176   2.386   2.712   4.590
  426SOL    HW1 2177   2.301   2.667   4.563
  426SOL    HW2 2178   2.409   2.685   4.684
  427SOL     OW 2179   6.189   0.377   4.012
  427SOL    HW1 2180   6.154   0.471   4.010
  427SOL    HW2 2181   6.284   0.376   3.981
  428SOL     OW 2182   3.928   0.802   2.799
  428SOL    HW1 2183   4.026   0.800   2.819
  428SOL    HW2 2184   3.885   0.876   2.851
  429SOL     OW 2185   0.887   4.844   3.581
  429SOL    HW1 2186   0.926   4.779   3.647
  429SOL    HW2 2187   0.791   4.821   3.564
  430SOL     OW 2188   1.114   6.835   4.371
  430SOL    HW1 2189   1.085   6.910   4.311
  430SOL    HW2 2190   1.042   6.816   4.437
  431SOL     OW 2191   2.790   1.743   0.646
  431SOL    HW1 2192   2.864   1.771   0.585
  431SOL    HW2 2193   2.827   1.692   0.723
  432SOL     OW 2194   5.987   2.397   0.777
  432SOL    HW1 2195   6.022   2.426   0.688
  432SOL    HW2 2196   5.887   2.397   0.776
  433SOL     OW 2197   2.482   6.228   6.209
  433SOL    HW1 2198   2.549   6.296   6.179
  433SOL    HW2 2199   2.416   6.271   6.271
  434SOL     OW 2200   4.069   5.995   3.294
  434SOL    HW1 2201   4.008   5.959   3.365
  434SOL    HW2 2202   4.154   6.026   3.335
  435SOL     OW 2203   3.731   2.382   5.288
  435SOL    HW1 2204   3.732   2.286   5.263
  435SOL    HW2 2205   3.824   2.419   5.287
  436SOL     OW 2206   3.315   5.565   2.488
  436SOL    HW1 2207   3.267   5.623   2.423
  436SOL    HW2 2208   3.385   5.618   2.535
  437SOL     OW 2209   0.643   1.304   5.850
  437SOL    HW1 2210   0.668   1.265   5.939
  437SOL    HW2 2211   0.554   1.348   5.857
  438SOL     OW 2212   1.307   3.628   3.770
  438SOL    HW1 2213   1.390   3.653   3.820
  438SOL    HW2 2214   1.313   3.662   3.676
  439SOL     OW 2215   5.894   6.384   2.149
  439SOL    HW1 2216   5.815   6.351   2.202
  439SOL    HW2 2217   5.880   6.481   2.126
  440SOL     OW 2218   3.481   1.640   6.374
  440SOL    HW1 2219   3.485   1.540   6.370
  440SOL    HW2 2220   3.551   1.674   6.437
  441SOL     OW 2221   6.015   4.123   3.568
  441SOL    HW1 2222   6.083   4.076   3.512
  441SOL    HW2 2223   6.031   4.103   3.665
  442SOL     OW 2224   4.566   5.312   5.330
  442SOL    HW1 2225   4.656   5.270   5.319
  442SOL    HW2 2226   4.513   5.299   5.247
  443SOL     OW 2227   5.802   4.138   4.303
  443SOL    HW1 2228   5.827   4.050   4.264
  443SOL    HW2 2229   5.734   4.125   4.375
  444SOL     OW 2230   4.498   0.781   6.254
  444SOL    HW1 2231   4.586   0.802   6.295
  444SOL    HW2 2232   4.450   0.714   6.309
  445SOL     OW 2233   2.308   6.257   3.110
  445SOL    HW1 2234   2.336   6.171   3.152
  445SOL    HW2 2235   2.259   6.312   3.177
  446SOL     OW 2236   3.940   5.836   2.872
  446SOL    HW1 2237   3.883   5.914   2.849
  446SOL    HW2 2238   3.926   5.763   2.806
  447SOL     OW 2239   6.494   3.221   4.973
  447SOL    HW1 2240   6.439   3.305   4.969
  447SOL    HW2 2241   6.543   3.218   5.061
  448SOL     OW 2242   2.617   0.861   2.851
  448SOL    HW1 2243   2.568   0.868   2.938
  448SOL    HW2 2244   2.573   0.920   2.784
  449SOL     OW 2245   2.558   1.671   3.673
  449SOL    HW1 2246   2.482   1.660   3.609
  449SOL    HW2 2247   2.528   1.728   3.750
  450SOL     OW 2248   1.757   4.897   3.577
  450SOL    HW1 2249   1.682   4.944   3.530
  450SOL    HW2 2250   1.744   4.905   3.675
  451SOL     OW 2251   1.622   2.620   4.144
  451SOL    HW1 2252   1.586   2.578   4.227
  451SOL    HW2 2253   1.550   2.674   4.100
  452SOL     OW 2254   4.402   6.828   1.684
  452SOL    HW1 2255   4.409   6.774   1.600
  452SOL    HW2 2256   4.309   6.866   1.691
  453SOL     OW 2257   3.433   6.589   6.059
  453SOL    HW1 2258   3.526   6.601   6.024
  453SOL    HW2 2259   3.436   6.572   6.158
  454SOL     OW 2260   6.794   3.930   6.723
  454SOL    HW1 2261   6.762   3.960   6.633
  454SOL    HW2 2262   6.813   3.831   6.720
  455SOL     OW 2263   6.278   2.931   5.228
  455SOL    HW1 2264   6.276   3.022   5.269
  455SOL    HW2 2265   6.203   2.876   5.265
  456SOL     OW 2266   1.947   0.609   4.177
  456SOL    HW1 2267   1.962   0.660   4.092
  456SOL    HW2 2268   1.965   0.512   4.162
  457SOL     OW 2269   1.554   4.543   4.241
  457SOL    HW1 2270   1.531   4.478   4.314
  457SOL    HW2 2271   1.500   4.521   4.159
  458SOL     OW 2272   3.641   0.515   2.644
  458SOL    HW1 2273   3.658   0.589   2.579
  458SOL    HW2 2274   3.580   0.547   2.716
  459SOL     OW 2275   1.869   0.312   5.292
  459SOL    HW1 2276   1.920   0.362   5.362
  459SOL    HW2 2277   1.815   0.377   5.238
  460SOL     OW 2278   1.158   0.784   5.240
  460SOL    HW1 2279   1.215   0.736   5.306
  460SOL    HW2 2280   1.149   0.729   5.157
  461SOL     OW 2281   6.372   5.035   5.888
  461SOL    HW1 2282   6.355   4.958   5.950
  461SOL    HW2 2283   6.467   5.063   5.896
  462SOL     OW 2284   3.869   3.626   5.218
  462SOL    HW1 2285   3.841   3.649   5.125
  462SOL    HW2 2286   3.930   3.696   5.253
  463SOL     OW 2287   0.174   0.403   3.319
  463SOL    HW1 2288   0.262   0.421   3.275
  463SOL    HW2 2289   0.150   0.480   3.378
  464SOL     OW 2290   2.580   0.404   5.966
  464SOL    HW1 2291   2.580   0.380   6.063
  464SOL    HW2 2292   2.655   0.357   5.920
  465SOL     OW 2293   0.739   2.514   6.832
  465SOL    HW1 2294   0.687   2.548   6.753
  465SOL    HW2 2295   0.824   2.567   6.841
  466SOL     OW 2296   2.710   6.213   4.272
  466SOL    HW1 2297   2.640   6.191   4.204
  466SOL    HW2 2298   2.666   6.227   4.361
  467SOL     OW 2299   1.274   1.745   2.683
  467SOL    HW1 2300   1.283   1.806   2.762
  467SOL    HW2 2301   1.251   1.653   2.715
  468SOL     OW 2302   4.218   5.793   5.636
  468SOL    HW1 2303   4.214   5.810   5.735
  468SOL    HW2 2304   4.125   5.792   5.599
  469SOL     OW 2305   3.167   4.308   5.881
  469SOL    HW1 2306   3.079   4.353   5.867
  469SOL    HW2 2307   3.209   4.289   5.792
  470SOL     OW 2308   4.106   5.729   2.340
  470SOL    HW1 2309   4.106   5.788   2.421
  470SOL    HW2 2310   4.041   5.764   2.273
  471SOL     OW 2311   2.919   2.198   4.184
  471SOL    HW1 2312   2.885   2.104   4.187
  471SOL    HW2 2313   2.845   2.259   4.158
  472SOL     OW 2314   5.407   4.944   6.960
  472SOL    HW1 2315   5.412   4.883   6.881
  472SOL    HW2 2316   5.337   5.013   6.945
  473SOL     OW 2317   0.477   2.200   2.540
  473SOL    HW1 2318   0.397   2.260   2.538
  473SOL    HW2 2319   0.466   2.127   2.473
  474SOL     OW 2320   5.955   5.376   6.034
  474SOL    HW1 2321   6.047   5.380   6.073
  474SOL    HW2 2322   5.926   5.280   6.029
  475SOL     OW 2323   6.076   3.488   6.951
  475SOL    HW1 2324   6.015   3.566   6.964
  475SOL    HW2 2325   6.140   3.482   0.000
  476SOL     OW 2326   0.030   3.866   2.093
  476SOL    HW1 2327   0.018   3.892   2.188
  476SOL    HW2 2328   7.004   3.782   2.075
  477SOL     OW 2329   2.252   5.610   3.694
  477SOL    HW1 2330   2.171   5.652   3.653
  477SOL    HW2 2331   2.224   5.544   3.763
  478SOL     OW 2332   4.045   6.327   3.431
  478SOL    HW1 2333   4.089   6.267   3.498
  478SOL    HW2 2334   4.094   6.322   3.344
  479SOL     OW 2335   3.901   3.208   5.143
  479SOL    HW1 2336   3.970   3.271   5.107
  479SOL    HW2 2337   3.908   3.121   5.095
  480SOL     OW 2338   2.495   0.243   2.111
  480SOL    HW1 2339   2.468   0.228   2.016
  480SOL    HW2 2340   2.572   0.306   2.114
  481SOL     OW 2341   0.809   6.994   1.825
  481SOL    HW1 2342   0.864   7.008   1.907
  481SOL    HW2 2343   0.743   6.920   1.841
  482SOL     OW 2344   4.643   4.988   2.713
  482SOL    HW1 2345   4.724   4.969   2.768
  482SOL    HW2 2346   4.664   5.059   2.645
  483SOL     OW 2347   6.731   2.178   2.294
  483SOL    HW1 2348   6.745   2.274   2.320
  483SOL    HW2 2349   6.711   2.173   2.196
  484SOL     OW 2350   1.700   4.481   5.071
  484SOL    HW1 2351   1.704   4.538   5.153
  484SOL    HW2 2352   1.748   4.395   5.089
  485SOL     OW 2353   5.258   4.151   2.523
  485SOL    HW1 2354   5.203   4.070   2.545
  485SOL    HW2 2355   5.345   4.147   2.572
  486SOL     OW 2356   5.883   1.203   6.776
  486SOL    HW1 2357   5.871   1.105   6.764
  486SOL    HW2 2358   5.835   1.252   6.703
  487SOL     OW 2359   0.726   0.432   2.974
  487SOL    HW1 2360   0.638   0.406   2.936
  487SOL    HW2 2361   0.798   0.412   2.907
  488SOL     OW 2362   1.576   6.752   2.552
  488SOL    HW1 2363   1.572   6.662   2.596
  488SOL    HW2 2364   1.596   6.740   2.454
  489SOL     OW 2365   5.884   5.457   5.136
  489SOL    HW1 2366   5.811   5.470   5.203
  489SOL    HW2 2367   5.859   5.503   5.050
  490SOL     OW 2368   1.464   6.222   4.329
  490SOL    HW1 2369   1.392   6.153   4.319
  490SOL    HW2 2370   1.439   6.304   4.278
  491SOL     OW 2371   0.875   3.577   1.331
  491SOL    HW1 2372   0.921   3.662   1.354
  491SOL    HW2 2373   0.852   3.527   1.415
  492SOL     OW 2374   1.573   0.807   5.440
  492SOL    HW1 2375   1.586   0.857   5.354
  492SOL    HW2 2376   1.585   0.870   5.517
  493SOL     OW 2377   2.616   0.001   5.351
  493SOL    HW1 2378   2.552   6.956   5.376
  493SOL    HW2 2379   2.656   7.009   5.262
  494SOL     OW 2380   1.727   1.526   6.042
  494SOL    HW1 2381   1.644   1.501   5.991
  494SOL    HW2 2382   1.789   1.577   5.982
  495SOL     OW 2383   3.615   6.199   5.054
  495SOL    HW1 2384   3.624   6.270   4.983
  495SOL    HW2 2385   3.699   6.197   5.108
  496SOL     OW 2386   6.311   1.715   1.934
  496SOL    HW1 2387   6.229   1.672   1.898
  496SOL    HW2 2388   6.348   1.779   1.867
  497SOL     OW 2389   3.504   1.124   4.558
  497SOL    HW1 2390   3.438   1.122   4.634
  497SOL    HW2 2391   3.478   1.195   4.493
  498SOL     OW 2392   0.348   4.457   2.064
  498SOL    HW1 2393   0.379   4.396   1.990
  498SOL    HW2 2394   0.255   4.432   2.090
  499SOL     OW 2395   1.901   5.557   5.252
  499SOL    HW1 2396   1.811   5.600   5.248
  499SOL    HW2 2397   1.890   5.457   5.250
  500SOL     OW 2398   5.568   3.198   6.065
  500SOL    HW1 2399   5.503   3.175   6.138
  500SOL    HW2 2400   5.611   3.114   6.032
  501SOL     OW 2401   3.552   6.987   1.362
  501SOL    HW1 2402   3.534   0.048   1.319
  501SOL    HW2 2403   3.468   6.934   1.367
  502SOL     OW 2404   0.907   4.913   6.490
  502SOL    HW1 2405   0.810   4.901   6.511
  502SOL    HW2 2406   0.962   4.890   6.571
  503SOL     OW 2407   2.048   5.113   6.310
  503SOL    HW1 2408   2.041   5.177   6.233
  503SOL    HW2 2409   2.031   5.020   6.278
  504SOL     OW 2410   0.406   5.946   1.838
  504SOL    HW1 2411   0.314   5.908   1.841
  504SOL    HW2 2412   0.449   5.937   1.927
  505SOL     OW 2413   4.138   0.123   5.254
  505SOL    HW1 2414   4.067   0.107   5.323
  505SOL    HW2 2415   4.101   0.102   5.163
  506SOL     OW 2416   2.975   6.208   2.154
  506SOL    HW1 2417   2.887   6.236   2.115
  506SOL    HW2 2418   3.032   6.288   2.168
  507SOL     OW 2419   3.703   0.192   2.238
  507SOL    HW1 2420   3.665   0.267   2.292
  507SOL    HW2 2421   3.778   0.226   2.182
  508SOL     OW 2422   6.857   2.335   2.916
  508SOL    HW1 2423   6.833   2.242   2.889
  508SOL    HW2 2424   6.847   2.396   2.839
  509SOL     OW 2425   4.276   1.269   0.399
  509SOL    HW1 2426   4.319   1.189   0.443
  509SOL    HW2 2427   4.253   1.247   0.305
  510SOL     OW 2428   6.929   5.011   5.786
  510SOL    HW1 2429   6.906   4.929   5.839
  510SOL    HW2 2430   6.877   5.089   5.820
  511SOL     OW 2431   1.202   1.943   6.832
  511SOL    HW1 2432   1.268   1.976   6.900
  511SOL    HW2 2433   1.125   1.899   6.878
  512SOL     OW 2434   6.298   2.798   6.587
  512SOL    HW1 2435   6.210   2.829   6.623
  512SOL    HW2 2436   6.335   2.867   6.525
  513SOL     OW 2437   5.308   6.444   2.659
  513SOL    HW1 2438   5.238   6.377   2.634
  513SOL    HW2 2439   5.264   6.526   2.697
  514SOL     OW 2440   0.151   0.293   4.462
  514SOL    HW1 2441   0.075   0.280   4.399
  514SOL    HW2 2442   0.197   0.205   4.477
  515SOL     OW 2443   1.995   0.243   6.924
  515SOL    HW1 2444   2.055   0.270   6.849
  515SOL    HW2 2445   1.991   0.143   6.929
  516SOL     OW 2446   2.609   4.628   2.262
  516SOL    HW1 2447   2.665   4.663   2.337
  516SOL    HW2 2448   2.669   4.595   2.189
  517SOL     OW 2449   3.401   4.905   2.061
  517SOL    HW1 2450   3.475   4.865   2.006
  517SOL    HW2 2451   3.439   4.970   2.126
  518SOL     OW 2452   2.739   2.208   3.834
  518SOL    HW1 2453   2.837   2.226   3.823
  518SOL    HW2 2454   2.715   2.210   3.931
  519SOL     OW 2455   0.332   6.200   3.192
  519SOL    HW1 2456   0.302   6.223   3.100
  519SOL    HW2 2457   0.271   6.241   3.259
  520SOL     OW 2458   0.824   3.847   6.721
  520SOL    HW1 2459   0.766   3.873   6.644
  520SOL    HW2 2460   0.889   3.776   6.691
  521SOL     OW 2461   4.627   5.804   4.691
  521SOL    HW1 2462   4.680   5.735   4.641
  521SOL    HW2 2463   4.538   5.767   4.715
  522SOL     OW 2464   3.997   3.576   2.323
  522SOL    HW1 2465   4.044   3.585   2.410
  522SOL    HW2 2466   3.918   3.637   2.321
  523SOL     OW 2467   6.791   5.979   2.071
  523SOL    HW1 2468   6.697   5.985   2.036
  523SOL    HW2 2469   6.840   6.064   2.050
  524SOL     OW 2470   1.238   3.043   2.503
  524SOL    HW1 2471   1.273   3.025   2.595
  524SOL    HW2 2472   1.302   3.006   2.436
  525SOL     OW 2473   2.077   3.999   6.333
  525SOL    HW1 2474   2.077   3.911   6.382
  525SOL    HW2 2475   2.027   3.989   6.248
  526SOL     OW 2476   3.037   6.474   3.996
  526SOL    HW1 2477   2.949   6.512   3.967
  526SOL    HW2 2478   3.065   6.516   4.082
  527SOL     OW 2479   0.663   2.046   0.061
  527SOL    HW1 2480   0.579   2.000   0.032
  527SOL    HW2 2481   0.656   2.144   0.040
  528SOL     OW 2482   1.560   2.880   3.830
  528SOL    HW1 2483   1.576   2.809   3.761
  528SOL    HW2 2484   1.617   2.960   3.809
  529SOL     OW 2485   1.699   0.083   4.979
  529SOL    HW1 2486   1.732   0.102   5.072
  529SOL    HW2 2487   1.757   0.014   4.937
  530SOL     OW 2488   4.062   3.301   2.353
  530SOL    HW1 2489   4.056   3.396   2.322
  530SOL    HW2 2490   4.055   3.297   2.452
  531SOL     OW 2491   1.214   1.392   2.680
  531SOL    HW1 2492   1.295   1.441   2.713
  531SOL    HW2 2493   1.164   1.354   2.758
  532SOL     OW 2494   1.507   3.319   0.451
  532SOL    HW1 2495   1.594   3.287   0.413
  532SOL    HW2 2496   1.512   3.320   0.550
  533SOL     OW 2497   4.465   6.835   4.051
  533SOL    HW1 2498   4.459   6.766   4.123
  533SOL    HW2 2499   4.401   6.910   4.071
  534SOL     OW 2500   6.165   6.248   2.371
  534SOL    HW1 2501   6.238   6.272   2.434
  534SOL    HW2 2502   6.199   6.254   2.277
  535SOL     OW 2503   6.918   4.423   2.625
  535SOL    HW1 2504   7.004   4.435   2.676
  535SOL    HW2 2505   6.868   4.509   2.623
  536SOL     OW 2506   6.383   4.683   2.791
  536SOL    HW1 2507   6.458   4.618   2.808
  536SOL    HW2 2508   6.416   4.776   2.808
  537SOL     OW 2509   3.662   6.819   4.557
  537SOL    HW1 2510   3.640   6.748   4.490
  537SOL    HW2 2511   3.731   6.880   4.519
  538SOL     OW 2512   1.029   4.484   4.807
  538SOL    HW1 2513   1.026   4.558   4.740
  538SOL    HW2 2514   1.120   4.479   4.848
  539SOL     OW 2515   1.761   5.183   2.090
  539SOL    HW1 2516   1.728   5.105   2.143
  539SOL    HW2 2517   1.757   5.160   1.992
  540SOL     OW 2518   1.770   0.430   3.808
  540SOL    HW1 2519   1.709   0.495   3.855
  540SOL    HW2 2520   1.811   0.370   3.876
  541SOL     OW 2521   4.431   5.522   3.862
  541SOL    HW1 2522   4.363   5.526   3.935
  541SOL    HW2 2523   4.486   5.605   3.864
  542SOL     OW 2524   4.099   6.627   6.440
  542SOL    HW1 2525   4.006   6.618   6.475
  542SOL    HW2 2526   4.119   6.551   6.377
  543SOL     OW 2527   6.074   3.299   3.236
  543SOL    HW1 2528   6.099   3.212   3.279
  543SOL    HW2 2529   6.088   3.293   3.137
  544SOL     OW 2530   0.629   5.247   0.231
  544SOL    HW1 2531   0.601   5.151   0.222
  544SOL    HW2 2532   0.706   5.254   0.294
  545SOL     OW 2533   3.924   1.229   0.961
  545SOL    HW1 2534   3.911   1.131   0.941
  545SOL    HW2 2535   4.014   1.242   1.003
  546SOL     OW 2536   1.563   3.706   2.050
  546SOL    HW1 2537   1.662   3.703   2.064
  546SOL    HW2 2538   1.539   3.649   1.971
  547SOL     OW 2539   3.413   2.518   1.039
  547SOL    HW1 2540   3.428   2.498   0.942
  547SOL    HW2 2541   3.335   2.465   1.072
  548SOL     OW 2542   3.481   3.391   1.615
  548SOL    HW1 2543   3.474   3.378   1.714
  548SOL    HW2 2544   3.496   3.303   1.570
  549SOL     OW 2545   5.240   2.146   1.537
  549SOL    HW1 2546   5.317   2.188   1.489
  549SOL    HW2 2547   5.263   2.052   1.563
  550SOL     OW 2548   1.041   5.580   3.184
  550SOL    HW1 2549   1.044   5.672   3.222
  550SOL    HW2 2550   1.037   5.585   3.084
  551SOL     OW 2551   6.680   0.224   1.703
  551SOL    HW1 2552   6.732   0.227   1.618
  551SOL    HW2 2553   6.723   0.158   1.765
  552SOL     OW 2554   6.132   4.155   5.905
  552SOL    HW1 2555   6.136   4.075   5.845
  552SOL    HW2 2556   6.126   4.238   5.850
  553SOL     OW 2557   2.846   6.759   3.658
  553SOL    HW1 2558   2.805   6.737   3.569
  553SOL    HW2 2559   2.867   6.856   3.662
  554SOL     OW 2560   5.140   6.779   0.449
  554SOL    HW1 2561   5.163   6.737   0.361
  554SOL    HW2 2562   5.107   6.709   0.512
  555SOL     OW 2563   2.731   4.974   5.080
  555SOL    HW1 2564   2.716   4.896   5.141
  555SOL    HW2 2565   2.811   4.957   5.023
  556SOL     OW 2566   4.979   1.716   4.141
  556SOL    HW1 2567   5.000   1.724   4.044
  556SOL    HW2 2568   4.903   1.653   4.154
  557SOL     OW 2569   6.761   4.835   6.341
  557SOL    HW1 2570   6.802   4.901   6.278
  557SOL    HW2 2571   6.711   4.884   6.413
  558SOL     OW 2572   3.154   3.027   4.055
  558SOL    HW1 2573   3.108   2.954   4.004
  558SOL    HW2 2574   3.223   2.987   4.115
  559SOL     OW 2575   0.031   5.503   5.285
  559SOL    HW1 2576   0.038   5.405   5.302
  559SOL    HW2 2577   0.118   5.548   5.306
  560SOL     OW 2578   6.405   3.934   3.178
  560SOL    HW1 2579   6.477   3.922   3.110
  560SOL    HW2 2580   6.400   3.853   3.236
  561SOL     OW 2581   0.128   2.074   0.505
  561SOL    HW1 2582   0.091   2.064   0.413
  561SOL    HW2 2583   0.060   2.116   0.564
  562SOL     OW 2584   3.860   0.576   5.943
  562SOL    HW1 2585   3.830   0.552   6.036
  562SOL    HW2 2586   3.959   0.562   5.936
  563SOL     OW 2587   2.138   1.532   3.664
  563SOL    HW1 2588   2.067   1.472   3.700
  563SOL    HW2 2589   2.226   1.510   3.705
  564SOL     OW 2590   0.872   3.005   0.399
  564SOL    HW1 2591   0.930   2.960   0.467
  564SOL    HW2 2592   0.776   2.978   0.415
  565SOL     OW 2593   3.237   3.733   4.093
  565SOL    HW1 2594   3.289   3.757   4.010
  565SOL    HW2 2595   3.148   3.778   4.090
  566SOL     OW 2596   1.057   3.623   3.895
  566SOL    HW1 2597   1.047   3.711   3.941
  566SOL    HW2 2598   1.125   3.632   3.822
  567SOL     OW 2599   3.064   2.728   1.465
  567SOL    HW1 2600   3.140   2.773   1.419
  567SOL    HW2 2601   3.094   2.695   1.555
  568SOL     OW 2602   4.444   6.676   0.398
  568SOL    HW1 2603   4.433   6.628   0.486
  568SOL    HW2 2604   4.432   6.612   0.323
  569SOL     OW 2605   1.020   3.388   0.672
  569SOL    HW1 2606   0.959   3.467   0.661
  569SOL    HW2 2607   1.090   3.390   0.601
  570SOL     OW 2608   3.356   0.210   6.652
  570SOL    HW1 2609   3.263   0.183   6.677
  570SOL    HW2 2610   3.355   0.252   6.562
  571SOL     OW 2611   3.170   5.189   4.133
  571SOL    HW1 2612   3.231   5.117   4.166
  571SOL    HW2 2613   3.100   5.148   4.073
  572SOL     OW 2614   2.254   5.275   5.433
  572SOL    HW1 2615   2.191   5.353   5.439
  572SOL    HW2 2616   2.210   5.194   5.471
  573SOL     OW 2617   6.101   1.218   5.988
  573SOL    HW1 2618   6.068   1.241   5.896
  573SOL    HW2 2619   6.129   1.301   6.036
  574SOL     OW 2620   3.658   0.811   4.591
  574SOL    HW1 2621   3.567   0.825   4.632
  574SOL    HW2 2622   3.701   0.900   4.576
  575SOL     OW 2623   4.505   2.954   1.704
  575SOL    HW1 2624   4.571   3.010   1.755
  575SOL    HW2 2625   4.428   3.011   1.676
  576SOL     OW 2626   1.182   3.060   3.450
  576SOL    HW1 2627   1.133   2.984   3.407
  576SOL    HW2 2628   1.181   3.048   3.549
  577SOL     OW 2629   1.686   1.175   2.131
  577SOL    HW1 2630   1.703   1.091   2.080
  577SOL    HW2 2631   1.588   1.196   2.131
  578SOL     OW 2632   0.422   5.070   4.460
  578SOL    HW1 2633   0.358   5.001   4.425
  578SOL    HW2 2634   0.387   5.161   4.437
  579SOL     OW 2635   1.677   4.167   3.291
  579SOL    HW1 2636   1.695   4.146   3.195
  579SOL    HW2 2637   1.715   4.094   3.349
  580SOL     OW 2638   4.390   5.099   5.469
  580SOL    HW1 2639   4.450   5.125   5.394
  580SOL    HW2 2640   4.346   5.012   5.448
  581SOL     OW 2641   2.152   3.005   1.844
  581SOL    HW1 2642   2.146   3.060   1.928
  581SOL    HW2 2643   2.248   2.999   1.815
  582SOL     OW 2644   4.359   5.425   2.492
  582SOL    HW1 2645   4.374   5.334   2.532
  582SOL    HW2 2646   4.327   5.487   2.563
  583SOL     OW 2647   2.464   6.380   5.063
  583SOL    HW1 2648   2.516   6.315   5.009
  583SOL    HW2 2649   2.405   6.434   5.003
  584SOL     OW 2650   3.174   6.721   6.756
  584SOL    HW1 2651   3.171   6.622   6.771
  584SOL    HW2 2652   3.239   6.741   6.682
  585SOL     OW 2653   4.029   0.909   0.275
  585SOL    HW1 2654   3.980   0.850   0.211
  585SOL    HW2 2655   4.118   0.933   0.238
  586SOL     OW 2656   3.191   0.423   0.174
  586SOL    HW1 2657   3.177   0.327   0.199
  586SOL    HW2 2658   3.266   0.461   0.228
  587SOL     OW 2659   4.481   2.457   3.442
  587SOL    HW1 2660   4.394   2.436   3.488
  587SOL    HW2 2661   4.462   2.502   3.355
  588SOL     OW 2662   1.953   4.864   1.529
  588SOL    HW1 2663   2.035   4.822   1.569
  588SOL    HW2 2664   1.872   4.826   1.573
  589SOL     OW 2665   3.532   5.520   1.940
  589SOL    HW1 2666   3.447   5.560   1.972
  589SOL    HW2 2667   3.606   5.587   1.948
  590SOL     OW 2668   5.645   1.433   1.381
  590SOL    HW1 2669   5.596   1.357   1.339
  590SOL    HW2 2670   5.709   1.398   1.450
  591SOL     OW 2671   3.330   6.350   3.594
  591SOL    HW1 2672   3.249   6.297   3.568
  591SOL    HW2 2673   3.412   6.301   3.565
  592SOL     OW 2674   4.491   0.654   2.189
  592SOL    HW1 2675   4.539   0.656   2.277
  592SOL    HW2 2676   4.517   0.734   2.135
  593SOL     OW 2677   5.072   2.762   3.750
  593SOL    HW1 2678   5.172   2.774   3.748
  593SOL    HW2 2679   5.051   2.666   3.764
  594SOL     OW 2680   5.826   0.318   0.827
  594SOL    HW1 2681   5.750   0.255   0.847
  594SOL    HW2 2682   5.904   0.265   0.793
  595SOL     OW 2683   5.470   6.793   3.260
  595SOL    HW1 2684   5.431   6.750   3.179
  595SOL    HW2 2685   5.414   6.871   3.287
  596SOL     OW 2686   0.230   5.081   2.778
  596SOL    HW1 2687   0.155   5.023   2.807
  596SOL    HW2 2688   0.226   5.169   2.826
  597SOL     OW 2689   2.522   0.039   6.771
  597SOL    HW1 2690   2.508   7.014   6.687
  597SOL    HW2 2691   2.435   0.080   6.799
  598SOL     OW 2692   3.922   4.055   4.620
  598SOL    HW1 2693   3.890   4.064   4.526
  598SOL    HW2 2694   4.014   4.092   4.628
  599SOL     OW 2695   2.338   5.646   2.745
  599SOL    HW1 2696   2.281   5.642   2.663
  599SOL    HW2 2697   2.281   5.630   2.826
  600SOL     OW 2698   5.990   2.092   6.452
  600SOL    HW1 2699   6.001   1.995   6.470
  600SOL    HW2 2700   6.074   2.129   6.411
  601SOL     OW 2701   1.571   0.655   3.893
  601SOL    HW1 2702   1.485   0.653   3.842
  601SOL    HW2 2703   1.565   0.597   3.973
  602SOL     OW 2704   1.850   0.455   6.339
  602SOL    HW1 2705   1.907   0.523   6.386
  602SOL    HW2 2706   1.887   0.364   6.356
  603SOL     OW 2707   3.106   2.797   5.294
  603SOL    HW1 2708   3.159   2.859   5.236
  603SOL    HW2 2709   3.013   2.832   5.304
  604SOL     OW 2710   0.611   1.630   1.372
  604SOL    HW1 2711   0.627   1.539   1.335
  604SOL    HW2 2712   0.519   1.661   1.346
  605SOL     OW 2713   6.553   5.046   0.643
  605SOL    HW1 2714   6.613   5.007   0.573
  605SOL    HW2 2715   6.464   5.069   0.602
  606SOL     OW 2716   4.979   6.465   5.253
  606SOL    HW1 2717   5.058   6.444   5.311
  606SOL    HW2 2718   4.981   6.562   5.229
  607SOL     OW 2719   6.449   4.587   5.081
  607SOL    HW1 2720   6.389   4.611   5.005
  607SOL    HW2 2721   6.425   4.495   5.114
  608SOL     OW 2722   4.183   6.180   6.792
  608SOL    HW1 2723   4.103   6.186   6.851
  608SOL    HW2 2724   4.193   6.086   6.758
  609SOL     OW 2725   3.864   3.018   2.356
  609SOL    HW1 2726   3.847   2.973   2.444
  609SOL    HW2 2727   3.929   3.092   2.369
  610SOL     OW 2728   5.550   3.020   0.375
  610SOL    HW1 2729   5.639   2.987   0.347
  610SOL    HW2 2730   5.479   2.979   0.318
  611SOL     OW 2731   4.771   6.903   1.918
  611SOL    HW1 2732   4.681   6.944   1.935
  611SOL    HW2 2733   4.783   6.823   1.977
  612SOL     OW 2734   3.838   5.477   4.232
  612SOL    HW1 2735   3.778   5.398   4.229
  612SOL    HW2 2736   3.885   5.486   4.144
  613SOL     OW 2737   4.099   5.238   5.385
  613SOL    HW1 2738   4.052   5.326   5.391
  613SOL    HW2 2739   4.190   5.245   5.424
  614SOL     OW 2740   4.567   5.131   6.040
  614SOL    HW1 2741   4.510   5.211   6.021
  614SOL    HW2 2742   4.522   5.050   6.004
  615SOL     OW 2743   6.761   1.844   0.876
  615SOL    HW1 2744   6.832   1.785   0.913
  615SOL    HW2 2745   6.727   1.904   0.948
  616SOL     OW 2746   0.169   2.468   2.092
  616SOL    HW1 2747   0.228   2.397   2.129
  616SOL    HW2 2748   0.222   2.528   2.032
  617SOL     OW 2749   0.197   4.551   6.007
  617SOL    HW1 2750   0.295   4.570   6.000
  617SOL    HW2 2751   0.149   4.599   5.934
  618SOL     OW 2752   0.760   2.279   0.821
  618SOL    HW1 2753   0.724   2.203   0.875
  618SOL    HW2 2754   0.689   2.315   0.761
  619SOL     OW 2755   3.586   1.362   0.684
  619SOL    HW1 2756   3.545   1.274   0.660
  619SOL    HW2 2757   3.616   1.360   0.779
  620SOL     OW 2758   4.753   2.174   1.045
  620SOL    HW1 2759   4.768   2.101   1.111
  620SOL    HW2 2760   4.835   2.229   1.036
  621SOL     OW 2761   3.139   6.295   6.765
  621SOL    HW1 2762   3.052   6.249   6.784
  621SOL    HW2 2763   3.124   6.371   6.702
  622SOL     OW 2764   1.278   0.871   6.048
  622SOL    HW1 2765   1.353   0.926   6.085
  622SOL    HW2 2766   1.310   0.778   6.029
  623SOL     OW 2767   0.869   5.471   5.837
  623SOL    HW1 2768   0.836   5.539   5.902
  623SOL    HW2 2769   0.812   5.389   5.843
  624SOL     OW 2770   0.230   2.060   1.024
  624SOL    HW1 2771   0.131   2.069   1.014
  624SOL    HW2 2772   0.256   2.076   1.119
  625SOL     OW 2773   2.683   1.729   1.282
  625SOL    HW1 2774   2.608   1.733   1.216
  625SOL    HW2 2775   2.667   1.653   1.346
  626SOL     OW 2776   2.789   5.306   3.913
  626SOL    HW1 2777   2.851   5.248   3.859
  626SOL    HW2 2778   2.800   5.284   4.010
  627SOL     OW 2779   4.913   6.981   0.454
  627SOL    HW1 2780   4.985   6.915   0.476
  627SOL    HW2 2781   4.825   6.936   0.455
  628SOL     OW 2782   5.891   5.454   5.788
  628SOL    HW1 2783   5.792   5.436   5.781
  628SOL    HW2 2784   5.923   5.427   5.878
  629SOL     OW 2785   6.726   6.637   0.234
  629SOL    HW1 2786   6.759   6.643   0.328
  629SOL    HW2 2787   6.642   6.692   0.225
  630SOL     OW 2788   6.880   1.748   2.229
  630SOL    HW1 2789   6.957   1.684   2.232
  630SOL    HW2 2790   6.805   1.708   2.177
  631SOL     OW 2791   3.337   6.563   4.954
  631SOL    HW1 2792   3.286   6.489   4.911
  631SOL    HW2 2793   3.322   6.648   4.903
  632SOL     OW 2794   2.930   1.721   0.184
  632SOL    HW1 2795   2.952   1.759   0.094
  632SOL    HW2 2796   2.923   1.796   0.251
  633SOL     OW 2797   4.932   4.299   0.361
  633SOL    HW1 2798   5.002   4.357   0.402
  633SOL    HW2 2799   4.870   4.356   0.306
  634SOL     OW 2800   4.768   4.356   1.918
  634SOL    HW1 2801   4.676   4.324   1.940
  634SOL    HW2 2802   4.827   4.344   1.998
  635SOL     OW 2803   4.893   5.027   1.169
  635SOL    HW1 2804   4.841   5.097   1.119
  635SOL    HW2 2805   4.908   4.948   1.110
  636SOL     OW 2806   4.425   5.924   7.005
  636SOL    HW1 2807   4.505   5.942   6.948
  636SOL    HW2 2808   4.369   5.853   6.962
  637SOL     OW 2809   6.640   3.641   1.862
  637SOL    HW1 2810   6.681   3.714   1.915
  637SOL    HW2 2811   6.616   3.675   1.771
  638SOL     OW 2812   5.698   2.360   2.382
  638SOL    HW1 2813   5.628   2.290   2.367
  638SOL    HW2 2814   5.789   2.319   2.373
  639SOL     OW 2815   5.431   4.376   2.673
  639SOL    HW1 2816   5.359   4.389   2.742
  639SOL    HW2 2817   5.512   4.428   2.698
  640SOL     OW 2818   0.646   5.218   4.336
  640SOL    HW1 2819   0.702   5.157   4.280
  640SOL    HW2 2820   0.591   5.164   4.399
  641SOL     OW 2821   6.965   5.718   4.275
  641SOL    HW1 2822   6.910   5.762   4.204
  641SOL    HW2 2823   6.966   5.619   4.260
  642SOL     OW 2824   6.906   3.970   4.212
  642SOL    HW1 2825   6.956   3.943   4.294
  642SOL    HW2 2826   6.963   3.953   4.131
  643SOL     OW 2827   5.597   4.659   5.161
  643SOL    HW1 2828   5.555   4.716   5.232
  643SOL    HW2 2829   5.678   4.614   5.197
  644SOL     OW 2830   1.268   6.646   4.231
  644SOL    HW1 2831   1.181   6.674   4.191
  644SOL    HW2 2832   1.289   6.705   4.310
  645SOL     OW 2833   5.403   2.160   4.274
  645SOL    HW1 2834   5.439   2.069   4.252
  645SOL    HW2 2835   5.400   2.172   4.373
  646SOL     OW 2836   2.415   1.332   3.607
  646SOL    HW1 2837   2.458   1.274   3.537
  646SOL    HW2 2838   2.486   1.383   3.656
  647SOL     OW 2839   5.636   2.102   5.566
  647SOL    HW1 2840   5.696   2.082   5.643
  647SOL    HW2 2841   5.564   2.033   5.559
  648SOL     OW 2842   6.861   4.088   3.321
  648SOL    HW1 2843   6.878   4.170   3.268
  648SOL    HW2 2844   6.777   4.100   3.374
  649SOL     OW 2845   4.172   4.093   0.911
  649SOL    HW1 2846   4.147   4.187   0.933
  649SOL    HW2 2847   4.090   4.043   0.882
  650SOL     OW 2848   5.530   4.010   0.991
  650SOL    HW1 2849   5.566   4.072   0.921
  650SOL    HW2 2850   5.584   3.926   0.992
  651SOL     OW 2851   6.694   6.474   6.497
  651SOL    HW1 2852   6.658   6.565   6.518
  651SOL    HW2 2853   6.762   6.448   6.566
  652SOL     OW 2854   5.740   6.137   3.596
  652SOL    HW1 2855   5.780   6.192   3.523
  652SOL    HW2 2856   5.687   6.196   3.657
  653SOL     OW 2857   3.382   6.160   4.918
  653SOL    HW1 2858   3.455   6.177   4.984
  653SOL    HW2 2859   3.421   6.116   4.837
  654SOL     OW 2860   0.097   3.864   5.617
  654SOL    HW1 2861   0.007   3.893   5.649
  654SOL    HW2 2862   0.114   3.769   5.646
  655SOL     OW 2863   0.777   6.835   2.218
  655SOL    HW1 2864   0.815   6.742   2.227
  655SOL    HW2 2865   0.765   6.875   2.309
  656SOL     OW 2866   1.778   5.335   1.675
  656SOL    HW1 2867   1.854   5.388   1.714
  656SOL    HW2 2868   1.699   5.396   1.662
  657SOL     OW 2869   1.847   1.951   1.545
  657SOL    HW1 2870   1.755   1.925   1.575
  657SOL    HW2 2871   1.875   2.034   1.592
  658SOL     OW 2872   2.950   4.008   6.158
  658SOL    HW1 2873   2.990   4.073   6.222
  658SOL    HW2 2874   2.930   4.053   6.072
  659SOL     OW 2875   2.227   6.138   5.986
  659SOL    HW1 2876   2.197   6.140   5.891
  659SOL    HW2 2877   2.313   6.188   5.994
  660SOL     OW 2878   5.192   4.191   1.907
  660SOL    HW1 2879   5.211   4.195   2.005
  660SOL    HW2 2880   5.107   4.239   1.887
  661SOL     OW 2881   4.381   6.597   3.483
  661SOL    HW1 2882   4.415   6.690   3.488
  661SOL    HW2 2883   4.323   6.586   3.402
  662SOL     OW 2884   4.144   0.879   5.640
  662SOL    HW1 2885   4.186   0.913   5.724
  662SOL    HW2 2886   4.057   0.926   5.625
  663SOL     OW 2887   2.594   4.106   6.210
  663SOL    HW1 2888   2.539   4.080   6.290
  663SOL    HW2 2889   2.542   4.087   6.127
  664SOL     OW 2890   0.307   6.063   5.913
  664SOL    HW1 2891   0.332   6.145   5.861
  664SOL    HW2 2892   0.329   6.076   6.009
  665SOL     OW 2893   4.552   5.225   2.035
  665SOL    HW1 2894   4.612   5.305   2.030
  665SOL    HW2 2895   4.463   5.252   2.072
  666SOL     OW 2896   5.387   1.634   2.028
  666SOL    HW1 2897   5.452   1.584   1.971
  666SOL    HW2 2898   5.418   1.632   2.124
  667SOL     OW 2899   0.793   4.981   2.930
  667SOL    HW1 2900   0.836   5.038   2.861
  667SOL    HW2 2901   0.701   4.955   2.899
  668SOL     OW 2902   4.873   6.206   5.853
  668SOL    HW1 2903   4.890   6.194   5.755
  668SOL    HW2 2904   4.936   6.276   5.888
  669SOL     OW 2905   5.209   0.011   3.078
  669SOL    HW1 2906   5.151   6.989   3.014
  669SOL    HW2 2907   5.153   0.046   3.154
  670SOL     OW 2908   3.116   2.652   1.745
  670SOL    HW1 2909   3.204   2.607   1.761
  670SOL    HW2 2910   3.047   2.613   1.806
  671SOL     OW 2911   3.088   6.389   0.951
  671SOL    HW1 2912   3.127   6.375   1.042
  671SOL    HW2 2913   2.990   6.408   0.960
  672SOL     OW 2914   6.864   5.615   1.728
  672SOL    HW1 2915   6.948   5.646   1.773
  672SOL    HW2 2916   6.823   5.541   1.782
  673SOL     OW 2917   6.622   0.620   1.975
  673SOL    HW1 2918   6.606   0.577   1.887
  673SOL    HW2 2919   6.554   0.587   2.041
  674SOL     OW 2920   0.331   1.367   4.888
  674SOL    HW1 2921   0.393   1.292   4.911
  674SOL    HW2 2922   0.377   1.454   4.904
  675SOL     OW 2923   0.216   1.682   2.017
  675SOL    HW1 2924   0.235   1.777   2.042
  675SOL    HW2 2925   0.299   1.641   1.977
  676SOL     OW 2926   3.246   5.302   3.233
  676SOL    HW1 2927   3.184   5.326   3.158
  676SOL    HW2 2928   3.339   5.330   3.209
  677SOL     OW 2929   5.405   1.560   0.662
  677SOL    HW1 2930   5.474   1.628   0.637
  677SOL    HW2 2931   5.382   1.570   0.759
  678SOL     OW 2932   2.376   6.929   4.997
  678SOL    HW1 2933   2.431   6.859   4.951
  678SOL    HW2 2934   2.422   7.018   4.990
  679SOL     OW 2935   4.627   2.395   4.003
  679SOL    HW1 2936   4.612   2.315   4.060
  679SOL    HW2 2937   4.560   2.396   3.929
  680SOL     OW 2938   5.294   5.283   4.789
  680SOL    HW1 2939   5.383   5.283   4.833
  680SOL    HW2 2940   5.224   5.254   4.854
  681SOL     OW 2941   4.481   5.093   1.548
  681SOL    HW1 2942   4.486   5.009   1.494
  681SOL    HW2 2943   4.448   5.168   1.491
  682SOL     OW 2944   6.506   0.509   1.275
  682SOL    HW1 2945   6.542   0.533   1.185
  682SOL    HW2 2946   6.565   0.546   1.347
  683SOL     OW 2947   5.481   2.903   0.766
  683SOL    HW1 2948   5.382   2.904   0.773
  683SOL    HW2 2949   5.508   2.860   0.679
  684SOL     OW 2950   6.333   1.040   0.271
  684SOL    HW1 2951   6.332   1.085   0.181
  684SOL    HW2 2952   6.321   1.109   0.342
  685SOL     OW 2953   3.979   1.740   4.020
  685SOL    HW1 2954   3.994   1.700   4.110
  685SOL    HW2 2955   3.899   1.697   3.977
  686SOL     OW 2956   5.013   2.777   4.236
  686SOL    HW1 2957   5.033   2.742   4.328
  686SOL    HW2 2958   4.934   2.837   4.240
  687SOL     OW 2959   0.703   2.438   4.438
  687SOL    HW1 2960   0.743   2.353   4.405
  687SOL    HW2 2961   0.621   2.459   4.385
  688SOL     OW 2962   0.453   1.882   7.018
  688SOL    HW1 2963   0.385   1.907   0.060
  688SOL    HW2 2964   0.406   1.849   6.936
  689SOL     OW 2965   1.123   4.882   6.676
  689SOL    HW1 2966   1.094   4.787   6.688
  689SOL    HW2 2967   1.101   4.934   6.759
  690SOL     OW 2968   7.012   2.728   2.996
  690SOL    HW1 2969   0.023   2.668   3.066
  690SOL    HW2 2970   0.058   2.776   2.948
  691SOL     OW 2971   2.777   1.180   0.180
  691SOL    HW1 2972   2.841   1.103   0.178
  691SOL    HW2 2973   2.822   1.262   0.144
  692SOL     OW 2974   3.772   1.046   3.692
  692SOL    HW1 2975   3.686   1.004   3.722
  692SOL    HW2 2976   3.773   1.142   3.720
  693SOL     OW 2977   5.985   0.192   3.970
  693SOL    HW1 2978   5.891   0.220   3.990
  693SOL    HW2 2979   6.046   0.271   3.975
  694SOL     OW 2980   4.448   0.096   4.236
  694SOL    HW1 2981   4.437   0.091   4.336
  694SOL    HW2 2982   4.359   0.084   4.192
  695SOL     OW 2983   4.448   6.705   3.785
  695SOL    HW1 2984   4.441   6.731   3.881
  695SOL    HW2 2985   4.436   6.785   3.727
  696SOL     OW 2986   4.921   5.253   3.523
  696SOL    HW1 2987   4.826   5.241   3.495
  696SOL    HW2 2988   4.925   5.259   3.623
  697SOL     OW 2989   1.480   4.267   2.797
  697SOL    HW1 2990   1.540   4.188   2.803
  697SOL    HW2 2991   1.535   4.351   2.795
  698SOL     OW 2992   4.844   6.086   1.140
  698SOL    HW1 2993   4.931   6.042   1.119
  698SOL    HW2 2994   4.825   6.156   1.072
  699SOL     OW 2995   1.826   3.800   6.827
  699SOL    HW1 2996   1.911   3.774   6.871
  699SOL    HW2 2997   1.759   3.827   6.897
  700SOL     OW 2998   3.152   1.276   2.201
  700SOL    HW1 2999   3.143   1.284   2.102
  700SOL    HW2 3000   3.150   1.368   2.242
  701SOL     OW 3001   6.466   3.804   6.905
  701SOL    HW1 3002   6.431   3.799   6.812
  701SOL    HW2 3003   6.415   3.741   6.963
  702SOL     OW 3004   1.417   6.905   5.049
  702SOL    HW1 3005   1.496   6.870   4.999
  702SOL    HW2 3006   1.439   6.912   5.147
  703SOL     OW 3007   3.664   3.046   6.467
  703SOL    HW1 3008   3.567   3.073   6.473
  703SOL    HW2 3009   3.693   3.007   6.554
  704SOL     OW 3010   1.529   2.825   6.707
  704SOL    HW1 3011   1.451   2.887   6.717
  704SOL    HW2 3012   1.515   2.766   6.628
  705SOL     OW 3013   5.701   4.703   3.046
  705SOL    HW1 3014   5.759   4.765   2.994
  705SOL    HW2 3015   5.758   4.641   3.099
  706SOL     OW 3016   4.067   1.813   5.119
  706SOL    HW1 3017   4.053   1.766   5.207
  706SOL    HW2 3018   4.120   1.754   5.058
  707SOL     OW 3019   4.382   5.020   3.151
  707SOL    HW1 3020   4.370   5.103   3.205
  707SOL    HW2 3021   4.308   5.012   3.085
  708SOL     OW 3022   2.948   0.688   2.482
  708SOL    HW1 3023   2.897   0.606   2.506
  708SOL    HW2 3024   2.890   0.769   2.493
  709SOL     OW 3025   0.559   6.027   0.429
  709SOL    HW1 3026   0.507   5.945   0.451
  709SOL    HW2 3027   0.654   6.016   0.459
  710SOL     OW 3028   3.726   2.482   1.250
  710SOL    HW1 3029   3.811   2.453   1.294
  710SOL    HW2 3030   3.652   2.420   1.277
  711SOL     OW 3031   0.115   3.146   6.038
  711SOL    HW1 3032   0.031   3.099   6.065
  711SOL    HW2 3033   0.192   3.108   6.090
  712SOL     OW 3034   4.341   2.086   1.159
  712SOL    HW1 3035   4.294   2.106   1.245
  712SOL    HW2 3036   4.289   2.018   1.108
  713SOL     OW 3037   3.781   3.393   6.281
  713SOL    HW1 3038   3.760   3.335   6.203
  713SOL    HW2 3039   3.704   3.394   6.344
  714SOL     OW 3040   0.269   4.886   3.371
  714SOL    HW1 3041   0.234   4.796   3.396
  714SOL    HW2 3042   0.325   4.878   3.288
  715SOL     OW 3043   5.112   6.363   6.745
  715SOL    HW1 3044   5.118   6.264   6.736
  715SOL    HW2 3045   5.039   6.397   6.686
  716SOL     OW 3046   0.320   1.056   2.148
  716SOL    HW1 3047   0.394   1.010   2.196
  716SOL    HW2 3048   0.259   0.989   2.107
  717SOL     OW 3049   6.650   4.805   3.942
  717SOL    HW1 3050   6.634   4.777   4.037
  717SOL    HW2 3051   6.625   4.901   3.931
  718SOL     OW 3052   4.729   3.790   5.909
  718SOL    HW1 3053   4.681   3.768   5.824
  718SOL    HW2 3054   4.728   3.710   5.969
  719SOL     OW 3055   6.291   0.180   2.870
  719SOL    HW1 3056   6.378   0.214   2.905
  719SOL    HW2 3057   6.217   0.242   2.898
  720SOL     OW 3058   2.431   6.908   6.207
  720SOL    HW1 3059   2.472   6.920   6.117
  720SOL    HW2 3060   2.458   6.983   6.267
  721SOL     OW 3061   2.295   1.819   2.297
  721SOL    HW1 3062   2.393   1.801   2.305
  721SOL    HW2 3063   2.280   1.914   2.272
  722SOL     OW 3064   2.522   1.022   5.344
  722SOL    HW1 3065   2.454   1.012   5.417
  722SOL    HW2 3066   2.531   0.937   5.294
  723SOL     OW 3067   1.791   4.660   3.272
  723SOL    HW1 3068   1.753   4.580   3.319
  723SOL    HW2 3069   1.849   4.711   3.335
  724SOL     OW 3070   0.692   1.290   3.977
  724SOL    HW1 3071   0.773   1.296   4.034
  724SOL    HW2 3072   0.709   1.337   3.890
  725SOL     OW 3073   1.410   5.275   2.047
  725SOL    HW1 3074   1.372   5.184   2.029
  725SOL    HW2 3075   1.505   5.277   2.018
  726SOL     OW 3076   3.176   4.840   1.449
  726SOL    HW1 3077   3.125   4.898   1.513
  726SOL    HW2 3078   3.183   4.887   1.360
  727SOL     OW 3079   6.201   4.478   5.972
  727SOL    HW1 3080   6.103   4.461   5.975
  727SOL    HW2 3081   6.232   4.485   5.877
  728SOL     OW 3082   6.442   2.898   3.718
  728SOL    HW1 3083   6.386   2.926   3.796
  728SOL    HW2 3084   6.500   2.974   3.690
  729SOL     OW 3085   0.397   1.691   0.957
  729SOL    HW1 3086   0.469   1.733   1.011
  729SOL    HW2 3087   0.308   1.707   1.000
  730SOL     OW 3088   6.788   0.198   4.321
  730SOL    HW1 3089   6.824   0.272   4.379
  730SOL    HW2 3090   6.797   0.111   4.369
  731SOL     OW 3091   4.320   5.664   6.456
  731SOL    HW1 3092   4.233   5.644   6.412
  731SOL    HW2 3093   4.333   5.604   6.535
  732SOL     OW 3094   5.948   2.753   1.481
  732SOL    HW1 3095   5.879   2.716   1.420
  732SOL    HW2 3096   5.951   2.698   1.565
  733SOL     OW 3097   5.752   0.530   4.448
  733SOL    HW1 3098   5.794   0.544   4.358
  733SOL    HW2 3099   5.677   0.464   4.439
  734SOL     OW 3100   5.854   4.538   3.197
  734SOL    HW1 3101   5.944   4.517   3.235
  734SOL    HW2 3102   5.784   4.489   3.249
  735SOL     OW 3103   4.313   1.762   0.587
  735SOL    HW1 3104   4.409   1.752   0.612
  735SOL    HW2 3105   4.264   1.677   0.608
  736SOL     OW 3106   0.838   1.788   3.491
  736SOL    HW1 3107   0.841   1.888   3.487
  736SOL    HW2 3108   0.929   1.753   3.514
  737SOL     OW 3109   4.982   2.193   5.782
  737SOL    HW1 3110   4.938   2.283   5.775
  737SOL    HW2 3111   5.080   2.205   5.802
  738SOL     OW 3112   3.126   3.863   1.402
  738SOL    HW1 3113   3.124   3.822   1.311
  738SOL    HW2 3114   3.040   3.912   1.419
  739SOL     OW 3115   4.938   0.806   4.786
  739SOL    HW1 3116   5.014   0.811   4.851
  739SOL    HW2 3117   4.945   0.722   4.733
  740SOL     OW 3118   5.623   1.115   2.234
  740SOL    HW1 3119   5.703   1.054   2.236
  740SOL    HW2 3120   5.583   1.119   2.326
  741SOL     OW 3121   1.899   0.486   3.203
  741SOL    HW1 3122   1.968   0.558   3.199
  741SOL    HW2 3123   1.813   0.520   3.167
  742SOL     OW 3124   2.219   6.717   2.170
  742SOL    HW1 3125   2.306   6.763   2.155
  742SOL    HW2 3126   2.234   6.619   2.183
  743SOL     OW 3127   0.752   5.327   3.012
  743SOL    HW1 3128   0.686   5.256   3.035
  743SOL    HW2 3129   0.793   5.363   3.096
  744SOL     OW 3130   5.778   0.776   0.988
  744SOL    HW1 3131   5.821   0.690   0.960
  744SOL    HW2 3132   5.692   0.756   1.035
  745SOL     OW 3133   1.811   5.871   5.090
  745SOL    HW1 3134   1.763   5.958   5.089
  745SOL    HW2 3135   1.789   5.822   5.175
  746SOL     OW 3136   6.285   4.019   6.167
  746SOL    HW1 3137   6.256   3.924   6.172
  746SOL    HW2 3138   6.213   4.074   6.124
  747SOL     OW 3139   3.601   5.888   4.953
  747SOL    HW1 3140   3.608   5.796   4.915
  747SOL    HW2 3141   3.587   5.954   4.879
  748SOL     OW 3142   3.977   5.444   2.884
  748SOL    HW1 3143   4.033   5.506   2.939
  748SOL    HW2 3144   3.939   5.372   2.943
  749SOL     OW 3145   6.213   4.149   4.396
  749SOL    HW1 3146   6.289   4.091   4.366
  749SOL    HW2 3147   6.176   4.198   4.318
  750SOL     OW 3148   3.014   1.085   1.129
  750SOL    HW1 3149   3.070   1.005   1.107
  750SOL    HW2 3150   3.040   1.119   1.220
  751SOL     OW 3151   4.509   1.703   6.925
  751SOL    HW1 3152   4.479   1.760   6.849
  751SOL    HW2 3153   4.459   1.728   7.008
  752SOL     OW 3154   2.490   2.888   0.771
  752SOL    HW1 3155   2.474   2.885   0.869
  752SOL    HW2 3156   2.549   2.812   0.745
  753SOL     OW 3157   0.960   3.599   6.295
  753SOL    HW1 3158   0.952   3.521   6.358
  753SOL    HW2 3159   0.873   3.648   6.291
  754SOL     OW 3160   4.629   1.208   6.259
  754SOL    HW1 3161   4.579   1.186   6.342
  754SOL    HW2 3162   4.727   1.194   6.274
  755SOL     OW 3163   1.736   4.675   5.269
  755SOL    HW1 3164   1.730   4.707   5.363
  755SOL    HW2 3165   1.832   4.665   5.242
  756SOL     OW 3166   2.635   6.138   0.158
  756SOL    HW1 3167   2.586   6.183   0.233
  756SOL    HW2 3168   2.572   6.081   0.106
  757SOL     OW 3169   0.197   6.332   4.185
  757SOL    HW1 3170   0.257   6.260   4.218
  757SOL    HW2 3171   0.226   6.361   4.094
  758SOL     OW 3172   4.218   0.511   3.610
  758SOL    HW1 3173   4.216   0.583   3.680
  758SOL    HW2 3174   4.136   0.454   3.619
  759SOL     OW 3175   0.738   3.001   2.035
  759SOL    HW1 3176   0.654   3.056   2.025
  759SOL    HW2 3177   0.734   2.923   1.973
  760SOL     OW 3178   6.459   0.163   3.462
  760SOL    HW1 3179   6.551   0.134   3.486
  760SOL    HW2 3180   6.396   0.087   3.472
  761SOL     OW 3181   5.170   4.095   6.448
  761SOL    HW1 3182   5.145   4.072   6.354
  761SOL    HW2 3183   5.235   4.027   6.482
  762SOL     OW 3184   3.021   0.163   5.444
  762SOL    HW1 3185   3.023   0.185   5.542
  762SOL    HW2 3186   3.003   0.246   5.392
  763SOL     OW 3187   3.866   5.817   6.342
  763SOL    HW1 3188   3.784   5.874   6.346
  763SOL    HW2 3189   3.944   5.868   6.377
  764SOL     OW 3190   5.427   1.045   5.555
  764SOL    HW1 3191   5.397   1.073   5.464
  764SOL    HW2 3192   5.396   0.952   5.572
  765SOL     OW 3193   1.501   5.816   0.868
  765SOL    HW1 3194   1.438   5.767   0.929
  765SOL    HW2 3195   1.468   5.807   0.774
  766SOL     OW 3196   2.764   2.206   5.372
  766SOL    HW1 3197   2.693   2.275   5.385
  766SOL    HW2 3198   2.796   2.208   5.278
  767SOL     OW 3199   6.251   6.194   3.438
  767SOL    HW1 3200   6.327   6.198   3.373
  767SOL    HW2 3201   6.204   6.105   3.430
  768SOL     OW 3202   1.883   5.253   2.937
  768SOL    HW1 3203   1.956   5.279   2.999
  768SOL    HW2 3204   1.903   5.163   2.898
  769SOL     OW 3205   2.515   1.332   5.146
  769SOL    HW1 3206   2.536   1.324   5.244
  769SOL    HW2 3207   2.496   1.428   5.124
  770SOL     OW 3208   1.690   5.447   3.930
  770SOL    HW1 3209   1.777   5.399   3.912
  770SOL    HW2 3210   1.616   5.398   3.885
  771SOL     OW 3211   1.173   5.117   3.015
  771SOL    HW1 3212   1.165   5.064   3.099
  771SOL    HW2 3213   1.266   5.152   3.006
  772SOL     OW 3214   5.647   4.360   0.111
  772SOL    HW1 3215   5.743   4.343   0.090
  772SOL    HW2 3216   5.596   4.372   0.025
  773SOL     OW 3217   0.475   4.173   3.605
  773SOL    HW1 3218   0.482   4.132   3.514
  773SOL    HW2 3219   0.561   4.157   3.655
  774SOL     OW 3220   1.727   1.416   1.676
  774SOL    HW1 3221   1.711   1.323   1.708
  774SOL    HW2 3222   1.766   1.413   1.584
  775SOL     OW 3223   2.230   2.140   4.057
  775SOL    HW1 3224   2.147   2.100   4.019
  775SOL    HW2 3225   2.215   2.238   4.074
  776SOL     OW 3226   0.217   0.399   6.301
  776SOL    HW1 3227   0.130   0.376   6.257
  776SOL    HW2 3228   0.292   0.355   6.251
  777SOL     OW 3229   2.029   4.390   1.173
  777SOL    HW1 3230   2.114   4.441   1.159
  777SOL    HW2 3231   2.036   4.301   1.128
  778SOL     OW 3232   2.239   0.706   1.538
  778SOL    HW1 3233   2.210   0.675   1.447
  778SOL    HW2 3234   2.339   0.709   1.542
  779SOL     OW 3235   0.033   2.211   2.310
  779SOL    HW1 3236   0.122   2.249   2.333
  779SOL    HW2 3237   0.040   2.153   2.229
  780SOL     OW 3238   0.675   2.696   4.531
  780SOL    HW1 3239   0.668   2.600   4.558
  780SOL    HW2 3240   0.589   2.743   4.552
  781SOL     OW 3241   5.620   6.377   0.623
  781SOL    HW1 3242   5.555   6.368   0.698
  781SOL    HW2 3243   5.620   6.293   0.569
  782SOL     OW 3244   1.591   3.514   6.396
  782SOL    HW1 3245   1.647   3.595   6.414
  782SOL    HW2 3246   1.497   3.531   6.426
  783SOL     OW 3247   4.993   4.872   1.801
  783SOL    HW1 3248   5.082   4.869   1.757
  783SOL    HW2 3249   4.924   4.833   1.740
  784SOL     OW 3250   4.150   4.890   1.259
  784SOL    HW1 3251   4.149   4.841   1.346
  784SOL    HW2 3252   4.134   4.825   1.184
  785SOL     OW 3253   0.625   1.825   3.764
  785SOL    HW1 3254   0.693   1.805   3.694
  785SOL    HW2 3255   0.538   1.782   3.739
  786SOL     OW 3256   0.230   0.278   2.641
  786SOL    HW1 3257   0.131   0.277   2.653
  786SOL    HW2 3258   0.272   0.217   2.708
  787SOL     OW 3259   1.725   1.339   6.802
  787SOL    HW1 3260   1.685   1.324   6.893
  787SOL    HW2 3261   1.762   1.253   6.767
  788SOL     OW 3262   4.290   1.669   0.925
  788SOL    HW1 3263   4.386   1.682   0.951
  788SOL    HW2 3264   4.270   1.719   0.841
  789SOL     OW 3265   4.270   4.519   1.822
  789SOL    HW1 3266   4.307   4.426   1.812
  789SOL    HW2 3267   4.295   4.554   1.912
  790SOL     OW 3268   2.736   1.738   3.302
  790SOL    HW1 3269   2.828   1.765   3.331
  790SOL    HW2 3270   2.735   1.640   3.284
  791SOL     OW 3271   1.795   6.554   4.604
  791SOL    HW1 3272   1.797   6.531   4.702
  791SOL    HW2 3273   1.843   6.641   4.590
  792SOL     OW 3274   0.791   0.861   2.041
  792SOL    HW1 3275   0.753   0.951   2.065
  792SOL    HW2 3276   0.811   0.858   1.943
  793SOL     OW 3277   4.762   5.610   4.525
  793SOL    HW1 3278   4.812   5.667   4.459
  793SOL    HW2 3279   4.823   5.586   4.601
  794SOL     OW 3280   2.694   3.935   5.843
  794SOL    HW1 3281   2.621   3.921   5.911
  794SOL    HW2 3282   2.768   3.987   5.885
  795SOL     OW 3283   3.871   0.131   5.432
  795SOL    HW1 3284   3.804   0.182   5.485
  795SOL    HW2 3285   3.858   0.033   5.448
  796SOL     OW 3286   1.039   2.778   6.913
  796SOL    HW1 3287   1.139   2.771   6.918
  796SOL    HW2 3288   1.004   2.826   6.993
  797SOL     OW 3289   4.762   0.387   0.921
  797SOL    HW1 3290   4.800   0.355   0.834
  797SOL    HW2 3291   4.725   0.309   0.972
  798SOL     OW 3292   3.548   6.686   2.189
  798SOL    HW1 3293   3.551   6.782   2.162
  798SOL    HW2 3294   3.480   6.673   2.260
  799SOL     OW 3295   0.425   6.949   6.447
  799SOL    HW1 3296   0.342   6.952   6.502
  799SOL    HW2 3297   0.407   6.988   6.357
  800SOL     OW 3298   6.169   0.743   2.166
  800SOL    HW1 3299   6.203   0.683   2.094
  800SOL    HW2 3300   6.080   0.711   2.197
  801SOL     OW 3301   2.333   4.743   5.028
  801SOL    HW1 3302   2.244   4.733   4.984
  801SOL    HW2 3303   2.398   4.679   4.986
  802SOL     OW 3304   3.042   2.416   0.232
  802SOL    HW1 3305   3.028   2.490   0.298
  802SOL    HW2 3306   3.085   2.453   0.150
  803SOL     OW 3307   1.434   0.357   5.928
  803SOL    HW1 3308   1.347   0.316   5.956
  803SOL    HW2 3309   1.503   0.340   5.998
  804SOL     OW 3310   6.174   6.614   1.129
  804SOL    HW1 3311   6.096   6.553   1.137
  804SOL    HW2 3312   6.142   6.709   1.121
  805SOL     OW 3313   1.899   1.160   4.533
  805SOL    HW1 3314   1.982   1.185   4.482
  805SOL    HW2 3315   1.914   1.178   4.630
  806SOL     OW 3316   5.403   0.379   5.198
  806SOL    HW1 3317   5.425   0.461   5.144
  806SOL    HW2 3318   5.323   0.398   5.255
  807SOL     OW 3319   0.284   0.499   5.070
  807SOL    HW1 3320   0.259   0.506   4.973
  807SOL    HW2 3321   0.220   0.554   5.124
  808SOL     OW 3322   4.487   3.816   0.036
  808SOL    HW1 3323   4.506   3.724   0.069
  808SOL    HW2 3324   4.396   3.819   7.022
  809SOL     OW 3325   0.585   4.870   0.913
  809SOL    HW1 3326   0.584   4.778   0.875
  809SOL    HW2 3327   0.513   4.925   0.869
  810SOL     OW 3328   3.196   4.572   0.360
  810SOL    HW1 3329   3.147   4.640   0.415
  810SOL    HW2 3330   3.284   4.610   0.332
  811SOL     OW 3331   5.093   5.803   4.516
  811SOL    HW1 3332   5.154   5.738   4.561
  811SOL    HW2 3333   5.021   5.831   4.580
  812SOL     OW 3334   0.085   1.234   2.622
  812SOL    HW1 3335   0.182   1.250   2.608
  812SOL    HW2 3336   0.049   1.302   2.686
  813SOL     OW 3337   3.888   6.965   4.389
  813SOL    HW1 3338   3.863   0.033   4.406
  813SOL    HW2 3339   3.822   6.924   4.326
  814SOL     OW 3340   6.459   5.552   2.359
  814SOL    HW1 3341   6.555   5.531   2.377
  814SOL    HW2 3342   6.424   5.489   2.290
  815SOL     OW 3343   6.500   3.053   3.287
  815SOL    HW1 3344   6.473   3.145   3.260
  815SOL    HW2 3345   6.544   3.055   3.377
  816SOL     OW 3346   5.805   5.261   0.443
  816SOL    HW1 3347   5.778   5.182   0.497
  816SOL    HW2 3348   5.724   5.304   0.403
  817SOL     OW 3349   0.862   5.191   1.241
  817SOL    HW1 3350   0.792   5.192   1.312
  817SOL    HW2 3351   0.949   5.158   1.278
  818SOL     OW 3352   6.243   3.535   3.740
  818SOL    HW1 3353   6.279   3.507   3.651
  818SOL    HW2 3354   6.309   3.596   3.785
  819SOL     OW 3355   6.379   3.215   1.494
  819SOL    HW1 3356   6.283   3.211   1.466
  819SOL    HW2 3357   6.425   3.131   1.466
  820SOL     OW 3358   2.507   2.306   5.047
  820SOL    HW1 3359   2.593   2.353   5.069
  820SOL    HW2 3360   2.431   2.370   5.059
  821SOL     OW 3361   6.286   4.680   6.521
  821SOL    HW1 3362   6.270   4.608   6.454
  821SOL    HW2 3363   6.383   4.684   6.545
  822SOL     OW 3364   0.231   2.950   3.221
  822SOL    HW1 3365   0.153   2.979   3.277
  822SOL    HW2 3366   0.232   2.851   3.214
  823SOL     OW 3367   6.417   4.368   6.154
  823SOL    HW1 3368   6.456   4.450   6.197
  823SOL    HW2 3369   6.352   4.396   6.083
  824SOL     OW 3370   4.018   0.839   6.323
  824SOL    HW1 3371   4.077   0.919   6.315
  824SOL    HW2 3372   3.956   0.835   6.245
  825SOL     OW 3373   6.745   5.648   1.138
  825SOL    HW1 3374   6.730   5.712   1.063
  825SOL    HW2 3375   6.790   5.695   1.214
  826SOL     OW 3376   4.124   2.295   5.563
  826SOL    HW1 3377   4.112   2.223   5.631
  826SOL    HW2 3378   4.087   2.380   5.598
  827SOL     OW 3379   2.436   4.401   5.235
  827SOL    HW1 3380   2.454   4.323   5.294
  827SOL    HW2 3381   2.372   4.463   5.280
  828SOL     OW 3382   5.679   6.772   6.700
  828SOL    HW1 3383   5.579   6.761   6.693
  828SOL    HW2 3384   5.700   6.858   6.746
  829SOL     OW 3385   3.984   3.520   2.049
  829SOL    HW1 3386   4.040   3.469   1.983
  829SOL    HW2 3387   4.020   3.507   2.141
  830SOL     OW 3388   5.395   4.933   6.473
  830SOL    HW1 3389   5.443   4.901   6.554
  830SOL    HW2 3390   5.342   4.858   6.434
  831SOL     OW 3391   5.818   0.004   0.514
  831SOL    HW1 3392   5.916   0.021   0.506
  831SOL    HW2 3393   5.770   0.089   0.534
  832SOL     OW 3394   4.179   2.224   3.917
  832SOL    HW1 3395   4.099   2.258   3.869
  832SOL    HW2 3396   4.201   2.131   3.887
  833SOL     OW 3397   2.025   3.750   6.415
  833SOL    HW1 3398   2.076   3.708   6.490
  833SOL    HW2 3399   2.032   3.694   6.333
  834SOL     OW 3400   5.027   3.431   1.062
  834SOL    HW1 3401   4.997   3.360   1.126
  834SOL    HW2 3402   5.059   3.511   1.114
  835SOL     OW 3403   3.174   6.851   5.197
  835SOL    HW1 3404   3.139   6.778   5.139
  835SOL    HW2 3405   3.102   6.882   5.259
  836SOL     OW 3406   4.186   6.721   4.879
  836SOL    HW1 3407   4.158   6.794   4.816
  836SOL    HW2 3408   4.150   6.740   4.970
  837SOL     OW 3409   6.707   0.678   1.382
  837SOL    HW1 3410   6.712   0.742   1.305
  837SOL    HW2 3411   6.799   0.658   1.415
  838SOL     OW 3412   2.459   6.666   4.433
  838SOL    HW1 3413   2.480   6.623   4.345
  838SOL    HW2 3414   2.457   6.766   4.421
  839SOL     OW 3415   2.113   1.611   1.841
  839SOL    HW1 3416   2.107   1.520   1.800
  839SOL    HW2 3417   2.108   1.681   1.770
  840SOL     OW 3418   6.237   5.951   6.884
  840SOL    HW1 3419   6.193   6.041   6.889
  840SOL    HW2 3420   6.218   5.911   6.794
  841SOL     OW 3421   3.510   5.585   6.158
  841SOL    HW1 3422   3.447   5.561   6.232
  841SOL    HW2 3423   3.580   5.514   6.150
  842SOL     OW 3424   3.822   0.440   5.701
  842SOL    HW1 3425   3.833   0.472   5.795
  842SOL    HW2 3426   3.792   0.516   5.643
  843SOL     OW 3427   0.988   1.774   1.522
  843SOL    HW1 3428   1.048   1.793   1.444
  843SOL    HW2 3429   1.039   1.789   1.607
  844SOL     OW 3430   6.640   0.032   0.150
  844SOL    HW1 3431   6.680   0.053   0.060
  844SOL    HW2 3432   6.611   0.117   0.194
  845SOL     OW 3433   5.121   4.059   3.455
  845SOL    HW1 3434   5.169   4.063   3.367
  845SOL    HW2 3435   5.025   4.085   3.441
  846SOL     OW 3436   2.147   0.933   5.939
  846SOL    HW1 3437   2.115   0.965   6.028
  846SOL    HW2 3438   2.193   1.008   5.891
  847SOL     OW 3439   1.149   3.445   1.250
  847SOL    HW1 3440   1.092   3.518   1.287
  847SOL    HW2 3441   1.139   3.441   1.150
  848SOL     OW 3442   6.818   0.097   6.132
  848SOL    HW1 3443   6.733   0.129   6.090
  848SOL    HW2 3444   6.895   0.121   6.073
  849SOL     OW 3445   5.971   4.198   6.625
  849SOL    HW1 3446   6.063   4.221   6.593
  849SOL    HW2 3447   5.946   4.258   6.701
  850SOL     OW 3448   5.834   0.831   4.714
  850SOL    HW1 3449   5.742   0.801   4.690
  850SOL    HW2 3450   5.858   0.795   4.804
  851SOL     OW 3451   6.824   2.847   0.701
  851SOL    HW1 3452   6.883   2.889   0.770
  851SOL    HW2 3453   6.874   2.774   0.655
  852SOL     OW 3454   0.820   4.228   0.607
  852SOL    HW1 3455   0.853   4.282   0.685
  852SOL    HW2 3456   0.891   4.162   0.581
  853SOL     OW 3457   1.047   4.670   0.663
  853SOL    HW1 3458   1.008   4.744   0.718
  853SOL    HW2 3459   0.980   4.596   0.656
  854SOL     OW 3460   5.222   5.768   0.824
  854SOL    HW1 3461   5.127   5.756   0.853
  854SOL    HW2 3462   5.273   5.684   0.842
  855SOL     OW 3463   6.615   6.855   1.162
  855SOL    HW1 3464   6.518   6.877   1.157
  855SOL    HW2 3465   6.626   6.759   1.188
  856SOL     OW 3466   1.584   1.649   6.535
  856SOL    HW1 3467   1.591   1.748   6.550
  856SOL    HW2 3468   1.575   1.602   6.623
  857SOL     OW 3469   6.223   5.238   2.105
  857SOL    HW1 3470   6.150   5.217   2.041
  857SOL    HW2 3471   6.197   5.208   2.197
  858SOL     OW 3472   2.952   4.143   1.043
  858SOL    HW1 3473   2.914   4.229   1.009
  858SOL    HW2 3474   2.897   4.111   1.120
  859SOL     OW 3475   5.712   6.864   5.206
  859SOL    HW1 3476   5.710   6.787   5.143
  859SOL    HW2 3477   5.645   6.849   5.280
  860SOL     OW 3478   6.453   3.122   6.918
  860SOL    HW1 3479   6.511   3.070   6.856
  860SOL    HW2 3480   6.426   3.065   6.995
  861SOL     OW 3481   2.414   4.808   3.805
  861SOL    HW1 3482   2.399   4.906   3.812
  861SOL    HW2 3483   2.386   4.776   3.715
  862SOL     OW 3484   1.709   4.082   2.914
  862SOL    HW1 3485   1.654   4.024   2.853
  862SOL    HW2 3486   1.782   4.027   2.955
  863SOL     OW 3487   5.681   1.032   6.483
  863SOL    HW1 3488   5.610   1.102   6.493
  863SOL    HW2 3489   5.641   0.950   6.441
  864SOL     OW 3490   3.729   5.861   3.800
  864SOL    HW1 3491   3.651   5.861   3.863
  864SOL    HW2 3492   3.800   5.799   3.835
  865SOL     OW 3493   1.769   0.020   6.157
  865SOL    HW1 3494   1.671   0.015   6.141
  865SOL    HW2 3495   1.813   0.065   6.079
  866SOL     OW 3496   2.960   0.756   0.747
  866SOL    HW1 3497   2.883   0.783   0.804
  866SOL    HW2 3498   3.023   0.833   0.738
  867SOL     OW 3499   5.335   3.843   0.233
  867SOL    HW1 3500   5.324   3.909   0.159
  867SOL    HW2 3501   5.315   3.887   0.321
  868SOL     OW 3502   6.542   0.802   1.605
  868SOL    HW1 3503   6.571   0.718   1.560
  868SOL    HW2 3504   6.504   0.866   1.538
  869SOL     OW 3505   0.156   4.441   2.731
  869SOL    HW1 3506   0.160   4.355   2.680
  869SOL    HW2 3507   0.239   4.494   2.715
  870SOL     OW 3508   3.944   3.954   0.806
  870SOL    HW1 3509   3.943   3.885   0.733
  870SOL    HW2 3510   3.851   3.981   0.828
  871SOL     OW 3511   5.370   2.110   3.254
  871SOL    HW1 3512   5.454   2.164   3.256
  871SOL    HW2 3513   5.302   2.153   3.314
  872SOL     OW 3514   5.951   3.507   3.801
  872SOL    HW1 3515   5.943   3.408   3.793
  872SOL    HW2 3516   6.034   3.531   3.851
  873SOL     OW 3517   5.113   5.486   5.197
  873SOL    HW1 3518   5.021   5.501   5.235
  873SOL    HW2 3519   5.161   5.574   5.193
  874SOL     OW 3520   6.648   3.528   6.063
  874SOL    HW1 3521   6.584   3.554   6.135
  874SOL    HW2 3522   6.734   3.577   6.074
  875SOL     OW 3523   5.164   4.962   1.081
  875SOL    HW1 3524   5.077   4.985   1.125
  875SOL    HW2 3525   5.156   4.978   0.982
  876SOL     OW 3526   0.273   4.883   2.557
  876SOL    HW1 3527   0.266   4.967   2.610
  876SOL    HW2 3528   0.349   4.890   2.492
  877SOL     OW 3529   3.655   5.007   5.600
  877SOL    HW1 3530   3.720   5.082   5.613
  877SOL    HW2 3531   3.685   4.949   5.525
  878SOL     OW 3532   4.848   6.759   4.511
  878SOL    HW1 3533   4.877   6.781   4.604
  878SOL    HW2 3534   4.925   6.771   4.448
  879SOL     OW 3535   4.243   0.986   1.781
  879SOL    HW1 3536   4.210   0.947   1.866
  879SOL    HW2 3537   4.179   1.055   1.748
  880SOL     OW 3538   3.008   3.903   4.160
  880SOL    HW1 3539   3.007   3.836   4.233
  880SOL    HW2 3540   3.002   3.995   4.199
  881SOL     OW 3541   5.523   3.683   5.456
  881SOL    HW1 3542   5.579   3.754   5.414
  881SOL    HW2 3543   5.496   3.711   5.548
  882SOL     OW 3544   1.364   2.367   3.723
  882SOL    HW1 3545   1.321   2.388   3.810
  882SOL    HW2 3546   1.297   2.326   3.661
  883SOL     OW 3547   3.377   0.345   0.530
  883SOL    HW1 3548   3.287   0.388   0.530
  883SOL    HW2 3549   3.447   0.414   0.546
  884SOL     OW 3550   0.137   4.213   6.892
  884SOL    HW1 3551   0.101   4.277   6.825
  884SOL    HW2 3552   0.090   4.125   6.883
  885SOL     OW 3553   4.665   0.141   5.014
  885SOL    HW1 3554   4.574   0.131   4.975
  885SOL    HW2 3555   4.658   0.171   5.109
  886SOL     OW 3556   3.450   0.525   0.214
  886SOL    HW1 3557   3.528   0.471   0.246
  886SOL    HW2 3558   3.456   0.618   0.250
  887SOL     OW 3559   3.773   6.267   3.833
  887SOL    HW1 3560   3.823   6.194   3.881
  887SOL    HW2 3561   3.772   6.248   3.735
  888SOL     OW 3562   0.373   6.271   3.589
  888SOL    HW1 3563   0.468   6.290   3.562
  888SOL    HW2 3564   0.319   6.250   3.508
  889SOL     OW 3565   0.105   1.520   6.557
  889SOL    HW1 3566   0.154   1.485   6.637
  889SOL    HW2 3567   0.047   1.597   6.586
  890SOL     OW 3568   2.620   4.919   2.616
  890SOL    HW1 3569   2.718   4.930   2.604
  890SOL    HW2 3570   2.573   5.005   2.596
  891SOL     OW 3571   6.799   3.767   0.878
  891SOL    HW1 3572   6.755   3.821   0.950
  891SOL    HW2 3573   6.756   3.786   0.790
  892SOL     OW 3574   3.223   3.687   4.931
  892SOL    HW1 3575   3.150   3.752   4.907
  892SOL    HW2 3576   3.268   3.717   5.015
  893SOL     OW 3577   2.297   6.821   3.252
  893SOL    HW1 3578   2.237   6.780   3.184
  893SOL    HW2 3579   2.362   6.752   3.285
  894SOL     OW 3580   1.332   2.949   2.742
  894SOL    HW1 3581   1.412   2.904   2.700
  894SOL    HW2 3582   1.363   3.018   2.808
  895SOL     OW 3583   1.237   5.326   4.315
  895SOL    HW1 3584   1.309   5.260   4.297
  895SOL    HW2 3585   1.277   5.409   4.354
  896SOL     OW 3586   5.556   5.034   1.585
  896SOL    HW1 3587   5.601   5.123   1.598
  896SOL    HW2 3588   5.620   4.961   1.608
  897SOL     OW 3589   4.077   1.073   6.611
  897SOL    HW1 3590   4.103   0.976   6.606
  897SOL    HW2 3591   4.131   1.119   6.681
  898SOL     OW 3592   4.096   6.634   2.760
  898SOL    HW1 3593   4.139   6.676   2.680
  898SOL    HW2 3594   4.114   6.689   2.841
  899SOL     OW 3595   0.422   6.140   7.017
  899SOL    HW1 3596   0.476   6.094   0.060
  899SOL    HW2 3597   0.393   6.072   6.948
  900SOL     OW 3598   5.216   6.954   6.814
  900SOL    HW1 3599   5.124   6.979   6.846
  900SOL    HW2 3600   5.281   7.025   6.843
  901SOL     OW 3601   1.367   0.762   3.734
  901SOL    HW1 3602   1.270   0.774   3.711
  901SOL    HW2 3603   1.414   0.849   3.725
  902SOL     OW 3604   1.214   3.027   1.567
  902SOL    HW1 3605   1.261   2.985   1.489
  902SOL    HW2 3606   1.128   2.979   1.584
  903SOL     OW 3607   0.707   3.265   0.059
  903SOL    HW1 3608   0.773   3.212   0.005
  903SOL    HW2 3609   0.718   3.242   0.156
  904SOL     OW 3610   2.025   2.614   2.475
  904SOL    HW1 3611   1.951   2.591   2.537
  904SOL    HW2 3612   2.112   2.615   2.526
  905SOL     OW 3613   4.882   3.868   6.664
  905SOL    HW1 3614   4.924   3.956   6.685
  905SOL    HW2 3615   4.815   3.845   6.735
  906SOL     OW 3616   0.729   1.771   6.603
  906SOL    HW1 3617   0.779   1.686   6.583
  906SOL    HW2 3618   0.680   1.802   6.522
  907SOL     OW 3619   5.080   2.581   0.875
  907SOL    HW1 3620   5.105   2.637   0.796
  907SOL    HW2 3621   5.132   2.610   0.955
  908SOL     OW 3622   2.476   4.470   3.342
  908SOL    HW1 3623   2.444   4.423   3.425
  908SOL    HW2 3624   2.496   4.565   3.364
  909SOL     OW 3625   3.841   6.279   2.241
  909SOL    HW1 3626   3.755   6.240   2.207
  909SOL    HW2 3627   3.841   6.378   2.225
  910SOL     OW 3628   3.239   1.668   1.359
  910SOL    HW1 3629   3.141   1.678   1.347
  910SOL    HW2 3630   3.261   1.673   1.457
  911SOL     OW 3631   1.531   6.390   6.690
  911SOL    HW1 3632   1.489   6.317   6.743
  911SOL    HW2 3633   1.558   6.355   6.601
  912SOL     OW 3634   5.778   1.060   2.959
  912SOL    HW1 3635   5.856   1.025   3.012
  912SOL    HW2 3636   5.778   1.160   2.963
  913SOL     OW 3637   3.141   0.873   4.093
  913SOL    HW1 3638   3.080   0.834   4.025
  913SOL    HW2 3639   3.087   0.908   4.170
  914SOL     OW 3640   2.092   6.896   5.567
  914SOL    HW1 3641   2.072   6.994   5.573
  914SOL    HW2 3642   2.163   6.872   5.633
  915SOL     OW 3643   0.199   2.888   0.478
  915SOL    HW1 3644   0.219   2.897   0.576
  915SOL    HW2 3645   0.103   2.865   0.465
  916SOL     OW 3646   1.919   3.063   2.513
  916SOL    HW1 3647   1.890   3.117   2.592
  916SOL    HW2 3648   1.988   3.115   2.461
  917SOL     OW 3649   0.702   6.765   1.930
  917SOL    HW1 3650   0.795   6.728   1.932
  917SOL    HW2 3651   0.638   6.694   1.959
  918SOL     OW 3652   3.617   0.263   0.877
  918SOL    HW1 3653   3.529   0.228   0.909
  918SOL    HW2 3654   3.619   0.363   0.885
  919SOL     OW 3655   6.897   6.635   3.104
  919SOL    HW1 3656   6.904   6.680   3.193
  919SOL    HW2 3657   6.803   6.641   3.070
  920SOL     OW 3658   2.438   4.436   2.634
  920SOL    HW1 3659   2.474   4.528   2.647
  920SOL    HW2 3660   2.459   4.405   2.541
  921SOL     OW 3661   3.961   5.460   3.983
  921SOL    HW1 3662   3.981   5.408   3.901
  921SOL    HW2 3663   4.006   5.417   4.062
  922SOL     OW 3664   3.134   4.057   4.587
  922SOL    HW1 3665   3.116   4.096   4.497
  922SOL    HW2 3666   3.092   3.967   4.594
  923SOL     OW 3667   2.707   3.832   6.301
  923SOL    HW1 3668   2.750   3.838   6.392
  923SOL    HW2 3669   2.712   3.921   6.256
  924SOL     OW 3670   6.498   3.252   2.078
  924SOL    HW1 3671   6.406   3.213   2.081
  924SOL    HW2 3672   6.560   3.194   2.131
  925SOL     OW 3673   0.230   2.053   6.918
  925SOL    HW1 3674   0.147   2.109   6.910
  925SOL    HW2 3675   0.297   2.083   6.850
  926SOL     OW 3676   6.233   0.665   1.224
  926SOL    HW1 3677   6.294   0.609   1.278
  926SOL    HW2 3678   6.189   0.733   1.282
  927SOL     OW 3679   5.608   4.040   3.184
  927SOL    HW1 3680   5.611   4.110   3.255
  927SOL    HW2 3681   5.686   3.979   3.194
  928SOL     OW 3682   1.519   6.375   0.065
  928SOL    HW1 3683   1.589   6.376   7.021
  928SOL    HW2 3684   1.560   6.344   0.151
  929SOL     OW 3685   0.844   0.436   6.795
  929SOL    HW1 3686   0.760   0.475   6.832
  929SOL    HW2 3687   0.919   0.449   6.860
  930SOL     OW 3688   5.284   6.082   5.551
  930SOL    HW1 3689   5.186   6.082   5.569
  930SOL    HW2 3690   5.333   6.106   5.635
  931SOL     OW 3691   6.099   1.664   5.170
  931SOL    HW1 3692   6.132   1.603   5.098
  931SOL    HW2 3693   6.075   1.753   5.131
  932SOL     OW 3694   3.401   0.355   3.215
  932SOL    HW1 3695   3.397   0.269   3.265
  932SOL    HW2 3696   3.311   0.399   3.218
  933SOL     OW 3697   1.905   6.513   3.434
  933SOL    HW1 3698   1.861   6.463   3.509
  933SOL    HW2 3699   1.838   6.529   3.361
  934SOL     OW 3700   2.391   6.579   0.243
  934SOL    HW1 3701   2.473   6.628   0.275
  934SOL    HW2 3702   2.321   6.646   0.218
  935SOL     OW 3703   5.215   3.880   4.489
  935SOL    HW1 3704   5.235   3.785   4.466
  935SOL    HW2 3705   5.267   3.907   4.570
  936SOL     OW 3706   7.000   0.316   6.219
  936SOL    HW1 3707   6.990   0.386   6.290
  936SOL    HW2 3708   6.921   0.255   6.221
  937SOL     OW 3709   5.236   2.001   6.270
  937SOL    HW1 3710   5.319   2.042   6.307
  937SOL    HW2 3711   5.249   1.902   6.261
  938SOL     OW 3712   5.471   4.799   6.748
  938SOL    HW1 3713   5.437   4.723   6.693
  938SOL    HW2 3714   5.570   4.809   6.733
  939SOL     OW 3715   0.363   6.979   4.253
  939SOL    HW1 3716   0.331   0.034   4.206
  939SOL    HW2 3717   0.342   6.898   4.198
  940SOL     OW 3718   0.420   4.020   1.759
  940SOL    HW1 3719   0.457   3.983   1.845
  940SOL    HW2 3720   0.493   4.066   1.709
  941SOL     OW 3721   6.001   1.888   0.000
  941SOL    HW1 3722   6.083   1.939   0.027
  941SOL    HW2 3723   5.956   1.934   6.952
  942SOL     OW 3724   5.665   6.715   2.709
  942SOL    HW1 3725   5.719   6.776   2.652
  942SOL    HW2 3726   5.642   6.761   2.795
  943SOL     OW 3727   1.476   3.928   3.262
  943SOL    HW1 3728   1.442   3.840   3.230
  943SOL    HW2 3729   1.573   3.936   3.242
  944SOL     OW 3730   0.095   5.108   5.590
  944SOL    HW1 3731   0.122   5.197   5.627
  944SOL    HW2 3732   0.046   5.057   5.660
  945SOL     OW 3733   0.386   3.976   6.351
  945SOL    HW1 3734   0.422   4.019   6.434
  945SOL    HW2 3735   0.357   3.882   6.372
  946SOL     OW 3736   4.901   4.148   5.424
  946SOL    HW1 3737   4.913   4.049   5.419
  946SOL    HW2 3738   4.981   4.190   5.468
  947SOL     OW 3739   3.759   2.909   3.467
  947SOL    HW1 3740   3.820   2.947   3.536
  947SOL    HW2 3741   3.809   2.895   3.382
  948SOL     OW 3742   5.099   0.963   2.885
  948SOL    HW1 3743   5.130   1.037   2.825
  948SOL    HW2 3744   5.155   0.961   2.967
  949SOL     OW 3745   1.961   5.814   0.585
  949SOL    HW1 3746   1.909   5.900   0.588
  949SOL    HW2 3747   1.897   5.737   0.577
  950SOL     OW 3748   5.217   6.104   2.391
  950SOL    HW1 3749   5.154   6.047   2.444
  950SOL    HW2 3750   5.307   6.103   2.434
  951SOL     OW 3751   1.386   0.259   3.976
  951SOL    HW1 3752   1.330   0.236   4.057
  951SOL    HW2 3753   1.328   0.303   3.907
  952SOL     OW 3754   4.275   2.356   3.575
  952SOL    HW1 3755   4.180   2.331   3.553
  952SOL    HW2 3756   4.328   2.274   3.593
  953SOL     OW 3757   5.441   5.571   4.399
  953SOL    HW1 3758   5.413   5.655   4.353
  953SOL    HW2 3759   5.474   5.593   4.491
  954SOL     OW 3760   4.007   5.588   1.997
  954SOL    HW1 3761   4.090   5.639   1.977
  954SOL    HW2 3762   3.973   5.545   1.913
  955SOL     OW 3763   0.378   3.874   1.131
  955SOL    HW1 3764   0.442   3.797   1.124
  955SOL    HW2 3765   0.357   3.892   1.227
  956SOL     OW 3766   6.265   0.596   1.943
  956SOL    HW1 3767   6.232   0.542   1.865
  956SOL    HW2 3768   6.340   0.547   1.988
  957SOL     OW 3769   5.890   3.009   3.191
  957SOL    HW1 3770   5.895   3.032   3.094
  957SOL    HW2 3771   5.795   3.014   3.222
  958SOL     OW 3772   4.275   0.907   1.490
  958SOL    HW1 3773   4.231   0.928   1.578
  958SOL    HW2 3774   4.370   0.879   1.506
  959SOL     OW 3775   3.583   6.126   4.449
  959SOL    HW1 3776   3.612   6.097   4.358
  959SOL    HW2 3777   3.532   6.212   4.443
  960SOL     OW 3778   0.540   0.486   2.264
  960SOL    HW1 3779   0.620   0.540   2.236
  960SOL    HW2 3780   0.540   0.400   2.212
  961SOL     OW 3781   4.179   6.584   3.288
  961SOL    HW1 3782   4.091   6.632   3.288
  961SOL    HW2 3783   4.166   6.490   3.259
  962SOL     OW 3784   0.058   1.322   5.112
  962SOL    HW1 3785   0.069   1.408   5.062
  962SOL    HW2 3786   0.143   1.269   5.108
  963SOL     OW 3787   5.240   1.234   6.099
  963SOL    HW1 3788   5.258   1.325   6.135
  963SOL    HW2 3789   5.144   1.226   6.074
  964SOL     OW 3790   5.619   5.170   0.098
  964SOL    HW1 3791   5.711   5.157   0.059
  964SOL    HW2 3792   5.576   5.082   0.113
  965SOL     OW 3793   5.698   1.536   2.049
  965SOL    HW1 3794   5.622   1.521   1.985
  965SOL    HW2 3795   5.758   1.608   2.013
  966SOL     OW 3796   5.884   3.000   2.080
  966SOL    HW1 3797   5.904   3.020   2.176
  966SOL    HW2 3798   5.945   3.055   2.022
  967SOL     OW 3799   2.725   4.225   1.383
  967SOL    HW1 3800   2.657   4.221   1.457
  967SOL    HW2 3801   2.683   4.266   1.302
  968SOL     OW 3802   4.021   0.516   2.104
  968SOL    HW1 3803   4.045   0.576   2.181
  968SOL    HW2 3804   4.100   0.508   2.043
  969SOL     OW 3805   2.782   4.443   5.660
  969SOL    HW1 3806   2.789   4.517   5.726
  969SOL    HW2 3807   2.687   4.410   5.656
  970SOL     OW 3808   5.418   0.961   6.668
  970SOL    HW1 3809   5.399   0.974   6.765
  970SOL    HW2 3810   5.363   0.885   6.633
  971SOL     OW 3811   0.457   2.856   1.945
  971SOL    HW1 3812   0.510   2.816   2.019
  971SOL    HW2 3813   0.418   2.944   1.975
  972SOL     OW 3814   5.868   1.818   1.362
  972SOL    HW1 3815   5.852   1.751   1.290
  972SOL    HW2 3816   5.951   1.870   1.342
  973SOL     OW 3817   0.664   5.444   6.735
  973SOL    HW1 3818   0.744   5.412   6.684
  973SOL    HW2 3819   0.661   5.401   6.825
  974SOL     OW 3820   5.629   6.437   2.041
  974SOL    HW1 3821   5.699   6.428   1.970
  974SOL    HW2 3822   5.651   6.376   2.118
  975SOL     OW 3823   1.967   0.625   7.003
  975SOL    HW1 3824   2.007   0.581   6.924
  975SOL    HW2 3825   1.899   0.692   6.973
  976SOL     OW 3826   0.040   3.671   1.827
  976SOL    HW1 3827   0.119   3.709   1.780
  976SOL    HW2 3828   6.986   3.725   1.804
  977SOL     OW 3829   0.425   0.355   1.978
  977SOL    HW1 3830   0.346   0.319   2.027
  977SOL    HW2 3831   0.509   0.320   2.021
  978SOL     OW 3832   5.511   2.685   6.183
  978SOL    HW1 3833   5.465   2.738   6.254
  978SOL    HW2 3834   5.498   2.730   6.095
  979SOL     OW 3835   0.723   2.783   0.056
  979SOL    HW1 3836   0.808   2.761   0.103
  979SOL    HW2 3837   0.743   2.834   6.999
  980SOL     OW 3838   5.543   2.129   3.613
  980SOL    HW1 3839   5.576   2.173   3.530
  980SOL    HW2 3840   5.446   2.107   3.603
  981SOL     OW 3841   0.144   1.780   4.861
  981SOL    HW1 3842   0.233   1.820   4.839
  981SOL    HW2 3843   0.074   1.852   4.862
  982SOL     OW 3844   1.087   1.286   4.684
  982SOL    HW1 3845   1.107   1.200   4.636
  982SOL    HW2 3846   1.072   1.267   4.781
  983SOL     OW 3847   6.223   2.631   3.298
  983SOL    HW1 3848   6.301   2.678   3.341
  983SOL    HW2 3849   6.251   2.540   3.270
  984SOL     OW 3850   2.575   2.181   4.337
  984SOL    HW1 3851   2.545   2.089   4.314
  984SOL    HW2 3852   2.649   2.176   4.404
  985SOL     OW 3853   6.616   3.271   5.217
  985SOL    HW1 3854   6.588   3.365   5.199
  985SOL    HW2 3855   6.695   3.271   5.279
  986SOL     OW 3856   4.922   4.805   0.949
  986SOL    HW1 3857   4.853   4.799   0.877
  986SOL    HW2 3858   5.010   4.773   0.913
  987SOL     OW 3859   4.771   6.602   2.496
  987SOL    HW1 3860   4.758   6.516   2.445
  987SOL    HW2 3861   4.742   6.589   2.591
  988SOL     OW 3862   3.213   4.174   1.461
  988SOL    HW1 3863   3.187   4.208   1.552
  988SOL    HW2 3864   3.184   4.079   1.451
  989SOL     OW 3865   6.659   2.160   6.775
  989SOL    HW1 3866   6.600   2.193   6.701
  989SOL    HW2 3867   6.676   2.062   6.763
  990SOL     OW 3868   3.434   1.249   2.257
  990SOL    HW1 3869   3.471   1.307   2.185
  990SOL    HW2 3870   3.348   1.208   2.226
  991SOL     OW 3871   0.860   3.353   4.348
  991SOL    HW1 3872   0.886   3.268   4.303
  991SOL    HW2 3873   0.782   3.336   4.409
  992SOL     OW 3874   0.981   3.396   1.678
  992SOL    HW1 3875   1.003   3.337   1.601
  992SOL    HW2 3876   0.908   3.459   1.652
  993SOL     OW 3877   6.548   4.850   0.899
  993SOL    HW1 3878   6.558   4.914   0.823
  993SOL    HW2 3879   6.531   4.901   0.983
  994SOL     OW 3880   4.099   5.127   1.963
  994SOL    HW1 3881   4.041   5.170   2.032
  994SOL    HW2 3882   4.187   5.173   1.961
  995SOL     OW 3883   4.010   2.985   5.786
  995SOL    HW1 3884   3.965   2.971   5.698
  995SOL    HW2 3885   4.109   2.973   5.775
  996SOL     OW 3886   3.266   5.481   4.798
  996SOL    HW1 3887   3.301   5.400   4.844
  996SOL    HW2 3888   3.203   5.530   4.858
  997SOL     OW 3889   0.774   6.755   3.161
  997SOL    HW1 3890   0.748   6.792   3.072
  997SOL    HW2 3891   0.768   6.828   3.230
  998SOL     OW 3892   5.282   0.509   5.600
  998SOL    HW1 3893   5.278   0.479   5.696
  998SOL    HW2 3894   5.294   0.608   5.596
  999SOL     OW 3895   5.401   4.341   2.086
  999SOL    HW1 3896   5.377   4.432   2.121
  999SOL    HW2 3897   5.392   4.273   2.159
 1000SOL     OW 3898   3.730   1.767   1.689
 1000SOL    HW1 3899   3.639   1.793   1.657
 1000SOL    HW2 3900   3.793   1.843   1.676
 1001SOL     OW 3901   4.702   5.776   1.010
 1001SOL    HW1 3902   4.776   5.781   0.943
 1001SOL    HW2 3903   4.736   5.807   1.099
 1002SOL     OW 3904   5.725   1.795   1.067
 1002SOL    HW1 3905   5.812   1.843   1.077
 1002SOL    HW2 3906   5.743   1.697   1.055
 1003SOL     OW 3907   1.867   6.255   3.013
 1003SOL    HW1 3908   1.937   6.260   2.942
 1003SOL    HW2 3909   1.776   6.259   2.972
 1004SOL     OW 3910   0.224   0.797   1.669
 1004SOL    HW1 3911   0.243   0.888   1.634
 1004SOL    HW2 3912   0.217   0.799   1.769
 1005SOL     OW 3913   1.838   2.626   3.937
 1005SOL    HW1 3914   1.856   2.721   3.911
 1005SOL    HW2 3915   1.762   2.624   4.003
 1006SOL     OW 3916   0.933   4.380   0.275
 1006SOL    HW1 3917   0.999   4.315   0.236
 1006SOL    HW2 3918   0.931   4.371   0.374
 1007SOL     OW 3919   4.522   1.018   5.284
 1007SOL    HW1 3920   4.501   0.980   5.194
 1007SOL    HW2 3921   4.450   0.994   5.349
 1008SOL     OW 3922   0.546   2.566   6.174
 1008SOL    HW1 3923   0.539   2.496   6.103
 1008SOL    HW2 3924   0.585   2.526   6.257
 1009SOL     OW 3925   0.505   5.149   5.216
 1009SOL    HW1 3926   0.436   5.199   5.164
 1009SOL    HW2 3927   0.462   5.071   5.261
 1010SOL     OW 3928   2.670   2.287   0.638
 1010SOL    HW1 3929   2.755   2.297   0.690
 1010SOL    HW2 3930   2.607   2.228   0.688
 1011SOL     OW 3931   1.243   5.548   3.389
 1011SOL    HW1 3932   1.252   5.461   3.436
 1011SOL    HW2 3933   1.163   5.546   3.329
 1012SOL     OW 3934   0.342   6.557   2.292
 1012SOL    HW1 3935   0.292   6.541   2.377
 1012SOL    HW2 3936   0.277   6.586   2.221
 1013SOL     OW 3937   1.067   1.546   6.288
 1013SOL    HW1 3938   1.152   1.593   6.264
 1013SOL    HW2 3939   1.067   1.455   6.246
 1014SOL     OW 3940   0.499   4.312   6.052
 1014SOL    HW1 3941   0.452   4.229   6.081
 1014SOL    HW2 3942   0.458   4.344   5.966
 1015SOL     OW 3943   2.699   6.766   5.874
 1015SOL    HW1 3944   2.793   6.795   5.857
 1015SOL    HW2 3945   2.688   6.670   5.846
 1016SOL     OW 3946   4.234   3.812   0.487
 1016SOL    HW1 3947   4.237   3.883   0.557
 1016SOL    HW2 3948   4.321   3.813   0.436
 1017SOL     OW 3949   4.506   2.273   1.080
 1017SOL    HW1 3950   4.449   2.195   1.106
 1017SOL    HW2 3951   4.596   2.239   1.052
 1018SOL     OW 3952   1.130   4.164   4.041
 1018SOL    HW1 3953   1.201   4.098   4.066
 1018SOL    HW2 3954   1.063   4.121   3.980
 1019SOL     OW 3955   0.291   5.711   0.930
 1019SOL    HW1 3956   0.193   5.694   0.930
 1019SOL    HW2 3957   0.336   5.650   0.995
 1020SOL     OW 3958   6.453   1.023   1.439
 1020SOL    HW1 3959   6.365   1.068   1.424
 1020SOL    HW2 3960   6.516   1.087   1.484
 1021SOL     OW 3961   5.549   0.085   1.751
 1021SOL    HW1 3962   5.450   0.076   1.743
 1021SOL    HW2 3963   5.588   0.106   1.661
 1022SOL     OW 3964   2.907   4.611   5.464
 1022SOL    HW1 3965   2.939   4.615   5.370
 1022SOL    HW2 3966   2.869   4.521   5.483
 1023SOL     OW 3967   0.501   0.613   2.876
 1023SOL    HW1 3968   0.403   0.598   2.886
 1023SOL    HW2 3969   0.531   0.684   2.940
 1024SOL     OW 3970   0.557   2.746   3.889
 1024SOL    HW1 3971   0.481   2.685   3.866
 1024SOL    HW2 3972   0.556   2.766   3.987
 1025SOL     OW 3973   3.640   3.268   1.052
 1025SOL    HW1 3974   3.609   3.187   1.102
 1025SOL    HW2 3975   3.688   3.330   1.115
 1026SOL     OW 3976   2.634   2.867   1.733
 1026SOL    HW1 3977   2.687   2.945   1.698
 1026SOL    HW2 3978   2.694   2.787   1.741
 1027SOL     OW 3979   3.288   0.362   2.125
 1027SOL    HW1 3980   3.240   0.386   2.209
 1027SOL    HW2 3981   3.225   0.317   2.063
 1028SOL     OW 3982   1.839   0.010   2.396
 1028SOL    HW1 3983   1.907   7.013   2.464
 1028SOL    HW2 3984   1.792   6.955   2.364
 1029SOL     OW 3985   1.171   1.467   5.920
 1029SOL    HW1 3986   1.146   1.560   5.947
 1029SOL    HW2 3987   1.117   1.401   5.972
 1030SOL     OW 3988   3.673   3.476   2.006
 1030SOL    HW1 3989   3.758   3.511   1.967
 1030SOL    HW2 3990   3.690   3.445   2.100
 1031SOL     OW 3991   4.740   3.614   1.667
 1031SOL    HW1 3992   4.708   3.682   1.600
 1031SOL    HW2 3993   4.839   3.603   1.658
 1032SOL     OW 3994   0.801   1.283   5.537
 1032SOL    HW1 3995   0.863   1.259   5.462
 1032SOL    HW2 3996   0.818   1.224   5.616
 1033SOL     OW 3997   1.296   5.683   1.031
 1033SOL    HW1 3998   1.197   5.697   1.043
 1033SOL    HW2 3999   1.325   5.604   1.086
 1034SOL     OW 4000   1.649   5.101   4.747
 1034SOL    HW1 4001   1.606   5.048   4.821
 1034SOL    HW2 4002   1.642   5.199   4.769
 1035SOL     OW 4003   0.171   1.224   6.118
 1035SOL    HW1 4004   0.188   1.316   6.155
 1035SOL    HW2 4005   0.073   1.205   6.121
 1036SOL     OW 4006   4.218   0.709   2.238
 1036SOL    HW1 4007   4.318   0.715   2.233
 1036SOL    HW2 4008   4.189   0.715   2.334
 1037SOL     OW 4009   1.597   1.510   2.526
 1037SOL    HW1 4010   1.617   1.573   2.602
 1037SOL    HW2 4011   1.595   1.416   2.560
 1038SOL     OW 4012   1.750   0.975   5.244
 1038SOL    HW1 4013   1.761   1.058   5.189
 1038SOL    HW2 4014   1.805   0.983   5.327
 1039SOL     OW 4015   3.726   3.713   4.467
 1039SOL    HW1 4016   3.640   3.755   4.495
 1039SOL    HW2 4017   3.726   3.700   4.368
 1040SOL     OW 4018   4.647   0.849   2.662
 1040SOL    HW1 4019   4.747   0.844   2.673
 1040SOL    HW2 4020   4.610   0.920   2.720
 1041SOL     OW 4021   0.022   6.400   3.146
 1041SOL    HW1 4022   0.044   6.410   3.243
 1041SOL    HW2 4023   6.988   6.474   3.119
 1042SOL     OW 4024   4.016   5.379   2.633
 1042SOL    HW1 4025   4.016   5.397   2.731
 1042SOL    HW2 4026   4.096   5.422   2.591
 1043SOL     OW 4027   3.561   2.141   3.775
 1043SOL    HW1 4028   3.568   2.201   3.854
 1043SOL    HW2 4029   3.635   2.162   3.711
 1044SOL     OW 4030   5.985   5.092   2.546
 1044SOL    HW1 4031   5.893   5.130   2.537
 1044SOL    HW2 4032   6.023   5.116   2.636
 1045SOL     OW 4033   4.155   0.801   2.483
 1045SOL    HW1 4034   4.070   0.853   2.480
 1045SOL    HW2 4035   4.205   0.823   2.567
 1046SOL     OW 4036   1.886   1.196   0.461
 1046SOL    HW1 4037   1.905   1.257   0.538
 1046SOL    HW2 4038   1.948   1.219   0.385
 1047SOL     OW 4039   2.548   6.962   3.618
 1047SOL    HW1 4040   2.452   6.935   3.612
 1047SOL    HW2 4041   2.597   6.897   3.675
 1048SOL     OW 4042   3.271   6.357   2.953
 1048SOL    HW1 4043   3.280   6.423   3.027
 1048SOL    HW2 4044   3.197   6.293   2.975
 1049SOL     OW 4045   6.505   6.795   3.885
 1049SOL    HW1 4046   6.427   6.856   3.903
 1049SOL    HW2 4047   6.475   6.700   3.888
 1050SOL     OW 4048   3.501   5.220   2.587
 1050SOL    HW1 4049   3.578   5.248   2.529
 1050SOL    HW2 4050   3.526   5.137   2.637
 1051SOL     OW 4051   0.362   5.000   0.788
 1051SOL    HW1 4052   0.291   4.985   0.719
 1051SOL    HW2 4053   0.420   5.076   0.760
 1052SOL     OW 4054   4.281   0.922   5.414
 1052SOL    HW1 4055   4.234   0.889   5.496
 1052SOL    HW2 4056   4.218   0.919   5.336
 1053SOL     OW 4057   5.834   3.862   3.132
 1053SOL    HW1 4058   5.860   3.959   3.133
 1053SOL    HW2 4059   5.912   3.806   3.105
 1054SOL     OW 4060   3.255   3.242   0.893
 1054SOL    HW1 4061   3.178   3.306   0.891
 1054SOL    HW2 4062   3.293   3.237   0.985
 1055SOL     OW 4063   4.116   6.775   5.118
 1055SOL    HW1 4064   4.052   6.739   5.186
 1055SOL    HW2 4065   4.180   6.838   5.162
 1056SOL     OW 4066   2.070   3.509   0.084
 1056SOL    HW1 4067   2.168   3.501   0.068
 1056SOL    HW2 4068   2.029   3.418   0.088
 1057SOL     OW 4069   3.485   3.093   1.541
 1057SOL    HW1 4070   3.422   3.022   1.572
 1057SOL    HW2 4071   3.552   3.054   1.478
 1058SOL     OW 4072   5.627   2.825   3.489
 1058SOL    HW1 4073   5.671   2.891   3.428
 1058SOL    HW2 4074   5.554   2.870   3.540
 1059SOL     OW 4075   2.029   0.727   2.251
 1059SOL    HW1 4076   2.065   0.668   2.323
 1059SOL    HW2 4077   2.091   0.725   2.172
 1060SOL     OW 4078   0.260   4.724   4.148
 1060SOL    HW1 4079   0.174   4.774   4.144
 1060SOL    HW2 4080   0.248   4.635   4.104
 1061SOL     OW 4081   6.560   3.386   6.411
 1061SOL    HW1 4082   6.499   3.365   6.488
 1061SOL    HW2 4083   6.505   3.409   6.331
 1062SOL     OW 4084   5.492   5.032   5.861
 1062SOL    HW1 4085   5.454   5.080   5.782
 1062SOL    HW2 4086   5.418   4.988   5.912
 1063SOL     OW 4087   1.160   5.634   0.665
 1063SOL    HW1 4088   1.227   5.700   0.632
 1063SOL    HW2 4089   1.076   5.642   0.613
 1064SOL     OW 4090   1.450   4.767   3.367
 1064SOL    HW1 4091   1.378   4.832   3.389
 1064SOL    HW2 4092   1.472   4.712   3.447
 1065SOL     OW 4093   4.952   0.885   3.278
 1065SOL    HW1 4094   4.883   0.867   3.349
 1065SOL    HW2 4095   4.959   0.984   3.264
 1066SOL     OW 4096   4.720   6.731   2.765
 1066SOL    HW1 4097   4.704   6.641   2.805
 1066SOL    HW2 4098   4.699   6.802   2.833
 1067SOL     OW 4099   0.953   2.851   0.193
 1067SOL    HW1 4100   1.052   2.854   0.198
 1067SOL    HW2 4101   0.913   2.892   0.275
 1068SOL     OW 4102   6.625   5.080   2.075
 1068SOL    HW1 4103   6.681   5.003   2.047
 1068SOL    HW2 4104   6.672   5.132   2.146
 1069SOL     OW 4105   4.951   5.625   0.422
 1069SOL    HW1 4106   4.874   5.661   0.475
 1069SOL    HW2 4107   5.027   5.690   0.425
 1070SOL     OW 4108   1.037   0.223   1.245
 1070SOL    HW1 4109   1.039   0.176   1.157
 1070SOL    HW2 4110   1.084   0.167   1.313
 1071SOL     OW 4111   1.513   0.987   3.675
 1071SOL    HW1 4112   1.490   1.043   3.755
 1071SOL    HW2 4113   1.611   0.967   3.675
 1072SOL     OW 4114   2.374   1.056   1.245
 1072SOL    HW1 4115   2.283   1.055   1.202
 1072SOL    HW2 4116   2.427   1.133   1.209
 1073SOL     OW 4117   5.196   0.650   3.708
 1073SOL    HW1 4118   5.155   0.716   3.644
 1073SOL    HW2 4119   5.261   0.696   3.767
 1074SOL     OW 4120   2.411   5.185   1.461
 1074SOL    HW1 4121   2.418   5.178   1.561
 1074SOL    HW2 4122   2.474   5.119   1.420
 1075SOL     OW 4123   5.480   0.152   3.134
 1075SOL    HW1 4124   5.415   0.109   3.072
 1075SOL    HW2 4125   5.436   0.167   3.223
 1076SOL     OW 4126   0.781   2.475   5.784
 1076SOL    HW1 4127   0.875   2.503   5.799
 1076SOL    HW2 4128   0.725   2.555   5.762
 1077SOL     OW 4129   6.512   0.163   0.610
 1077SOL    HW1 4130   6.553   0.246   0.573
 1077SOL    HW2 4131   6.511   0.092   0.539
 1078SOL     OW 4132   6.805   0.719   2.359
 1078SOL    HW1 4133   6.734   0.745   2.424
 1078SOL    HW2 4134   6.828   0.797   2.301
 1079SOL     OW 4135   1.541   6.268   2.057
 1079SOL    HW1 4136   1.590   6.263   2.144
 1079SOL    HW2 4137   1.606   6.254   1.982
 1080SOL     OW 4138   2.274   5.314   3.464
 1080SOL    HW1 4139   2.190   5.361   3.492
 1080SOL    HW2 4140   2.275   5.223   3.505
 1081SOL     OW 4141   6.651   5.233   5.108
 1081SOL    HW1 4142   6.728   5.188   5.154
 1081SOL    HW2 4143   6.659   5.332   5.119
 1082SOL     OW 4144   5.464   2.288   5.450
 1082SOL    HW1 4145   5.537   2.223   5.469
 1082SOL    HW2 4146   5.463   2.359   5.521
 1083SOL     OW 4147   4.599   4.153   0.325
 1083SOL    HW1 4148   4.508   4.153   0.366
 1083SOL    HW2 4149   4.667   4.181   0.393
 1084SOL     OW 4150   6.344   6.764   6.239
 1084SOL    HW1 4151   6.363   6.712   6.155
 1084SOL    HW2 4152   6.299   6.704   6.305
 1085SOL     OW 4153   1.309   3.892   4.880
 1085SOL    HW1 4154   1.388   3.832   4.890
 1085SOL    HW2 4155   1.227   3.837   4.860
 1086SOL     OW 4156   0.045   4.353   0.395
 1086SOL    HW1 4157   0.115   4.333   0.326
 1086SOL    HW2 4158   0.087   4.401   0.472
 1087SOL     OW 4159   0.193   2.234   4.809
 1087SOL    HW1 4160   0.151   2.303   4.868
 1087SOL    HW2 4161   0.274   2.272   4.766
 1088SOL     OW 4162   0.512   3.203   2.781
 1088SOL    HW1 4163   0.540   3.264   2.707
 1088SOL    HW2 4164   0.457   3.129   2.744
 1089SOL     OW 4165   6.734   5.998   4.438
 1089SOL    HW1 4166   6.742   6.007   4.537
 1089SOL    HW2 4167   6.819   6.030   4.395
 1090SOL     OW 4168   3.255   1.621   3.416
 1090SOL    HW1 4169   3.322   1.674   3.364
 1090SOL    HW2 4170   3.283   1.617   3.512
 1091SOL     OW 4171   2.462   2.194   4.789
 1091SOL    HW1 4172   2.538   2.254   4.762
 1091SOL    HW2 4173   2.455   2.192   4.888
 1092SOL     OW 4174   1.054   4.673   0.363
 1092SOL    HW1 4175   1.051   4.683   0.463
 1092SOL    HW2 4176   1.071   4.578   0.339
 1093SOL     OW 4177   2.450   0.021   1.717
 1093SOL    HW1 4178   2.382   7.000   1.773
 1093SOL    HW2 4179   2.434   0.120   1.723
 1094SOL     OW 4180   1.283   6.980   3.332
 1094SOL    HW1 4181   1.349   6.915   3.369
 1094SOL    HW2 4182   1.230   7.021   3.407
 1095SOL     OW 4183   0.739   2.816   6.058
 1095SOL    HW1 4184   0.787   2.764   6.129
 1095SOL    HW2 4185   0.795   2.896   6.033
 1096SOL     OW 4186   3.426   4.520   1.500
 1096SOL    HW1 4187   3.419   4.421   1.511
 1096SOL    HW2 4188   3.488   4.557   1.569
 1097SOL     OW 4189   2.705   4.648   4.003
 1097SOL    HW1 4190   2.654   4.579   4.055
 1097SOL    HW2 4191   2.668   4.654   3.911
 1098SOL     OW 4192   4.315   3.456   6.936
 1098SOL    HW1 4193   4.379   3.484   6.864
 1098SOL    HW2 4194   4.232   3.512   6.930
 1099SOL     OW 4195   3.723   0.780   5.859
 1099SOL    HW1 4196   3.795   0.722   5.896
 1099SOL    HW2 4197   3.657   0.723   5.810
 1100SOL     OW 4198   4.049   1.893   4.725
 1100SOL    HW1 4199   3.962   1.917   4.768
 1100SOL    HW2 4200   4.037   1.813   4.666
 1101SOL     OW 4201   5.512   2.782   5.925
 1101SOL    HW1 4202   5.589   2.846   5.927
 1101SOL    HW2 4203   5.459   2.796   5.842
 1102SOL     OW 4204   0.942   0.701   4.887
 1102SOL    HW1 4205   0.898   0.621   4.846
 1102SOL    HW2 4206   1.022   0.672   4.939
 1103SOL     OW 4207   3.907   1.272   0.329
 1103SOL    HW1 4208   3.976   1.239   0.393
 1103SOL    HW2 4209   3.941   1.263   0.236
 1104SOL     OW 4210   2.122   3.339   4.851
 1104SOL    HW1 4211   2.032   3.300   4.871
 1104SOL    HW2 4212   2.121   3.380   4.760
 1105SOL     OW 4213   6.107   3.290   4.940
 1105SOL    HW1 4214   6.180   3.354   4.916
 1105SOL    HW2 4215   6.026   3.341   4.968
 1106SOL     OW 4216   0.193   2.562   0.603
 1106SOL    HW1 4217   0.252   2.556   0.683
 1106SOL    HW2 4218   0.207   2.481   0.546
 1107SOL     OW 4219   1.235   0.252   6.948
 1107SOL    HW1 4220   1.298   0.277   7.021
 1107SOL    HW2 4221   1.231   0.325   6.880
 1108SOL     OW 4222   3.511   6.848   5.647
 1108SOL    HW1 4223   3.427   6.823   5.598
 1108SOL    HW2 4224   3.577   6.774   5.641
 1109SOL     OW 4225   5.713   0.720   3.941
 1109SOL    HW1 4226   5.771   0.642   3.920
 1109SOL    HW2 4227   5.770   0.800   3.960
 1110SOL     OW 4228   4.179   2.230   3.215
 1110SOL    HW1 4229   4.186   2.293   3.138
 1110SOL    HW2 4230   4.249   2.159   3.207
 1111SOL     OW 4231   5.355   5.832   6.553
 1111SOL    HW1 4232   5.443   5.875   6.575
 1111SOL    HW2 4233   5.348   5.819   6.454
 1112SOL     OW 4234   5.595   1.074   2.540
 1112SOL    HW1 4235   5.512   1.045   2.493
 1112SOL    HW2 4236   5.616   1.009   2.614
 1113SOL     OW 4237   5.821   4.450   1.487
 1113SOL    HW1 4238   5.865   4.529   1.442
 1113SOL    HW2 4239   5.858   4.366   1.448
 1114SOL     OW 4240   2.729   1.143   5.916
 1114SOL    HW1 4241   2.812   1.154   5.862
 1114SOL    HW2 4242   2.651   1.127   5.855
 1115SOL     OW 4243   3.677   3.687   5.874
 1115SOL    HW1 4244   3.731   3.615   5.831
 1115SOL    HW2 4245   3.657   3.662   5.969
 1116SOL     OW 4246   4.623   6.484   5.938
 1116SOL    HW1 4247   4.621   6.486   6.038
 1116SOL    HW2 4248   4.694   6.547   5.906
 1117SOL     OW 4249   1.633   2.139   1.908
 1117SOL    HW1 4250   1.641   2.228   1.863
 1117SOL    HW2 4251   1.603   2.152   2.002
 1118SOL     OW 4252   2.410   4.607   0.907
 1118SOL    HW1 4253   2.502   4.641   0.888
 1118SOL    HW2 4254   2.347   4.684   0.919
 1119SOL     OW 4255   4.135   4.568   1.603
 1119SOL    HW1 4256   4.067   4.635   1.634
 1119SOL    HW2 4257   4.200   4.549   1.677
 1120SOL     OW 4258   5.831   5.985   0.980
 1120SOL    HW1 4259   5.844   6.055   0.909
 1120SOL    HW2 4260   5.912   5.927   0.985
 1121SOL     OW 4261   0.003   4.531   4.827
 1121SOL    HW1 4262   6.954   4.584   4.866
 1121SOL    HW2 4263   0.068   4.594   4.784
 1122SOL     OW 4264   5.174   2.666   1.642
 1122SOL    HW1 4265   5.132   2.593   1.588
 1122SOL    HW2 4266   5.267   2.642   1.666
 1123SOL     OW 4267   5.028   2.408   2.918
 1123SOL    HW1 4268   5.059   2.489   2.967
 1123SOL    HW2 4269   5.020   2.429   2.820
 1124SOL     OW 4270   7.013   3.451   5.423
 1124SOL    HW1 4271   6.948   3.527   5.412
 1124SOL    HW2 4272   0.079   3.486   5.411
 1125SOL     OW 4273   2.330   1.665   3.504
 1125SOL    HW1 4274   2.374   1.607   3.436
 1125SOL    HW2 4275   2.245   1.622   3.534
 1126SOL     OW 4276   5.672   5.932   6.392
 1126SOL    HW1 4277   5.616   6.006   6.355
 1126SOL    HW2 4278   5.629   5.844   6.369
 1127SOL     OW 4279   5.368   6.488   4.521
 1127SOL    HW1 4280   5.374   6.407   4.580
 1127SOL    HW2 4281   5.423   6.474   4.439
 1128SOL     OW 4282   6.132   1.557   3.909
 1128SOL    HW1 4283   6.187   1.474   3.899
 1128SOL    HW2 4284   6.097   1.584   3.819
 1129SOL     OW 4285   2.088   0.030   0.534
 1129SOL    HW1 4286   2.089   0.096   0.610
 1129SOL    HW2 4287   2.028   0.064   0.462
 1130SOL     OW 4288   2.269   5.082   0.853
 1130SOL    HW1 4289   2.169   5.092   0.856
 1130SOL    HW2 4290   2.312   5.166   0.887
 1131SOL     OW 4291   1.131   6.670   5.561
 1131SOL    HW1 4292   1.124   6.578   5.601
 1131SOL    HW2 4293   1.066   6.678   5.485
 1132SOL     OW 4294   5.352   7.007   2.830
 1132SOL    HW1 4295   5.379   0.060   2.777
 1132SOL    HW2 4296   5.312   0.008   2.917
 1133SOL     OW 4297   1.191   1.072   0.635
 1133SOL    HW1 4298   1.242   0.987   0.646
 1133SOL    HW2 4299   1.224   1.120   0.553
 1134SOL     OW 4300   4.960   6.787   2.407
 1134SOL    HW1 4301   5.043   6.734   2.391
 1134SOL    HW2 4302   4.897   6.733   2.464
 1135SOL     OW 4303   2.828   6.570   3.845
 1135SOL    HW1 4304   2.734   6.541   3.859
 1135SOL    HW2 4305   2.831   6.638   3.772
 1136SOL     OW 4306   4.382   4.548   3.231
 1136SOL    HW1 4307   4.458   4.484   3.232
 1136SOL    HW2 4308   4.358   4.571   3.137
 1137SOL     OW 4309   1.574   6.837   0.211
 1137SOL    HW1 4310   1.561   6.772   0.137
 1137SOL    HW2 4311   1.640   6.907   0.184
 1138SOL     OW 4312   0.488   0.918   6.352
 1138SOL    HW1 4313   0.478   0.948   6.447
 1138SOL    HW2 4314   0.492   0.998   6.292
 1139SOL     OW 4315   3.044   4.844   2.841
 1139SOL    HW1 4316   3.065   4.797   2.755
 1139SOL    HW2 4317   3.056   4.943   2.828
 1140SOL     OW 4318   2.683   1.332   2.573
 1140SOL    HW1 4319   2.604   1.272   2.586
 1140SOL    HW2 4320   2.718   1.320   2.480
 1141SOL     OW 4321   0.889   6.063   0.015
 1141SOL    HW1 4322   0.803   6.076   0.063
 1141SOL    HW2 4323   0.870   6.044   6.946
 1142SOL     OW 4324   3.424   0.166   3.616
 1142SOL    HW1 4325   3.435   0.125   3.707
 1142SOL    HW2 4326   3.446   0.263   3.620
 1143SOL     OW 4327   2.241   2.654   3.573
 1143SOL    HW1 4328   2.168   2.590   3.550
 1143SOL    HW2 4329   2.236   2.678   3.670
 1144SOL     OW 4330   6.427   4.434   3.879
 1144SOL    HW1 4331   6.413   4.336   3.868
 1144SOL    HW2 4332   6.504   4.463   3.822
 1145SOL     OW 4333   6.437   3.187   1.093
 1145SOL    HW1 4334   6.470   3.177   1.187
 1145SOL    HW2 4335   6.417   3.284   1.075
 1146SOL     OW 4336   0.067   0.719   2.030
 1146SOL    HW1 4337   7.009   0.670   2.012
 1146SOL    HW2 4338   0.091   0.710   2.126
 1147SOL     OW 4339   3.087   5.921   2.076
 1147SOL    HW1 4340   3.172   5.941   2.027
 1147SOL    HW2 4341   3.053   6.005   2.118
 1148SOL     OW 4342   4.384   5.990   0.390
 1148SOL    HW1 4343   4.408   6.045   0.310
 1148SOL    HW2 4344   4.428   6.027   0.472
 1149SOL     OW 4345   5.935   2.534   2.743
 1149SOL    HW1 4346   5.971   2.623   2.771
 1149SOL    HW2 4347   5.835   2.537   2.743
 1150SOL     OW 4348   0.823   4.151   0.123
 1150SOL    HW1 4349   0.822   4.247   0.150
 1150SOL    HW2 4350   0.832   4.145   0.023
 1151SOL     OW 4351   5.763   4.697   5.623
 1151SOL    HW1 4352   5.732   4.724   5.714
 1151SOL    HW2 4353   5.756   4.598   5.614
 1152SOL     OW 4354   4.435   5.919   6.509
 1152SOL    HW1 4355   4.375   5.855   6.460
 1152SOL    HW2 4356   4.529   5.903   6.480
 1153SOL     OW 4357   0.136   0.008   2.430
 1153SOL    HW1 4358   0.070   0.073   2.393
 1153SOL    HW2 4359   0.220   0.010   2.376
 1154SOL     OW 4360   0.083   4.298   1.386
 1154SOL    HW1 4361   0.119   4.284   1.479
 1154SOL    HW2 4362   0.142   4.361   1.337
 1155SOL     OW 4363   2.490   5.041   6.275
 1155SOL    HW1 4364   2.407   5.087   6.305
 1155SOL    HW2 4365   2.568   5.076   6.327
 1156SOL     OW 4366   4.404   2.036   4.866
 1156SOL    HW1 4367   4.307   2.034   4.845
 1156SOL    HW2 4368   4.457   2.034   4.781
 1157SOL     OW 4369   5.264   1.096   6.343
 1157SOL    HW1 4370   5.203   1.164   6.385
 1157SOL    HW2 4371   5.277   1.119   6.247
 1158SOL     OW 4372   6.849   5.079   5.229
 1158SOL    HW1 4373   6.882   5.067   5.136
 1158SOL    HW2 4374   6.814   4.992   5.263
 1159SOL     OW 4375   6.677   0.188   3.806
 1159SOL    HW1 4376   6.727   0.151   3.727
 1159SOL    HW2 4377   6.699   0.135   3.887
 1160SOL     OW 4378   5.257   4.492   0.970
 1160SOL    HW1 4379   5.344   4.502   1.019
 1160SOL    HW2 4380   5.245   4.396   0.945
 1161SOL     OW 4381   6.846   5.255   5.853
 1161SOL    HW1 4382   6.933   5.271   5.901
 1161SOL    HW2 4383   6.816   5.340   5.810
 1162SOL     OW 4384   2.383   1.810   6.361
 1162SOL    HW1 4385   2.291   1.799   6.398
 1162SOL    HW2 4386   2.445   1.744   6.405
 1163SOL     OW 4387   6.375   4.294   1.981
 1163SOL    HW1 4388   6.297   4.278   1.919
 1163SOL    HW2 4389   6.432   4.367   1.943
 1164SOL     OW 4390   5.396   2.901   3.637
 1164SOL    HW1 4391   5.402   2.804   3.661
 1164SOL    HW2 4392   5.368   2.954   3.717
 1165SOL     OW 4393   4.076   5.709   3.571
 1165SOL    HW1 4394   4.044   5.636   3.511
 1165SOL    HW2 4395   4.010   5.784   3.571
 1166SOL     OW 4396   3.097   6.278   0.627
 1166SOL    HW1 4397   3.041   6.292   0.709
 1166SOL    HW2 4398   3.115   6.366   0.583
 1167SOL     OW 4399   3.887   6.921   0.894
 1167SOL    HW1 4400   3.934   7.001   0.931
 1167SOL    HW2 4401   3.803   6.950   0.848
 1168SOL     OW 4402   5.442   2.613   1.685
 1168SOL    HW1 4403   5.478   2.523   1.663
 1168SOL    HW2 4404   5.440   2.625   1.784
 1169SOL     OW 4405   4.509   2.280   5.968
 1169SOL    HW1 4406   4.494   2.240   5.877
 1169SOL    HW2 4407   4.423   2.319   6.001
 1170SOL     OW 4408   5.380   6.875   2.583
 1170SOL    HW1 4409   5.346   6.910   2.670
 1170SOL    HW2 4410   5.325   6.912   2.509
 1171SOL     OW 4411   3.043   6.878   6.982
 1171SOL    HW1 4412   2.953   6.834   6.989
 1171SOL    HW2 4413   3.082   6.860   6.891
 1172SOL     OW 4414   3.694   4.063   0.876
 1172SOL    HW1 4415   3.654   4.148   0.842
 1172SOL    HW2 4416   3.622   3.997   0.898
 1173SOL     OW 4417   3.579   0.914   1.032
 1173SOL    HW1 4418   3.549   0.997   0.986
 1173SOL    HW2 4419   3.520   0.838   1.005
 1174SOL     OW 4420   2.448   4.576   1.596
 1174SOL    HW1 4421   2.522   4.531   1.645
 1174SOL    HW2 4422   2.423   4.522   1.516
 1175SOL     OW 4423   3.923   4.538   6.235
 1175SOL    HW1 4424   3.825   4.518   6.237
 1175SOL    HW2 4425   3.967   4.480   6.166
 1176SOL     OW 4426   5.524   3.781   6.955
 1176SOL    HW1 4427   5.543   3.706   7.019
 1176SOL    HW2 4428   5.496   3.862   7.005
 1177SOL     OW 4429   0.028   3.859   4.836
 1177SOL    HW1 4430   7.015   3.940   4.878
 1177SOL    HW2 4431   0.126   3.874   4.821
 1178SOL     OW 4432   3.510   4.293   0.934
 1178SOL    HW1 4433   3.435   4.327   0.878
 1178SOL    HW2 4434   3.480   4.285   1.029
 1179SOL     OW 4435   2.753   5.675   1.090
 1179SOL    HW1 4436   2.759   5.650   1.187
 1179SOL    HW2 4437   2.661   5.653   1.055
 1180SOL     OW 4438   2.629   5.298   4.188
 1180SOL    HW1 4439   2.598   5.286   4.094
 1180SOL    HW2 4440   2.552   5.323   4.247
 1181SOL     OW 4441   0.262   5.172   4.753
 1181SOL    HW1 4442   0.361   5.188   4.758
 1181SOL    HW2 4443   0.217   5.225   4.826
 1182SOL     OW 4444   4.580   6.031   3.783
 1182SOL    HW1 4445   4.643   5.958   3.810
 1182SOL    HW2 4446   4.493   5.990   3.756
 1183SOL     OW 4447   2.995   4.513   1.061
 1183SOL    HW1 4448   3.076   4.460   1.086
 1183SOL    HW2 4449   2.920   4.451   1.038
 1184SOL     OW 4450   6.974   1.256   5.378
 1184SOL    HW1 4451   7.011   1.252   5.285
 1184SOL    HW2 4452   6.890   1.310   5.377
 1185SOL     OW 4453   1.236   0.938   1.046
 1185SOL    HW1 4454   1.231   1.023   0.994
 1185SOL    HW2 4455   1.149   0.890   1.040
 1186SOL     OW 4456   4.737   6.174   5.354
 1186SOL    HW1 4457   4.650   6.183   5.403
 1186SOL    HW2 4458   4.734   6.095   5.294
 1187SOL     OW 4459   4.776   0.448   5.676
 1187SOL    HW1 4460   4.792   0.358   5.635
 1187SOL    HW2 4461   4.817   0.451   5.767
 1188SOL     OW 4462   3.514   6.193   6.272
 1188SOL    HW1 4463   3.477   6.280   6.303
 1188SOL    HW2 4464   3.507   6.187   6.172
 1189SOL     OW 4465   6.121   1.587   1.585
 1189SOL    HW1 4466   6.165   1.606   1.497
 1189SOL    HW2 4467   6.165   1.508   1.627
 1190SOL     OW 4468   3.286   5.969   3.865
 1190SOL    HW1 4469   3.305   6.065   3.886
 1190SOL    HW2 4470   3.288   5.956   3.766
 1191SOL     OW 4471   4.212   5.638   5.051
 1191SOL    HW1 4472   4.172   5.619   4.962
 1191SOL    HW2 4473   4.147   5.690   5.107
 1192SOL     OW 4474   5.263   4.721   2.865
 1192SOL    HW1 4475   5.322   4.712   2.785
 1192SOL    HW2 4476   5.263   4.636   2.917
 1193SOL     OW 4477   0.030   2.296   5.225
 1193SOL    HW1 4478   6.982   2.261   5.169
 1193SOL    HW2 4479   0.091   2.221   5.250
 1194SOL     OW 4480   5.945   0.200   1.157
 1194SOL    HW1 4481   5.940   0.300   1.154
 1194SOL    HW2 4482   6.021   0.171   1.214
 1195SOL     OW 4483   6.961   4.476   1.203
 1195SOL    HW1 4484   0.012   4.529   1.235
 1195SOL    HW2 4485   6.960   4.387   1.250
 1196SOL     OW 4486   6.578   4.999   3.431
 1196SOL    HW1 4487   6.645   5.040   3.493
 1196SOL    HW2 4488   6.625   4.959   3.352
 1197SOL     OW 4489   4.923   6.803   4.768
 1197SOL    HW1 4490   5.021   6.799   4.750
 1197SOL    HW2 4491   4.905   6.774   4.863
 1198SOL     OW 4492   1.511   3.324   3.007
 1198SOL    HW1 4493   1.522   3.372   2.920
 1198SOL    HW2 4494   1.422   3.346   3.046
 1199SOL     OW 4495   3.610   3.784   1.375
 1199SOL    HW1 4496   3.614   3.707   1.439
 1199SOL    HW2 4497   3.523   3.832   1.386
 1200SOL     OW 4498   3.522   4.175   4.454
 1200SOL    HW1 4499   3.534   4.077   4.474
 1200SOL    HW2 4500   3.438   4.208   4.495
 1201SOL     OW 4501   1.331   1.652   3.988
 1201SOL    HW1 4502   1.382   1.569   3.964
 1201SOL    HW2 4503   1.339   1.718   3.913
 1202SOL     OW 4504   0.568   5.480   5.013
 1202SOL    HW1 4505   0.641   5.433   5.062
 1202SOL    HW2 4506   0.535   5.557   5.069
 1203SOL     OW 4507   0.328   5.811   0.079
 1203SOL    HW1 4508   0.317   5.722   0.123
 1203SOL    HW2 4509   0.257   5.873   0.111
 1204SOL     OW 4510   4.548   1.333   1.381
 1204SOL    HW1 4511   4.625   1.380   1.340
 1204SOL    HW2 4512   4.571   1.305   1.474
 1205SOL     OW 4513   3.953   3.428   0.912
 1205SOL    HW1 4514   3.871   3.398   0.962
 1205SOL    HW2 4515   4.017   3.352   0.905
 1206SOL     OW 4516   2.731   2.474   5.172
 1206SOL    HW1 4517   2.806   2.504   5.230
 1206SOL    HW2 4518   2.646   2.474   5.225
 1207SOL     OW 4519   2.037   6.483   1.277
 1207SOL    HW1 4520   1.969   6.410   1.264
 1207SOL    HW2 4521   2.127   6.442   1.290
 1208SOL     OW 4522   3.741   3.445   1.268
 1208SOL    HW1 4523   3.747   3.516   1.198
 1208SOL    HW2 4524   3.706   3.485   1.353
 1209SOL     OW 4525   4.503   0.425   3.657
 1209SOL    HW1 4526   4.433   0.374   3.606
 1209SOL    HW2 4527   4.492   0.523   3.638
 1210SOL     OW 4528   3.677   6.736   3.407
 1210SOL    HW1 4529   3.630   6.795   3.341
 1210SOL    HW2 4530   3.617   6.660   3.432
 1211SOL     OW 4531   0.830   3.560   2.969
 1211SOL    HW1 4532   0.831   3.471   2.921
 1211SOL    HW2 4533   0.760   3.619   2.929
 1212SOL     OW 4534   5.842   0.605   6.988
 1212SOL    HW1 4535   5.784   0.665   0.015
 1212SOL    HW2 4536   5.795   0.580   6.904
 1213SOL     OW 4537   6.031   2.518   1.154
 1213SOL    HW1 4538   6.084   2.524   1.069
 1213SOL    HW2 4539   6.066   2.585   1.219
 1214SOL     OW 4540   1.087   3.981   0.039
 1214SOL    HW1 4541   1.105   3.888   0.069
 1214SOL    HW2 4542   0.996   3.986   7.024
 1215SOL     OW 4543   1.135   4.648   3.396
 1215SOL    HW1 4544   1.190   4.645   3.313
 1215SOL    HW2 4545   1.060   4.712   3.385
 1216SOL     OW 4546   5.010   6.900   0.800
 1216SOL    HW1 4547   5.074   6.968   0.766
 1216SOL    HW2 4548   4.916   6.927   0.777
 1217SOL     OW 4549   2.360   4.389   1.396
 1217SOL    HW1 4550   2.306   4.307   1.377
 1217SOL    HW2 4551   2.332   4.462   1.333
 1218SOL     OW 4552   1.236   3.546   4.970
 1218SOL    HW1 4553   1.249   3.448   4.959
 1218SOL    HW2 4554   1.168   3.563   5.041
 1219SOL     OW 4555   5.120   6.164   1.924
 1219SOL    HW1 4556   5.195   6.183   1.860
 1219SOL    HW2 4557   5.143   6.083   1.979
 1220SOL     OW 4558   0.938   4.771   3.049
 1220SOL    HW1 4559   0.980   4.806   3.133
 1220SOL    HW2 4560   0.894   4.846   3.000
 1221SOL     OW 4561   4.010   4.374   6.040
 1221SOL    HW1 4562   4.086   4.316   6.071
 1221SOL    HW2 4563   3.933   4.316   6.013
 1222SOL     OW 4564   6.537   0.631   0.097
 1222SOL    HW1 4565   6.586   0.708   0.056
 1222SOL    HW2 4566   6.448   0.620   0.053
 1223SOL     OW 4567   4.478   2.005   0.085
 1223SOL    HW1 4568   4.467   2.104   0.088
 1223SOL    HW2 4569   4.390   1.962   0.064
 1224SOL     OW 4570   3.753   5.294   0.824
 1224SOL    HW1 4571   3.853   5.291   0.824
 1224SOL    HW2 4572   3.719   5.275   0.732
 1225SOL     OW 4573   3.339   3.500   6.446
 1225SOL    HW1 4574   3.359   3.520   6.350
 1225SOL    HW2 4575   3.275   3.569   6.481
 1226SOL     OW 4576   2.014   6.052   2.037
 1226SOL    HW1 4577   1.980   6.012   1.951
 1226SOL    HW2 4578   1.968   6.007   2.114
 1227SOL     OW 4579   6.498   4.776   5.678
 1227SOL    HW1 4580   6.537   4.708   5.741
 1227SOL    HW2 4581   6.566   4.847   5.660
 1228SOL     OW 4582   2.967   2.136   6.177
 1228SOL    HW1 4583   2.945   2.094   6.089
 1228SOL    HW2 4584   3.059   2.109   6.204
 1229SOL     OW 4585   3.664   5.267   5.895
 1229SOL    HW1 4586   3.740   5.327   5.871
 1229SOL    HW2 4587   3.688   5.173   5.872
 1230SOL     OW 4588   4.515   6.719   2.440
 1230SOL    HW1 4589   4.614   6.722   2.453
 1230SOL    HW2 4590   4.486   6.801   2.391
 1231SOL     OW 4591   1.812   2.549   4.668
 1231SOL    HW1 4592   1.726   2.499   4.681
 1231SOL    HW2 4593   1.886   2.485   4.650
 1232SOL     OW 4594   0.385   1.833   5.763
 1232SOL    HW1 4595   0.340   1.801   5.679
 1232SOL    HW2 4596   0.316   1.843   5.835
 1233SOL     OW 4597   0.757   4.813   5.098
 1233SOL    HW1 4598   0.678   4.831   5.038
 1233SOL    HW2 4599   0.760   4.881   5.171
 1234SOL     OW 4600   6.412   3.348   5.973
 1234SOL    HW1 4601   6.320   3.388   5.979
 1234SOL    HW2 4602   6.476   3.406   6.022
 1235SOL     OW 4603   6.630   5.803   2.662
 1235SOL    HW1 4604   6.669   5.845   2.581
 1235SOL    HW2 4605   6.630   5.869   2.738
 1236SOL     OW 4606   4.520   1.427   6.747
 1236SOL    HW1 4607   4.604   1.465   6.786
 1236SOL    HW2 4608   4.516   1.449   6.649
 1237SOL     OW 4609   2.716   4.860   6.281
 1237SOL    HW1 4610   2.662   4.778   6.262
 1237SOL    HW2 4611   2.660   4.941   6.261
 1238SOL     OW 4612   2.174   0.947   0.653
 1238SOL    HW1 4613   2.124   0.872   0.611
 1238SOL    HW2 4614   2.249   0.975   0.593
 1239SOL     OW 4615   7.010   6.966   6.324
 1239SOL    HW1 4616   0.010   0.028   6.360
 1239SOL    HW2 4617   6.911   6.955   6.334
 1240SOL     OW 4618   5.294   6.493   1.457
 1240SOL    HW1 4619   5.259   6.450   1.373
 1240SOL    HW2 4620   5.386   6.459   1.476
 1241SOL     OW 4621   5.197   3.600   4.338
 1241SOL    HW1 4622   5.182   3.598   4.437
 1241SOL    HW2 4623   5.148   3.523   4.296
 1242SOL     OW 4624   0.500   3.611   1.522
 1242SOL    HW1 4625   0.468   3.519   1.544
 1242SOL    HW2 4626   0.495   3.625   1.423
 1243SOL     OW 4627   7.020   6.780   4.693
 1243SOL    HW1 4628   6.921   6.770   4.679
 1243SOL    HW2 4629   0.018   6.876   4.683
 1244SOL     OW 4630   6.514   0.168   4.252
 1244SOL    HW1 4631   6.614   0.168   4.262
 1244SOL    HW2 4632   6.472   0.136   4.336
 1245SOL     OW 4633   5.103   5.129   0.449
 1245SOL    HW1 4634   5.040   5.080   0.509
 1245SOL    HW2 4635   5.060   5.214   0.418
 1246SOL     OW 4636   2.301   6.217   1.530
 1246SOL    HW1 4637   2.387   6.168   1.515
 1246SOL    HW2 4638   2.315   6.291   1.596
 1247SOL     OW 4639   1.856   0.153   6.663
 1247SOL    HW1 4640   1.771   0.190   6.626
 1247SOL    HW2 4641   1.847   0.145   6.763
 1248SOL     OW 4642   2.215   6.940   5.224
 1248SOL    HW1 4643   2.254   7.024   5.262
 1248SOL    HW2 4644   2.259   6.921   5.136
 1249SOL     OW 4645   6.408   1.832   2.780
 1249SOL    HW1 4646   6.463   1.872   2.706
 1249SOL    HW2 4647   6.326   1.887   2.794
 1250SOL     OW 4648   6.041   5.209   4.274
 1250SOL    HW1 4649   6.053   5.249   4.183
 1250SOL    HW2 4650   6.039   5.282   4.343
 1251SOL     OW 4651   3.366   0.818   4.276
 1251SOL    HW1 4652   3.413   0.906   4.272
 1251SOL    HW2 4653   3.280   0.823   4.224
 1252SOL     OW 4654   4.218   3.788   5.588
 1252SOL    HW1 4655   4.171   3.711   5.546
 1252SOL    HW2 4656   4.267   3.757   5.670
 1253SOL     OW 4657   2.985   5.992   2.333
 1253SOL    HW1 4658   2.914   5.963   2.396
 1253SOL    HW2 4659   2.950   6.065   2.274
 1254SOL     OW 4660   1.160   2.142   2.411
 1254SOL    HW1 4661   1.092   2.167   2.480
 1254SOL    HW2 4662   1.227   2.215   2.402
 1255SOL     OW 4663   6.565   2.200   5.011
 1255SOL    HW1 4664   6.524   2.165   4.926
 1255SOL    HW2 4665   6.542   2.296   5.022
 1256SOL     OW 4666   6.465   6.345   3.325
 1256SOL    HW1 4667   6.504   6.343   3.233
 1256SOL    HW2 4668   6.532   6.384   3.389
 1257SOL     OW 4669   0.247   6.291   5.204
 1257SOL    HW1 4670   0.219   6.246   5.119
 1257SOL    HW2 4671   0.166   6.322   5.253
 1258SOL     OW 4672   1.594   5.381   3.398
 1258SOL    HW1 4673   1.509   5.362   3.448
 1258SOL    HW2 4674   1.582   5.464   3.343
 1259SOL     OW 4675   4.227   1.131   4.331
 1259SOL    HW1 4676   4.221   1.032   4.345
 1259SOL    HW2 4677   4.195   1.154   4.239
 1260SOL     OW 4678   1.897   1.561   0.437
 1260SOL    HW1 4679   1.944   1.638   0.393
 1260SOL    HW2 4680   1.950   1.530   0.516
 1261SOL     OW 4681   0.180   5.509   6.532
 1261SOL    HW1 4682   0.223   5.585   6.582
 1261SOL    HW2 4683   0.111   5.546   6.470
 1262SOL     OW 4684   5.071   4.422   1.498
 1262SOL    HW1 4685   5.112   4.344   1.545
 1262SOL    HW2 4686   4.993   4.455   1.551
 1263SOL     OW 4687   0.433   2.016   2.332
 1263SOL    HW1 4688   0.523   1.979   2.355
 1263SOL    HW2 4689   0.363   1.950   2.357
 1264SOL     OW 4690   6.326   4.426   0.344
 1264SOL    HW1 4691   6.383   4.365   0.400
 1264SOL    HW2 4692   6.301   4.506   0.398
 1265SOL     OW 4693   5.734   5.141   4.862
 1265SOL    HW1 4694   5.656   5.198   4.887
 1265SOL    HW2 4695   5.706   5.044   4.867
 1266SOL     OW 4696   0.468   1.084   4.120
 1266SOL    HW1 4697   0.453   1.108   4.216
 1266SOL    HW2 4698   0.562   1.104   4.095
 1267SOL     OW 4699   5.508   0.989   1.191
 1267SOL    HW1 4700   5.561   1.032   1.118
 1267SOL    HW2 4701   5.532   0.893   1.198
 1268SOL     OW 4702   3.159   2.917   6.821
 1268SOL    HW1 4703   3.238   2.975   6.839
 1268SOL    HW2 4704   3.189   2.822   6.812
 1269SOL     OW 4705   6.039   3.795   4.314
 1269SOL    HW1 4706   6.047   3.771   4.217
 1269SOL    HW2 4707   5.947   3.831   4.332
 1270SOL     OW 4708   1.540   3.963   2.747
 1270SOL    HW1 4709   1.559   3.999   2.655
 1270SOL    HW2 4710   1.448   3.926   2.750
 1271SOL     OW 4711   3.890   1.743   2.137
 1271SOL    HW1 4712   3.874   1.834   2.100
 1271SOL    HW2 4713   3.938   1.751   2.225
 1272SOL     OW 4714   5.600   4.294   6.803
 1272SOL    HW1 4715   5.614   4.199   6.831
 1272SOL    HW2 4716   5.503   4.309   6.784
 1273SOL     OW 4717   0.848   3.561   6.632
 1273SOL    HW1 4718   0.799   3.493   6.687
 1273SOL    HW2 4719   0.800   3.575   6.546
 1274SOL     OW 4720   6.497   4.418   1.602
 1274SOL    HW1 4721   6.533   4.422   1.695
 1274SOL    HW2 4722   6.498   4.509   1.561
 1275SOL     OW 4723   4.070   1.518   3.667
 1275SOL    HW1 4724   4.099   1.506   3.762
 1275SOL    HW2 4725   4.012   1.599   3.660
 1276SOL     OW 4726   6.240   5.124   4.981
 1276SOL    HW1 4727   6.243   5.191   5.055
 1276SOL    HW2 4728   6.323   5.130   4.926
 1277SOL     OW 4729   1.774   5.715   6.488
 1277SOL    HW1 4730   1.848   5.712   6.555
 1277SOL    HW2 4731   1.812   5.730   6.396
 1278SOL     OW 4732   1.258   6.831   4.850
 1278SOL    HW1 4733   1.291   6.856   4.941
 1278SOL    HW2 4734   1.327   6.775   4.804
 1279SOL     OW 4735   1.637   5.076   6.960
 1279SOL    HW1 4736   1.707   5.125   7.012
 1279SOL    HW2 4737   1.618   4.988   7.004
 1280SOL     OW 4738   4.231   0.288   4.373
 1280SOL    HW1 4739   4.211   0.214   4.309
 1280SOL    HW2 4740   4.330   0.298   4.382
 1281SOL     OW 4741   2.469   5.972   3.103
 1281SOL    HW1 4742   2.521   6.040   3.051
 1281SOL    HW2 4743   2.520   5.945   3.185
 1282SOL     OW 4744   6.745   2.333   6.516
 1282SOL    HW1 4745   6.790   2.336   6.606
 1282SOL    HW2 4746   6.646   2.327   6.528
 1283SOL     OW 4747   6.513   3.542   4.998
 1283SOL    HW1 4748   6.588   3.553   4.932
 1283SOL    HW2 4749   6.546   3.566   5.089
 1284SOL     OW 4750   4.703   1.820   1.648
 1284SOL    HW1 4751   4.793   1.843   1.614
 1284SOL    HW2 4752   4.712   1.766   1.732
 1285SOL     OW 4753   4.554   1.933   5.802
 1285SOL    HW1 4754   4.643   1.962   5.768
 1285SOL    HW2 4755   4.559   1.917   5.901
 1286SOL     OW 4756   4.253   3.642   1.102
 1286SOL    HW1 4757   4.182   3.681   1.042
 1286SOL    HW2 4758   4.224   3.552   1.134
 1287SOL     OW 4759   5.311   4.158   5.256
 1287SOL    HW1 4760   5.283   4.074   5.303
 1287SOL    HW2 4761   5.343   4.134   5.164
 1288SOL     OW 4762   3.745   3.664   6.139
 1288SOL    HW1 4763   3.780   3.580   6.181
 1288SOL    HW2 4764   3.727   3.731   6.210
 1289SOL     OW 4765   0.504   6.829   1.319
 1289SOL    HW1 4766   0.507   6.846   1.417
 1289SOL    HW2 4767   0.583   6.872   1.275
 1290SOL     OW 4768   1.099   6.670   0.655
 1290SOL    HW1 4769   1.025   6.702   0.713
 1290SOL    HW2 4770   1.097   6.718   0.567
 1291SOL     OW 4771   0.810   4.459   3.782
 1291SOL    HW1 4772   0.796   4.411   3.695
 1291SOL    HW2 4773   0.873   4.407   3.839
 1292SOL     OW 4774   0.659   5.515   2.420
 1292SOL    HW1 4775   0.578   5.557   2.461
 1292SOL    HW2 4776   0.631   5.444   2.356
 1293SOL     OW 4777   2.174   2.212   6.870
 1293SOL    HW1 4778   2.128   2.153   6.936
 1293SOL    HW2 4779   2.227   2.156   6.807
 1294SOL     OW 4780   0.336   3.485   5.675
 1294SOL    HW1 4781   0.369   3.395   5.647
 1294SOL    HW2 4782   0.361   3.501   5.770
 1295SOL     OW 4783   0.230   3.657   1.196
 1295SOL    HW1 4784   0.130   3.650   1.200
 1295SOL    HW2 4785   0.255   3.741   1.148
 1296SOL     OW 4786   3.849   6.208   5.183
 1296SOL    HW1 4787   3.937   6.244   5.153
 1296SOL    HW2 4788   3.821   6.253   5.267
 1297SOL     OW 4789   0.695   6.979   1.174
 1297SOL    HW1 4790   0.768   6.920   1.210
 1297SOL    HW2 4791   0.700   0.041   1.218
 1298SOL     OW 4792   5.127   5.436   3.457
 1298SOL    HW1 4793   5.053   5.373   3.479
 1298SOL    HW2 4794   5.089   5.527   3.437
 1299SOL     OW 4795   2.697   2.422   3.658
 1299SOL    HW1 4796   2.648   2.489   3.714
 1299SOL    HW2 4797   2.721   2.343   3.715
 1300SOL     OW 4798   1.797   2.800   0.213
 1300SOL    HW1 4799   1.734   2.810   0.136
 1300SOL    HW2 4800   1.891   2.810   0.181
 1301SOL     OW 4801   0.422   6.426   1.715
 1301SOL    HW1 4802   0.337   6.479   1.709
 1301SOL    HW2 4803   0.499   6.483   1.686
 1302SOL     OW 4804   4.822   6.680   5.017
 1302SOL    HW1 4805   4.767   6.740   5.076
 1302SOL    HW2 4806   4.770   6.597   4.997
 1303SOL     OW 4807   3.860   1.644   1.475
 1303SOL    HW1 4808   3.790   1.655   1.545
 1303SOL    HW2 4809   3.950   1.643   1.518
 1304SOL     OW 4810   1.436   0.102   0.202
 1304SOL    HW1 4811   1.536   0.101   0.208
 1304SOL    HW2 4812   1.406   0.040   0.130
 1305SOL     OW 4813   5.737   3.850   0.601
 1305SOL    HW1 4814   5.745   3.753   0.576
 1305SOL    HW2 4815   5.824   3.882   0.639
 1306SOL     OW 4816   1.339   6.033   3.867
 1306SOL    HW1 4817   1.242   6.048   3.887
 1306SOL    HW2 4818   1.385   6.121   3.857
 1307SOL     OW 4819   2.298   4.235   4.115
 1307SOL    HW1 4820   2.298   4.144   4.156
 1307SOL    HW2 4821   2.211   4.251   4.069
 1308SOL     OW 4822   6.274   0.212   5.904
 1308SOL    HW1 4823   6.180   0.176   5.897
 1308SOL    HW2 4824   6.337   0.146   5.864
 1309SOL     OW 4825   5.884   5.024   5.729
 1309SOL    HW1 4826   5.971   5.062   5.760
 1309SOL    HW2 4827   5.901   4.935   5.686
 1310SOL     OW 4828   0.131   3.602   3.486
 1310SOL    HW1 4829   0.219   3.554   3.478
 1310SOL    HW2 4830   0.098   3.592   3.580
 1311SOL     OW 4831   6.410   5.792   5.953
 1311SOL    HW1 4832   6.476   5.828   6.019
 1311SOL    HW2 4833   6.459   5.758   5.872
 1312SOL     OW 4834   1.513   6.652   0.017
 1312SOL    HW1 4835   1.542   6.557   0.011
 1312SOL    HW2 4836   1.421   6.656   0.058
 1313SOL     OW 4837   0.015   4.484   2.970
 1313SOL    HW1 4838   0.079   4.457   2.897
 1313SOL    HW2 4839   0.035   4.578   2.997
 1314SOL     OW 4840   4.045   1.693   4.535
 1314SOL    HW1 4841   4.109   1.633   4.487
 1314SOL    HW2 4842   3.992   1.745   4.468
 1315SOL     OW 4843   0.059   1.983   2.842
 1315SOL    HW1 4844   0.145   1.998   2.891
 1315SOL    HW2 4845   0.029   1.889   2.856
 1316SOL     OW 4846   3.233   6.938   5.845
 1316SOL    HW1 4847   3.273   6.996   5.915
 1316SOL    HW2 4848   3.304   6.908   5.781
 1317SOL     OW 4849   2.384   4.204   5.929
 1317SOL    HW1 4850   2.287   4.224   5.914
 1317SOL    HW2 4851   2.417   4.143   5.857
 1318SOL     OW 4852   0.887   2.502   0.900
 1318SOL    HW1 4853   0.959   2.492   0.968
 1318SOL    HW2 4854   0.851   2.412   0.876
 1319SOL     OW 4855   0.023   5.957   1.290
 1319SOL    HW1 4856   0.040   6.017   1.368
 1319SOL    HW2 4857   6.985   6.000   1.228
 1320SOL     OW 4858   3.865   4.222   6.444
 1320SOL    HW1 4859   3.805   4.300   6.425
 1320SOL    HW2 4860   3.950   4.232   6.392
 1321SOL     OW 4861   5.220   2.862   6.692
 1321SOL    HW1 4862   5.180   2.924   6.759
 1321SOL    HW2 4863   5.306   2.824   6.728
 1322SOL     OW 4864   4.113   1.945   3.880
 1322SOL    HW1 4865   4.205   1.951   3.920
 1322SOL    HW2 4866   4.065   1.866   3.918
 1323SOL     OW 4867   3.817   6.758   6.284
 1323SOL    HW1 4868   3.784   6.673   6.326
 1323SOL    HW2 4869   3.890   6.736   6.220
 1324SOL     OW 4870   0.608   3.455   6.881
 1324SOL    HW1 4871   0.667   3.407   6.945
 1324SOL    HW2 4872   0.530   3.396   6.857
 1325SOL     OW 4873   3.117   6.325   4.794
 1325SOL    HW1 4874   3.049   6.253   4.797
 1325SOL    HW2 4875   3.179   6.316   4.872
 1326SOL     OW 4876   5.288   3.378   5.016
 1326SOL    HW1 4877   5.204   3.414   5.057
 1326SOL    HW2 4878   5.354   3.358   5.089
 1327SOL     OW 4879   0.955   6.248   1.413
 1327SOL    HW1 4880   1.050   6.272   1.393
 1327SOL    HW2 4881   0.905   6.233   1.328
 1328SOL     OW 4882   2.925   3.005   0.657
 1328SOL    HW1 4883   2.848   2.959   0.700
 1328SOL    HW2 4884   3.004   3.003   0.718
 1329SOL     OW 4885   0.820   2.314   2.320
 1329SOL    HW1 4886   0.840   2.219   2.344
 1329SOL    HW2 4887   0.870   2.339   2.237
 1330SOL     OW 4888   1.593   1.041   1.291
 1330SOL    HW1 4889   1.634   1.064   1.379
 1330SOL    HW2 4890   1.590   1.123   1.233
 1331SOL     OW 4891   4.753   2.838   2.885
 1331SOL    HW1 4892   4.678   2.773   2.876
 1331SOL    HW2 4893   4.761   2.893   2.801
 1332SOL     OW 4894   2.519   6.985   0.634
 1332SOL    HW1 4895   2.467   6.949   0.557
 1332SOL    HW2 4896   2.458   6.998   0.712
 1333SOL     OW 4897   3.008   3.552   3.482
 1333SOL    HW1 4898   2.964   3.543   3.571
 1333SOL    HW2 4899   2.950   3.606   3.421
 1334SOL     OW 4900   6.474   1.487   3.738
 1334SOL    HW1 4901   6.393   1.448   3.695
 1334SOL    HW2 4902   6.473   1.586   3.728
 1335SOL     OW 4903   2.654   1.983   2.244
 1335SOL    HW1 4904   2.696   2.073   2.254
 1335SOL    HW2 4905   2.621   1.972   2.150
 1336SOL     OW 4906   2.345   2.049   5.169
 1336SOL    HW1 4907   2.366   1.985   5.095
 1336SOL    HW2 4908   2.410   2.037   5.244
 1337SOL     OW 4909   1.103   1.657   3.081
 1337SOL    HW1 4910   1.197   1.632   3.102
 1337SOL    HW2 4911   1.100   1.747   3.039
 1338SOL     OW 4912   6.970   2.954   4.570
 1338SOL    HW1 4913   6.918   3.006   4.637
 1338SOL    HW2 4914   6.913   2.936   4.490
 1339SOL     OW 4915   6.608   1.751   6.918
 1339SOL    HW1 4916   6.663   1.809   6.857
 1339SOL    HW2 4917   6.668   1.689   6.968
 1340SOL     OW 4918   5.507   1.841   2.659
 1340SOL    HW1 4919   5.533   1.774   2.729
 1340SOL    HW2 4920   5.423   1.812   2.614
 1341SOL     OW 4921   4.103   6.721   6.774
 1341SOL    HW1 4922   4.017   6.703   6.725
 1341SOL    HW2 4923   4.117   6.651   6.844
 1342SOL     OW 4924   3.310   6.005   6.121
 1342SOL    HW1 4925   3.373   6.069   6.077
 1342SOL    HW2 4926   3.219   6.046   6.126
 1343SOL     OW 4927   4.697   5.481   2.861
 1343SOL    HW1 4928   4.710   5.402   2.800
 1343SOL    HW2 4929   4.624   5.461   2.926
 1344SOL     OW 4930   0.269   6.157   4.483
 1344SOL    HW1 4931   0.303   6.093   4.551
 1344SOL    HW2 4932   0.240   6.107   4.402
 1345SOL     OW 4933   1.000   6.044   2.706
 1345SOL    HW1 4934   0.980   6.025   2.610
 1345SOL    HW2 4935   1.021   6.141   2.717
 1346SOL     OW 4936   1.735   6.301   4.456
 1346SOL    HW1 4937   1.714   6.394   4.485
 1346SOL    HW2 4938   1.654   6.260   4.415
 1347SOL     OW 4939   7.009   0.076   5.899
 1347SOL    HW1 4940   6.986   0.095   5.804
 1347SOL    HW2 4941   6.987   7.008   5.920
 1348SOL     OW 4942   6.079   6.726   4.257
 1348SOL    HW1 4943   6.083   6.826   4.253
 1348SOL    HW2 4944   6.128   6.687   4.179
 1349SOL     OW 4945   5.300   3.287   5.365
 1349SOL    HW1 4946   5.257   3.199   5.343
 1349SOL    HW2 4947   5.382   3.299   5.309
 1350SOL     OW 4948   5.173   5.029   5.351
 1350SOL    HW1 4949   5.084   5.007   5.310
 1350SOL    HW2 4950   5.168   5.018   5.450
 1351SOL     OW 4951   6.282   1.660   2.985
 1351SOL    HW1 4952   6.355   1.646   3.052
 1351SOL    HW2 4953   6.322   1.684   2.897
 1352SOL     OW 4954   6.555   5.717   4.129
 1352SOL    HW1 4955   6.578   5.635   4.077
 1352SOL    HW2 4956   6.485   5.769   4.080
 1353SOL     OW 4957   0.788   2.580   0.514
 1353SOL    HW1 4958   0.748   2.667   0.484
 1353SOL    HW2 4959   0.822   2.530   0.434
 1354SOL     OW 4960   0.188   4.422   1.646
 1354SOL    HW1 4961   0.276   4.384   1.614
 1354SOL    HW2 4962   0.133   4.348   1.685
 1355SOL     OW 4963   5.818   3.412   4.243
 1355SOL    HW1 4964   5.770   3.341   4.294
 1355SOL    HW2 4965   5.763   3.495   4.242
 1356SOL     OW 4966   3.073   3.284   2.070
 1356SOL    HW1 4967   2.979   3.274   2.036
 1356SOL    HW2 4968   3.072   3.328   2.159
 1357SOL     OW 4969   0.142   4.609   6.618
 1357SOL    HW1 4970   0.162   4.513   6.639
 1357SOL    HW2 4971   0.046   4.627   6.635
 1358SOL     OW 4972   5.146   6.719   6.411
 1358SOL    HW1 4973   5.065   6.700   6.466
 1358SOL    HW2 4974   5.204   6.638   6.408
 1359SOL     OW 4975   5.538   4.944   2.975
 1359SOL    HW1 4976   5.539   4.926   2.877
 1359SOL    HW2 4977   5.525   4.858   3.025
 1360SOL     OW 4978   2.623   3.985   0.438
 1360SOL    HW1 4979   2.599   4.031   0.524
 1360SOL    HW2 4980   2.637   3.888   0.455
 1361SOL     OW 4981   6.368   4.844   4.933
 1361SOL    HW1 4982   6.406   4.854   5.025
 1361SOL    HW2 4983   6.401   4.917   4.874
 1362SOL     OW 4984   3.781   4.076   3.645
 1362SOL    HW1 4985   3.779   3.983   3.680
 1362SOL    HW2 4986   3.778   4.141   3.721
 1363SOL     OW 4987   6.772   5.177   3.841
 1363SOL    HW1 4988   6.731   5.124   3.915
 1363SOL    HW2 4989   6.872   5.169   3.846
 1364SOL     OW 4990   5.435   4.436   1.182
 1364SOL    HW1 4991   5.387   4.495   1.247
 1364SOL    HW2 4992   5.531   4.428   1.207
 1365SOL     OW 4993   0.460   4.382   6.389
 1365SOL    HW1 4994   0.519   4.430   6.324
 1365SOL    HW2 4995   0.513   4.356   6.470
 1366SOL     OW 4996   1.626   5.625   0.525
 1366SOL    HW1 4997   1.574   5.576   0.596
 1366SOL    HW2 4998   1.724   5.612   0.540
 1367SOL     OW 4999   2.553   0.463   3.134
 1367SOL    HW1 5000   2.480   0.397   3.149
 1367SOL    HW2 5001   2.590   0.493   3.222
 1368SOL     OW 5002   5.903   0.557   3.821
 1368SOL    HW1 5003   5.890   0.462   3.793
 1368SOL    HW2 5004   6.000   0.580   3.816
 1369SOL     OW 5005   1.805   6.348   2.192
 1369SOL    HW1 5006   1.894   6.363   2.236
 1369SOL    HW2 5007   1.817   6.337   2.094
 1370SOL     OW 5008   3.510   1.098   0.636
 1370SOL    HW1 5009   3.600   1.054   0.646
 1370SOL    HW2 5010   3.457   1.049   0.567
 1371SOL     OW 5011   5.693   1.442   4.115
 1371SOL    HW1 5012   5.736   1.532   4.127
 1371SOL    HW2 5013   5.758   1.379   4.073
 1372SOL     OW 5014   0.935   3.099   0.801
 1372SOL    HW1 5015   0.847   3.093   0.847
 1372SOL    HW2 5016   0.963   3.194   0.793
 1373SOL     OW 5017   6.029   3.953   6.728
 1373SOL    HW1 5018   6.099   3.982   6.793
 1373SOL    HW2 5019   6.010   4.028   6.664
 1374SOL     OW 5020   4.448   2.591   0.636
 1374SOL    HW1 5021   4.478   2.545   0.720
 1374SOL    HW2 5022   4.435   2.524   0.564
 1375SOL     OW 5023   6.765   4.405   6.125
 1375SOL    HW1 5024   6.699   4.332   6.146
 1375SOL    HW2 5025   6.764   4.473   6.198
 1376SOL     OW 5026   5.041   3.644   3.537
 1376SOL    HW1 5027   5.007   3.558   3.576
 1376SOL    HW2 5028   5.067   3.629   3.442
 1377SOL     OW 5029   6.826   3.996   5.236
 1377SOL    HW1 5030   6.877   4.069   5.191
 1377SOL    HW2 5031   6.847   3.908   5.194
 1378SOL     OW 5032   6.187   1.487   4.946
 1378SOL    HW1 5033   6.269   1.479   4.890
 1378SOL    HW2 5034   6.109   1.450   4.897
 1379SOL     OW 5035   3.345   0.240   2.455
 1379SOL    HW1 5036   3.415   0.272   2.519
 1379SOL    HW2 5037   3.387   0.179   2.388
 1380SOL     OW 5038   0.363   0.095   2.301
 1380SOL    HW1 5039   0.409   0.103   2.390
 1380SOL    HW2 5040   0.429   0.065   2.232
 1381SOL     OW 5041   5.451   2.787   6.822
 1381SOL    HW1 5042   5.462   2.691   6.797
 1381SOL    HW2 5043   5.520   2.811   6.891
 1382SOL     OW 5044   5.116   4.483   0.385
 1382SOL    HW1 5045   5.190   4.486   0.452
 1382SOL    HW2 5046   5.095   4.576   0.355
 1383SOL     OW 5047   0.557   0.636   0.406
 1383SOL    HW1 5048   0.614   0.604   0.481
 1383SOL    HW2 5049   0.545   0.562   0.339
 1384SOL     OW 5050   3.695   1.195   2.673
 1384SOL    HW1 5051   3.711   1.133   2.750
 1384SOL    HW2 5052   3.628   1.154   2.611
 1385SOL     OW 5053   0.566   2.943   2.928
 1385SOL    HW1 5054   0.610   3.005   2.863
 1385SOL    HW2 5055   0.619   2.858   2.934
 1386SOL     OW 5056   2.495   1.532   4.823
 1386SOL    HW1 5057   2.577   1.586   4.805
 1386SOL    HW2 5058   2.414   1.584   4.796
 1387SOL     OW 5059   3.733   0.132   3.626
 1387SOL    HW1 5060   3.704   0.182   3.544
 1387SOL    HW2 5061   3.684   0.045   3.631
 1388SOL     OW 5062   0.285   6.733   4.150
 1388SOL    HW1 5063   0.216   6.680   4.199
 1388SOL    HW2 5064   0.345   6.670   4.100
 1389SOL     OW 5065   0.665   1.151   3.555
 1389SOL    HW1 5066   0.650   1.250   3.557
 1389SOL    HW2 5067   0.646   1.117   3.463
 1390SOL     OW 5068   4.650   1.425   6.494
 1390SOL    HW1 5069   4.669   1.451   6.399
 1390SOL    HW2 5070   4.728   1.375   6.531
 1391SOL     OW 5071   6.457   1.369   5.679
 1391SOL    HW1 5072   6.426   1.464   5.669
 1391SOL    HW2 5073   6.469   1.328   5.589
 1392SOL     OW 5074   5.397   5.166   5.227
 1392SOL    HW1 5075   5.318   5.119   5.266
 1392SOL    HW2 5076   5.478   5.107   5.231
 1393SOL     OW 5077   5.989   3.165   6.502
 1393SOL    HW1 5078   5.991   3.217   6.588
 1393SOL    HW2 5079   5.922   3.090   6.510
 1394SOL     OW 5080   4.156   6.805   3.628
 1394SOL    HW1 5081   4.246   6.816   3.585
 1394SOL    HW2 5082   4.106   6.733   3.582
 1395SOL     OW 5083   0.854   3.962   2.847
 1395SOL    HW1 5084   0.794   3.901   2.899
 1395SOL    HW2 5085   0.871   4.045   2.900
 1396SOL     OW 5086   1.579   0.092   3.852
 1396SOL    HW1 5087   1.505   0.139   3.900
 1396SOL    HW2 5088   1.581   0.122   3.757
 1397SOL     OW 5089   0.397   6.513   5.332
 1397SOL    HW1 5090   0.452   6.464   5.400
 1397SOL    HW2 5091   0.353   6.446   5.272
 1398SOL     OW 5092   1.349   1.407   0.786
 1398SOL    HW1 5093   1.447   1.406   0.807
 1398SOL    HW2 5094   1.335   1.428   0.690
 1399SOL     OW 5095   4.183   0.667   0.672
 1399SOL    HW1 5096   4.246   0.715   0.611
 1399SOL    HW2 5097   4.101   0.724   0.686
 1400SOL     OW 5098   6.389   0.708   4.392
 1400SOL    HW1 5099   6.471   0.651   4.395
 1400SOL    HW2 5100   6.364   0.725   4.297
 1401SOL     OW 5101   6.088   6.992   4.268
 1401SOL    HW1 5102   6.047   7.020   4.355
 1401SOL    HW2 5103   6.119   0.045   4.218
 1402SOL     OW 5104   6.157   4.452   0.108
 1402SOL    HW1 5105   6.175   4.443   0.010
 1402SOL    HW2 5106   6.243   4.446   0.159
 1403SOL     OW 5107   2.048   2.877   0.123
 1403SOL    HW1 5108   2.032   2.841   0.031
 1403SOL    HW2 5109   2.135   2.927   0.124
 1404SOL     OW 5110   4.426   0.038   1.147
 1404SOL    HW1 5111   4.513   0.009   1.188
 1404SOL    HW2 5112   4.352   7.008   1.182
 1405SOL     OW 5113   2.040   3.398   0.650
 1405SOL    HW1 5114   2.097   3.394   0.569
 1405SOL    HW2 5115   2.048   3.488   0.692
 1406SOL     OW 5116   1.838   4.440   1.813
 1406SOL    HW1 5117   1.834   4.404   1.720
 1406SOL    HW2 5118   1.902   4.385   1.867
 1407SOL     OW 5119   1.416   3.405   2.724
 1407SOL    HW1 5120   1.458   3.332   2.671
 1407SOL    HW2 5121   1.394   3.482   2.663
 1408SOL     OW 5122   5.825   6.564   6.800
 1408SOL    HW1 5123   5.764   6.622   6.745
 1408SOL    HW2 5124   5.906   6.616   6.825
 1409SOL     OW 5125   6.996   0.380   5.955
 1409SOL    HW1 5126   0.002   0.298   5.909
 1409SOL    HW2 5127   6.995   0.364   6.054
 1410SOL     OW 5128   2.530   3.424   6.549
 1410SOL    HW1 5129   2.585   3.387   6.474
 1410SOL    HW2 5130   2.579   3.414   6.635
 1411SOL     OW 5131   3.376   6.513   6.729
 1411SOL    HW1 5132   3.392   6.444   6.799
 1411SOL    HW2 5133   3.306   6.479   6.666
 1412SOL     OW 5134   0.656   3.725   1.192
 1412SOL    HW1 5135   0.725   3.657   1.217
 1412SOL    HW2 5136   0.702   3.808   1.161
 1413SOL     OW 5137   1.569   1.749   4.435
 1413SOL    HW1 5138   1.562   1.743   4.535
 1413SOL    HW2 5139   1.630   1.825   4.411
 1414SOL     OW 5140   1.405   2.662   1.661
 1414SOL    HW1 5141   1.502   2.656   1.634
 1414SOL    HW2 5142   1.387   2.598   1.735
 1415SOL     OW 5143   2.684   2.365   4.722
 1415SOL    HW1 5144   2.725   2.450   4.689
 1415SOL    HW2 5145   2.754   2.310   4.767
 1416SOL     OW 5146   4.729   1.145   4.961
 1416SOL    HW1 5147   4.749   1.189   5.048
 1416SOL    HW2 5148   4.733   1.046   4.973
 1417SOL     OW 5149   3.671   3.216   6.064
 1417SOL    HW1 5150   3.697   3.234   5.970
 1417SOL    HW2 5151   3.575   3.241   6.078
 1418SOL     OW 5152   3.285   4.039   0.612
 1418SOL    HW1 5153   3.335   4.112   0.565
 1418SOL    HW2 5154   3.252   4.073   0.700
 1419SOL     OW 5155   1.659   5.144   4.457
 1419SOL    HW1 5156   1.659   5.116   4.553
 1419SOL    HW2 5157   1.741   5.108   4.412
 1420SOL     OW 5158   4.079   5.051   3.074
 1420SOL    HW1 5159   4.101   5.029   3.169
 1420SOL    HW2 5160   4.083   4.967   3.019
 1421SOL     OW 5161   0.911   4.120   4.269
 1421SOL    HW1 5162   0.946   4.032   4.302
 1421SOL    HW2 5163   0.965   4.194   4.309
 1422SOL     OW 5164   2.611   4.991   5.995
 1422SOL    HW1 5165   2.549   4.980   6.072
 1422SOL    HW2 5166   2.561   4.975   5.910
 1423SOL     OW 5167   4.217   2.126   4.596
 1423SOL    HW1 5168   4.160   2.149   4.517
 1423SOL    HW2 5169   4.207   2.029   4.617
 1424SOL     OW 5170   6.171   3.682   6.736
 1424SOL    HW1 5171   6.223   3.764   6.715
 1424SOL    HW2 5172   6.201   3.645   6.824
 1425SOL     OW 5173   2.571   6.188   4.883
 1425SOL    HW1 5174   2.613   6.239   4.807
 1425SOL    HW2 5175   2.608   6.096   4.886
 1426SOL     OW 5176   1.749   1.716   6.303
 1426SOL    HW1 5177   1.707   1.701   6.392
 1426SOL    HW2 5178   1.700   1.663   6.234
 1427SOL     OW 5179   0.415   0.449   3.560
 1427SOL    HW1 5180   0.447   0.519   3.623
 1427SOL    HW2 5181   0.330   0.479   3.516
 1428SOL     OW 5182   0.293   2.159   1.302
 1428SOL    HW1 5183   0.366   2.224   1.284
 1428SOL    HW2 5184   0.205   2.201   1.280
 1429SOL     OW 5185   6.122   1.249   6.668
 1429SOL    HW1 5186   6.049   1.221   6.731
 1429SOL    HW2 5187   6.115   1.348   6.651
 1430SOL     OW 5188   2.206   4.301   4.407
 1430SOL    HW1 5189   2.108   4.313   4.390
 1430SOL    HW2 5190   2.231   4.206   4.391
 1431SOL     OW 5191   2.575   2.514   5.761
 1431SOL    HW1 5192   2.589   2.596   5.705
 1431SOL    HW2 5193   2.645   2.446   5.739
 1432SOL     OW 5194   2.077   1.676   0.696
 1432SOL    HW1 5195   2.030   1.757   0.661
 1432SOL    HW2 5196   2.114   1.695   0.787
 1433SOL     OW 5197   4.009   0.041   3.469
 1433SOL    HW1 5198   3.930   0.045   3.530
 1433SOL    HW2 5199   4.035   6.973   3.454
 1434SOL     OW 5200   6.949   1.715   6.555
 1434SOL    HW1 5201   6.853   1.731   6.531
 1434SOL    HW2 5202   7.004   1.791   6.520
 1435SOL     OW 5203   0.251   0.572   4.287
 1435SOL    HW1 5204   0.279   0.625   4.207
 1435SOL    HW2 5205   0.204   0.489   4.257
 1436SOL     OW 5206   6.153   3.659   0.449
 1436SOL    HW1 5207   6.211   3.578   0.449
 1436SOL    HW2 5208   6.109   3.669   0.360
 1437SOL     OW 5209   3.288   1.133   5.426
 1437SOL    HW1 5210   3.379   1.123   5.465
 1437SOL    HW2 5211   3.220   1.132   5.500
 1438SOL     OW 5212   3.492   1.242   1.841
 1438SOL    HW1 5213   3.483   1.229   1.742
 1438SOL    HW2 5214   3.557   1.174   1.877
 1439SOL     OW 5215   0.926   5.848   0.342
 1439SOL    HW1 5216   0.876   5.905   0.407
 1439SOL    HW2 5217   0.861   5.798   0.284
 1440SOL     OW 5218   3.418   3.456   4.473
 1440SOL    HW1 5219   3.360   3.486   4.396
 1440SOL    HW2 5220   3.424   3.530   4.541
 1441SOL     OW 5221   6.861   3.842   3.223
 1441SOL    HW1 5222   6.768   3.811   3.201
 1441SOL    HW2 5223   6.856   3.931   3.268
 1442SOL     OW 5224   5.343   5.112   0.585
 1442SOL    HW1 5225   5.393   5.040   0.536
 1442SOL    HW2 5226   5.250   5.117   0.550
 1443SOL     OW 5227   0.817   0.668   3.764
 1443SOL    HW1 5228   0.910   0.635   3.750
 1443SOL    HW2 5229   0.799   0.744   3.703
 1444SOL     OW 5230   3.992   5.689   3.150
 1444SOL    HW1 5231   3.996   5.754   3.074
 1444SOL    HW2 5232   3.897   5.675   3.177
 1445SOL     OW 5233   0.482   2.785   1.679
 1445SOL    HW1 5234   0.440   2.849   1.615
 1445SOL    HW2 5235   0.471   2.818   1.773
 1446SOL     OW 5236   5.634   2.842   7.008
 1446SOL    HW1 5237   5.619   2.786   0.062
 1446SOL    HW2 5238   5.724   2.822   6.970
 1447SOL     OW 5239   6.556   0.754   5.237
 1447SOL    HW1 5240   6.558   0.720   5.143
 1447SOL    HW2 5241   6.462   0.779   5.260
 1448SOL     OW 5242   5.799   1.754   0.512
 1448SOL    HW1 5243   5.748   1.837   0.532
 1448SOL    HW2 5244   5.889   1.778   0.474
 1449SOL     OW 5245   5.819   6.848   0.114
 1449SOL    HW1 5246   5.750   6.792   0.069
 1449SOL    HW2 5247   5.876   6.893   0.044
 1450SOL     OW 5248   0.121   2.004   2.100
 1450SOL    HW1 5249   0.041   1.986   2.041
 1450SOL    HW2 5250   0.204   2.001   2.044
 1451SOL     OW 5251   3.145   1.146   3.074
 1451SOL    HW1 5252   3.244   1.158   3.071
 1451SOL    HW2 5253   3.112   1.161   3.167
 1452SOL     OW 5254   4.735   1.788   4.833
 1452SOL    HW1 5255   4.821   1.747   4.864
 1452SOL    HW2 5256   4.724   1.772   4.735
 1453SOL     OW 5257   5.855   3.554   4.717
 1453SOL    HW1 5258   5.875   3.613   4.795
 1453SOL    HW2 5259   5.795   3.603   4.653
 1454SOL     OW 5260   5.990   2.777   2.522
 1454SOL    HW1 5261   6.063   2.720   2.483
 1454SOL    HW2 5262   6.018   2.807   2.614
 1455SOL     OW 5263   1.017   0.462   1.706
 1455SOL    HW1 5264   1.006   0.396   1.780
 1455SOL    HW2 5265   1.005   0.555   1.743
 1456SOL     OW 5266   6.878   6.661   5.213
 1456SOL    HW1 5267   6.957   6.708   5.173
 1456SOL    HW2 5268   6.893   6.647   5.311
 1457SOL     OW 5269   1.378   0.366   2.265
 1457SOL    HW1 5270   1.364   0.327   2.356
 1457SOL    HW2 5271   1.341   0.459   2.263
 1458SOL     OW 5272   5.353   6.750   4.511
 1458SOL    HW1 5273   5.369   6.652   4.523
 1458SOL    HW2 5274   5.280   6.779   4.573
 1459SOL     OW 5275   2.618   4.353   6.721
 1459SOL    HW1 5276   2.708   4.394   6.708
 1459SOL    HW2 5277   2.596   4.294   6.643
 1460SOL     OW 5278   6.803   5.660   6.047
 1460SOL    HW1 5279   6.875   5.600   6.013
 1460SOL    HW2 5280   6.730   5.606   6.087
 1461SOL     OW 5281   6.665   4.621   3.338
 1461SOL    HW1 5282   6.695   4.712   3.309
 1461SOL    HW2 5283   6.743   4.569   3.370
 1462SOL     OW 5284   6.524   2.047   0.123
 1462SOL    HW1 5285   6.570   1.976   0.070
 1462SOL    HW2 5286   6.584   2.126   0.131
 1463SOL     OW 5287   0.281   6.780   5.922
 1463SOL    HW1 5288   0.203   6.821   5.970
 1463SOL    HW2 5289   0.282   6.811   5.827
 1464SOL     OW 5290   0.154   6.855   0.862
 1464SOL    HW1 5291   0.100   6.774   0.884
 1464SOL    HW2 5292   0.198   6.843   0.774
 1465SOL     OW 5293   1.339   1.279   3.059
 1465SOL    HW1 5294   1.431   1.280   3.020
 1465SOL    HW2 5295   1.322   1.364   3.108
 1466SOL     OW 5296   0.338   6.605   3.125
 1466SOL    HW1 5297   0.256   6.651   3.091
 1466SOL    HW2 5298   0.374   6.544   3.055
 1467SOL     OW 5299   1.916   0.155   2.177
 1467SOL    HW1 5300   1.881   0.119   2.263
 1467SOL    HW2 5301   1.849   0.141   2.104
 1468SOL     OW 5302   5.648   5.948   2.913
 1468SOL    HW1 5303   5.743   5.976   2.904
 1468SOL    HW2 5304   5.626   5.934   3.010
 1469SOL     OW 5305   0.611   0.909   3.034
 1469SOL    HW1 5306   0.585   0.979   2.967
 1469SOL    HW2 5307   0.680   0.848   2.994
 1470SOL     OW 5308   0.773   0.634   2.240
 1470SOL    HW1 5309   0.780   0.717   2.185
 1470SOL    HW2 5310   0.759   0.658   2.336
 1471SOL     OW 5311   0.950   0.613   0.044
 1471SOL    HW1 5312   0.979   0.623   0.140
 1471SOL    HW2 5313   0.851   0.629   0.038
 1472SOL     OW 5314   4.284   5.882   4.297
 1472SOL    HW1 5315   4.213   5.890   4.367
 1472SOL    HW2 5316   4.326   5.972   4.283
 1473SOL     OW 5317   6.021   6.184   3.833
 1473SOL    HW1 5318   5.976   6.095   3.828
 1473SOL    HW2 5319   6.116   6.175   3.802
 1474SOL     OW 5320   6.527   6.151   3.572
 1474SOL    HW1 5321   6.500   6.141   3.476
 1474SOL    HW2 5322   6.445   6.170   3.627
 1475SOL     OW 5323   0.323   0.307   1.658
 1475SOL    HW1 5324   0.342   0.320   1.756
 1475SOL    HW2 5325   0.239   0.356   1.634
 1476SOL     OW 5326   1.715   0.787   1.034
 1476SOL    HW1 5327   1.637   0.838   0.997
 1476SOL    HW2 5328   1.783   0.773   0.962
 1477SOL     OW 5329   2.991   0.382   6.688
 1477SOL    HW1 5330   3.078   0.368   6.736
 1477SOL    HW2 5331   2.984   0.478   6.659
 1478SOL     OW 5332   5.839   4.518   0.580
 1478SOL    HW1 5333   5.872   4.600   0.626
 1478SOL    HW2 5334   5.899   4.497   0.502
 1479SOL     OW 5335   1.293   4.496   0.252
 1479SOL    HW1 5336   1.347   4.469   0.172
 1479SOL    HW2 5337   1.354   4.539   0.319
 1480SOL     OW 5338   2.463   0.995   0.403
 1480SOL    HW1 5339   2.498   0.919   0.457
 1480SOL    HW2 5340   2.475   0.975   0.306
 1481SOL     OW 5341   5.771   2.058   4.664
 1481SOL    HW1 5342   5.857   2.013   4.641
 1481SOL    HW2 5343   5.729   2.094   4.581
 1482SOL     OW 5344   5.582   1.386   0.917
 1482SOL    HW1 5345   5.590   1.457   0.987
 1482SOL    HW2 5346   5.674   1.358   0.887
 1483SOL     OW 5347   0.435   3.134   6.232
 1483SOL    HW1 5348   0.361   3.068   6.228
 1483SOL    HW2 5349   0.485   3.134   6.145
 1484SOL     OW 5350   6.811   4.285   3.599
 1484SOL    HW1 5351   6.755   4.206   3.574
 1484SOL    HW2 5352   6.785   4.318   3.689
 1485SOL     OW 5353   4.368   2.358   2.467
 1485SOL    HW1 5354   4.332   2.384   2.378
 1485SOL    HW2 5355   4.468   2.354   2.463
 1486SOL     OW 5356   4.762   2.701   3.367
 1486SOL    HW1 5357   4.756   2.680   3.464
 1486SOL    HW2 5358   4.856   2.728   3.344
 1487SOL     OW 5359   6.456   1.700   6.425
 1487SOL    HW1 5360   6.449   1.709   6.325
 1487SOL    HW2 5361   6.489   1.608   6.448
 1488SOL     OW 5362   6.238   2.043   2.835
 1488SOL    HW1 5363   6.157   2.097   2.861
 1488SOL    HW2 5364   6.277   2.080   2.751
 1489SOL     OW 5365   3.936   4.885   4.487
 1489SOL    HW1 5366   3.940   4.857   4.583
 1489SOL    HW2 5367   3.881   4.969   4.478
 1490SOL     OW 5368   1.467   2.797   1.124
 1490SOL    HW1 5369   1.497   2.702   1.127
 1490SOL    HW2 5370   1.505   2.843   1.044
 1491SOL     OW 5371   0.137   3.696   2.882
 1491SOL    HW1 5372   0.059   3.757   2.880
 1491SOL    HW2 5373   0.110   3.607   2.845
 1492SOL     OW 5374   5.941   1.782   1.633
 1492SOL    HW1 5375   6.017   1.717   1.626
 1492SOL    HW2 5376   5.877   1.766   1.557
 1493SOL     OW 5377   4.958   0.876   5.135
 1493SOL    HW1 5378   5.041   0.820   5.134
 1493SOL    HW2 5379   4.965   0.944   5.208
 1494SOL     OW 5380   4.132   2.541   5.854
 1494SOL    HW1 5381   4.084   2.549   5.767
 1494SOL    HW2 5382   4.188   2.622   5.869
 1495SOL     OW 5383   0.895   3.454   3.641
 1495SOL    HW1 5384   0.945   3.403   3.710
 1495SOL    HW2 5385   0.960   3.496   3.577
 1496SOL     OW 5386   0.839   0.730   1.750
 1496SOL    HW1 5387   0.760   0.720   1.690
 1496SOL    HW2 5388   0.847   0.649   1.809
 1497SOL     OW 5389   0.242   3.930   3.372
 1497SOL    HW1 5390   0.316   3.871   3.402
 1497SOL    HW2 5391   0.170   3.875   3.329
 1498SOL     OW 5392   1.630   4.949   6.721
 1498SOL    HW1 5393   1.608   4.992   6.809
 1498SOL    HW2 5394   1.722   4.911   6.724
 1499SOL     OW 5395   1.115   3.562   5.229
 1499SOL    HW1 5396   1.193   3.558   5.292
 1499SOL    HW2 5397   1.035   3.599   5.277
 1500SOL     OW 5398   5.730   0.085   0.158
 1500SOL    HW1 5399   5.771   7.022   0.173
 1500SOL    HW2 5400   5.638   0.086   0.199
 1501SOL     OW 5401   4.379   0.955   6.057
 1501SOL    HW1 5402   4.393   0.882   6.124
 1501SOL    HW2 5403   4.467   0.995   6.033
 1502SOL     OW 5404   6.213   6.557   0.688
 1502SOL    HW1 5405   6.297   6.538   0.638
 1502SOL    HW2 5406   6.173   6.643   0.655
 1503SOL     OW 5407   2.403   2.829   1.022
 1503SOL    HW1 5408   2.372   2.747   1.069
 1503SOL    HW2 5409   2.375   2.910   1.073
 1504SOL     OW 5410   2.617   0.157   4.723
 1504SOL    HW1 5411   2.573   0.238   4.684
 1504SOL    HW2 5412   2.716   0.174   4.730
 1505SOL     OW 5413   5.096   0.508   6.888
 1505SOL    HW1 5414   4.998   0.492   6.905
 1505SOL    HW2 5415   5.125   0.452   6.810
 1506SOL     OW 5416   1.418   5.201   3.227
 1506SOL    HW1 5417   1.402   5.234   3.134
 1506SOL    HW2 5418   1.479   5.264   3.275
 1507SOL     OW 5419   1.514   1.780   4.710
 1507SOL    HW1 5420   1.424   1.762   4.751
 1507SOL    HW2 5421   1.585   1.770   4.779
 1508SOL     OW 5422   4.735   6.994   0.726
 1508SOL    HW1 5423   4.663   0.021   0.770
 1508SOL    HW2 5424   4.702   6.958   0.639
 1509SOL     OW 5425   3.992   2.880   6.046
 1509SOL    HW1 5426   3.909   2.825   6.032
 1509SOL    HW2 5427   3.993   2.956   5.980
 1510SOL     OW 5428   5.728   1.938   3.934
 1510SOL    HW1 5429   5.712   1.857   3.991
 1510SOL    HW2 5430   5.645   1.994   3.931
 1511SOL     OW 5431   2.323   2.081   6.663
 1511SOL    HW1 5432   2.320   1.982   6.673
 1511SOL    HW2 5433   2.418   2.111   6.653
 1512SOL     OW 5434   6.832   6.176   1.849
 1512SOL    HW1 5435   6.889   6.251   1.815
 1512SOL    HW2 5436   6.866   6.090   1.810
 1513SOL     OW 5437   4.476   0.728   3.586
 1513SOL    HW1 5438   4.384   0.720   3.550
 1513SOL    HW2 5439   4.473   0.771   3.676
 1514SOL     OW 5440   5.213   2.141   4.511
 1514SOL    HW1 5441   5.186   2.217   4.569
 1514SOL    HW2 5442   5.278   2.083   4.561
 1515SOL     OW 5443   6.917   2.942   5.909
 1515SOL    HW1 5444   6.886   3.024   5.862
 1515SOL    HW2 5445   6.991   2.899   5.857
 1516SOL     OW 5446   0.750   0.485   0.624
 1516SOL    HW1 5447   0.773   0.485   0.722
 1516SOL    HW2 5448   0.789   0.403   0.581
 1517SOL     OW 5449   5.002   5.673   3.868
 1517SOL    HW1 5450   5.012   5.614   3.948
 1517SOL    HW2 5451   5.084   5.666   3.811
 1518SOL     OW 5452   0.117   2.613   6.835
 1518SOL    HW1 5453   0.082   2.706   6.823
 1518SOL    HW2 5454   0.051   2.548   6.797
 1519SOL     OW 5455   6.934   4.615   2.180
 1519SOL    HW1 5456   7.017   4.642   2.228
 1519SOL    HW2 5457   6.892   4.695   2.138
 1520SOL     OW 5458   1.750   3.241   2.208
 1520SOL    HW1 5459   1.655   3.246   2.241
 1520SOL    HW2 5460   1.779   3.145   2.204
 1521SOL     OW 5461   2.192   3.151   6.757
 1521SOL    HW1 5462   2.235   3.154   6.667
 1521SOL    HW2 5463   2.181   3.244   6.792
 1522SOL     OW 5464   6.879   1.545   5.564
 1522SOL    HW1 5465   6.835   1.470   5.515
 1522SOL    HW2 5466   6.894   1.518   5.659
 1523SOL     OW 5467   5.146   4.061   6.761
 1523SOL    HW1 5468   5.167   3.985   6.823
 1523SOL    HW2 5469   5.132   4.026   6.669
 1524SOL     OW 5470   0.916   2.110   1.688
 1524SOL    HW1 5471   0.992   2.057   1.726
 1524SOL    HW2 5472   0.916   2.102   1.589
 1525SOL     OW 5473   4.843   2.566   6.057
 1525SOL    HW1 5474   4.845   2.633   5.983
 1525SOL    HW2 5475   4.813   2.610   6.142
 1526SOL     OW 5476   0.930   1.184   1.010
 1526SOL    HW1 5477   1.014   1.236   0.995
 1526SOL    HW2 5478   0.856   1.246   1.035
 1527SOL     OW 5479   3.833   1.104   4.636
 1527SOL    HW1 5480   3.929   1.128   4.643
 1527SOL    HW2 5481   3.777   1.173   4.683
 1528SOL     OW 5482   4.998   5.919   2.854
 1528SOL    HW1 5483   4.902   5.947   2.859
 1528SOL    HW2 5484   5.003   5.819   2.856
 1529SOL     OW 5485   4.315   1.140   5.848
 1529SOL    HW1 5486   4.338   1.085   5.929
 1529SOL    HW2 5487   4.386   1.209   5.834
 1530SOL     OW 5488   3.262   0.290   1.181
 1530SOL    HW1 5489   3.180   0.274   1.236
 1530SOL    HW2 5490   3.342   0.255   1.230
 1531SOL     OW 5491   5.922   1.421   4.861
 1531SOL    HW1 5492   5.948   1.445   4.767
 1531SOL    HW2 5493   5.887   1.502   4.908
 1532SOL     OW 5494   2.373   2.359   4.383
 1532SOL    HW1 5495   2.323   2.314   4.457
 1532SOL    HW2 5496   2.446   2.298   4.351
 1533SOL     OW 5497   6.942   3.675   6.752
 1533SOL    HW1 5498   7.020   3.657   6.813
 1533SOL    HW2 5499   6.868   3.611   6.774
 1534SOL     OW 5500   1.379   5.063   0.112
 1534SOL    HW1 5501   1.364   5.034   0.018
 1534SOL    HW2 5502   1.331   5.001   0.174
 1535SOL     OW 5503   5.924   5.954   4.388
 1535SOL    HW1 5504   5.998   6.013   4.420
 1535SOL    HW2 5505   5.941   5.929   4.292
 1536SOL     OW 5506   3.803   5.125   4.463
 1536SOL    HW1 5507   3.862   5.198   4.498
 1536SOL    HW2 5508   3.768   5.151   4.373
 1537SOL     OW 5509   3.726   5.660   3.183
 1537SOL    HW1 5510   3.661   5.591   3.215
 1537SOL    HW2 5511   3.706   5.682   3.088
 1538SOL     OW 5512   3.504   5.247   5.607
 1538SOL    HW1 5513   3.481   5.283   5.698
 1538SOL    HW2 5514   3.535   5.152   5.615
 1539SOL     OW 5515   4.077   4.385   1.286
 1539SOL    HW1 5516   4.006   4.383   1.215
 1539SOL    HW2 5517   4.159   4.339   1.252
 1540SOL     OW 5518   0.688   6.645   5.250
 1540SOL    HW1 5519   0.679   6.654   5.151
 1540SOL    HW2 5520   0.598   6.641   5.292
 1541SOL     OW 5521   4.162   2.663   1.016
 1541SOL    HW1 5522   4.088   2.609   1.056
 1541SOL    HW2 5523   4.248   2.643   1.064
 1542SOL     OW 5524   6.534   5.855   1.785
 1542SOL    HW1 5525   6.518   5.858   1.883
 1542SOL    HW2 5526   6.487   5.775   1.746
 1543SOL     OW 5527   2.899   3.510   3.748
 1543SOL    HW1 5528   2.859   3.566   3.821
 1543SOL    HW2 5529   2.894   3.414   3.774
 1544SOL     OW 5530   3.164   4.079   2.360
 1544SOL    HW1 5531   3.072   4.104   2.389
 1544SOL    HW2 5532   3.188   3.990   2.398
 1545SOL     OW 5533   5.822   1.047   5.523
 1545SOL    HW1 5534   5.743   1.105   5.504
 1545SOL    HW2 5535   5.797   0.978   5.591
 1546SOL     OW 5536   4.977   6.846   5.912
 1546SOL    HW1 5537   5.003   6.942   5.922
 1546SOL    HW2 5538   4.989   6.799   5.999
 1547SOL     OW 5539   1.800   3.670   2.438
 1547SOL    HW1 5540   1.736   3.746   2.431
 1547SOL    HW2 5541   1.881   3.689   2.382
 1548SOL     OW 5542   4.495   3.787   5.418
 1548SOL    HW1 5543   4.474   3.749   5.327
 1548SOL    HW2 5544   4.421   3.765   5.481
 1549SOL     OW 5545   6.136   1.215   2.287
 1549SOL    HW1 5546   6.055   1.268   2.312
 1549SOL    HW2 5547   6.216   1.274   2.285
 1550SOL     OW 5548   2.954   6.440   5.709
 1550SOL    HW1 5549   2.917   6.481   5.792
 1550SOL    HW2 5550   2.882   6.386   5.665
 1551SOL     OW 5551   1.596   3.179   1.223
 1551SOL    HW1 5552   1.677   3.232   1.195
 1551SOL    HW2 5553   1.618   3.126   1.305
 1552SOL     OW 5554   1.020   7.006   1.510
 1552SOL    HW1 5555   0.983   6.970   1.424
 1552SOL    HW2 5556   0.950   6.998   1.581
 1553SOL     OW 5557   6.266   2.241   6.405
 1553SOL    HW1 5558   6.306   2.257   6.314
 1553SOL    HW2 5559   6.205   2.318   6.428
 1554SOL     OW 5560   3.652   2.102   3.055
 1554SOL    HW1 5561   3.722   2.114   2.985
 1554SOL    HW2 5562   3.676   2.156   3.136
 1555SOL     OW 5563   4.625   2.542   5.724
 1555SOL    HW1 5564   4.664   2.624   5.766
 1555SOL    HW2 5565   4.529   2.533   5.752
 1556SOL     OW 5566   3.847   0.523   0.552
 1556SOL    HW1 5567   3.825   0.550   0.646
 1556SOL    HW2 5568   3.766   0.482   0.510
 1557SOL     OW 5569   2.952   2.645   0.959
 1557SOL    HW1 5570   2.857   2.618   0.947
 1557SOL    HW2 5571   3.010   2.591   0.898
 1558SOL     OW 5572   5.592   2.320   4.704
 1558SOL    HW1 5573   5.676   2.360   4.742
 1558SOL    HW2 5574   5.578   2.230   4.743
 1559SOL     OW 5575   0.393   2.792   1.353
 1559SOL    HW1 5576   0.473   2.742   1.387
 1559SOL    HW2 5577   0.358   2.851   1.425
 1560SOL     OW 5578   3.128   1.402   6.747
 1560SOL    HW1 5579   3.199   1.451   6.696
 1560SOL    HW2 5580   3.148   1.408   6.845
 1561SOL     OW 5581   4.660   5.255   3.459
 1561SOL    HW1 5582   4.580   5.245   3.518
 1561SOL    HW2 5583   4.645   5.205   3.373
 1562SOL     OW 5584   3.468   6.190   2.600
 1562SOL    HW1 5585   3.455   6.180   2.699
 1562SOL    HW2 5586   3.405   6.129   2.553
 1563SOL     OW 5587   2.413   1.833   5.370
 1563SOL    HW1 5588   2.498   1.828   5.422
 1563SOL    HW2 5589   2.419   1.776   5.288
 1564SOL     OW 5590   1.369   1.678   2.170
 1564SOL    HW1 5591   1.466   1.655   2.174
 1564SOL    HW2 5592   1.314   1.594   2.176
 1565SOL     OW 5593   4.571   5.191   4.627
 1565SOL    HW1 5594   4.565   5.285   4.593
 1565SOL    HW2 5595   4.581   5.129   4.549
 1566SOL     OW 5596   6.317   4.980   4.277
 1566SOL    HW1 5597   6.283   5.074   4.272
 1566SOL    HW2 5598   6.410   4.981   4.314
 1567SOL     OW 5599   6.008   5.543   0.170
 1567SOL    HW1 5600   6.038   5.486   0.093
 1567SOL    HW2 5601   5.909   5.555   0.166
 1568SOL     OW 5602   2.500   6.220   3.360
 1568SOL    HW1 5603   2.510   6.272   3.275
 1568SOL    HW2 5604   2.536   6.128   3.347
 1569SOL     OW 5605   3.709   0.123   2.914
 1569SOL    HW1 5606   3.649   0.056   2.871
 1569SOL    HW2 5607   3.677   0.142   3.007
 1570SOL     OW 5608   2.560   6.442   6.483
 1570SOL    HW1 5609   2.473   6.456   6.435
 1570SOL    HW2 5610   2.633   6.430   6.416
 1571SOL     OW 5611   1.211   2.565   3.064
 1571SOL    HW1 5612   1.115   2.559   3.088
 1571SOL    HW2 5613   1.227   2.646   3.007
 1572SOL     OW 5614   1.887   5.324   2.287
 1572SOL    HW1 5615   1.985   5.313   2.269
 1572SOL    HW2 5616   1.836   5.261   2.229
 1573SOL     OW 5617   5.511   5.019   2.524
 1573SOL    HW1 5618   5.425   5.041   2.571
 1573SOL    HW2 5619   5.552   4.939   2.567
 1574SOL     OW 5620   6.429   2.879   2.132
 1574SOL    HW1 5621   6.508   2.940   2.140
 1574SOL    HW2 5622   6.348   2.931   2.108
 1575SOL     OW 5623   2.528   0.283   1.491
 1575SOL    HW1 5624   2.583   0.248   1.416
 1575SOL    HW2 5625   2.577   0.271   1.577
 1576SOL     OW 5626   0.812   6.443   3.043
 1576SOL    HW1 5627   0.859   6.467   3.128
 1576SOL    HW2 5628   0.726   6.397   3.065
 1577SOL     OW 5629   2.391   0.318   6.466
 1577SOL    HW1 5630   2.471   0.352   6.516
 1577SOL    HW2 5631   2.312   0.316   6.528
 1578SOL     OW 5632   4.909   1.110   6.310
 1578SOL    HW1 5633   4.960   1.027   6.333
 1578SOL    HW2 5634   4.961   1.191   6.340
 1579SOL     OW 5635   6.840   2.465   1.325
 1579SOL    HW1 5636   6.851   2.388   1.262
 1579SOL    HW2 5637   6.923   2.476   1.379
 1580SOL     OW 5638   3.171   4.077   3.103
 1580SOL    HW1 5639   3.105   4.148   3.126
 1580SOL    HW2 5640   3.208   4.037   3.187
 1581SOL     OW 5641   6.927   4.262   5.906
 1581SOL    HW1 5642   7.027   4.268   5.905
 1581SOL    HW2 5643   6.891   4.325   5.975
 1582SOL     OW 5644   3.376   5.816   4.689
 1582SOL    HW1 5645   3.317   5.841   4.766
 1582SOL    HW2 5646   3.371   5.717   4.674
 1583SOL     OW 5647   0.870   5.525   4.463
 1583SOL    HW1 5648   0.866   5.526   4.363
 1583SOL    HW2 5649   0.846   5.433   4.496
 1584SOL     OW 5650   1.861   4.829   6.802
 1584SOL    HW1 5651   1.878   4.731   6.799
 1584SOL    HW2 5652   1.947   4.878   6.813
 1585SOL     OW 5653   4.183   1.621   3.031
 1585SOL    HW1 5654   4.258   1.665   3.080
 1585SOL    HW2 5655   4.131   1.564   3.095
 1586SOL     OW 5656   2.890   4.804   3.062
 1586SOL    HW1 5657   2.943   4.806   2.977
 1586SOL    HW2 5658   2.895   4.893   3.107
 1587SOL     OW 5659   1.958   4.872   5.471
 1587SOL    HW1 5660   1.931   4.913   5.384
 1587SOL    HW2 5661   2.026   4.931   5.515
 1588SOL     OW 5662   4.984   0.589   2.356
 1588SOL    HW1 5663   4.900   0.561   2.310
 1588SOL    HW2 5664   5.036   0.651   2.297
 1589SOL     OW 5665   0.153   3.227   2.512
 1589SOL    HW1 5666   0.101   3.187   2.587
 1589SOL    HW2 5667   0.145   3.327   2.516
 1590SOL     OW 5668   4.783   0.942   3.708
 1590SOL    HW1 5669   4.854   0.877   3.736
 1590SOL    HW2 5670   4.701   0.928   3.763
 1591SOL     OW 5671   0.270   6.189   1.311
 1591SOL    HW1 5672   0.216   6.142   1.242
 1591SOL    HW2 5673   0.306   6.275   1.273
 1592SOL     OW 5674   2.076   4.014   0.031
 1592SOL    HW1 5675   2.090   3.933   7.001
 1592SOL    HW2 5676   1.993   4.001   0.086
 1593SOL     OW 5677   0.681   7.010   6.067
 1593SOL    HW1 5678   0.748   6.997   6.139
 1593SOL    HW2 5679   0.604   6.948   6.081
 1594SOL     OW 5680   6.980   5.844   2.251
 1594SOL    HW1 5681   6.933   5.906   2.189
 1594SOL    HW2 5682   6.961   5.749   2.224
 1595SOL     OW 5683   0.597   4.105   0.519
 1595SOL    HW1 5684   0.552   4.184   0.479
 1595SOL    HW2 5685   0.694   4.124   0.533
 1596SOL     OW 5686   6.615   3.083   2.240
 1596SOL    HW1 5687   6.584   3.137   2.318
 1596SOL    HW2 5688   6.671   3.007   2.271
 1597SOL     OW 5689   2.396   5.834   1.285
 1597SOL    HW1 5690   2.409   5.771   1.361
 1597SOL    HW2 5691   2.298   5.845   1.267
 1598SOL     OW 5692   1.342   5.300   6.527
 1598SOL    HW1 5693   1.379   5.389   6.554
 1598SOL    HW2 5694   1.417   5.238   6.505
 1599SOL     OW 5695   4.907   4.901   5.257
 1599SOL    HW1 5696   4.944   4.813   5.226
 1599SOL    HW2 5697   4.847   4.886   5.335
 1600SOL     OW 5698   2.804   1.584   2.287
 1600SOL    HW1 5699   2.734   1.643   2.249
 1600SOL    HW2 5700   2.789   1.490   2.255
 1601SOL     OW 5701   0.473   6.756   4.548
 1601SOL    HW1 5702   0.537   6.680   4.559
 1601SOL    HW2 5703   0.380   6.722   4.549
 1602SOL     OW 5704   4.522   5.450   4.540
 1602SOL    HW1 5705   4.518   5.429   4.443
 1602SOL    HW2 5706   4.613   5.485   4.563
 1603SOL     OW 5707   2.635   5.140   3.619
 1603SOL    HW1 5708   2.668   5.058   3.666
 1603SOL    HW2 5709   2.662   5.137   3.522
 1604SOL     OW 5710   3.929   5.115   1.432
 1604SOL    HW1 5711   3.859   5.167   1.480
 1604SOL    HW2 5712   3.920   5.018   1.453
 1605SOL     OW 5713   6.401   5.638   1.693
 1605SOL    HW1 5714   6.386   5.661   1.597
 1605SOL    HW2 5715   6.325   5.584   1.727
 1606SOL     OW 5716   4.072   5.512   5.426
 1606SOL    HW1 5717   3.998   5.576   5.405
 1606SOL    HW2 5718   4.157   5.546   5.385
 1607SOL     OW 5719   4.116   0.390   0.715
 1607SOL    HW1 5720   4.023   0.362   0.694
 1607SOL    HW2 5721   4.127   0.488   0.696
 1608SOL     OW 5722   6.723   0.982   2.762
 1608SOL    HW1 5723   6.790   0.994   2.688
 1608SOL    HW2 5724   6.660   1.060   2.762
 1609SOL     OW 5725   3.343   6.946   1.002
 1609SOL    HW1 5726   3.432   6.906   1.023
 1609SOL    HW2 5727   3.279   6.873   0.975
 1610SOL     OW 5728   4.924   6.182   0.758
 1610SOL    HW1 5729   4.921   6.234   0.844
 1610SOL    HW2 5730   5.017   6.149   0.743
 1611SOL     OW 5731   1.633   3.256   0.714
 1611SOL    HW1 5732   1.619   3.286   0.808
 1611SOL    HW2 5733   1.727   3.224   0.703
 1612SOL     OW 5734   3.327   6.731   1.706
 1612SOL    HW1 5735   3.280   6.663   1.650
 1612SOL    HW2 5736   3.282   6.737   1.796
 1613SOL     OW 5737   0.505   5.612   1.928
 1613SOL    HW1 5738   0.579   5.679   1.919
 1613SOL    HW2 5739   0.459   5.625   2.015
 1614SOL     OW 5740   5.653   1.933   6.107
 1614SOL    HW1 5741   5.748   1.912   6.085
 1614SOL    HW2 5742   5.635   2.029   6.087
 1615SOL     OW 5743   6.667   5.597   6.499
 1615SOL    HW1 5744   6.590   5.560   6.447
 1615SOL    HW2 5745   6.740   5.528   6.501
 1616SOL     OW 5746   4.318   7.000   3.290
 1616SOL    HW1 5747   4.335   0.042   3.360
 1616SOL    HW2 5748   4.289   0.017   3.206
 1617SOL     OW 5749   4.675   6.473   2.836
 1617SOL    HW1 5750   4.612   6.485   2.913
 1617SOL    HW2 5751   4.633   6.412   2.768
 1618SOL     OW 5752   1.078   6.170   3.207
 1618SOL    HW1 5753   1.085   6.186   3.305
 1618SOL    HW2 5754   1.125   6.243   3.157
 1619SOL     OW 5755   0.222   5.562   0.157
 1619SOL    HW1 5756   0.127   5.576   0.185
 1619SOL    HW2 5757   0.224   5.529   0.063
 1620SOL     OW 5758   3.309   4.711   1.708
 1620SOL    HW1 5759   3.380   4.659   1.757
 1620SOL    HW2 5760   3.343   4.803   1.690
 1621SOL     OW 5761   6.047   0.131   0.816
 1621SOL    HW1 5762   6.016   0.035   0.818
 1621SOL    HW2 5763   6.111   0.144   0.740
 1622SOL     OW 5764   0.580   3.392   5.481
 1622SOL    HW1 5765   0.662   3.368   5.429
 1622SOL    HW2 5766   0.595   3.478   5.530
 1623SOL     OW 5767   0.505   2.626   4.841
 1623SOL    HW1 5768   0.509   2.540   4.789
 1623SOL    HW2 5769   0.414   2.666   4.834
 1624SOL     OW 5770   4.475   1.378   5.846
 1624SOL    HW1 5771   4.553   1.367   5.784
 1624SOL    HW2 5772   4.477   1.470   5.885
 1625SOL     OW 5773   1.458   5.307   6.883
 1625SOL    HW1 5774   1.521   5.232   6.903
 1625SOL    HW2 5775   1.380   5.272   6.832
 1626SOL     OW 5776   3.387   1.402   1.336
 1626SOL    HW1 5777   3.465   1.458   1.309
 1626SOL    HW2 5778   3.309   1.461   1.354
 1627SOL     OW 5779   5.769   3.170   3.722
 1627SOL    HW1 5780   5.733   3.160   3.630
 1627SOL    HW2 5781   5.739   3.092   3.778
 1628SOL     OW 5782   4.511   5.568   0.001
 1628SOL    HW1 5783   4.573   5.574   0.079
 1628SOL    HW2 5784   4.555   5.518   6.954
 1629SOL     OW 5785   2.628   1.423   4.105
 1629SOL    HW1 5786   2.606   1.327   4.119
 1629SOL    HW2 5787   2.652   1.439   4.009
 1630SOL     OW 5788   6.780   4.461   5.424
 1630SOL    HW1 5789   6.727   4.381   5.453
 1630SOL    HW2 5790   6.729   4.544   5.446
 1631SOL     OW 5791   0.409   2.732   0.341
 1631SOL    HW1 5792   0.447   2.806   0.286
 1631SOL    HW2 5793   0.331   2.765   0.394
 1632SOL     OW 5794   4.892   3.279   2.674
 1632SOL    HW1 5795   4.901   3.249   2.579
 1632SOL    HW2 5796   4.878   3.200   2.733
 1633SOL     OW 5797   5.189   4.304   4.811
 1633SOL    HW1 5798   5.139   4.266   4.732
 1633SOL    HW2 5799   5.287   4.290   4.798
 1634SOL     OW 5800   4.703   0.806   4.269
 1634SOL    HW1 5801   4.689   0.896   4.309
 1634SOL    HW2 5802   4.757   0.815   4.185
 1635SOL     OW 5803   0.707   5.099   6.686
 1635SOL    HW1 5804   0.699   5.019   6.627
 1635SOL    HW2 5805   0.637   5.166   6.662
 1636SOL     OW 5806   3.337   5.223   1.748
 1636SOL    HW1 5807   3.309   5.208   1.843
 1636SOL    HW2 5808   3.418   5.282   1.746
 1637SOL     OW 5809   6.845   6.628   3.640
 1637SOL    HW1 5810   6.909   6.701   3.663
 1637SOL    HW2 5811   6.811   6.586   3.725
 1638SOL     OW 5812   0.676   2.887   2.413
 1638SOL    HW1 5813   0.670   2.977   2.456
 1638SOL    HW2 5814   0.602   2.829   2.446
 1639SOL     OW 5815   5.791   5.268   2.012
 1639SOL    HW1 5816   5.751   5.180   2.038
 1639SOL    HW2 5817   5.882   5.253   1.975
 1640SOL     OW 5818   6.003   7.004   6.983
 1640SOL    HW1 5819   5.963   0.069   6.984
 1640SOL    HW2 5820   6.097   7.008   7.018
 1641SOL     OW 5821   6.700   2.464   3.285
 1641SOL    HW1 5822   6.759   2.385   3.270
 1641SOL    HW2 5823   6.674   2.503   3.196
 1642SOL     OW 5824   6.847   3.362   6.514
 1642SOL    HW1 5825   6.875   3.409   6.431
 1642SOL    HW2 5826   6.758   3.319   6.499
 1643SOL     OW 5827   2.650   4.691   3.007
 1643SOL    HW1 5828   2.582   4.759   2.980
 1643SOL    HW2 5829   2.740   4.733   3.007
 1644SOL     OW 5830   5.431   3.471   6.598
 1644SOL    HW1 5831   5.362   3.399   6.589
 1644SOL    HW2 5832   5.495   3.447   6.671
 1645SOL     OW 5833   3.028   6.301   6.176
 1645SOL    HW1 5834   3.040   6.260   6.086
 1645SOL    HW2 5835   2.995   6.395   6.166
 1646SOL     OW 5836   2.486   6.858   0.101
 1646SOL    HW1 5837   2.552   6.786   0.122
 1646SOL    HW2 5838   2.408   6.850   0.163
 1647SOL     OW 5839   6.448   2.241   4.216
 1647SOL    HW1 5840   6.411   2.327   4.252
 1647SOL    HW2 5841   6.476   2.254   4.121
 1648SOL     OW 5842   5.601   6.533   0.378
 1648SOL    HW1 5843   5.598   6.467   0.453
 1648SOL    HW2 5844   5.665   6.606   0.400
 1649SOL     OW 5845   3.652   1.293   4.750
 1649SOL    HW1 5846   3.586   1.264   4.820
 1649SOL    HW2 5847   3.628   1.251   4.662
 1650SOL     OW 5848   1.106   5.745   4.899
 1650SOL    HW1 5849   1.074   5.714   4.810
 1650SOL    HW2 5850   1.156   5.671   4.944
 1651SOL     OW 5851   0.693   2.380   2.569
 1651SOL    HW1 5852   0.722   2.373   2.473
 1651SOL    HW2 5853   0.613   2.321   2.584
 1652SOL     OW 5854   1.262   3.496   2.217
 1652SOL    HW1 5855   1.255   3.566   2.146
 1652SOL    HW2 5856   1.177   3.492   2.269
 1653SOL     OW 5857   0.339   6.388   1.148
 1653SOL    HW1 5858   0.369   6.458   1.213
 1653SOL    HW2 5859   0.316   6.432   1.061
 1654SOL     OW 5860   6.852   3.470   1.007
 1654SOL    HW1 5861   6.837   3.559   0.964
 1654SOL    HW2 5862   6.945   3.439   0.986
 1655SOL     OW 5863   6.888   1.426   4.072
 1655SOL    HW1 5864   6.850   1.389   4.157
 1655SOL    HW2 5865   6.938   1.510   4.091
 1656SOL     OW 5866   1.839   5.751   3.060
 1656SOL    HW1 5867   1.849   5.708   3.150
 1656SOL    HW2 5868   1.837   5.851   3.071
 1657SOL     OW 5869   6.057   0.316   4.306
 1657SOL    HW1 5870   5.994   0.389   4.279
 1657SOL    HW2 5871   6.119   0.296   4.230
 1658SOL     OW 5872   6.288   0.211   1.176
 1658SOL    HW1 5873   6.380   0.227   1.211
 1658SOL    HW2 5874   6.281   0.248   1.083
 1659SOL     OW 5875   3.640   0.027   0.031
 1659SOL    HW1 5876   3.637   0.085   6.977
 1659SOL    HW2 5877   3.566   0.053   0.093
 1660SOL     OW 5878   2.100   6.415   2.599
 1660SOL    HW1 5879   2.157   6.490   2.564
 1660SOL    HW2 5880   2.156   6.332   2.609
 1661SOL     OW 5881   1.824   5.804   1.551
 1661SOL    HW1 5882   1.737   5.794   1.599
 1661SOL    HW2 5883   1.879   5.722   1.565
 1662SOL     OW 5884   0.103   0.860   4.242
 1662SOL    HW1 5885   0.014   0.848   4.198
 1662SOL    HW2 5886   0.092   0.855   4.342
 1663SOL     OW 5887   4.752   5.541   3.533
 1663SOL    HW1 5888   4.704   5.463   3.494
 1663SOL    HW2 5889   4.747   5.537   3.633
 1664SOL     OW 5890   1.969   5.985   5.547
 1664SOL    HW1 5891   1.890   5.983   5.608
 1664SOL    HW2 5892   1.943   6.023   5.459
 1665SOL     OW 5893   6.349   3.609   1.540
 1665SOL    HW1 5894   6.257   3.593   1.577
 1665SOL    HW2 5895   6.410   3.536   1.569
 1666SOL     OW 5896   5.469   0.315   0.305
 1666SOL    HW1 5897   5.560   0.354   0.288
 1666SOL    HW2 5898   5.424   0.297   0.218
 1667SOL     OW 5899   6.750   5.838   1.625
 1667SOL    HW1 5900   6.672   5.881   1.671
 1667SOL    HW2 5901   6.772   5.752   1.670
 1668SOL     OW 5902   5.206   4.831   3.917
 1668SOL    HW1 5903   5.150   4.850   3.998
 1668SOL    HW2 5904   5.265   4.909   3.898
 1669SOL     OW 5905   6.881   4.771   5.935
 1669SOL    HW1 5906   6.816   4.700   5.908
 1669SOL    HW2 5907   6.925   4.745   6.021
 1670SOL     OW 5908   0.369   4.642   5.006
 1670SOL    HW1 5909   0.407   4.549   5.010
 1670SOL    HW2 5910   0.292   4.649   5.070
 1671SOL     OW 5911   5.714   1.081   3.317
 1671SOL    HW1 5912   5.776   1.079   3.239
 1671SOL    HW2 5913   5.752   1.025   3.391
 1672SOL     OW 5914   2.648   3.722   0.428
 1672SOL    HW1 5915   2.722   3.656   0.422
 1672SOL    HW2 5916   2.594   3.720   0.344
 1673SOL     OW 5917   0.972   1.522   4.754
 1673SOL    HW1 5918   1.035   1.596   4.729
 1673SOL    HW2 5919   1.009   1.435   4.724
 1674SOL     OW 5920   0.379   3.323   2.252
 1674SOL    HW1 5921   0.291   3.329   2.204
 1674SOL    HW2 5922   0.370   3.265   2.332
 1675SOL     OW 5923   4.816   0.455   6.951
 1675SOL    HW1 5924   4.836   0.437   0.020
 1675SOL    HW2 5925   4.785   0.549   6.940
 1676SOL     OW 5926   1.953   2.628   2.200
 1676SOL    HW1 5927   2.035   2.609   2.146
 1676SOL    HW2 5928   1.975   2.620   2.298
 1677SOL     OW 5929   3.864   3.799   3.770
 1677SOL    HW1 5930   3.935   3.785   3.839
 1677SOL    HW2 5931   3.774   3.786   3.811
 1678SOL     OW 5932   6.994   5.311   1.994
 1678SOL    HW1 5933   6.922   5.358   1.942
 1678SOL    HW2 5934   0.053   5.362   1.985
 1679SOL     OW 5935   1.408   1.181   4.498
 1679SOL    HW1 5936   1.328   1.214   4.448
 1679SOL    HW2 5937   1.489   1.228   4.464
 1680SOL     OW 5938   6.433   4.142   5.760
 1680SOL    HW1 5939   6.527   4.170   5.743
 1680SOL    HW2 5940   6.430   4.080   5.839
 1681SOL     OW 5941   1.170   6.105   5.941
 1681SOL    HW1 5942   1.253   6.160   5.935
 1681SOL    HW2 5943   1.159   6.052   5.857
 1682SOL     OW 5944   1.820   0.724   5.527
 1682SOL    HW1 5945   1.850   0.645   5.474
 1682SOL    HW2 5946   1.727   0.749   5.501
 1683SOL     OW 5947   6.278   5.591   2.588
 1683SOL    HW1 5948   6.344   5.590   2.513
 1683SOL    HW2 5949   6.207   5.522   2.571
 1684SOL     OW 5950   0.231   5.420   2.035
 1684SOL    HW1 5951   0.279   5.497   2.078
 1684SOL    HW2 5952   0.296   5.349   2.009
 1685SOL     OW 5953   2.059   1.289   5.943
 1685SOL    HW1 5954   2.007   1.287   5.858
 1685SOL    HW2 5955   2.155   1.308   5.922
 1686SOL     OW 5956   3.039   6.128   4.395
 1686SOL    HW1 5957   3.116   6.064   4.402
 1686SOL    HW2 5958   3.015   6.141   4.299
 1687SOL     OW 5959   1.015   2.603   1.856
 1687SOL    HW1 5960   0.999   2.509   1.827
 1687SOL    HW2 5961   1.086   2.605   1.927
 1688SOL     OW 5962   1.642   1.394   3.698
 1688SOL    HW1 5963   1.643   1.486   3.659
 1688SOL    HW2 5964   1.619   1.328   3.626
 1689SOL     OW 5965   6.084   0.578   2.561
 1689SOL    HW1 5966   6.081   0.653   2.496
 1689SOL    HW2 5967   5.994   0.535   2.568
 1690SOL     OW 5968   1.591   3.103   4.607
 1690SOL    HW1 5969   1.532   3.154   4.671
 1690SOL    HW2 5970   1.594   3.007   4.635
 1691SOL     OW 5971   6.064   3.428   4.125
 1691SOL    HW1 5972   5.985   3.373   4.151
 1691SOL    HW2 5973   6.144   3.401   4.179
 1692SOL     OW 5974   5.050   6.128   1.565
 1692SOL    HW1 5975   5.066   6.224   1.585
 1692SOL    HW2 5976   5.068   6.073   1.647
 1693SOL     OW 5977   6.902   2.634   3.349
 1693SOL    HW1 5978   6.978   2.574   3.323
 1693SOL    HW2 5979   6.815   2.586   3.333
 1694SOL     OW 5980   6.871   1.623   3.826
 1694SOL    HW1 5981   6.839   1.571   3.905
 1694SOL    HW2 5982   6.971   1.631   3.829
 1695SOL     OW 5983   2.982   0.634   6.599
 1695SOL    HW1 5984   3.011   0.703   6.533
 1695SOL    HW2 5985   2.886   0.612   6.585
 1696SOL     OW 5986   3.363   5.878   0.876
 1696SOL    HW1 5987   3.419   5.902   0.797
 1696SOL    HW2 5988   3.289   5.945   0.886
 1697SOL     OW 5989   6.643   1.396   0.838
 1697SOL    HW1 5990   6.548   1.373   0.857
 1697SOL    HW2 5991   6.700   1.366   0.914
 1698SOL     OW 5992   4.122   0.293   1.428
 1698SOL    HW1 5993   4.047   0.255   1.484
 1698SOL    HW2 5994   4.139   0.232   1.350
 1699SOL     OW 5995   1.793   1.737   5.813
 1699SOL    HW1 5996   1.823   1.819   5.765
 1699SOL    HW2 5997   1.833   1.656   5.770
 1700SOL     OW 5998   6.500   3.859   2.900
 1700SOL    HW1 5999   6.531   3.919   2.826
 1700SOL    HW2 6000   6.403   3.838   2.888
 1701SOL     OW 6001   5.731   6.040   5.330
 1701SOL    HW1 6002   5.636   6.012   5.318
 1701SOL    HW2 6003   5.790   5.961   5.316
 1702SOL     OW 6004   0.119   1.105   1.245
 1702SOL    HW1 6005   0.135   1.007   1.230
 1702SOL    HW2 6006   0.076   1.145   1.165
 1703SOL     OW 6007   3.757   1.171   6.909
 1703SOL    HW1 6008   3.712   1.137   6.827
 1703SOL    HW2 6009   3.838   1.114   6.928
 1704SOL     OW 6010   1.471   2.713   0.438
 1704SOL    HW1 6011   1.541   2.713   0.510
 1704SOL    HW2 6012   1.385   2.677   0.474
 1705SOL     OW 6013   3.537   2.252   1.684
 1705SOL    HW1 6014   3.566   2.264   1.589
 1705SOL    HW2 6015   3.617   2.260   1.744
 1706SOL     OW 6016   4.190   1.922   2.051
 1706SOL    HW1 6017   4.169   1.878   2.138
 1706SOL    HW2 6018   4.175   2.021   2.059
 1707SOL     OW 6019   4.725   2.495   2.696
 1707SOL    HW1 6020   4.701   2.565   2.629
 1707SOL    HW2 6021   4.664   2.502   2.774
 1708SOL     OW 6022   4.177   5.411   1.622
 1708SOL    HW1 6023   4.241   5.420   1.698
 1708SOL    HW2 6024   4.144   5.317   1.617
 1709SOL     OW 6025   3.323   6.727   2.374
 1709SOL    HW1 6026   3.359   6.820   2.386
 1709SOL    HW2 6027   3.223   6.731   2.370
 1710SOL     OW 6028   4.338   4.988   3.568
 1710SOL    HW1 6029   4.409   4.949   3.509
 1710SOL    HW2 6030   4.336   5.087   3.557
 1711SOL     OW 6031   2.052   5.296   4.635
 1711SOL    HW1 6032   2.137   5.347   4.637
 1711SOL    HW2 6033   1.996   5.326   4.558
 1712SOL     OW 6034   0.003   2.027   4.827
 1712SOL    HW1 6035   6.954   2.059   4.884
 1712SOL    HW2 6036   0.075   2.096   4.826
 1713SOL     OW 6037   4.335   1.197   2.542
 1713SOL    HW1 6038   4.407   1.167   2.480
 1713SOL    HW2 6039   4.374   1.257   2.612
 1714SOL     OW 6040   4.093   1.692   5.659
 1714SOL    HW1 6041   4.124   1.598   5.667
 1714SOL    HW2 6042   4.053   1.722   5.746
 1715SOL     OW 6043   1.900   6.064   3.224
 1715SOL    HW1 6044   1.912   6.140   3.159
 1715SOL    HW2 6045   1.935   6.092   3.313
 1716SOL     OW 6046   4.341   0.345   3.893
 1716SOL    HW1 6047   4.277   0.381   3.960
 1716SOL    HW2 6048   4.344   0.405   3.813
 1717SOL     OW 6049   3.207   5.944   4.458
 1717SOL    HW1 6050   3.200   5.886   4.539
 1717SOL    HW2 6051   3.297   5.988   4.455
 1718SOL     OW 6052   2.501   1.503   2.179
 1718SOL    HW1 6053   2.547   1.553   2.252
 1718SOL    HW2 6054   2.404   1.491   2.201
 1719SOL     OW 6055   1.980   3.546   1.075
 1719SOL    HW1 6056   2.074   3.513   1.071
 1719SOL    HW2 6057   1.971   3.613   1.149
 1720SOL     OW 6058   0.221   2.918   6.241
 1720SOL    HW1 6059   0.303   2.861   6.238
 1720SOL    HW2 6060   0.188   2.923   6.335
 1721SOL     OW 6061   1.659   6.907   1.328
 1721SOL    HW1 6062   1.727   6.834   1.338
 1721SOL    HW2 6063   1.642   6.950   1.417
 1722SOL     OW 6064   4.380   1.430   3.308
 1722SOL    HW1 6065   4.334   1.488   3.376
 1722SOL    HW2 6066   4.344   1.337   3.314
 1723SOL     OW 6067   4.794   2.671   0.038
 1723SOL    HW1 6068   4.791   2.645   0.134
 1723SOL    HW2 6069   4.797   2.588   7.009
 1724SOL     OW 6070   6.824   2.607   1.680
 1724SOL    HW1 6071   6.755   2.575   1.746
 1724SOL    HW2 6072   6.781   2.669   1.615
 1725SOL     OW 6073   1.832   5.236   0.027
 1725SOL    HW1 6074   1.813   5.292   0.108
 1725SOL    HW2 6075   1.906   5.172   0.047
 1726SOL     OW 6076   5.180   3.575   4.607
 1726SOL    HW1 6077   5.247   3.534   4.668
 1726SOL    HW2 6078   5.093   3.584   4.656
 1727SOL     OW 6079   3.842   3.575   3.597
 1727SOL    HW1 6080   3.790   3.635   3.657
 1727SOL    HW2 6081   3.925   3.545   3.644
 1728SOL     OW 6082   5.193   4.678   5.397
 1728SOL    HW1 6083   5.237   4.621   5.328
 1728SOL    HW2 6084   5.263   4.725   5.451
 1729SOL     OW 6085   1.692   3.251   3.210
 1729SOL    HW1 6086   1.632   3.195   3.266
 1729SOL    HW2 6087   1.642   3.284   3.130
 1730SOL     OW 6088   2.920   0.112   5.088
 1730SOL    HW1 6089   2.858   0.034   5.082
 1730SOL    HW2 6090   2.957   0.132   4.997
 1731SOL     OW 6091   6.431   4.554   3.559
 1731SOL    HW1 6092   6.419   4.547   3.460
 1731SOL    HW2 6093   6.344   4.532   3.605
 1732SOL     OW 6094   2.211   4.836   6.566
 1732SOL    HW1 6095   2.197   4.794   6.476
 1732SOL    HW2 6096   2.238   4.765   6.631
 1733SOL     OW 6097   1.987   4.087   2.035
 1733SOL    HW1 6098   1.995   4.177   1.993
 1733SOL    HW2 6099   1.929   4.028   1.979
 1734SOL     OW 6100   5.930   2.656   1.726
 1734SOL    HW1 6101   5.876   2.706   1.794
 1734SOL    HW2 6102   5.947   2.563   1.758
 1735SOL     OW 6103   4.828   5.641   6.082
 1735SOL    HW1 6104   4.862   5.607   5.994
 1735SOL    HW2 6105   4.787   5.731   6.070
 1736SOL     OW 6106   3.856   3.512   0.658
 1736SOL    HW1 6107   3.761   3.485   0.644
 1736SOL    HW2 6108   3.888   3.478   0.746
 1737SOL     OW 6109   5.176   6.900   4.687
 1737SOL    HW1 6110   5.120   6.942   4.616
 1737SOL    HW2 6111   5.224   6.971   4.738
 1738SOL     OW 6112   2.203   3.092   3.864
 1738SOL    HW1 6113   2.253   3.013   3.899
 1738SOL    HW2 6114   2.209   3.168   3.929
 1739SOL     OW 6115   6.392   1.268   4.667
 1739SOL    HW1 6116   6.426   1.342   4.725
 1739SOL    HW2 6117   6.313   1.224   4.710
 1740SOL     OW 6118   6.803   1.814   4.964
 1740SOL    HW1 6119   6.704   1.804   4.968
 1740SOL    HW2 6120   6.826   1.911   4.953
 1741SOL     OW 6121   2.809   1.114   4.682
 1741SOL    HW1 6122   2.741   1.072   4.623
 1741SOL    HW2 6123   2.786   1.211   4.695
 1742SOL     OW 6124   5.330   0.588   6.082
 1742SOL    HW1 6125   5.383   0.539   6.152
 1742SOL    HW2 6126   5.360   0.684   6.080
 1743SOL     OW 6127   0.641   0.911   2.726
 1743SOL    HW1 6128   0.553   0.877   2.691
 1743SOL    HW2 6129   0.666   0.995   2.678
 1744SOL     OW 6130   6.099   3.375   2.647
 1744SOL    HW1 6131   6.004   3.405   2.654
 1744SOL    HW2 6132   6.159   3.455   2.643
 1745SOL     OW 6133   5.687   6.290   2.267
 1745SOL    HW1 6134   5.613   6.339   2.313
 1745SOL    HW2 6135   5.760   6.270   2.332
 1746SOL     OW 6136   1.456   4.521   3.982
 1746SOL    HW1 6137   1.537   4.462   3.977
 1746SOL    HW2 6138   1.373   4.465   3.976
 1747SOL     OW 6139   3.496   1.501   2.856
 1747SOL    HW1 6140   3.582   1.470   2.815
 1747SOL    HW2 6141   3.420   1.483   2.792
 1748SOL     OW 6142   6.628   1.887   4.011
 1748SOL    HW1 6143   6.653   1.982   3.989
 1748SOL    HW2 6144   6.707   1.840   4.051
 1749SOL     OW 6145   2.318   6.922   6.546
 1749SOL    HW1 6146   2.247   6.992   6.551
 1749SOL    HW2 6147   2.279   6.832   6.567
 1750SOL     OW 6148   5.470   0.741   3.552
 1750SOL    HW1 6149   5.454   0.653   3.507
 1750SOL    HW2 6150   5.460   0.730   3.651
 1751SOL     OW 6151   5.394   1.287   4.995
 1751SOL    HW1 6152   5.443   1.347   4.932
 1751SOL    HW2 6153   5.302   1.271   4.959
 1752SOL     OW 6154   5.908   0.436   1.434
 1752SOL    HW1 6155   5.861   0.430   1.346
 1752SOL    HW2 6156   5.841   0.438   1.508
 1753SOL     OW 6157   6.594   0.891   2.031
 1753SOL    HW1 6158   6.614   0.793   2.024
 1753SOL    HW2 6159   6.660   0.943   1.976
 1754SOL     OW 6160   1.715   5.456   6.503
 1754SOL    HW1 6161   1.797   5.401   6.486
 1754SOL    HW2 6162   1.739   5.553   6.499
 1755SOL     OW 6163   0.138   6.091   6.843
 1755SOL    HW1 6164   0.047   6.054   6.827
 1755SOL    HW2 6165   0.132   6.176   6.895
 1756SOL     OW 6166   4.342   6.066   6.313
 1756SOL    HW1 6167   4.376   6.148   6.267
 1756SOL    HW2 6168   4.390   6.054   6.400
 1757SOL     OW 6169   3.697   5.456   5.514
 1757SOL    HW1 6170   3.651   5.381   5.562
 1757SOL    HW2 6171   3.742   5.515   5.581
 1758SOL     OW 6172   1.909   0.623   4.462
 1758SOL    HW1 6173   1.920   0.650   4.366
 1758SOL    HW2 6174   1.902   0.706   4.519
 1759SOL     OW 6175   1.808   6.553   5.583
 1759SOL    HW1 6176   1.806   6.472   5.642
 1759SOL    HW2 6177   1.900   6.590   5.580
 1760SOL     OW 6178   6.040   0.841   3.910
 1760SOL    HW1 6179   6.056   0.846   3.811
 1760SOL    HW2 6180   6.020   0.932   3.945
 1761SOL     OW 6181   6.620   0.503   1.717
 1761SOL    HW1 6182   6.651   0.410   1.699
 1761SOL    HW2 6183   6.535   0.520   1.666
 1762SOL     OW 6184   0.090   1.911   4.270
 1762SOL    HW1 6185   0.103   1.846   4.195
 1762SOL    HW2 6186   0.074   1.861   4.355
 1763SOL     OW 6187   1.310   4.580   4.747
 1763SOL    HW1 6188   1.358   4.643   4.687
 1763SOL    HW2 6189   1.370   4.554   4.823
 1764SOL     OW 6190   0.784   3.626   2.226
 1764SOL    HW1 6191   0.841   3.569   2.167
 1764SOL    HW2 6192   0.798   3.601   2.322
 1765SOL     OW 6193   3.645   1.527   1.300
 1765SOL    HW1 6194   3.598   1.608   1.264
 1765SOL    HW2 6195   3.744   1.539   1.291
 1766SOL     OW 6196   5.295   4.366   3.933
 1766SOL    HW1 6197   5.305   4.313   4.017
 1766SOL    HW2 6198   5.275   4.461   3.955
 1767SOL     OW 6199   0.944   4.842   3.316
 1767SOL    HW1 6200   0.920   4.929   3.273
 1767SOL    HW2 6201   0.917   4.844   3.412
 1768SOL     OW 6202   3.603   0.849   6.859
 1768SOL    HW1 6203   3.515   0.885   6.888
 1768SOL    HW2 6204   3.642   0.908   6.789
 1769SOL     OW 6205   5.536   1.136   0.060
 1769SOL    HW1 6206   5.467   1.067   0.039
 1769SOL    HW2 6207   5.506   1.225   0.027
 1770SOL     OW 6208   0.478   4.378   5.043
 1770SOL    HW1 6209   0.496   4.347   5.136
 1770SOL    HW2 6210   0.561   4.369   4.988
 1771SOL     OW 6211   1.535   4.958   0.499
 1771SOL    HW1 6212   1.511   5.033   0.561
 1771SOL    HW2 6213   1.596   4.991   0.428
 1772SOL     OW 6214   3.621   5.499   3.969
 1772SOL    HW1 6215   3.612   5.584   4.021
 1772SOL    HW2 6216   3.577   5.508   3.880
 1773SOL     OW 6217   1.755   2.267   5.599
 1773SOL    HW1 6218   1.708   2.284   5.513
 1773SOL    HW2 6219   1.846   2.230   5.581
 1774SOL     OW 6220   5.381   6.257   2.116
 1774SOL    HW1 6221   5.348   6.319   2.044
 1774SOL    HW2 6222   5.479   6.242   2.103
 1775SOL     OW 6223   2.232   5.910   6.683
 1775SOL    HW1 6224   2.136   5.935   6.689
 1775SOL    HW2 6225   2.247   5.849   6.605
 1776SOL     OW 6226   5.110   0.726   6.109
 1776SOL    HW1 6227   5.187   0.663   6.100
 1776SOL    HW2 6228   5.104   0.784   6.028
 1777SOL     OW 6229   3.514   6.851   6.327
 1777SOL    HW1 6230   3.478   6.866   6.234
 1777SOL    HW2 6231   3.602   6.804   6.321
 1778SOL     OW 6232   4.722   1.456   4.499
 1778SOL    HW1 6233   4.819   1.464   4.519
 1778SOL    HW2 6234   4.676   1.409   4.574
 1779SOL     OW 6235   4.834   0.147   5.633
 1779SOL    HW1 6236   4.923   0.151   5.586
 1779SOL    HW2 6237   4.817   0.054   5.664
 1780SOL     OW 6238   1.493   3.759   5.252
 1780SOL    HW1 6239   1.571   3.758   5.315
 1780SOL    HW2 6240   1.411   3.786   5.302
 1781SOL     OW 6241   5.157   6.966   5.235
 1781SOL    HW1 6242   5.099   7.025   5.179
 1781SOL    HW2 6243   5.249   6.962   5.195
 1782SOL     OW 6244   2.526   1.459   2.943
 1782SOL    HW1 6245   2.485   1.477   2.854
 1782SOL    HW2 6246   2.499   1.532   3.007
 1783SOL     OW 6247   2.319   3.496   6.399
 1783SOL    HW1 6248   2.392   3.499   6.467
 1783SOL    HW2 6249   2.342   3.431   6.327
 1784SOL     OW 6250   2.425   1.498   1.708
 1784SOL    HW1 6251   2.483   1.521   1.786
 1784SOL    HW2 6252   2.418   1.399   1.700
 1785SOL     OW 6253   0.116   6.574   4.303
 1785SOL    HW1 6254   0.149   6.484   4.273
 1785SOL    HW2 6255   0.017   6.572   4.309
 1786SOL     OW 6256   2.017   5.188   0.764
 1786SOL    HW1 6257   2.060   5.256   0.705
 1786SOL    HW2 6258   1.938   5.229   0.810
 1787SOL     OW 6259   1.821   1.956   5.650
 1787SOL    HW1 6260   1.768   2.000   5.723
 1787SOL    HW2 6261   1.906   2.006   5.636
 1788SOL     OW 6262   4.748   4.122   6.918
 1788SOL    HW1 6263   4.766   4.194   6.851
 1788SOL    HW2 6264   4.747   4.161   7.010
 1789SOL     OW 6265   6.283   2.711   1.821
 1789SOL    HW1 6266   6.234   2.642   1.768
 1789SOL    HW2 6267   6.313   2.784   1.760
 1790SOL     OW 6268   2.937   1.133   4.013
 1790SOL    HW1 6269   3.033   1.157   4.025
 1790SOL    HW2 6270   2.911   1.066   4.083
 1791SOL     OW 6271   6.624   1.170   3.169
 1791SOL    HW1 6272   6.604   1.191   3.265
 1791SOL    HW2 6273   6.696   1.231   3.137
 1792SOL     OW 6274   0.318   2.357   4.450
 1792SOL    HW1 6275   0.316   2.263   4.417
 1792SOL    HW2 6276   0.225   2.390   4.464
 1793SOL     OW 6277   6.073   1.400   4.365
 1793SOL    HW1 6278   6.115   1.408   4.275
 1793SOL    HW2 6279   6.050   1.304   4.382
 1794SOL     OW 6280   5.686   0.035   5.761
 1794SOL    HW1 6281   5.771   0.025   5.709
 1794SOL    HW2 6282   5.667   0.133   5.774
 1795SOL     OW 6283   5.958   5.264   1.382
 1795SOL    HW1 6284   5.940   5.345   1.326
 1795SOL    HW2 6285   5.885   5.252   1.449
 1796SOL     OW 6286   2.139   1.234   5.588
 1796SOL    HW1 6287   2.063   1.224   5.652
 1796SOL    HW2 6288   2.116   1.303   5.519
 1797SOL     OW 6289   1.138   0.339   5.627
 1797SOL    HW1 6290   1.064   0.317   5.691
 1797SOL    HW2 6291   1.225   0.333   5.675
 1798SOL     OW 6292   3.777   2.913   4.635
 1798SOL    HW1 6293   3.812   2.825   4.665
 1798SOL    HW2 6294   3.822   2.986   4.686
 1799SOL     OW 6295   3.978   2.776   6.604
 1799SOL    HW1 6296   4.052   2.735   6.657
 1799SOL    HW2 6297   4.014   2.809   6.516
 1800SOL     OW 6298   5.229   4.447   3.635
 1800SOL    HW1 6299   5.326   4.439   3.614
 1800SOL    HW2 6300   5.175   4.436   3.551
 1801SOL     OW 6301   0.765   2.223   2.047
 1801SOL    HW1 6302   0.692   2.165   2.013
 1801SOL    HW2 6303   0.803   2.182   2.130
 1802SOL     OW 6304   6.124   5.551   3.277
 1802SOL    HW1 6305   6.203   5.500   3.243
 1802SOL    HW2 6306   6.045   5.491   3.284
 1803SOL     OW 6307   0.136   6.654   2.660
 1803SOL    HW1 6308   0.059   6.695   2.612
 1803SOL    HW2 6309   0.216   6.714   2.653
 1804SOL     OW 6310   3.457   3.104   5.836
 1804SOL    HW1 6311   3.415   3.135   5.750
 1804SOL    HW2 6312   3.436   3.168   5.909
 1805SOL     OW 6313   0.994   5.450   6.314
 1805SOL    HW1 6314   1.042   5.537   6.305
 1805SOL    HW2 6315   0.924   5.442   6.242
 1806SOL     OW 6316   0.218   2.893   2.269
 1806SOL    HW1 6317   0.176   2.973   2.225
 1806SOL    HW2 6318   0.317   2.906   2.273
 1807SOL     OW 6319   6.031   3.826   7.027
 1807SOL    HW1 6320   5.992   3.823   6.935
 1807SOL    HW2 6321   6.118   3.875   7.025
 1808SOL     OW 6322   5.983   3.291   4.704
 1808SOL    HW1 6323   6.044   3.276   4.782
 1808SOL    HW2 6324   5.939   3.380   4.713
 1809SOL     OW 6325   2.980   1.265   5.235
 1809SOL    HW1 6326   3.058   1.265   5.297
 1809SOL    HW2 6327   2.899   1.299   5.283
 1810SOL     OW 6328   6.961   1.136   4.740
 1810SOL    HW1 6329   7.017   1.053   4.744
 1810SOL    HW2 6330   6.865   1.110   4.726
 1811SOL     OW 6331   4.833   4.775   1.573
 1811SOL    HW1 6332   4.847   4.697   1.512
 1811SOL    HW2 6333   4.736   4.780   1.599
 1812SOL     OW 6334   4.278   6.735   6.067
 1812SOL    HW1 6335   4.321   6.805   6.123
 1812SOL    HW2 6336   4.307   6.746   5.972
 1813SOL     OW 6337   4.729   4.247   2.258
 1813SOL    HW1 6338   4.638   4.278   2.288
 1813SOL    HW2 6339   4.722   4.206   2.168
 1814SOL     OW 6340   6.201   6.958   0.262
 1814SOL    HW1 6341   6.251   6.917   0.339
 1814SOL    HW2 6342   6.265   6.975   0.187
 1815SOL     OW 6343   5.542   6.436   2.857
 1815SOL    HW1 6344   5.488   6.504   2.808
 1815SOL    HW2 6345   5.491   6.350   2.862
 1816SOL     OW 6346   3.797   5.635   6.562
 1816SOL    HW1 6347   3.810   5.667   6.468
 1816SOL    HW2 6348   3.795   5.713   6.624
 1817SOL     OW 6349   3.285   1.466   3.172
 1817SOL    HW1 6350   3.356   1.533   3.149
 1817SOL    HW2 6351   3.256   1.480   3.266
 1818SOL     OW 6352   1.812   6.690   0.447
 1818SOL    HW1 6353   1.772   6.665   0.535
 1818SOL    HW2 6354   1.893   6.632   0.430
 1819SOL     OW 6355   1.479   4.909   1.901
 1819SOL    HW1 6356   1.403   4.965   1.934
 1819SOL    HW2 6357   1.527   4.956   1.828
 1820SOL     OW 6358   3.914   0.608   3.163
 1820SOL    HW1 6359   3.846   0.609   3.089
 1820SOL    HW2 6360   3.969   0.692   3.158
 1821SOL     OW 6361   3.737   1.352   1.544
 1821SOL    HW1 6362   3.733   1.416   1.467
 1821SOL    HW2 6363   3.648   1.307   1.554
 1822SOL     OW 6364   1.136   3.220   2.101
 1822SOL    HW1 6365   1.197   3.275   2.158
 1822SOL    HW2 6366   1.160   3.232   2.004
 1823SOL     OW 6367   2.906   6.488   3.411
 1823SOL    HW1 6368   2.901   6.414   3.478
 1823SOL    HW2 6369   2.836   6.556   3.432
 1824SOL     OW 6370   3.470   4.257   0.514
 1824SOL    HW1 6371   3.554   4.275   0.565
 1824SOL    HW2 6372   3.484   4.277   0.417
 1825SOL     OW 6373   0.259   3.260   5.122
 1825SOL    HW1 6374   0.162   3.263   5.144
 1825SOL    HW2 6375   0.313   3.264   5.206
 1826SOL     OW 6376   3.804   1.487   0.608
 1826SOL    HW1 6377   3.716   1.440   0.609
 1826SOL    HW2 6378   3.874   1.427   0.644
 1827SOL     OW 6379   5.194   5.360   0.922
 1827SOL    HW1 6380   5.258   5.427   0.884
 1827SOL    HW2 6381   5.236   5.316   1.001
 1828SOL     OW 6382   2.055   3.422   6.840
 1828SOL    HW1 6383   1.968   3.443   6.796
 1828SOL    HW2 6384   2.038   3.379   6.929
 1829SOL     OW 6385   3.643   0.273   3.422
 1829SOL    HW1 6386   3.729   0.322   3.405
 1829SOL    HW2 6387   3.566   0.334   3.402
 1830SOL     OW 6388   6.101   6.986   4.836
 1830SOL    HW1 6389   6.147   0.015   4.768
 1830SOL    HW2 6390   6.013   6.955   4.799
 1831SOL     OW 6391   4.711   6.109   2.562
 1831SOL    HW1 6392   4.735   6.045   2.635
 1831SOL    HW2 6393   4.793   6.137   2.513
 1832SOL     OW 6394   2.992   3.180   0.271
 1832SOL    HW1 6395   2.998   3.187   0.371
 1832SOL    HW2 6396   3.080   3.204   0.231
 1833SOL     OW 6397   4.965   6.886   1.085
 1833SOL    HW1 6398   5.002   6.910   0.995
 1833SOL    HW2 6399   5.033   6.835   1.136
 1834SOL     OW 6400   2.924   2.880   1.290
 1834SOL    HW1 6401   2.843   2.835   1.252
 1834SOL    HW2 6402   2.959   2.826   1.367
 1835SOL     OW 6403   0.136   4.916   1.489
 1835SOL    HW1 6404   0.202   4.924   1.414
 1835SOL    HW2 6405   0.071   4.992   1.485
 1836SOL     OW 6406   5.638   2.072   1.963
 1836SOL    HW1 6407   5.736   2.067   1.982
 1836SOL    HW2 6408   5.607   2.167   1.971
 1837SOL     OW 6409   2.127   0.690   5.639
 1837SOL    HW1 6410   2.213   0.699   5.689
 1837SOL    HW2 6411   2.127   0.752   5.561
 1838SOL     OW 6412   6.462   0.590   6.408
 1838SOL    HW1 6413   6.531   0.548   6.350
 1838SOL    HW2 6414   6.507   0.647   6.478
 1839SOL     OW 6415   6.389   1.805   6.730
 1839SOL    HW1 6416   6.428   1.787   6.640
 1839SOL    HW2 6417   6.461   1.802   6.799
 1840SOL     OW 6418   4.087   0.492   2.890
 1840SOL    HW1 6419   4.012   0.558   2.883
 1840SOL    HW2 6420   4.092   0.458   2.984
 1841SOL     OW 6421   2.534   0.939   2.321
 1841SOL    HW1 6422   2.504   0.920   2.228
 1841SOL    HW2 6423   2.493   1.025   2.353
 1842SOL     OW 6424   1.663   4.755   0.233
 1842SOL    HW1 6425   1.733   4.808   0.281
 1842SOL    HW2 6426   1.663   4.780   0.136
 1843SOL     OW 6427   4.554   1.011   4.517
 1843SOL    HW1 6428   4.640   1.022   4.566
 1843SOL    HW2 6429   4.513   0.922   4.540
 1844SOL     OW 6430   5.063   1.885   5.069
 1844SOL    HW1 6431   5.104   1.843   5.150
 1844SOL    HW2 6432   4.999   1.956   5.098
 1845SOL     OW 6433   3.143   0.889   3.299
 1845SOL    HW1 6434   3.118   0.983   3.321
 1845SOL    HW2 6435   3.133   0.874   3.201
 1846SOL     OW 6436   5.407   0.927   2.883
 1846SOL    HW1 6437   5.398   0.905   2.980
 1846SOL    HW2 6438   5.348   1.005   2.862
 1847SOL     OW 6439   1.485   0.607   5.161
 1847SOL    HW1 6440   1.421   0.656   5.221
 1847SOL    HW2 6441   1.564   0.665   5.143
 1848SOL     OW 6442   1.954   6.106   4.102
 1848SOL    HW1 6443   1.917   6.170   4.169
 1848SOL    HW2 6444   2.020   6.045   4.147
 1849SOL     OW 6445   5.018   3.089   2.071
 1849SOL    HW1 6446   5.020   3.160   2.001
 1849SOL    HW2 6447   4.933   3.036   2.062
 1850SOL     OW 6448   5.365   1.462   2.326
 1850SOL    HW1 6449   5.377   1.395   2.253
 1850SOL    HW2 6450   5.347   1.415   2.412
 1851SOL     OW 6451   0.703   3.249   6.652
 1851SOL    HW1 6452   0.713   3.188   6.573
 1851SOL    HW2 6453   0.610   3.243   6.687
 1852SOL     OW 6454   6.642   5.069   1.422
 1852SOL    HW1 6455   6.544   5.062   1.441
 1852SOL    HW2 6456   6.659   5.039   1.328
 1853SOL     OW 6457   0.077   2.579   4.156
 1853SOL    HW1 6458   0.025   2.546   4.078
 1853SOL    HW2 6459   0.170   2.604   4.127
 1854SOL     OW 6460   1.367   5.327   3.541
 1854SOL    HW1 6461   1.361   5.236   3.580
 1854SOL    HW2 6462   1.395   5.392   3.611
 1855SOL     OW 6463   5.534   3.190   4.790
 1855SOL    HW1 6464   5.603   3.184   4.862
 1855SOL    HW2 6465   5.506   3.098   4.763
 1856SOL     OW 6466   4.305   3.323   6.363
 1856SOL    HW1 6467   4.349   3.391   6.305
 1856SOL    HW2 6468   4.207   3.342   6.370
 1857SOL     OW 6469   5.445   1.070   0.644
 1857SOL    HW1 6470   5.382   1.012   0.696
 1857SOL    HW2 6471   5.497   1.013   0.580
 1858SOL     OW 6472   5.243   2.601   3.357
 1858SOL    HW1 6473   5.241   2.537   3.280
 1858SOL    HW2 6474   5.310   2.571   3.425
 1859SOL     OW 6475   5.158   1.913   3.711
 1859SOL    HW1 6476   5.130   1.995   3.661
 1859SOL    HW2 6477   5.224   1.862   3.657
 1860SOL     OW 6478   0.617   2.207   5.171
 1860SOL    HW1 6479   0.537   2.265   5.155
 1860SOL    HW2 6480   0.684   2.222   5.098
 1861SOL     OW 6481   5.472   0.447   2.853
 1861SOL    HW1 6482   5.559   0.497   2.852
 1861SOL    HW2 6483   5.460   0.402   2.941
 1862SOL     OW 6484   1.329   6.930   0.029
 1862SOL    HW1 6485   1.316   6.940   6.958
 1862SOL    HW2 6486   1.299   6.839   0.057
 1863SOL     OW 6487   7.022   2.880   1.170
 1863SOL    HW1 6488   6.938   2.845   1.210
 1863SOL    HW2 6489   7.019   2.869   1.071
 1864SOL     OW 6490   2.867   5.464   4.333
 1864SOL    HW1 6491   2.820   5.497   4.415
 1864SOL    HW2 6492   2.834   5.373   4.309
 1865SOL     OW 6493   3.819   1.056   1.524
 1865SOL    HW1 6494   3.864   1.101   1.448
 1865SOL    HW2 6495   3.760   1.121   1.572
 1866SOL     OW 6496   6.170   4.327   4.154
 1866SOL    HW1 6497   6.252   4.363   4.109
 1866SOL    HW2 6498   6.118   4.402   4.194
 1867SOL     OW 6499   2.329   3.069   1.169
 1867SOL    HW1 6500   2.384   3.149   1.192
 1867SOL    HW2 6501   2.232   3.094   1.170
 1868SOL     OW 6502   4.862   3.709   5.332
 1868SOL    HW1 6503   4.787   3.668   5.280
 1868SOL    HW2 6504   4.877   3.803   5.302
 1869SOL     OW 6505   5.479   2.838   4.035
 1869SOL    HW1 6506   5.472   2.937   4.048
 1869SOL    HW2 6507   5.560   2.817   3.981
 1870SOL     OW 6508   0.670   3.180   4.651
 1870SOL    HW1 6509   0.718   3.240   4.715
 1870SOL    HW2 6510   0.651   3.230   4.567
 1871SOL     OW 6511   6.620   6.387   0.079
 1871SOL    HW1 6512   6.612   6.480   0.116
 1871SOL    HW2 6513   6.580   6.385   7.015
 1872SOL     OW 6514   3.461   2.553   0.729
 1872SOL    HW1 6515   3.552   2.554   0.687
 1872SOL    HW2 6516   3.441   2.462   0.763
 1873SOL     OW 6517   6.209   0.989   6.698
 1873SOL    HW1 6518   6.189   1.087   6.688
 1873SOL    HW2 6519   6.177   0.940   6.617
 1874SOL     OW 6520   1.101   0.680   6.864
 1874SOL    HW1 6521   1.050   0.674   6.949
 1874SOL    HW2 6522   1.158   0.762   6.864
 1875SOL     OW 6523   6.634   6.078   0.616
 1875SOL    HW1 6524   6.545   6.064   0.659
 1875SOL    HW2 6525   6.648   6.176   0.599
 1876SOL     OW 6526   5.308   6.613   6.002
 1876SOL    HW1 6527   5.395   6.661   6.007
 1876SOL    HW2 6528   5.267   6.626   5.912
 1877SOL     OW 6529   6.992   1.451   2.727
 1877SOL    HW1 6530   7.014   1.470   2.631
 1877SOL    HW2 6531   6.894   1.434   2.736
 1878SOL     OW 6532   0.061   4.350   3.576
 1878SOL    HW1 6533   0.049   4.431   3.634
 1878SOL    HW2 6534   6.999   4.317   3.547
 1879SOL     OW 6535   2.830   4.891   4.041
 1879SOL    HW1 6536   2.778   4.946   4.107
 1879SOL    HW2 6537   2.795   4.797   4.041
 1880SOL     OW 6538   0.663   2.465   3.022
 1880SOL    HW1 6539   0.608   2.531   2.972
 1880SOL    HW2 6540   0.645   2.373   2.986
 1881SOL     OW 6541   0.858   2.236   3.655
 1881SOL    HW1 6542   0.834   2.323   3.611
 1881SOL    HW2 6543   0.779   2.175   3.654
 1882SOL     OW 6544   1.147   6.098   6.603
 1882SOL    HW1 6545   1.116   6.003   6.592
 1882SOL    HW2 6546   1.242   6.105   6.574
 1883SOL     OW 6547   1.399   3.683   3.158
 1883SOL    HW1 6548   1.446   3.618   3.218
 1883SOL    HW2 6549   1.381   3.640   3.070
 1884SOL     OW 6550   5.109   0.614   1.528
 1884SOL    HW1 6551   5.140   0.627   1.622
 1884SOL    HW2 6552   5.089   0.702   1.486
 1885SOL     OW 6553   6.805   1.902   0.622
 1885SOL    HW1 6554   6.744   1.903   0.702
 1885SOL    HW2 6555   6.828   1.808   0.599
 1886SOL     OW 6556   2.047   1.991   7.024
 1886SOL    HW1 6557   2.131   1.947   0.027
 1886SOL    HW2 6558   2.003   1.935   6.954
 1887SOL     OW 6559   0.151   4.270   6.059
 1887SOL    HW1 6560   0.139   4.364   6.027
 1887SOL    HW2 6561   0.205   4.270   6.143
 1888SOL     OW 6562   2.025   1.093   6.133
 1888SOL    HW1 6563   1.967   1.120   6.210
 1888SOL    HW2 6564   2.038   1.171   6.072
 1889SOL     OW 6565   4.513   4.027   6.803
 1889SOL    HW1 6566   4.597   4.068   6.838
 1889SOL    HW2 6567   4.510   3.931   6.829
 1890SOL     OW 6568   1.480   5.767   6.556
 1890SOL    HW1 6569   1.401   5.707   6.547
 1890SOL    HW2 6570   1.564   5.714   6.542
 1891SOL     OW 6571   5.191   2.552   5.386
 1891SOL    HW1 6572   5.132   2.519   5.459
 1891SOL    HW2 6573   5.142   2.548   5.298
 1892SOL     OW 6574   3.807   6.106   1.231
 1892SOL    HW1 6575   3.876   6.170   1.265
 1892SOL    HW2 6576   3.835   6.070   1.142
 1893SOL     OW 6577   3.483   2.123   4.626
 1893SOL    HW1 6578   3.434   2.192   4.681
 1893SOL    HW2 6579   3.576   2.114   4.660
 1894SOL     OW 6580   4.332   3.575   1.570
 1894SOL    HW1 6581   4.246   3.526   1.556
 1894SOL    HW2 6582   4.313   3.673   1.578
 1895SOL     OW 6583   6.381   0.554   2.595
 1895SOL    HW1 6584   6.401   0.638   2.544
 1895SOL    HW2 6585   6.282   0.537   2.591
 1896SOL     OW 6586   6.648   1.002   3.477
 1896SOL    HW1 6587   6.691   0.985   3.389
 1896SOL    HW2 6588   6.549   0.988   3.470
 1897SOL     OW 6589   6.711   5.195   3.577
 1897SOL    HW1 6590   6.719   5.288   3.542
 1897SOL    HW2 6591   6.741   5.192   3.672
 1898SOL     OW 6592   3.584   6.499   1.517
 1898SOL    HW1 6593   3.584   6.401   1.495
 1898SOL    HW2 6594   3.649   6.518   1.589
 1899SOL     OW 6595   1.033   3.669   2.618
 1899SOL    HW1 6596   0.968   3.743   2.600
 1899SOL    HW2 6597   1.051   3.663   2.716
 1900SOL     OW 6598   1.009   6.943   6.206
 1900SOL    HW1 6599   1.109   6.943   6.204
 1900SOL    HW2 6600   0.976   0.010   6.207
 1901SOL     OW 6601   2.254   1.471   0.610
 1901SOL    HW1 6602   2.219   1.562   0.631
 1901SOL    HW2 6603   2.204   1.433   0.532
 1902SOL     OW 6604   1.728   2.751   4.495
 1902SOL    HW1 6605   1.781   2.769   4.412
 1902SOL    HW2 6606   1.782   2.696   4.558
 1903SOL     OW 6607   0.302   3.700   3.119
 1903SOL    HW1 6608   0.296   3.725   3.022
 1903SOL    HW2 6609   0.210   3.696   3.158
 1904SOL     OW 6610   6.737   0.009   4.585
 1904SOL    HW1 6611   6.723   6.984   4.501
 1904SOL    HW2 6612   6.835   0.013   4.605
 1905SOL     OW 6613   0.085   2.786   3.717
 1905SOL    HW1 6614   0.129   2.845   3.786
 1905SOL    HW2 6615   0.151   2.764   3.646
 1906SOL     OW 6616   2.694   0.236   5.506
 1906SOL    HW1 6617   2.794   0.235   5.507
 1906SOL    HW2 6618   2.661   0.163   5.445
 1907SOL     OW 6619   3.121   0.133   3.532
 1907SOL    HW1 6620   3.181   0.158   3.456
 1907SOL    HW2 6621   3.176   0.092   3.605
 1908SOL     OW 6622   4.437   1.196   5.571
 1908SOL    HW1 6623   4.359   1.149   5.528
 1908SOL    HW2 6624   4.463   1.274   5.514
 1909SOL     OW 6625   2.195   4.033   4.340
 1909SOL    HW1 6626   2.107   4.076   4.357
 1909SOL    HW2 6627   2.218   3.971   4.415
 1910SOL     OW 6628   5.698   3.130   6.430
 1910SOL    HW1 6629   5.697   3.070   6.510
 1910SOL    HW2 6630   5.752   3.212   6.450
 1911SOL     OW 6631   6.659   2.052   5.485
 1911SOL    HW1 6632   6.701   1.962   5.476
 1911SOL    HW2 6633   6.596   2.067   5.408
 1912SOL     OW 6634   3.706   6.062   2.699
 1912SOL    HW1 6635   3.773   6.080   2.626
 1912SOL    HW2 6636   3.614   6.082   2.665
 1913SOL     OW 6637   1.762   6.602   5.176
 1913SOL    HW1 6638   1.743   6.635   5.083
 1913SOL    HW2 6639   1.855   6.627   5.201
 1914SOL     OW 6640   2.524   2.122   6.413
 1914SOL    HW1 6641   2.497   2.026   6.403
 1914SOL    HW2 6642   2.524   2.147   6.509
 1915SOL     OW 6643   3.880   1.448   5.875
 1915SOL    HW1 6644   3.977   1.472   5.875
 1915SOL    HW2 6645   3.831   1.506   5.940
 1916SOL     OW 6646   3.802   5.850   1.031
 1916SOL    HW1 6647   3.870   5.904   1.080
 1916SOL    HW2 6648   3.844   5.808   0.951
 1917SOL     OW 6649   3.519   3.276   4.906
 1917SOL    HW1 6650   3.425   3.308   4.917
 1917SOL    HW2 6651   3.521   3.200   4.841
 1918SOL     OW 6652   6.028   6.692   5.919
 1918SOL    HW1 6653   6.081   6.749   5.856
 1918SOL    HW2 6654   6.089   6.626   5.964
 1919SOL     OW 6655   1.281   6.943   1.634
 1919SOL    HW1 6656   1.204   6.971   1.577
 1919SOL    HW2 6657   1.250   6.932   1.728
 1920SOL     OW 6658   0.482   4.537   3.463
 1920SOL    HW1 6659   0.556   4.599   3.438
 1920SOL    HW2 6660   0.469   4.468   3.391
 1921SOL     OW 6661   0.430   5.075   0.094
 1921SOL    HW1 6662   0.415   5.150   0.030
 1921SOL    HW2 6663   0.494   5.010   0.054
 1922SOL     OW 6664   4.301   3.193   1.014
 1922SOL    HW1 6665   4.270   3.120   1.075
 1922SOL    HW2 6666   4.324   3.274   1.067
 1923SOL     OW 6667   2.880   1.413   0.090
 1923SOL    HW1 6668   2.919   1.426   0.181
 1923SOL    HW2 6669   2.886   1.498   0.039
 1924SOL     OW 6670   5.699   5.013   2.079
 1924SOL    HW1 6671   5.650   4.944   2.026
 1924SOL    HW2 6672   5.636   5.055   2.145
 1925SOL     OW 6673   2.959   3.713   1.771
 1925SOL    HW1 6674   2.991   3.757   1.687
 1925SOL    HW2 6675   3.036   3.675   1.821
 1926SOL     OW 6676   1.229   0.011   4.172
 1926SOL    HW1 6677   1.232   0.097   4.223
 1926SOL    HW2 6678   1.136   7.004   4.170
 1927SOL     OW 6679   3.875   5.043   6.109
 1927SOL    HW1 6680   3.803   5.036   6.179
 1927SOL    HW2 6681   3.964   5.030   6.151
 1928SOL     OW 6682   0.090   3.699   6.294
 1928SOL    HW1 6683   0.185   3.684   6.323
 1928SOL    HW2 6684   0.089   3.731   6.199
 1929SOL     OW 6685   0.735   5.522   1.525
 1929SOL    HW1 6686   0.783   5.438   1.552
 1929SOL    HW2 6687   0.789   5.572   1.458
 1930SOL     OW 6688   5.366   4.361   6.963
 1930SOL    HW1 6689   5.307   4.324   0.008
 1930SOL    HW2 6690   5.334   4.329   6.874
 1931SOL     OW 6691   0.210   3.413   3.137
 1931SOL    HW1 6692   0.243   3.501   3.169
 1931SOL    HW2 6693   0.115   3.421   3.107
 1932SOL     OW 6694   5.449   3.489   2.947
 1932SOL    HW1 6695   5.442   3.460   2.851
 1932SOL    HW2 6696   5.458   3.588   2.951
 1933SOL     OW 6697   2.281   4.768   1.315
 1933SOL    HW1 6698   2.237   4.858   1.318
 1933SOL    HW2 6699   2.332   4.753   1.399
 1934SOL     OW 6700   0.373   0.181   5.760
 1934SOL    HW1 6701   0.337   0.195   5.668
 1934SOL    HW2 6702   0.428   0.261   5.787
 1935SOL     OW 6703   3.106   0.475   5.078
 1935SOL    HW1 6704   3.147   0.544   5.017
 1935SOL    HW2 6705   3.165   0.394   5.081
 1936SOL     OW 6706   5.587   4.651   4.059
 1936SOL    HW1 6707   5.630   4.565   4.087
 1936SOL    HW2 6708   5.547   4.640   3.968
 1937SOL     OW 6709   3.900   6.660   2.021
 1937SOL    HW1 6710   3.867   6.747   1.985
 1937SOL    HW2 6711   3.868   6.648   2.115
 1938SOL     OW 6712   4.748   1.768   2.911
 1938SOL    HW1 6713   4.735   1.804   3.003
 1938SOL    HW2 6714   4.836   1.801   2.875
 1939SOL     OW 6715   0.777   6.862   4.171
 1939SOL    HW1 6716   0.814   6.792   4.232
 1939SOL    HW2 6717   0.719   6.924   4.223
 1940SOL     OW 6718   4.900   5.244   5.842
 1940SOL    HW1 6719   4.949   5.172   5.891
 1940SOL    HW2 6720   4.808   5.212   5.820
 1941SOL     OW 6721   0.066   3.703   3.251
 1941SOL    HW1 6722   0.069   3.662   3.343
 1941SOL    HW2 6723   7.016   3.766   3.246
 1942SOL     OW 6724   6.657   0.139   2.699
 1942SOL    HW1 6725   6.692   0.141   2.606
 1942SOL    HW2 6726   6.666   0.046   2.736
 1943SOL     OW 6727   3.034   6.175   2.516
 1943SOL    HW1 6728   3.110   6.232   2.487
 1943SOL    HW2 6729   3.019   6.102   2.448
 1944SOL     OW 6730   4.970   2.307   6.257
 1944SOL    HW1 6731   4.902   2.298   6.184
 1944SOL    HW2 6732   4.935   2.371   6.326
 1945SOL     OW 6733   3.819   5.650   2.700
 1945SOL    HW1 6734   3.838   5.617   2.608
 1945SOL    HW2 6735   3.827   5.574   2.765
 1946SOL     OW 6736   7.026   0.673   0.080
 1946SOL    HW1 6737   7.013   0.685   0.179
 1946SOL    HW2 6738   0.062   0.597   0.064
 1947SOL     OW 6739   5.285   6.408   3.330
 1947SOL    HW1 6740   5.318   6.464   3.405
 1947SOL    HW2 6741   5.199   6.365   3.355
 1948SOL     OW 6742   6.515   5.529   3.723
 1948SOL    HW1 6743   6.572   5.566   3.650
 1948SOL    HW2 6744   6.486   5.603   3.784
 1949SOL     OW 6745   4.559   4.575   5.837
 1949SOL    HW1 6746   4.635   4.538   5.783
 1949SOL    HW2 6747   4.495   4.501   5.858
 1950SOL     OW 6748   3.999   3.862   1.142
 1950SOL    HW1 6749   3.947   3.947   1.139
 1950SOL    HW2 6750   4.025   3.834   1.049
 1951SOL     OW 6751   6.865   3.532   0.636
 1951SOL    HW1 6752   6.941   3.474   0.667
 1951SOL    HW2 6753   6.900   3.599   0.571
 1952SOL     OW 6754   3.722   2.184   6.643
 1952SOL    HW1 6755   3.623   2.196   6.642
 1952SOL    HW2 6756   3.766   2.267   6.608
 1953SOL     OW 6757   6.191   2.520   6.738
 1953SOL    HW1 6758   6.148   2.584   6.802
 1953SOL    HW2 6759   6.271   2.479   6.781
 1954SOL     OW 6760   5.798   1.219   3.955
 1954SOL    HW1 6761   5.749   1.153   4.012
 1954SOL    HW2 6762   5.750   1.231   3.869
 1955SOL     OW 6763   1.509   6.967   2.147
 1955SOL    HW1 6764   1.580   6.916   2.196
 1955SOL    HW2 6765   1.428   6.910   2.136
 1956SOL     OW 6766   6.088   6.810   2.495
 1956SOL    HW1 6767   6.077   6.883   2.562
 1956SOL    HW2 6768   6.007   6.751   2.498
 1957SOL     OW 6769   6.427   5.007   4.720
 1957SOL    HW1 6770   6.466   4.988   4.630
 1957SOL    HW2 6771   6.490   5.065   4.772
 1958SOL     OW 6772   6.206   2.944   4.223
 1958SOL    HW1 6773   6.116   2.946   4.265
 1958SOL    HW2 6774   6.275   2.919   4.292
 1959SOL     OW 6775   0.167   2.095   6.290
 1959SOL    HW1 6776   0.111   2.110   6.372
 1959SOL    HW2 6777   0.200   2.001   6.290
 1960SOL     OW 6778   6.181   4.883   0.790
 1960SOL    HW1 6779   6.195   4.961   0.728
 1960SOL    HW2 6780   6.245   4.810   0.766
 1961SOL     OW 6781   5.737   4.669   4.647
 1961SOL    HW1 6782   5.736   4.580   4.600
 1961SOL    HW2 6783   5.769   4.740   4.584
 1962SOL     OW 6784   2.659   6.173   2.980
 1962SOL    HW1 6785   2.665   6.257   2.927
 1962SOL    HW2 6786   2.719   6.180   3.060
 1963SOL     OW 6787   0.737   0.956   1.184
 1963SOL    HW1 6788   0.796   1.013   1.242
 1963SOL    HW2 6789   0.731   0.864   1.222
 1964SOL     OW 6790   4.633   2.562   1.856
 1964SOL    HW1 6791   4.676   2.491   1.911
 1964SOL    HW2 6792   4.600   2.522   1.770
 1965SOL     OW 6793   1.286   3.346   3.171
 1965SOL    HW1 6794   1.244   3.426   3.127
 1965SOL    HW2 6795   1.221   3.269   3.168
 1966SOL     OW 6796   6.891   5.382   4.938
 1966SOL    HW1 6797   6.862   5.428   5.022
 1966SOL    HW2 6798   6.814   5.379   4.873
 1967SOL     OW 6799   4.917   2.206   5.383
 1967SOL    HW1 6800   4.914   2.197   5.283
 1967SOL    HW2 6801   4.824   2.213   5.418
 1968SOL     OW 6802   2.815   5.937   0.748
 1968SOL    HW1 6803   2.885   5.880   0.792
 1968SOL    HW2 6804   2.780   5.889   0.668
 1969SOL     OW 6805   0.302   1.321   1.199
 1969SOL    HW1 6806   0.291   1.343   1.102
 1969SOL    HW2 6807   0.295   1.221   1.211
 1970SOL     OW 6808   2.600   0.375   6.659
 1970SOL    HW1 6809   2.683   0.341   6.616
 1970SOL    HW2 6810   2.597   0.345   6.754
 1971SOL     OW 6811   5.897   6.905   6.082
 1971SOL    HW1 6812   5.927   6.813   6.059
 1971SOL    HW2 6813   5.932   6.931   6.172
 1972SOL     OW 6814   6.833   2.935   2.901
 1972SOL    HW1 6815   6.824   2.892   2.811
 1972SOL    HW2 6816   6.861   2.865   2.968
 1973SOL     OW 6817   3.055   3.471   1.245
 1973SOL    HW1 6818   3.038   3.569   1.245
 1973SOL    HW2 6819   3.126   3.449   1.312
 1974SOL     OW 6820   6.316   5.824   4.063
 1974SOL    HW1 6821   6.286   5.750   4.123
 1974SOL    HW2 6822   6.255   5.902   4.074
 1975SOL     OW 6823   2.240   1.437   3.275
 1975SOL    HW1 6824   2.231   1.339   3.292
 1975SOL    HW2 6825   2.157   1.484   3.304
 1976SOL     OW 6826   0.525   5.650   6.590
 1976SOL    HW1 6827   0.557   5.605   6.507
 1976SOL    HW2 6828   0.570   5.610   6.670
 1977SOL     OW 6829   1.841   2.694   3.474
 1977SOL    HW1 6830   1.884   2.693   3.384
 1977SOL    HW2 6831   1.872   2.614   3.527
 1978SOL     OW 6832   0.794   0.617   4.013
 1978SOL    HW1 6833   0.699   0.588   4.027
 1978SOL    HW2 6834   0.807   0.646   3.919
 1979SOL     OW 6835   6.890   4.095   4.895
 1979SOL    HW1 6836   6.881   4.162   4.822
 1979SOL    HW2 6837   6.943   4.134   4.970
 1980SOL     OW 6838   2.972   1.017   6.270
 1980SOL    HW1 6839   2.995   1.104   6.312
 1980SOL    HW2 6840   2.893   1.029   6.210
 1981SOL     OW 6841   6.198   1.817   2.527
 1981SOL    HW1 6842   6.224   1.904   2.567
 1981SOL    HW2 6843   6.280   1.770   2.493
 1982SOL     OW 6844   0.098   4.209   5.678
 1982SOL    HW1 6845   0.167   4.168   5.738
 1982SOL    HW2 6846   0.034   4.139   5.647
 1983SOL     OW 6847   0.999   2.214   2.601
 1983SOL    HW1 6848   1.032   2.216   2.696
 1983SOL    HW2 6849   0.942   2.294   2.584
 1984SOL     OW 6850   5.591   0.630   4.652
 1984SOL    HW1 6851   5.664   0.589   4.597
 1984SOL    HW2 6852   5.546   0.702   4.599
 1985SOL     OW 6853   0.672   0.663   2.484
 1985SOL    HW1 6854   0.587   0.708   2.458
 1985SOL    HW2 6855   0.652   0.583   2.541
 1986SOL     OW 6856   1.375   0.319   0.678
 1986SOL    HW1 6857   1.446   0.254   0.650
 1986SOL    HW2 6858   1.406   0.371   0.757
 1987SOL     OW 6859   1.479   3.196   1.877
 1987SOL    HW1 6860   1.462   3.203   1.779
 1987SOL    HW2 6861   1.559   3.138   1.893
 1988SOL     OW 6862   4.536   4.485   1.002
 1988SOL    HW1 6863   4.548   4.572   0.955
 1988SOL    HW2 6864   4.546   4.500   1.101
 1989SOL     OW 6865   2.549   6.603   5.215
 1989SOL    HW1 6866   2.476   6.664   5.244
 1989SOL    HW2 6867   2.510   6.523   5.170
 1990SOL     OW 6868   3.556   6.783   1.063
 1990SOL    HW1 6869   3.640   6.829   1.092
 1990SOL    HW2 6870   3.579   6.699   1.015
 1991SOL     OW 6871   4.206   4.702   6.122
 1991SOL    HW1 6872   4.144   4.685   6.199
 1991SOL    HW2 6873   4.178   4.648   6.043
 1992SOL     OW 6874   1.340   0.096   6.669
 1992SOL    HW1 6875   1.330   7.026   6.692
 1992SOL    HW2 6876   1.356   0.148   6.753
 1993SOL     OW 6877   4.186   3.593   5.060
 1993SOL    HW1 6878   4.131   3.597   5.143
 1993SOL    HW2 6879   4.143   3.647   4.988
 1994SOL     OW 6880   1.586   1.845   1.147
 1994SOL    HW1 6881   1.671   1.792   1.146
 1994SOL    HW2 6882   1.602   1.936   1.110
 1995SOL     OW 6883   6.124   2.301   1.338
 1995SOL    HW1 6884   6.097   2.379   1.282
 1995SOL    HW2 6885   6.224   2.296   1.343
 1996SOL     OW 6886   3.179   3.695   0.788
 1996SOL    HW1 6887   3.133   3.685   0.700
 1996SOL    HW2 6888   3.270   3.733   0.774
 1997SOL     OW 6889   5.192   0.376   5.379
 1997SOL    HW1 6890   5.098   0.400   5.355
 1997SOL    HW2 6891   5.223   0.433   5.456
 1998SOL     OW 6892   2.959   3.406   6.124
 1998SOL    HW1 6893   2.972   3.503   6.101
 1998SOL    HW2 6894   2.931   3.356   6.042
 1999SOL     OW 6895   2.912   6.819   1.997
 1999SOL    HW1 6896   2.999   6.823   1.947
 1999SOL    HW2 6897   2.845   6.877   1.952
 2000SOL     OW 6898   3.769   1.824   5.568
 2000SOL    HW1 6899   3.674   1.831   5.597
 2000SOL    HW2 6900   3.790   1.898   5.503
 2001SOL     OW 6901   3.488   2.068   1.879
 2001SOL    HW1 6902   3.567   2.084   1.939
 2001SOL    HW2 6903   3.504   2.109   1.790
 2002SOL     OW 6904   1.202   5.622   5.997
 2002SOL    HW1 6905   1.118   5.672   6.020
 2002SOL    HW2 6906   1.192   5.578   5.909
 2003SOL     OW 6907   5.886   0.064   3.564
 2003SOL    HW1 6908   5.887   0.157   3.527
 2003SOL    HW2 6909   5.902   7.026   3.490
 2004SOL     OW 6910   5.289   1.336   5.279
 2004SOL    HW1 6911   5.310   1.415   5.338
 2004SOL    HW2 6912   5.339   1.345   5.193
 2005SOL     OW 6913   1.063   5.465   6.754
 2005SOL    HW1 6914   0.981   5.440   6.702
 2005SOL    HW2 6915   1.035   5.511   6.839
 2006SOL     OW 6916   4.972   4.331   4.011
 2006SOL    HW1 6917   4.911   4.272   4.065
 2006SOL    HW2 6918   4.931   4.422   4.003
 2007SOL     OW 6919   4.300   5.350   0.839
 2007SOL    HW1 6920   4.313   5.412   0.762
 2007SOL    HW2 6921   4.308   5.401   0.925
 2008SOL     OW 6922   1.206   5.817   3.262
 2008SOL    HW1 6923   1.231   5.725   3.292
 2008SOL    HW2 6924   1.246   5.833   3.171
 2009SOL     OW 6925   6.815   6.871   1.388
 2009SOL    HW1 6926   6.763   6.874   1.474
 2009SOL    HW2 6927   6.752   6.871   1.311
 2010SOL     OW 6928   1.494   0.925   0.938
 2010SOL    HW1 6929   1.525   1.013   0.901
 2010SOL    HW2 6930   1.418   0.941   1.001
 2011SOL     OW 6931   0.220   2.120   5.256
 2011SOL    HW1 6932   0.261   2.118   5.164
 2011SOL    HW2 6933   0.196   2.027   5.283
 2012SOL     OW 6934   0.823   3.184   1.764
 2012SOL    HW1 6935   0.767   3.225   1.836
 2012SOL    HW2 6936   0.900   3.244   1.743
 2013SOL     OW 6937   5.684   0.414   3.054
 2013SOL    HW1 6938   5.676   0.501   3.005
 2013SOL    HW2 6939   5.773   0.409   3.099
 2014SOL     OW 6940   1.781   5.566   2.617
 2014SOL    HW1 6941   1.822   5.570   2.709
 2014SOL    HW2 6942   1.709   5.496   2.616
 2015SOL     OW 6943   2.276   1.054   6.634
 2015SOL    HW1 6944   2.338   1.025   6.707
 2015SOL    HW2 6945   2.289   1.151   6.616
 2016SOL     OW 6946   1.219   5.547   5.380
 2016SOL    HW1 6947   1.197   5.526   5.285
 2016SOL    HW2 6948   1.243   5.462   5.428
 2017SOL     OW 6949   2.841   6.542   4.529
 2017SOL    HW1 6950   2.749   6.580   4.532
 2017SOL    HW2 6951   2.840   6.458   4.475
 2018SOL     OW 6952   5.717   6.647   5.952
 2018SOL    HW1 6953   5.801   6.593   5.955
 2018SOL    HW2 6954   5.716   6.703   5.870
 2019SOL     OW 6955   4.490   2.010   2.607
 2019SOL    HW1 6956   4.477   1.914   2.633
 2019SOL    HW2 6957   4.480   2.068   2.688
 2020SOL     OW 6958   1.443   5.498   5.673
 2020SOL    HW1 6959   1.359   5.464   5.630
 2020SOL    HW2 6960   1.449   5.464   5.766
 2021SOL     OW 6961   2.114   5.880   3.899
 2021SOL    HW1 6962   2.050   5.936   3.847
 2021SOL    HW2 6963   2.193   5.856   3.842
 2022SOL     OW 6964   2.098   3.623   2.332
 2022SOL    HW1 6965   2.101   3.525   2.309
 2022SOL    HW2 6966   2.062   3.674   2.254
 2023SOL     OW 6967   6.811   1.368   6.706
 2023SOL    HW1 6968   6.718   1.345   6.680
 2023SOL    HW2 6969   6.872   1.352   6.629
 2024SOL     OW 6970   0.051   0.735   2.729
 2024SOL    HW1 6971   0.033   0.826   2.693
 2024SOL    HW2 6972   6.999   0.676   2.711
 2025SOL     OW 6973   2.051   3.129   2.051
 2025SOL    HW1 6974   1.981   3.172   1.994
 2025SOL    HW2 6975   2.009   3.056   2.106
 2026SOL     OW 6976   1.442   2.459   6.462
 2026SOL    HW1 6977   1.520   2.438   6.403
 2026SOL    HW2 6978   1.384   2.378   6.473
 2027SOL     OW 6979   0.783   1.208   1.444
 2027SOL    HW1 6980   0.741   1.266   1.374
 2027SOL    HW2 6981   0.849   1.147   1.401
 2028SOL     OW 6982   3.061   1.236   6.424
 2028SOL    HW1 6983   3.038   1.324   6.382
 2028SOL    HW2 6984   3.015   1.228   6.512
 2029SOL     OW 6985   6.820   0.190   0.461
 2029SOL    HW1 6986   6.843   0.208   0.557
 2029SOL    HW2 6987   6.862   0.260   0.403
 2030SOL     OW 6988   2.700   0.689   3.742
 2030SOL    HW1 6989   2.723   0.592   3.751
 2030SOL    HW2 6990   2.675   0.709   3.648
 2031SOL     OW 6991   5.061   6.303   2.582
 2031SOL    HW1 6992   5.073   6.203   2.584
 2031SOL    HW2 6993   5.102   6.340   2.499
 2032SOL     OW 6994   3.560   6.702   1.894
 2032SOL    HW1 6995   3.497   6.732   1.823
 2032SOL    HW2 6996   3.558   6.767   1.970
 2033SOL     OW 6997   3.681   4.571   6.747
 2033SOL    HW1 6998   3.592   4.527   6.762
 2033SOL    HW2 6999   3.670   4.645   6.680
 2034SOL     OW 7000   3.485   6.735   4.762
 2034SOL    HW1 7001   3.553   6.712   4.693
 2034SOL    HW2 7002   3.411   6.788   4.719
 2035SOL     OW 7003   0.400   0.735   2.150
 2035SOL    HW1 7004   0.428   0.654   2.202
 2035SOL    HW2 7005   0.428   0.724   2.055
 2036SOL     OW 7006   0.558   5.677   2.989
 2036SOL    HW1 7007   0.613   5.624   2.925
 2036SOL    HW2 7008   0.562   5.774   2.964
 2037SOL     OW 7009   0.355   2.266   6.229
 2037SOL    HW1 7010   0.352   2.314   6.141
 2037SOL    HW2 7011   0.266   2.226   6.248
 2038SOL     OW 7012   1.511   1.926   6.538
 2038SOL    HW1 7013   1.435   1.889   6.484
 2038SOL    HW2 7014   1.477   2.001   6.595
 2039SOL     OW 7015   0.282   4.914   2.186
 2039SOL    HW1 7016   0.344   4.984   2.222
 2039SOL    HW2 7017   0.234   4.950   2.106
 2040SOL     OW 7018   3.090   3.199   5.214
 2040SOL    HW1 7019   3.015   3.231   5.155
 2040SOL    HW2 7020   3.141   3.127   5.166
 2041SOL     OW 7021   6.917   5.837   5.667
 2041SOL    HW1 7022   6.833   5.838   5.613
 2041SOL    HW2 7023   6.894   5.835   5.764
 2042SOL     OW 7024   5.377   5.398   6.660
 2042SOL    HW1 7025   5.313   5.470   6.689
 2042SOL    HW2 7026   5.468   5.418   6.697
 2043SOL     OW 7027   6.423   4.394   2.620
 2043SOL    HW1 7028   6.459   4.316   2.569
 2043SOL    HW2 7029   6.353   4.440   2.566
 2044SOL     OW 7030   4.607   0.268   2.051
 2044SOL    HW1 7031   4.508   0.266   2.038
 2044SOL    HW2 7032   4.629   0.224   2.138
 2045SOL     OW 7033   2.057   4.711   4.929
 2045SOL    HW1 7034   1.987   4.780   4.944
 2045SOL    HW2 7035   2.019   4.635   4.876
 2046SOL     OW 7036   0.119   1.259   4.424
 2046SOL    HW1 7037   0.113   1.303   4.513
 2046SOL    HW2 7038   0.160   1.322   4.358
 2047SOL     OW 7039   4.617   2.055   0.465
 2047SOL    HW1 7040   4.613   2.126   0.536
 2047SOL    HW2 7041   4.524   2.027   0.441
 2048SOL     OW 7042   1.869   5.545   0.561
 2048SOL    HW1 7043   1.903   5.533   0.654
 2048SOL    HW2 7044   1.923   5.489   0.498
 2049SOL     OW 7045   4.438   1.269   6.465
 2049SOL    HW1 7046   4.358   1.315   6.503
 2049SOL    HW2 7047   4.520   1.323   6.484
 2050SOL     OW 7048   6.556   1.978   2.986
 2050SOL    HW1 7049   6.487   1.924   2.939
 2050SOL    HW2 7050   6.645   1.934   2.976
 2051SOL     OW 7051   0.419   5.668   0.690
 2051SOL    HW1 7052   0.344   5.663   0.756
 2051SOL    HW2 7053   0.502   5.697   0.737
 2052SOL     OW 7054   0.168   4.440   0.654
 2052SOL    HW1 7055   0.207   4.377   0.722
 2052SOL    HW2 7056   0.076   4.467   0.683
 2053SOL     OW 7057   6.408   0.750   5.798
 2053SOL    HW1 7058   6.480   0.721   5.735
 2053SOL    HW2 7059   6.319   0.742   5.754
 2054SOL     OW 7060   4.485   2.621   1.413
 2054SOL    HW1 7061   4.573   2.574   1.425
 2054SOL    HW2 7062   4.477   2.693   1.482
 2055SOL     OW 7063   6.384   3.349   2.801
 2055SOL    HW1 7064   6.330   3.383   2.725
 2055SOL    HW2 7065   6.454   3.416   2.824
 2056SOL     OW 7066   2.459   0.742   3.104
 2056SOL    HW1 7067   2.387   0.791   3.153
 2056SOL    HW2 7068   2.463   0.647   3.136
 2057SOL     OW 7069   5.635   3.006   3.302
 2057SOL    HW1 7070   5.551   2.957   3.277
 2057SOL    HW2 7071   5.612   3.086   3.357
 2058SOL     OW 7072   1.357   1.547   3.161
 2058SOL    HW1 7073   1.348   1.501   3.250
 2058SOL    HW2 7074   1.448   1.531   3.124
 2059SOL     OW 7075   2.639   6.306   6.703
 2059SOL    HW1 7076   2.627   6.363   6.621
 2059SOL    HW2 7077   2.549   6.276   6.736
 2060SOL     OW 7078   6.114   4.197   0.354
 2060SOL    HW1 7079   6.199   4.247   0.371
 2060SOL    HW2 7080   6.036   4.254   0.380
 2061SOL     OW 7081   0.908   1.548   2.923
 2061SOL    HW1 7082   0.967   1.570   3.000
 2061SOL    HW2 7083   0.948   1.473   2.870
 2062SOL     OW 7084   6.107   0.504   3.412
 2062SOL    HW1 7085   6.158   0.534   3.331
 2062SOL    HW2 7086   6.149   0.542   3.494
 2063SOL     OW 7087   2.039   0.334   5.987
 2063SOL    HW1 7088   2.043   0.405   5.917
 2063SOL    HW2 7089   2.116   0.344   6.050
 2064SOL     OW 7090   1.199   2.092   6.166
 2064SOL    HW1 7091   1.265   2.156   6.207
 2064SOL    HW2 7092   1.239   2.051   6.084
 2065SOL     OW 7093   6.992   3.521   3.071
 2065SOL    HW1 7094   0.007   3.606   3.101
 2065SOL    HW2 7095   7.002   3.512   2.972
 2066SOL     OW 7096   0.259   5.638   3.418
 2066SOL    HW1 7097   0.291   5.725   3.455
 2066SOL    HW2 7098   0.164   5.647   3.388
 2067SOL     OW 7099   6.838   5.520   0.788
 2067SOL    HW1 7100   6.765   5.495   0.851
 2067SOL    HW2 7101   6.803   5.522   0.695
 2068SOL     OW 7102   1.482   1.838   5.223
 2068SOL    HW1 7103   1.413   1.787   5.273
 2068SOL    HW2 7104   1.439   1.887   5.147
 2069SOL     OW 7105   0.798   3.016   3.158
 2069SOL    HW1 7106   0.872   3.000   3.093
 2069SOL    HW2 7107   0.834   3.011   3.251
 2070SOL     OW 7108   1.214   0.589   2.231
 2070SOL    HW1 7109   1.171   0.675   2.205
 2070SOL    HW2 7110   1.225   0.585   2.330
 2071SOL     OW 7111   6.487   6.156   5.090
 2071SOL    HW1 7112   6.426   6.102   5.032
 2071SOL    HW2 7113   6.461   6.253   5.085
 2072SOL     OW 7114   4.456   6.937   2.309
 2072SOL    HW1 7115   4.504   7.025   2.306
 2072SOL    HW2 7116   4.357   6.953   2.315
 2073SOL     OW 7117   3.850   0.191   4.527
 2073SOL    HW1 7118   3.937   0.240   4.536
 2073SOL    HW2 7119   3.775   0.258   4.528
 2074SOL     OW 7120   1.275   3.236   0.321
 2074SOL    HW1 7121   1.353   3.282   0.364
 2074SOL    HW2 7122   1.230   3.178   0.389
 2075SOL     OW 7123   5.686   2.883   1.303
 2075SOL    HW1 7124   5.628   2.915   1.378
 2075SOL    HW2 7125   5.726   2.962   1.256
 2076SOL     OW 7126   4.743   0.314   6.591
 2076SOL    HW1 7127   4.692   0.316   6.677
 2076SOL    HW2 7128   4.681   0.297   6.515
 2077SOL     OW 7129   5.552   2.141   2.707
 2077SOL    HW1 7130   5.457   2.169   2.693
 2077SOL    HW2 7131   5.569   2.056   2.655
 2078SOL     OW 7132   1.595   6.244   6.479
 2078SOL    HW1 7133   1.672   6.182   6.463
 2078SOL    HW2 7134   1.519   6.218   6.419
 2079SOL     OW 7135   6.017   1.683   3.370
 2079SOL    HW1 7136   6.084   1.757   3.374
 2079SOL    HW2 7137   5.947   1.704   3.302
 2080SOL     OW 7138   1.318   0.463   4.488
 2080SOL    HW1 7139   1.222   0.468   4.461
 2080SOL    HW2 7140   1.356   0.556   4.492
 2081SOL     OW 7141   2.143   5.818   4.462
 2081SOL    HW1 7142   2.049   5.817   4.431
 2081SOL    HW2 7143   2.147   5.789   4.558
 2082SOL     OW 7144   0.059   6.989   3.270
 2082SOL    HW1 7145   0.130   7.022   3.332
 2082SOL    HW2 7146   7.018   0.034   3.258
 2083SOL     OW 7147   5.330   4.883   6.079
 2083SOL    HW1 7148   5.259   4.842   6.022
 2083SOL    HW2 7149   5.295   4.967   6.121
 2084SOL     OW 7150   0.316   4.049   4.101
 2084SOL    HW1 7151   0.300   3.961   4.145
 2084SOL    HW2 7152   0.414   4.065   4.092
 2085SOL     OW 7153   4.627   0.812   6.484
 2085SOL    HW1 7154   4.571   0.729   6.478
 2085SOL    HW2 7155   4.569   0.889   6.510
 2086SOL     OW 7156   3.840   0.066   5.956
 2086SOL    HW1 7157   3.750   0.102   5.932
 2086SOL    HW2 7158   3.848   0.059   6.055
 2087SOL     OW 7159   5.349   6.842   1.102
 2087SOL    HW1 7160   5.333   6.935   1.071
 2087SOL    HW2 7161   5.269   6.808   1.152
 2088SOL     OW 7162   2.648   5.900   1.237
 2088SOL    HW1 7163   2.550   5.884   1.245
 2088SOL    HW2 7164   2.666   5.954   1.155
 2089SOL     OW 7165   5.495   2.425   6.481
 2089SOL    HW1 7166   5.557   2.389   6.411
 2089SOL    HW2 7167   5.400   2.405   6.456
 2090SOL     OW 7168   3.394   3.461   5.508
 2090SOL    HW1 7169   3.307   3.464   5.459
 2090SOL    HW2 7170   3.457   3.527   5.467
 2091SOL     OW 7171   7.024   5.464   0.539
 2091SOL    HW1 7172   6.995   5.369   0.527
 2091SOL    HW2 7173   0.077   5.467   0.597
 2092SOL     OW 7174   4.817   4.452   6.972
 2092SOL    HW1 7175   4.893   4.393   6.947
 2092SOL    HW2 7176   4.851   4.539   7.006
 2093SOL     OW 7177   2.481   2.429   1.462
 2093SOL    HW1 7178   2.509   2.365   1.390
 2093SOL    HW2 7179   2.560   2.484   1.490
 2094SOL     OW 7180   5.983   1.089   1.136
 2094SOL    HW1 7181   5.972   0.992   1.159
 2094SOL    HW2 7182   5.961   1.103   1.040
 2095SOL     OW 7183   5.437   0.455   4.813
 2095SOL    HW1 7184   5.490   0.516   4.755
 2095SOL    HW2 7185   5.475   0.362   4.807
 2096SOL     OW 7186   4.796   4.019   3.031
 2096SOL    HW1 7187   4.813   3.951   3.102
 2096SOL    HW2 7188   4.833   3.986   2.944
 2097SOL     OW 7189   2.097   2.851   6.701
 2097SOL    HW1 7190   2.058   2.819   6.787
 2097SOL    HW2 7191   2.179   2.906   6.720
 2098SOL     OW 7192   4.115   6.002   2.997
 2098SOL    HW1 7193   4.104   5.990   3.096
 2098SOL    HW2 7194   4.064   5.930   2.950
 2099SOL     OW 7195   2.639   3.144   5.337
 2099SOL    HW1 7196   2.583   3.222   5.363
 2099SOL    HW2 7197   2.580   3.071   5.300
 2100SOL     OW 7198   4.712   3.210   5.911
 2100SOL    HW1 7199   4.755   3.130   5.871
 2100SOL    HW2 7200   4.663   3.261   5.840
 2101SOL     OW 7201   1.621   6.223   2.348
 2101SOL    HW1 7202   1.703   6.224   2.291
 2101SOL    HW2 7203   1.573   6.136   2.336
 2102SOL     OW 7204   6.005   5.116   1.929
 2102SOL    HW1 7205   5.995   5.099   1.831
 2102SOL    HW2 7206   5.993   5.030   1.980
 2103SOL     OW 7207   3.556   3.998   5.935
 2103SOL    HW1 7208   3.579   4.086   5.892
 2103SOL    HW2 7209   3.610   3.925   5.893
 2104SOL     OW 7210   1.586   2.851   0.874
 2104SOL    HW1 7211   1.537   2.896   0.799
 2104SOL    HW2 7212   1.684   2.871   0.866
 2105SOL     OW 7213   5.188   5.872   4.947
 2105SOL    HW1 7214   5.167   5.962   4.908
 2105SOL    HW2 7215   5.111   5.841   5.002
 2106SOL     OW 7216   4.692   4.245   0.593
 2106SOL    HW1 7217   4.697   4.291   0.682
 2106SOL    HW2 7218   4.719   4.149   0.604
 2107SOL     OW 7219   5.449   2.530   5.325
 2107SOL    HW1 7220   5.357   2.559   5.349
 2107SOL    HW2 7221   5.463   2.435   5.354
 2108SOL     OW 7222   6.649   5.949   5.168
 2108SOL    HW1 7223   6.571   6.007   5.145
 2108SOL    HW2 7224   6.619   5.874   5.227
 2109SOL     OW 7225   3.897   6.408   2.854
 2109SOL    HW1 7226   3.956   6.486   2.835
 2109SOL    HW2 7227   3.803   6.428   2.826
 2110SOL     OW 7228   2.835   1.845   6.549
 2110SOL    HW1 7229   2.878   1.926   6.510
 2110SOL    HW2 7230   2.818   1.859   6.646
 2111SOL     OW 7231   1.210   2.793   0.270
 2111SOL    HW1 7232   1.228   2.776   0.367
 2111SOL    HW2 7233   1.229   2.710   0.218
 2112SOL     OW 7234   5.211   2.795   0.419
 2112SOL    HW1 7235   5.207   2.858   0.496
 2112SOL    HW2 7236   5.120   2.790   0.376
 2113SOL     OW 7237   0.980   1.620   5.241
 2113SOL    HW1 7238   1.034   1.540   5.267
 2113SOL    HW2 7239   0.929   1.601   5.157
 2114SOL     OW 7240   1.177   2.759   0.864
 2114SOL    HW1 7241   1.118   2.732   0.787
 2114SOL    HW2 7242   1.269   2.725   0.848
 2115SOL     OW 7243   2.091   3.440   2.576
 2115SOL    HW1 7244   2.140   3.512   2.528
 2115SOL    HW2 7245   2.101   3.353   2.527
 2116SOL     OW 7246   6.702   4.719   2.891
 2116SOL    HW1 7247   6.643   4.795   2.865
 2116SOL    HW2 7248   6.651   4.633   2.882
 2117SOL     OW 7249   6.226   4.761   1.901
 2117SOL    HW1 7250   6.196   4.684   1.957
 2117SOL    HW2 7251   6.279   4.824   1.957
 2118SOL     OW 7252   6.061   3.518   1.649
 2118SOL    HW1 7253   6.101   3.437   1.692
 2118SOL    HW2 7254   6.076   3.597   1.708
 2119SOL     OW 7255   2.418   5.899   0.963
 2119SOL    HW1 7256   2.362   5.935   0.888
 2119SOL    HW2 7257   2.362   5.893   1.046
 2120SOL     OW 7258   0.232   5.074   3.900
 2120SOL    HW1 7259   0.257   5.016   3.822
 2120SOL    HW2 7260   0.314   5.122   3.934
 2121SOL     OW 7261   0.992   3.750   5.917
 2121SOL    HW1 7262   0.894   3.737   5.935
 2121SOL    HW2 7263   1.022   3.837   5.958
 2122SOL     OW 7264   5.768   4.373   5.757
 2122SOL    HW1 7265   5.865   4.395   5.767
 2122SOL    HW2 7266   5.739   4.395   5.664
 2123SOL     OW 7267   6.456   5.855   2.039
 2123SOL    HW1 7268   6.462   5.812   2.129
 2123SOL    HW2 7269   6.361   5.880   2.021
 2124SOL     OW 7270   2.966   1.632   1.296
 2124SOL    HW1 7271   2.945   1.557   1.233
 2124SOL    HW2 7272   2.882   1.680   1.319
 2125SOL     OW 7273   1.908   0.734   1.564
 2125SOL    HW1 7274   1.809   0.749   1.565
 2125SOL    HW2 7275   1.937   0.693   1.650
 2126SOL     OW 7276   3.682   1.069   6.680
 2126SOL    HW1 7277   3.757   1.074   6.614
 2126SOL    HW2 7278   3.595   1.070   6.631
 2127SOL     OW 7279   6.718   3.443   4.368
 2127SOL    HW1 7280   6.678   3.375   4.430
 2127SOL    HW2 7281   6.816   3.426   4.359
 2128SOL     OW 7282   6.884   3.348   3.285
 2128SOL    HW1 7283   6.904   3.394   3.198
 2128SOL    HW2 7284   6.829   3.266   3.267
 2129SOL     OW 7285   4.353   3.479   5.457
 2129SOL    HW1 7286   4.391   3.536   5.384
 2129SOL    HW2 7287   4.256   3.498   5.468
 2130SOL     OW 7288   3.578   0.972   1.936
 2130SOL    HW1 7289   3.659   1.001   1.987
 2130SOL    HW2 7290   3.605   0.909   1.863
 2131SOL     OW 7291   6.254   0.298   0.037
 2131SOL    HW1 7292   6.220   0.391   0.048
 2131SOL    HW2 7293   6.272   0.258   0.127
 2132SOL     OW 7294   3.459   1.561   1.699
 2132SOL    HW1 7295   3.409   1.485   1.739
 2132SOL    HW2 7296   3.546   1.529   1.661
 2133SOL     OW 7297   3.226   3.251   0.156
 2133SOL    HW1 7298   3.283   3.196   0.095
 2133SOL    HW2 7299   3.237   3.348   0.135
 2134SOL     OW 7300   0.105   2.346   6.721
 2134SOL    HW1 7301   0.053   2.401   6.655
 2134SOL    HW2 7302   0.193   2.390   6.739
 2135SOL     OW 7303   0.348   3.797   4.233
 2135SOL    HW1 7304   0.350   3.753   4.143
 2135SOL    HW2 7305   0.254   3.802   4.266
 2136SOL     OW 7306   1.301   4.325   2.595
 2136SOL    HW1 7307   1.224   4.273   2.560
 2136SOL    HW2 7308   1.349   4.271   2.664
 2137SOL     OW 7309   2.615   5.801   5.648
 2137SOL    HW1 7310   2.611   5.708   5.612
 2137SOL    HW2 7311   2.596   5.800   5.746
 2138SOL     OW 7312   6.815   6.584   2.772
 2138SOL    HW1 7313   6.724   6.576   2.812
 2138SOL    HW2 7314   6.826   6.674   2.730
 2139SOL     OW 7315   4.684   0.852   3.480
 2139SOL    HW1 7316   4.717   0.899   3.562
 2139SOL    HW2 7317   4.615   0.784   3.505
 2140SOL     OW 7318   3.407   0.023   3.881
 2140SOL    HW1 7319   3.381   7.018   3.972
 2140SOL    HW2 7320   3.506   0.026   3.874
 2141SOL     OW 7321   6.669   3.170   1.662
 2141SOL    HW1 7322   6.745   3.175   1.597
 2141SOL    HW2 7323   6.685   3.236   1.736
 2142SOL     OW 7324   1.770   1.694   3.451
 2142SOL    HW1 7325   1.771   1.595   3.461
 2142SOL    HW2 7326   1.681   1.724   3.419
 2143SOL     OW 7327   3.100   4.513   1.358
 2143SOL    HW1 7328   3.051   4.565   1.287
 2143SOL    HW2 7329   3.103   4.416   1.332
 2144SOL     OW 7330   1.369   5.567   4.412
 2144SOL    HW1 7331   1.441   5.557   4.482
 2144SOL    HW2 7332   1.411   5.581   4.323
 2145SOL     OW 7333   3.861   6.562   4.067
 2145SOL    HW1 7334   3.897   6.561   3.974
 2145SOL    HW2 7335   3.786   6.627   4.073
 2146SOL     OW 7336   2.383   3.287   0.945
 2146SOL    HW1 7337   2.300   3.240   0.974
 2146SOL    HW2 7338   2.434   3.317   1.025
 2147SOL     OW 7339   6.391   1.613   5.644
 2147SOL    HW1 7340   6.345   1.570   5.566
 2147SOL    HW2 7341   6.385   1.712   5.635
 2148SOL     OW 7342   5.836   3.349   5.977
 2148SOL    HW1 7343   5.888   3.278   6.025
 2148SOL    HW2 7344   5.754   3.372   6.029
 2149SOL     OW 7345   3.120   1.807   1.014
 2149SOL    HW1 7346   3.178   1.875   0.969
 2149SOL    HW2 7347   3.176   1.727   1.040
 2150SOL     OW 7348   2.250   2.688   2.151
 2150SOL    HW1 7349   2.290   2.597   2.157
 2150SOL    HW2 7350   2.285   2.735   2.070
 2151SOL     OW 7351   2.036   6.916   6.046
 2151SOL    HW1 7352   2.063   6.948   6.137
 2151SOL    HW2 7353   1.997   6.992   5.994
 2152SOL     OW 7354   3.257   5.279   2.441
 2152SOL    HW1 7355   3.279   5.375   2.422
 2152SOL    HW2 7356   3.335   5.235   2.484
 2153SOL     OW 7357   5.013   1.596   2.985
 2153SOL    HW1 7358   5.080   1.670   2.989
 2153SOL    HW2 7359   5.030   1.532   3.059
 2154SOL     OW 7360   5.260   0.977   4.604
 2154SOL    HW1 7361   5.228   0.953   4.696
 2154SOL    HW2 7362   5.227   1.069   4.581
 2155SOL     OW 7363   3.765   6.589   1.334
 2155SOL    HW1 7364   3.678   6.581   1.385
 2155SOL    HW2 7365   3.832   6.635   1.391
 2156SOL     OW 7366   0.897   2.111   5.216
 2156SOL    HW1 7367   0.849   2.131   5.302
 2156SOL    HW2 7368   0.836   2.130   5.139
 2157SOL     OW 7369   5.738   0.044   3.060
 2157SOL    HW1 7370   5.746   6.994   3.123
 2157SOL    HW2 7371   5.667   0.106   3.092
 2158SOL     OW 7372   3.602   5.656   1.111
 2158SOL    HW1 7373   3.582   5.618   1.021
 2158SOL    HW2 7374   3.638   5.749   1.101
 2159SOL     OW 7375   1.457   0.346   5.201
 2159SOL    HW1 7376   1.538   0.337   5.143
 2159SOL    HW2 7377   1.426   0.440   5.202
 2160SOL     OW 7378   4.846   4.251   6.668
 2160SOL    HW1 7379   4.775   4.205   6.614
 2160SOL    HW2 7380   4.911   4.295   6.607
 2161SOL     OW 7381   5.700   4.716   2.465
 2161SOL    HW1 7382   5.702   4.617   2.482
 2161SOL    HW2 7383   5.677   4.732   2.369
 2162SOL     OW 7384   3.653   0.745   2.170
 2162SOL    HW1 7385   3.677   0.766   2.075
 2162SOL    HW2 7386   3.557   0.769   2.185
 2163SOL     OW 7387   1.790   4.243   6.995
 2163SOL    HW1 7388   1.885   4.268   6.977
 2163SOL    HW2 7389   1.780   4.216   0.063
 2164SOL     OW 7390   1.940   2.044   6.314
 2164SOL    HW1 7391   2.018   2.074   6.369
 2164SOL    HW2 7392   1.961   1.956   6.271
 2165SOL     OW 7393   0.057   2.455   3.256
 2165SOL    HW1 7394   7.006   2.392   3.255
 2165SOL    HW2 7395   0.128   2.421   3.194
 2166SOL     OW 7396   1.356   2.614   4.741
 2166SOL    HW1 7397   1.282   2.548   4.727
 2166SOL    HW2 7398   1.392   2.605   4.834
 2167SOL     OW 7399   1.507   2.197   3.281
 2167SOL    HW1 7400   1.604   2.182   3.297
 2167SOL    HW2 7401   1.483   2.291   3.304
 2168SOL     OW 7402   0.818   1.912   3.928
 2168SOL    HW1 7403   0.797   2.010   3.930
 2168SOL    HW2 7404   0.750   1.865   3.872
 2169SOL     OW 7405   5.822   2.007   6.763
 2169SOL    HW1 7406   5.848   2.103   6.771
 2169SOL    HW2 7407   5.817   1.981   6.666
 2170SOL     OW 7408   6.985   4.207   5.137
 2170SOL    HW1 7409   0.056   4.198   5.157
 2170SOL    HW2 7410   6.962   4.304   5.132
 2171SOL     OW 7411   0.015   5.190   1.165
 2171SOL    HW1 7412   6.987   5.261   1.122
 2171SOL    HW2 7413   6.990   5.148   1.240
 2172SOL     OW 7414   2.153   1.655   6.503
 2172SOL    HW1 7415   2.125   1.672   6.598
 2172SOL    HW2 7416   2.160   1.556   6.488
 2173SOL     OW 7417   4.133   0.399   5.334
 2173SOL    HW1 7418   4.115   0.307   5.299
 2173SOL    HW2 7419   4.109   0.403   5.431
 2174SOL     OW 7420   6.750   6.008   4.711
 2174SOL    HW1 7421   6.780   5.922   4.752
 2174SOL    HW2 7422   6.653   6.022   4.732
 2175SOL     OW 7423   1.902   2.294   4.604
 2175SOL    HW1 7424   1.896   2.261   4.698
 2175SOL    HW2 7425   1.810   2.302   4.565
 2176SOL     OW 7426   5.576   2.109   0.133
 2176SOL    HW1 7427   5.572   2.076   0.038
 2176SOL    HW2 7428   5.488   2.091   0.178
 2177SOL     OW 7429   7.000   1.974   3.735
 2177SOL    HW1 7430   6.988   2.035   3.656
 2177SOL    HW2 7431   6.912   1.962   3.781
 2178SOL     OW 7432   1.926   2.090   1.841
 2178SOL    HW1 7433   1.832   2.115   1.866
 2178SOL    HW2 7434   1.944   2.118   1.747
 2179SOL     OW 7435   2.083   5.084   5.610
 2179SOL    HW1 7436   2.124   5.067   5.699
 2179SOL    HW2 7437   2.038   5.174   5.610
 2180SOL     OW 7438   1.875   2.478   1.976
 2180SOL    HW1 7439   1.864   2.510   2.069
 2180SOL    HW2 7440   1.946   2.407   1.973
 2181SOL     OW 7441   4.666   5.058   4.400
 2181SOL    HW1 7442   4.673   4.962   4.425
 2181SOL    HW2 7443   4.757   5.095   4.383
 2182SOL     OW 7444   1.885   3.941   3.290
 2182SOL    HW1 7445   1.897   3.907   3.196
 2182SOL    HW2 7446   1.971   3.983   3.321
 2183SOL     OW 7447   2.008   4.595   6.398
 2183SOL    HW1 7448   1.920   4.580   6.354
 2183SOL    HW2 7449   1.994   4.640   6.486
 2184SOL     OW 7450   4.311   0.672   5.757
 2184SOL    HW1 7451   4.235   0.678   5.692
 2184SOL    HW2 7452   4.383   0.735   5.729
 2185SOL     OW 7453   0.473   0.260   0.862
 2185SOL    HW1 7454   0.442   0.316   0.785
 2185SOL    HW2 7455   0.424   0.173   0.861
 2186SOL     OW 7456   0.064   5.360   0.830
 2186SOL    HW1 7457   0.013   5.275   0.841
 2186SOL    HW2 7458   0.002   5.438   0.843
 2187SOL     OW 7459   6.547   5.995   2.866
 2187SOL    HW1 7460   6.477   6.045   2.816
 2187SOL    HW2 7461   6.504   5.918   2.914
 2188SOL     OW 7462   0.153   5.409   4.870
 2188SOL    HW1 7463   0.059   5.397   4.902
 2188SOL    HW2 7464   0.197   5.484   4.918
 2189SOL     OW 7465   2.298   0.163   1.110
 2189SOL    HW1 7466   2.367   0.115   1.055
 2189SOL    HW2 7467   2.207   0.138   1.077
 2190SOL     OW 7468   0.565   3.205   2.042
 2190SOL    HW1 7469   0.480   3.169   2.004
 2190SOL    HW2 7470   0.574   3.302   2.016
 2191SOL     OW 7471   2.513   1.562   6.301
 2191SOL    HW1 7472   2.537   1.562   6.398
 2191SOL    HW2 7473   2.569   1.630   6.253
 2192SOL     OW 7474   5.076   0.985   2.520
 2192SOL    HW1 7475   5.157   1.043   2.516
 2192SOL    HW2 7476   4.995   1.043   2.531
 2193SOL     OW 7477   5.613   6.365   6.845
 2193SOL    HW1 7478   5.674   6.445   6.845
 2193SOL    HW2 7479   5.518   6.397   6.848
 2194SOL     OW 7480   2.142   4.578   5.966
 2194SOL    HW1 7481   2.060   4.553   5.914
 2194SOL    HW2 7482   2.194   4.646   5.914
 2195SOL     OW 7483   0.221   0.079   5.135
 2195SOL    HW1 7484   0.123   0.069   5.149
 2195SOL    HW2 7485   0.238   0.146   5.063
 2196SOL     OW 7486   4.113   0.352   4.966
 2196SOL    HW1 7487   4.157   0.441   4.956
 2196SOL    HW2 7488   4.014   0.362   4.954
 2197SOL     OW 7489   2.743   3.179   0.171
 2197SOL    HW1 7490   2.756   3.264   0.120
 2197SOL    HW2 7491   2.828   3.154   0.216
 2198SOL     OW 7492   5.601   0.136   0.844
 2198SOL    HW1 7493   5.614   0.094   0.754
 2198SOL    HW2 7494   5.639   0.076   0.915
 2199SOL     OW 7495   5.322   0.059   3.410
 2199SOL    HW1 7496   5.342   0.107   3.495
 2199SOL    HW2 7497   5.268   0.118   3.350
 2200SOL     OW 7498   2.402   1.933   4.105
 2200SOL    HW1 7499   2.426   1.922   4.202
 2200SOL    HW2 7500   2.337   2.008   4.095
 2201SOL     OW 7501   6.389   2.796   3.459
 2201SOL    HW1 7502   6.422   2.866   3.394
 2201SOL    HW2 7503   6.405   2.827   3.552
 2202SOL     OW 7504   3.184   5.771   2.342
 2202SOL    HW1 7505   3.179   5.846   2.276
 2202SOL    HW2 7506   3.093   5.753   2.380
 2203SOL     OW 7507   1.851   2.858   0.850
 2203SOL    HW1 7508   1.923   2.921   0.821
 2203SOL    HW2 7509   1.833   2.871   0.948
 2204SOL     OW 7510   4.655   1.697   1.351
 2204SOL    HW1 7511   4.678   1.600   1.360
 2204SOL    HW2 7512   4.635   1.734   1.442
 2205SOL     OW 7513   0.422   6.675   6.513
 2205SOL    HW1 7514   0.404   6.773   6.499
 2205SOL    HW2 7515   0.497   6.646   6.452
 2206SOL     OW 7516   3.718   5.403   6.142
 2206SOL    HW1 7517   3.742   5.353   6.225
 2206SOL    HW2 7518   3.704   5.337   6.067
 2207SOL     OW 7519   2.699   5.330   6.656
 2207SOL    HW1 7520   2.751   5.374   6.729
 2207SOL    HW2 7521   2.702   5.231   6.668
 2208SOL     OW 7522   1.542   5.605   2.974
 2208SOL    HW1 7523   1.503   5.667   3.042
 2208SOL    HW2 7524   1.603   5.541   3.020
 2209SOL     OW 7525   1.414   0.247   5.626
 2209SOL    HW1 7526   1.406   0.223   5.529
 2209SOL    HW2 7527   1.371   0.176   5.681
 2210SOL     OW 7528   0.149   4.845   4.519
 2210SOL    HW1 7529   0.151   4.868   4.617
 2210SOL    HW2 7530   0.098   4.760   4.506
 2211SOL     OW 7531   6.587   0.311   0.341
 2211SOL    HW1 7532   6.673   0.278   0.380
 2211SOL    HW2 7533   6.591   0.410   0.328
 2212SOL     OW 7534   2.455   5.925   0.533
 2212SOL    HW1 7535   2.386   5.878   0.479
 2212SOL    HW2 7536   2.535   5.866   0.546
 2213SOL     OW 7537   3.252   1.388   4.964
 2213SOL    HW1 7538   3.301   1.406   5.050
 2213SOL    HW2 7539   3.165   1.437   4.964
 2214SOL     OW 7540   3.271   3.806   5.200
 2214SOL    HW1 7541   3.293   3.794   5.297
 2214SOL    HW2 7542   3.302   3.896   5.170
 2215SOL     OW 7543   6.085   1.439   0.086
 2215SOL    HW1 7544   6.002   1.388   0.110
 2215SOL    HW2 7545   6.104   1.506   0.158
 2216SOL     OW 7546   1.479   0.988   6.249
 2216SOL    HW1 7547   1.524   0.908   6.209
 2216SOL    HW2 7548   1.547   1.044   6.296
 2217SOL     OW 7549   3.921   6.889   2.276
 2217SOL    HW1 7550   3.907   6.954   2.350
 2217SOL    HW2 7551   3.850   6.900   2.206
 2218SOL     OW 7552   6.538   5.274   6.561
 2218SOL    HW1 7553   6.476   5.197   6.545
 2218SOL    HW2 7554   6.633   5.242   6.555
 2219SOL     OW 7555   5.259   1.590   0.911
 2219SOL    HW1 7556   5.303   1.616   0.997
 2219SOL    HW2 7557   5.202   1.509   0.926
 2220SOL     OW 7558   1.958   6.956   5.150
 2220SOL    HW1 7559   1.892   6.882   5.166
 2220SOL    HW2 7560   2.040   6.939   5.205
 2221SOL     OW 7561   6.150   1.312   5.582
 2221SOL    HW1 7562   6.138   1.227   5.531
 2221SOL    HW2 7563   6.210   1.373   5.531
 2222SOL     OW 7564   5.235   0.685   0.578
 2222SOL    HW1 7565   5.148   0.642   0.601
 2222SOL    HW2 7566   5.275   0.640   0.498
 2223SOL     OW 7567   5.778   1.217   4.992
 2223SOL    HW1 7568   5.852   1.270   4.951
 2223SOL    HW2 7569   5.771   1.240   5.089
 2224SOL     OW 7570   0.028   3.233   1.124
 2224SOL    HW1 7571   0.020   3.241   1.024
 2224SOL    HW2 7572   0.097   3.164   1.146
 2225SOL     OW 7573   6.735   0.073   3.515
 2225SOL    HW1 7574   6.708   7.004   3.505
 2225SOL    HW2 7575   6.787   0.101   3.434
 2226SOL     OW 7576   3.589   5.292   1.141
 2226SOL    HW1 7577   3.656   5.346   1.090
 2226SOL    HW2 7578   3.521   5.255   1.078
 2227SOL     OW 7579   5.391   3.374   6.992
 2227SOL    HW1 7580   5.377   3.303   0.034
 2227SOL    HW2 7581   5.314   3.372   6.928
 2228SOL     OW 7582   4.102   5.059   1.000
 2228SOL    HW1 7583   4.061   5.067   1.091
 2228SOL    HW2 7584   4.201   5.071   1.007
 2229SOL     OW 7585   4.467   2.594   5.496
 2229SOL    HW1 7586   4.382   2.630   5.460
 2229SOL    HW2 7587   4.448   2.534   5.574
 2230SOL     OW 7588   5.813   6.697   0.354
 2230SOL    HW1 7589   5.827   6.782   0.303
 2230SOL    HW2 7590   5.902   6.655   0.373
 2231SOL     OW 7591   0.698   0.722   1.337
 2231SOL    HW1 7592   0.755   0.645   1.366
 2231SOL    HW2 7593   0.643   0.754   1.414
 2232SOL     OW 7594   1.187   2.424   4.653
 2232SOL    HW1 7595   1.226   2.381   4.572
 2232SOL    HW2 7596   1.096   2.460   4.631
 2233SOL     OW 7597   1.810   3.084   0.028
 2233SOL    HW1 7598   1.750   3.121   0.099
 2233SOL    HW2 7599   1.756   3.034   6.989
 2234SOL     OW 7600   4.209   1.393   1.555
 2234SOL    HW1 7601   4.224   1.330   1.478
 2234SOL    HW2 7602   4.173   1.342   1.633
 2235SOL     OW 7603   2.987   6.914   1.519
 2235SOL    HW1 7604   2.889   6.931   1.503
 2235SOL    HW2 7605   3.041   6.974   1.461
 2236SOL     OW 7606   2.433   4.233   6.521
 2236SOL    HW1 7607   2.355   4.277   6.476
 2236SOL    HW2 7608   2.435   4.136   6.498
 2237SOL     OW 7609   5.956   4.717   4.104
 2237SOL    HW1 7610   5.881   4.739   4.042
 2237SOL    HW2 7611   5.952   4.778   4.183
 2238SOL     OW 7612   4.776   4.639   1.856
 2238SOL    HW1 7613   4.733   4.674   1.773
 2238SOL    HW2 7614   4.753   4.543   1.868
 2239SOL     OW 7615   3.830   4.903   4.195
 2239SOL    HW1 7616   3.739   4.928   4.161
 2239SOL    HW2 7617   3.822   4.859   4.284
 2240SOL     OW 7618   3.891   5.902   3.539
 2240SOL    HW1 7619   3.852   5.987   3.503
 2240SOL    HW2 7620   3.847   5.879   3.625
 2241SOL     OW 7621   0.550   5.602   3.249
 2241SOL    HW1 7622   0.511   5.683   3.293
 2241SOL    HW2 7623   0.560   5.619   3.151
 2242SOL     OW 7624   5.578   3.408   2.526
 2242SOL    HW1 7625   5.600   3.312   2.505
 2242SOL    HW2 7626   5.487   3.413   2.567
 2243SOL     OW 7627   1.748   6.702   6.265
 2243SOL    HW1 7628   1.761   6.800   6.278
 2243SOL    HW2 7629   1.712   6.661   6.349
 2244SOL     OW 7630   1.582   6.080   1.583
 2244SOL    HW1 7631   1.484   6.058   1.590
 2244SOL    HW2 7632   1.594   6.156   1.519
 2245SOL     OW 7633   0.581   1.788   1.122
 2245SOL    HW1 7634   0.642   1.714   1.150
 2245SOL    HW2 7635   0.578   1.858   1.193
 2246SOL     OW 7636   1.378   0.891   4.599
 2246SOL    HW1 7637   1.379   0.990   4.587
 2246SOL    HW2 7638   1.324   0.867   4.680
 2247SOL     OW 7639   3.491   2.883   3.515
 2247SOL    HW1 7640   3.588   2.890   3.493
 2247SOL    HW2 7641   3.480   2.839   3.604
 2248SOL     OW 7642   6.421   3.779   5.391
 2248SOL    HW1 7643   6.452   3.862   5.345
 2248SOL    HW2 7644   6.390   3.800   5.483
 2249SOL     OW 7645   5.677   6.581   3.622
 2249SOL    HW1 7646   5.616   6.658   3.641
 2249SOL    HW2 7647   5.766   6.598   3.664
 2250SOL     OW 7648   3.706   3.471   5.471
 2250SOL    HW1 7649   3.661   3.539   5.413
 2250SOL    HW2 7650   3.798   3.453   5.436
 2251SOL     OW 7651   5.108   0.287   6.083
 2251SOL    HW1 7652   5.070   0.327   6.166
 2251SOL    HW2 7653   5.196   0.244   6.104
 2252SOL     OW 7654   4.651   2.337   2.442
 2252SOL    HW1 7655   4.678   2.245   2.411
 2252SOL    HW2 7656   4.708   2.363   2.521
 2253SOL     OW 7657   0.374   3.891   6.804
 2253SOL    HW1 7658   0.276   3.874   6.809
 2253SOL    HW2 7659   0.422   3.824   6.861
 2254SOL     OW 7660   3.590   2.861   5.049
 2254SOL    HW1 7661   3.560   2.942   5.099
 2254SOL    HW2 7662   3.591   2.782   5.111
 2255SOL     OW 7663   4.318   3.450   5.818
 2255SOL    HW1 7664   4.346   3.361   5.855
 2255SOL    HW2 7665   4.225   3.444   5.783
 2256SOL     OW 7666   4.826   5.976   2.151
 2256SOL    HW1 7667   4.799   5.888   2.192
 2256SOL    HW2 7668   4.755   6.006   2.087
 2257SOL     OW 7669   0.254   2.695   4.372
 2257SOL    HW1 7670   0.176   2.637   4.394
 2257SOL    HW2 7671   0.291   2.669   4.282
 2258SOL     OW 7672   1.681   5.372   4.794
 2258SOL    HW1 7673   1.639   5.410   4.712
 2258SOL    HW2 7674   1.767   5.420   4.814
 2259SOL     OW 7675   5.173   3.747   6.288
 2259SOL    HW1 7676   5.185   3.828   6.232
 2259SOL    HW2 7677   5.076   3.734   6.308
 2260SOL     OW 7678   6.918   4.220   1.673
 2260SOL    HW1 7679   6.898   4.293   1.739
 2260SOL    HW2 7680   6.978   4.153   1.715
 2261SOL     OW 7681   6.020   5.364   7.007
 2261SOL    HW1 7682   6.114   5.330   7.013
 2261SOL    HW2 7683   5.958   5.295   0.016
 2262SOL     OW 7684   5.961   0.955   3.125
 2262SOL    HW1 7685   5.943   0.885   3.194
 2262SOL    HW2 7686   6.027   1.021   3.161
 2263SOL     OW 7687   3.003   6.271   6.437
 2263SOL    HW1 7688   2.939   6.211   6.484
 2263SOL    HW2 7689   3.010   6.243   6.341
 2264SOL     OW 7690   2.503   4.636   0.334
 2264SOL    HW1 7691   2.483   4.647   0.237
 2264SOL    HW2 7692   2.514   4.539   0.355
 2265SOL     OW 7693   1.322   0.648   4.184
 2265SOL    HW1 7694   1.408   0.598   4.170
 2265SOL    HW2 7695   1.262   0.633   4.106
 2266SOL     OW 7696   5.085   1.717   0.091
 2266SOL    HW1 7697   5.144   1.689   0.167
 2266SOL    HW2 7698   5.004   1.764   0.127
 2267SOL     OW 7699   4.753   2.374   4.999
 2267SOL    HW1 7700   4.657   2.349   4.991
 2267SOL    HW2 7701   4.777   2.440   4.928
 2268SOL     OW 7702   6.416   4.007   0.087
 2268SOL    HW1 7703   6.492   3.946   0.065
 2268SOL    HW2 7704   6.431   4.049   0.177
 2269SOL     OW 7705   6.367   4.605   5.518
 2269SOL    HW1 7706   6.390   4.684   5.575
 2269SOL    HW2 7707   6.293   4.630   5.455
 2270SOL     OW 7708   3.054   2.880   6.218
 2270SOL    HW1 7709   3.053   2.965   6.165
 2270SOL    HW2 7710   3.004   2.809   6.169
 2271SOL     OW 7711   5.260   3.978   0.480
 2271SOL    HW1 7712   5.329   3.934   0.538
 2271SOL    HW2 7713   5.297   4.063   0.442
 2272SOL     OW 7714   6.326   3.106   6.529
 2272SOL    HW1 7715   6.227   3.107   6.543
 2272SOL    HW2 7716   6.346   3.086   6.433
 2273SOL     OW 7717   1.593   1.835   2.301
 2273SOL    HW1 7718   1.499   1.868   2.304
 2273SOL    HW2 7719   1.633   1.837   2.393
 2274SOL     OW 7720   0.003   2.497   6.523
 2274SOL    HW1 7721   7.005   2.468   6.431
 2274SOL    HW2 7722   6.978   2.578   6.548
 2275SOL     OW 7723   6.769   0.093   4.049
 2275SOL    HW1 7724   6.747   7.023   4.053
 2275SOL    HW2 7725   6.775   0.129   4.142
 2276SOL     OW 7726   2.154   5.465   0.846
 2276SOL    HW1 7727   2.057   5.489   0.852
 2276SOL    HW2 7728   2.171   5.419   0.759
 2277SOL     OW 7729   3.632   3.832   4.210
 2277SOL    HW1 7730   3.658   3.929   4.217
 2277SOL    HW2 7731   3.621   3.808   4.114
 2278SOL     OW 7732   6.413   4.546   4.541
 2278SOL    HW1 7733   6.345   4.597   4.489
 2278SOL    HW2 7734   6.393   4.448   4.536
 2279SOL     OW 7735   5.575   6.688   5.584
 2279SOL    HW1 7736   5.531   6.726   5.502
 2279SOL    HW2 7737   5.547   6.742   5.664
 2280SOL     OW 7738   6.727   6.843   4.398
 2280SOL    HW1 7739   6.745   6.817   4.304
 2280SOL    HW2 7740   6.660   6.780   4.438
 2281SOL     OW 7741   3.549   1.444   2.427
 2281SOL    HW1 7742   3.638   1.403   2.445
 2281SOL    HW2 7743   3.497   1.386   2.364
 2282SOL     OW 7744   5.671   0.119   5.006
 2282SOL    HW1 7745   5.649   0.068   5.090
 2282SOL    HW2 7746   5.744   0.184   5.025
 2283SOL     OW 7747   0.551   4.981   1.145
 2283SOL    HW1 7748   0.570   4.908   1.080
 2283SOL    HW2 7749   0.590   5.067   1.111
 2284SOL     OW 7750   0.966   2.648   6.685
 2284SOL    HW1 7751   0.933   2.711   6.615
 2284SOL    HW2 7752   0.988   2.698   6.768
 2285SOL     OW 7753   2.222   2.385   1.076
 2285SOL    HW1 7754   2.215   2.385   1.176
 2285SOL    HW2 7755   2.133   2.407   1.037
 2286SOL     OW 7756   6.972   0.000   3.663
 2286SOL    HW1 7757   6.917   6.991   3.587
 2286SOL    HW2 7758   6.999   0.094   3.642
 2287SOL     OW 7759   2.084   0.673   3.109
 2287SOL    HW1 7760   2.076   0.736   3.033
 2287SOL    HW2 7761   2.128   0.588   3.079
 2288SOL     OW 7762   6.193   4.858   4.491
 2288SOL    HW1 7763   6.177   4.916   4.571
 2288SOL    HW2 7764   6.257   4.902   4.429
 2289SOL     OW 7765   0.681   4.941   1.777
 2289SOL    HW1 7766   0.657   4.941   1.874
 2289SOL    HW2 7767   0.598   4.941   1.722
 2290SOL     OW 7768   0.570   3.792   0.862
 2290SOL    HW1 7769   0.666   3.765   0.854
 2290SOL    HW2 7770   0.556   3.879   0.814
 2291SOL     OW 7771   2.820   2.684   5.604
 2291SOL    HW1 7772   2.735   2.736   5.601
 2291SOL    HW2 7773   2.898   2.746   5.613
 2292SOL     OW 7774   6.819   2.101   4.975
 2292SOL    HW1 7775   6.724   2.129   4.959
 2292SOL    HW2 7776   6.850   2.137   5.062
 2293SOL     OW 7777   4.329   6.109   1.449
 2293SOL    HW1 7778   4.423   6.114   1.484
 2293SOL    HW2 7779   4.272   6.176   1.496
 2294SOL     OW 7780   3.185   0.432   6.885
 2294SOL    HW1 7781   3.122   0.432   6.963
 2294SOL    HW2 7782   3.219   0.525   6.870
 2295SOL     OW 7783   0.887   2.113   2.925
 2295SOL    HW1 7784   0.896   2.021   2.888
 2295SOL    HW2 7785   0.810   2.159   2.882
 2296SOL     OW 7786   4.596   4.995   1.013
 2296SOL    HW1 7787   4.503   5.032   1.023
 2296SOL    HW2 7788   4.661   5.070   1.005
 2297SOL     OW 7789   3.999   4.369   5.585
 2297SOL    HW1 7790   3.949   4.452   5.609
 2297SOL    HW2 7791   4.092   4.392   5.558
 2298SOL     OW 7792   3.898   2.788   1.508
 2298SOL    HW1 7793   3.994   2.812   1.492
 2298SOL    HW2 7794   3.859   2.749   1.424
 2299SOL     OW 7795   4.007   5.758   5.195
 2299SOL    HW1 7796   3.967   5.847   5.172
 2299SOL    HW2 7797   3.934   5.692   5.212
 2300SOL     OW 7798   2.465   5.707   1.763
 2300SOL    HW1 7799   2.398   5.767   1.807
 2300SOL    HW2 7800   2.513   5.654   1.833
 2301SOL     OW 7801   3.221   2.948   3.126
 2301SOL    HW1 7802   3.175   3.018   3.180
 2301SOL    HW2 7803   3.169   2.930   3.043
 2302SOL     OW 7804   3.881   0.209   0.715
 2302SOL    HW1 7805   3.803   0.225   0.777
 2302SOL    HW2 7806   3.847   0.182   0.625
 2303SOL     OW 7807   2.639   3.021   6.357
 2303SOL    HW1 7808   2.677   2.992   6.445
 2303SOL    HW2 7809   2.543   2.996   6.352
 2304SOL     OW 7810   4.734   0.120   3.841
 2304SOL    HW1 7811   4.650   0.150   3.886
 2304SOL    HW2 7812   4.759   0.187   3.771
 2305SOL     OW 7813   2.556   6.520   3.108
 2305SOL    HW1 7814   2.510   6.531   3.020
 2305SOL    HW2 7815   2.634   6.459   3.097
 2306SOL     OW 7816   3.070   5.202   2.661
 2306SOL    HW1 7817   3.132   5.141   2.710
 2306SOL    HW2 7818   3.104   5.216   2.568
 2307SOL     OW 7819   6.562   3.521   2.544
 2307SOL    HW1 7820   6.588   3.535   2.640
 2307SOL    HW2 7821   6.598   3.596   2.489
 2308SOL     OW 7822   0.979   5.371   1.060
 2308SOL    HW1 7823   0.992   5.310   0.982
 2308SOL    HW2 7824   0.935   5.321   1.134
 2309SOL     OW 7825   1.520   0.818   6.507
 2309SOL    HW1 7826   1.448   0.886   6.496
 2309SOL    HW2 7827   1.498   0.736   6.453
 2310SOL     OW 7828   5.200   6.354   1.214
 2310SOL    HW1 7829   5.158   6.273   1.254
 2310SOL    HW2 7830   5.288   6.328   1.173
 2311SOL     OW 7831   2.295   6.022   1.998
 2311SOL    HW1 7832   2.365   6.080   2.039
 2311SOL    HW2 7833   2.206   6.043   2.037
 2312SOL     OW 7834   3.528   6.656   3.756
 2312SOL    HW1 7835   3.451   6.687   3.811
 2312SOL    HW2 7836   3.576   6.582   3.805
 2313SOL     OW 7837   5.440   5.641   1.545
 2313SOL    HW1 7838   5.461   5.543   1.534
 2313SOL    HW2 7839   5.350   5.660   1.506
 2314SOL     OW 7840   6.004   0.124   4.493
 2314SOL    HW1 7841   6.077   0.108   4.559
 2314SOL    HW2 7842   6.017   0.212   4.449
 2315SOL     OW 7843   4.987   3.252   5.186
 2315SOL    HW1 7844   5.023   3.345   5.185
 2315SOL    HW2 7845   5.006   3.209   5.274
 2316SOL     OW 7846   3.679   0.662   4.290
 2316SOL    HW1 7847   3.602   0.666   4.227
 2316SOL    HW2 7848   3.656   0.710   4.375
 2317SOL     OW 7849   0.403   6.032   3.749
 2317SOL    HW1 7850   0.392   6.128   3.721
 2317SOL    HW2 7851   0.493   6.020   3.791
 2318SOL     OW 7852   2.010   2.894   4.742
 2318SOL    HW1 7853   2.071   2.954   4.795
 2318SOL    HW2 7854   1.950   2.844   4.804
 2319SOL     OW 7855   2.113   4.910   4.357
 2319SOL    HW1 7856   2.156   4.851   4.288
 2319SOL    HW2 7857   2.121   4.868   4.447
 2320SOL     OW 7858   0.745   3.035   4.973
 2320SOL    HW1 7859   0.696   3.106   4.921
 2320SOL    HW2 7860   0.726   2.946   4.932
 2321SOL     OW 7861   2.609   6.518   6.903
 2321SOL    HW1 7862   2.675   6.443   6.913
 2321SOL    HW2 7863   2.616   6.556   6.811
 2322SOL     OW 7864   2.141   2.417   3.853
 2322SOL    HW1 7865   2.196   2.390   3.773
 2322SOL    HW2 7866   2.072   2.348   3.871
 2323SOL     OW 7867   3.174   5.034   2.026
 2323SOL    HW1 7868   3.259   4.981   2.033
 2323SOL    HW2 7869   3.137   5.025   1.934
 2324SOL     OW 7870   6.659   6.589   0.866
 2324SOL    HW1 7871   6.581   6.650   0.854
 2324SOL    HW2 7872   6.686   6.588   0.962
 2325SOL     OW 7873   0.466   4.721   1.240
 2325SOL    HW1 7874   0.474   4.685   1.333
 2325SOL    HW2 7875   0.461   4.821   1.243
 2326SOL     OW 7876   4.179   5.361   6.241
 2326SOL    HW1 7877   4.135   5.301   6.174
 2326SOL    HW2 7878   4.276   5.373   6.218
 2327SOL     OW 7879   6.811   2.292   3.652
 2327SOL    HW1 7880   6.762   2.363   3.704
 2327SOL    HW2 7881   6.744   2.234   3.605
 2328SOL     OW 7882   2.652   1.915   3.026
 2328SOL    HW1 7883   2.704   1.879   3.103
 2328SOL    HW2 7884   2.600   1.995   3.056
 2329SOL     OW 7885   2.037   4.243   4.922
 2329SOL    HW1 7886   2.036   4.144   4.903
 2329SOL    HW2 7887   2.129   4.270   4.951
 2330SOL     OW 7888   0.843   4.012   1.332
 2330SOL    HW1 7889   0.835   4.009   1.233
 2330SOL    HW2 7890   0.888   4.097   1.359
 2331SOL     OW 7891   4.105   5.351   6.805
 2331SOL    HW1 7892   4.120   5.253   6.793
 2331SOL    HW2 7893   4.060   5.388   6.724
 2332SOL     OW 7894   4.646   2.005   4.997
 2332SOL    HW1 7895   4.566   2.038   4.949
 2332SOL    HW2 7896   4.688   1.931   4.945
 2333SOL     OW 7897   0.607   4.741   2.838
 2333SOL    HW1 7898   0.620   4.685   2.756
 2333SOL    HW2 7899   0.511   4.738   2.866
 2334SOL     OW 7900   1.833   0.582   0.221
 2334SOL    HW1 7901   1.790   0.492   0.229
 2334SOL    HW2 7902   1.887   0.586   0.136
 2335SOL     OW 7903   6.455   0.510   2.888
 2335SOL    HW1 7904   6.469   0.413   2.908
 2335SOL    HW2 7905   6.466   0.525   2.790
 2336SOL     OW 7906   4.483   2.428   4.937
 2336SOL    HW1 7907   4.547   2.496   4.902
 2336SOL    HW2 7908   4.395   2.439   4.891
 2337SOL     OW 7909   4.967   1.313   2.320
 2337SOL    HW1 7910   4.921   1.352   2.240
 2337SOL    HW2 7911   5.033   1.245   2.290
 2338SOL     OW 7912   1.719   2.246   5.273
 2338SOL    HW1 7913   1.771   2.270   5.191
 2338SOL    HW2 7914   1.724   2.147   5.288
 2339SOL     OW 7915   3.810   3.977   4.849
 2339SOL    HW1 7916   3.849   4.013   4.764
 2339SOL    HW2 7917   3.734   4.036   4.877
 2340SOL     OW 7918   5.593   4.647   0.190
 2340SOL    HW1 7919   5.505   4.663   0.146
 2340SOL    HW2 7920   5.620   4.551   0.179
 2341SOL     OW 7921   4.651   4.804   1.220
 2341SOL    HW1 7922   4.739   4.758   1.209
 2341SOL    HW2 7923   4.635   4.865   1.143
 2342SOL     OW 7924   0.302   6.770   5.320
 2342SOL    HW1 7925   0.352   6.684   5.307
 2342SOL    HW2 7926   0.366   6.843   5.340
 2343SOL     OW 7927   2.618   5.649   2.501
 2343SOL    HW1 7928   2.615   5.730   2.561
 2343SOL    HW2 7929   2.567   5.668   2.417
 2344SOL     OW 7930   1.783   6.968   0.434
 2344SOL    HW1 7931   1.798   7.002   0.527
 2344SOL    HW2 7932   1.773   6.869   0.436
 2345SOL     OW 7933   3.071   4.929   4.706
 2345SOL    HW1 7934   3.050   4.894   4.614
 2345SOL    HW2 7935   3.031   5.020   4.717
 2346SOL     OW 7936   4.677   2.841   5.091
 2346SOL    HW1 7937   4.684   2.833   4.992
 2346SOL    HW2 7938   4.769   2.847   5.131
 2347SOL     OW 7939   2.616   3.345   1.766
 2347SOL    HW1 7940   2.673   3.413   1.720
 2347SOL    HW2 7941   2.532   3.389   1.798
 2348SOL     OW 7942   3.514   6.550   3.506
 2348SOL    HW1 7943   3.510   6.592   3.597
 2348SOL    HW2 7944   3.459   6.466   3.506
 2349SOL     OW 7945   1.103   4.725   6.186
 2349SOL    HW1 7946   1.109   4.684   6.277
 2349SOL    HW2 7947   1.080   4.822   6.194
 2350SOL     OW 7948   4.619   6.498   6.206
 2350SOL    HW1 7949   4.713   6.515   6.234
 2350SOL    HW2 7950   4.557   6.545   6.268
 2351SOL     OW 7951   3.175   4.864   3.282
 2351SOL    HW1 7952   3.129   4.853   3.370
 2351SOL    HW2 7953   3.110   4.845   3.209
 2352SOL     OW 7954   0.415   5.016   1.653
 2352SOL    HW1 7955   0.440   5.079   1.579
 2352SOL    HW2 7956   0.322   4.982   1.637
 2353SOL     OW 7957   3.307   4.438   5.375
 2353SOL    HW1 7958   3.236   4.373   5.347
 2353SOL    HW2 7959   3.276   4.531   5.357
 2354SOL     OW 7960   2.413   1.131   6.038
 2354SOL    HW1 7961   2.460   1.065   5.980
 2354SOL    HW2 7962   2.387   1.211   5.984
 2355SOL     OW 7963   1.843   6.016   0.246
 2355SOL    HW1 7964   1.858   5.968   0.160
 2355SOL    HW2 7965   1.902   6.097   0.249
 2356SOL     OW 7966   1.822   3.973   0.166
 2356SOL    HW1 7967   1.848   3.968   0.262
 2356SOL    HW2 7968   1.722   3.972   0.158
 2357SOL     OW 7969   4.444   6.169   4.020
 2357SOL    HW1 7970   4.415   6.103   3.951
 2357SOL    HW2 7971   4.541   6.155   4.040
 2358SOL     OW 7972   3.844   5.067   5.364
 2358SOL    HW1 7973   3.749   5.077   5.337
 2358SOL    HW2 7974   3.883   4.985   5.323
 2359SOL     OW 7975   0.310   0.718   6.248
 2359SOL    HW1 7976   0.369   0.795   6.274
 2359SOL    HW2 7977   0.266   0.681   6.329
 2360SOL     OW 7978   5.643   5.327   6.390
 2360SOL    HW1 7979   5.676   5.247   6.340
 2360SOL    HW2 7980   5.544   5.319   6.405
 2361SOL     OW 7981   2.368   1.094   5.084
 2361SOL    HW1 7982   2.409   1.053   5.003
 2361SOL    HW2 7983   2.429   1.164   5.121
 2362SOL     OW 7984   2.401   0.461   5.249
 2362SOL    HW1 7985   2.389   0.426   5.342
 2362SOL    HW2 7986   2.495   0.489   5.236
 2363SOL     OW 7987   4.308   2.297   5.352
 2363SOL    HW1 7988   4.299   2.224   5.285
 2363SOL    HW2 7989   4.250   2.278   5.431
 2364SOL     OW 7990   0.734   2.029   2.575
 2364SOL    HW1 7991   0.771   2.061   2.663
 2364SOL    HW2 7992   0.804   1.978   2.526
 2365SOL     OW 7993   5.865   2.853   6.572
 2365SOL    HW1 7994   5.768   2.837   6.557
 2365SOL    HW2 7995   5.919   2.791   6.516
 2366SOL     OW 7996   1.425   4.497   6.129
 2366SOL    HW1 7997   1.515   4.537   6.110
 2366SOL    HW2 7998   1.435   4.397   6.138
 2367SOL     OW 7999   3.300   4.354   0.756
 2367SOL    HW1 8000   3.332   4.313   0.671
 2367SOL    HW2 8001   3.242   4.289   0.805
 2368SOL     OW 8002   4.964   0.063   2.802
 2368SOL    HW1 8003   4.988   6.995   2.822
 2368SOL    HW2 8004   4.962   0.116   2.886
 2369SOL     OW 8005   1.341   2.772   5.603
 2369SOL    HW1 8006   1.244   2.770   5.628
 2369SOL    HW2 8007   1.350   2.787   5.505
 2370SOL     OW 8008   4.676   4.123   6.473
 2370SOL    HW1 8009   4.646   4.196   6.412
 2370SOL    HW2 8010   4.614   4.045   6.465
 2371SOL     OW 8011   0.500   6.572   2.027
 2371SOL    HW1 8012   0.420   6.615   2.070
 2371SOL    HW2 8013   0.470   6.516   1.950
 2372SOL     OW 8014   6.830   1.913   1.268
 2372SOL    HW1 8015   6.831   1.829   1.323
 2372SOL    HW2 8016   6.833   1.993   1.328
 2373SOL     OW 8017   0.103   0.321   0.331
 2373SOL    HW1 8018   0.110   0.225   0.358
 2373SOL    HW2 8019   0.141   0.332   0.239
 2374SOL     OW 8020   6.354   0.763   4.115
 2374SOL    HW1 8021   6.390   0.855   4.098
 2374SOL    HW2 8022   6.373   0.705   4.036
 2375SOL     OW 8023   2.374   0.171   3.957
 2375SOL    HW1 8024   2.430   0.217   4.026
 2375SOL    HW2 8025   2.324   0.095   4.000
 2376SOL     OW 8026   6.309   2.534   4.671
 2376SOL    HW1 8027   6.379   2.485   4.619
 2376SOL    HW2 8028   6.350   2.615   4.713
 2377SOL     OW 8029   3.389   4.147   2.948
 2377SOL    HW1 8030   3.305   4.113   2.990
 2377SOL    HW2 8031   3.450   4.183   3.019
 2378SOL     OW 8032   4.983   2.820   0.267
 2378SOL    HW1 8033   4.956   2.724   0.256
 2378SOL    HW2 8034   4.967   2.869   0.181
 2379SOL     OW 8035   5.822   2.439   6.453
 2379SOL    HW1 8036   5.787   2.384   6.529
 2379SOL    HW2 8037   5.922   2.447   6.461
 2380SOL     OW 8038   0.237   0.137   6.009
 2380SOL    HW1 8039   0.280   0.179   5.928
 2380SOL    HW2 8040   0.138   0.139   5.999
 2381SOL     OW 8041   2.177   3.856   4.552
 2381SOL    HW1 8042   2.149   3.869   4.647
 2381SOL    HW2 8043   2.100   3.823   4.498
 2382SOL     OW 8044   2.395   4.684   3.567
 2382SOL    HW1 8045   2.308   4.646   3.537
 2382SOL    HW2 8046   2.433   4.742   3.495
 2383SOL     OW 8047   5.918   6.461   0.761
 2383SOL    HW1 8048   6.007   6.473   0.717
 2383SOL    HW2 8049   5.846   6.480   0.695
 2384SOL     OW 8050   6.570   6.283   2.213
 2384SOL    HW1 8051   6.666   6.301   2.231
 2384SOL    HW2 8052   6.519   6.369   2.217
 2385SOL     OW 8053   6.758   6.603   1.121
 2385SOL    HW1 8054   6.853   6.615   1.150
 2385SOL    HW2 8055   6.720   6.521   1.166
 2386SOL     OW 8056   5.026   5.748   4.260
 2386SOL    HW1 8057   5.047   5.767   4.356
 2386SOL    HW2 8058   4.970   5.821   4.223
 2387SOL     OW 8059   1.065   1.521   3.969
 2387SOL    HW1 8060   1.031   1.574   3.890
 2387SOL    HW2 8061   1.147   1.565   4.006
 2388SOL     OW 8062   1.749   2.124   3.389
 2388SOL    HW1 8063   1.816   2.060   3.351
 2388SOL    HW2 8064   1.725   2.097   3.482
 2389SOL     OW 8065   5.386   3.363   3.336
 2389SOL    HW1 8066   5.342   3.303   3.402
 2389SOL    HW2 8067   5.377   3.325   3.244
 2390SOL     OW 8068   3.600   3.139   3.376
 2390SOL    HW1 8069   3.646   3.073   3.436
 2390SOL    HW2 8070   3.553   3.089   3.303
 2391SOL     OW 8071   5.038   5.220   5.590
 2391SOL    HW1 8072   5.057   5.122   5.591
 2391SOL    HW2 8073   4.993   5.246   5.675
 2392SOL     OW 8074   3.473   0.227   5.312
 2392SOL    HW1 8075   3.396   0.165   5.326
 2392SOL    HW2 8076   3.550   0.177   5.273
 2393SOL     OW 8077   4.391   4.924   6.041
 2393SOL    HW1 8078   4.331   4.953   5.966
 2393SOL    HW2 8079   4.358   4.837   6.078
 2394SOL     OW 8080   1.942   3.508   4.657
 2394SOL    HW1 8081   1.895   3.584   4.702
 2394SOL    HW2 8082   1.878   3.431   4.648
 2395SOL     OW 8083   6.106   2.454   6.488
 2395SOL    HW1 8084   6.102   2.530   6.423
 2395SOL    HW2 8085   6.141   2.487   6.576
 2396SOL     OW 8086   4.020   5.320   1.290
 2396SOL    HW1 8087   3.941   5.363   1.245
 2396SOL    HW2 8088   3.988   5.242   1.344
 2397SOL     OW 8089   0.374   4.157   6.998
 2397SOL    HW1 8090   0.366   4.058   7.009
 2397SOL    HW2 8091   0.292   4.192   6.954
 2398SOL     OW 8092   3.100   3.865   6.387
 2398SOL    HW1 8093   3.175   3.927   6.406
 2398SOL    HW2 8094   3.076   3.870   6.290
 2399SOL     OW 8095   4.865   1.158   2.518
 2399SOL    HW1 8096   4.832   1.191   2.606
 2399SOL    HW2 8097   4.904   1.234   2.466
 2400SOL     OW 8098   3.915   5.245   0.535
 2400SOL    HW1 8099   3.867   5.321   0.492
 2400SOL    HW2 8100   3.851   5.170   0.551
 2401SOL     OW 8101   4.580   6.923   6.154
 2401SOL    HW1 8102   4.633   6.876   6.224
 2401SOL    HW2 8103   4.486   6.935   6.187
 2402SOL     OW 8104   0.704   1.077   4.464
 2402SOL    HW1 8105   0.760   1.159   4.474
 2402SOL    HW2 8106   0.733   1.027   4.382
 2403SOL     OW 8107   2.486   2.401   0.470
 2403SOL    HW1 8108   2.560   2.362   0.525
 2403SOL    HW2 8109   2.448   2.480   0.517
 2404SOL     OW 8110   5.261   0.468   1.289
 2404SOL    HW1 8111   5.216   0.506   1.369
 2404SOL    HW2 8112   5.205   0.394   1.250
 2405SOL     OW 8113   3.661   3.542   3.078
 2405SOL    HW1 8114   3.738   3.514   3.021
 2405SOL    HW2 8115   3.694   3.567   3.169
 2406SOL     OW 8116   2.237   0.450   3.027
 2406SOL    HW1 8117   2.156   0.413   2.980
 2406SOL    HW2 8118   2.281   0.377   3.079
 2407SOL     OW 8119   5.525   2.672   3.050
 2407SOL    HW1 8120   5.578   2.626   3.122
 2407SOL    HW2 8121   5.508   2.609   2.975
 2408SOL     OW 8122   4.170   4.842   3.735
 2408SOL    HW1 8123   4.122   4.771   3.683
 2408SOL    HW2 8124   4.238   4.886   3.677
 2409SOL     OW 8125   1.413   3.202   1.614
 2409SOL    HW1 8126   1.331   3.148   1.600
 2409SOL    HW2 8127   1.409   3.284   1.557
 2410SOL     OW 8128   4.699   2.758   6.748
 2410SOL    HW1 8129   4.683   2.847   6.704
 2410SOL    HW2 8130   4.796   2.734   6.738
 2411SOL     OW 8131   4.658   5.326   5.727
 2411SOL    HW1 8132   4.586   5.389   5.755
 2411SOL    HW2 8133   4.728   5.376   5.675
 2412SOL     OW 8134   3.942   4.753   0.779
 2412SOL    HW1 8135   3.978   4.669   0.739
 2412SOL    HW2 8136   4.011   4.825   0.773
 2413SOL     OW 8137   6.513   2.092   0.503
 2413SOL    HW1 8138   6.608   2.110   0.477
 2413SOL    HW2 8139   6.483   2.005   0.463
 2414SOL     OW 8140   4.908   4.048   2.070
 2414SOL    HW1 8141   4.912   3.997   1.984
 2414SOL    HW2 8142   4.886   3.985   2.145
 2415SOL     OW 8143   0.965   6.970   2.074
 2415SOL    HW1 8144   0.903   6.916   2.131
 2415SOL    HW2 8145   1.021   0.001   2.132
 2416SOL     OW 8146   3.307   2.129   4.879
 2416SOL    HW1 8147   3.392   2.093   4.917
 2416SOL    HW2 8148   3.286   2.217   4.920
 2417SOL     OW 8149   4.133   3.218   5.559
 2417SOL    HW1 8150   4.070   3.286   5.523
 2417SOL    HW2 8151   4.106   3.127   5.530
 2418SOL     OW 8152   3.416   4.123   3.957
 2418SOL    HW1 8153   3.316   4.117   3.958
 2418SOL    HW2 8154   3.447   4.143   3.864
 2419SOL     OW 8155   1.136   6.090   4.092
 2419SOL    HW1 8156   1.079   6.027   4.039
 2419SOL    HW2 8157   1.184   6.039   4.163
 2420SOL     OW 8158   3.785   1.976   1.225
 2420SOL    HW1 8159   3.773   1.879   1.203
 2420SOL    HW2 8160   3.715   2.004   1.290
 2421SOL     OW 8161   2.430   1.386   5.635
 2421SOL    HW1 8162   2.456   1.328   5.559
 2421SOL    HW2 8163   2.500   1.457   5.649
 2422SOL     OW 8164   6.155   6.954   1.720
 2422SOL    HW1 8165   6.214   6.998   1.653
 2422SOL    HW2 8166   6.172   6.856   1.719
 2423SOL     OW 8167   1.511   6.477   3.654
 2423SOL    HW1 8168   1.593   6.527   3.625
 2423SOL    HW2 8169   1.538   6.385   3.684
 2424SOL     OW 8170   6.169   6.199   5.795
 2424SOL    HW1 8171   6.214   6.154   5.872
 2424SOL    HW2 8172   6.097   6.259   5.829
 2425SOL     OW 8173   6.580   0.457   4.155
 2425SOL    HW1 8174   6.567   0.521   4.230
 2425SOL    HW2 8175   6.574   0.363   4.191
 2426SOL     OW 8176   1.226   5.508   5.103
 2426SOL    HW1 8177   1.321   5.508   5.072
 2426SOL    HW2 8178   1.188   5.416   5.095
 2427SOL     OW 8179   5.549   5.673   6.355
 2427SOL    HW1 8180   5.604   5.636   6.280
 2427SOL    HW2 8181   5.455   5.688   6.324
 2428SOL     OW 8182   6.819   0.411   3.370
 2428SOL    HW1 8183   6.836   0.464   3.453
 2428SOL    HW2 8184   6.810   0.474   3.292
 2429SOL     OW 8185   6.227   5.616   4.230
 2429SOL    HW1 8186   6.159   5.635   4.300
 2429SOL    HW2 8187   6.302   5.564   4.270
 2430SOL     OW 8188   6.230   1.382   0.727
 2430SOL    HW1 8189   6.259   1.409   0.819
 2430SOL    HW2 8190   6.188   1.291   0.731
 2431SOL     OW 8191   3.946   0.230   2.114
 2431SOL    HW1 8192   4.020   0.237   2.181
 2431SOL    HW2 8193   3.930   0.320   2.073
 2432SOL     OW 8194   3.463   6.789   2.932
 2432SOL    HW1 8195   3.520   6.853   2.881
 2432SOL    HW2 8196   3.413   6.730   2.869
 2433SOL     OW 8197   3.274   6.936   1.377
 2433SOL    HW1 8198   3.242   6.850   1.335
 2433SOL    HW2 8199   3.202   7.005   1.367
 2434SOL     OW 8200   4.601   1.249   4.361
 2434SOL    HW1 8201   4.596   1.158   4.401
 2434SOL    HW2 8202   4.668   1.304   4.411
 2435SOL     OW 8203   4.215   5.010   5.872
 2435SOL    HW1 8204   4.121   4.978   5.863
 2435SOL    HW2 8205   4.226   5.095   5.820
 2436SOL     OW 8206   1.971   6.512   1.652
 2436SOL    HW1 8207   2.030   6.553   1.582
 2436SOL    HW2 8208   1.876   6.532   1.632
 2437SOL     OW 8209   3.670   5.973   0.814
 2437SOL    HW1 8210   3.740   5.963   0.743
 2437SOL    HW2 8211   3.671   5.893   0.873
 2438SOL     OW 8212   3.596   1.697   5.981
 2438SOL    HW1 8213   3.623   1.717   5.886
 2438SOL    HW2 8214   3.616   1.777   6.038
 2439SOL     OW 8215   0.863   4.083   6.891
 2439SOL    HW1 8216   0.880   4.159   6.827
 2439SOL    HW2 8217   0.869   3.996   6.841
 2440SOL     OW 8218   5.090   6.304   5.071
 2440SOL    HW1 8219   5.097   6.340   4.979
 2440SOL    HW2 8220   5.040   6.369   5.129
 2441SOL     OW 8221   6.677   0.241   6.955
 2441SOL    HW1 8222   6.720   0.289   0.005
 2441SOL    HW2 8223   6.591   0.286   6.933
 2442SOL     OW 8224   6.670   5.108   4.604
 2442SOL    HW1 8225   6.689   5.054   4.686
 2442SOL    HW2 8226   6.742   5.176   4.591
 2443SOL     OW 8227   3.862   6.500   5.256
 2443SOL    HW1 8228   3.871   6.488   5.157
 2443SOL    HW2 8229   3.868   6.597   5.279
 2444SOL     OW 8230   3.379   4.600   5.804
 2444SOL    HW1 8231   3.366   4.694   5.771
 2444SOL    HW2 8232   3.446   4.554   5.747
 2445SOL     OW 8233   0.604   0.374   1.707
 2445SOL    HW1 8234   0.673   0.419   1.650
 2445SOL    HW2 8235   0.525   0.349   1.651
 2446SOL     OW 8236   0.258   3.831   3.724
 2446SOL    HW1 8237   0.203   3.760   3.767
 2446SOL    HW2 8238   0.199   3.908   3.698
 2447SOL     OW 8239   3.059   1.753   0.518
 2447SOL    HW1 8240   3.047   1.844   0.481
 2447SOL    HW2 8241   3.092   1.691   0.447
 2448SOL     OW 8242   0.666   0.655   5.516
 2448SOL    HW1 8243   0.721   0.725   5.562
 2448SOL    HW2 8244   0.714   0.567   5.519
 2449SOL     OW 8245   0.035   4.648   1.488
 2449SOL    HW1 8246   0.065   4.732   1.532
 2449SOL    HW2 8247   0.039   4.572   1.553
 2450SOL     OW 8248   2.666   4.826   4.557
 2450SOL    HW1 8249   2.686   4.913   4.602
 2450SOL    HW2 8250   2.655   4.755   4.627
 2451SOL     OW 8251   0.587   0.218   3.573
 2451SOL    HW1 8252   0.532   0.299   3.555
 2451SOL    HW2 8253   0.551   0.141   3.520
 2452SOL     OW 8254   2.157   2.532   2.919
 2452SOL    HW1 8255   2.090   2.604   2.898
 2452SOL    HW2 8256   2.246   2.574   2.939
 2453SOL     OW 8257   6.491   3.732   1.243
 2453SOL    HW1 8258   6.464   3.757   1.150
 2453SOL    HW2 8259   6.410   3.728   1.302
 2454SOL     OW 8260   3.428   1.051   0.376
 2454SOL    HW1 8261   3.504   1.095   0.329
 2454SOL    HW2 8262   3.342   1.083   0.336
 2455SOL     OW 8263   5.532   6.694   0.646
 2455SOL    HW1 8264   5.483   6.673   0.731
 2455SOL    HW2 8265   5.587   6.614   0.619
 2456SOL     OW 8266   6.229   0.203   0.605
 2456SOL    HW1 8267   6.323   0.206   0.638
 2456SOL    HW2 8268   6.187   0.293   0.616
 2457SOL     OW 8269   6.719   6.192   0.252
 2457SOL    HW1 8270   6.747   6.248   0.330
 2457SOL    HW2 8271   6.691   6.252   0.177
 2458SOL     OW 8272   2.806   5.605   3.882
 2458SOL    HW1 8273   2.789   5.507   3.877
 2458SOL    HW2 8274   2.862   5.625   3.963
 2459SOL     OW 8275   2.601   6.708   0.580
 2459SOL    HW1 8276   2.674   6.679   0.641
 2459SOL    HW2 8277   2.520   6.732   0.633
 2460SOL     OW 8278   2.136   0.438   1.104
 2460SOL    HW1 8279   2.126   0.511   1.171
 2460SOL    HW2 8280   2.217   0.455   1.048
 2461SOL     OW 8281   4.932   0.609   2.935
 2461SOL    HW1 8282   4.945   0.523   2.885
 2461SOL    HW2 8283   4.947   0.686   2.874
 2462SOL     OW 8284   2.328   5.784   0.074
 2462SOL    HW1 8285   2.233   5.792   0.044
 2462SOL    HW2 8286   2.331   5.779   0.173
 2463SOL     OW 8287   6.008   2.446   4.517
 2463SOL    HW1 8288   6.007   2.382   4.440
 2463SOL    HW2 8289   6.057   2.528   4.491
 2464SOL     OW 8290   1.596   4.410   1.689
 2464SOL    HW1 8291   1.598   4.355   1.605
 2464SOL    HW2 8292   1.679   4.394   1.742
 2465SOL     OW 8293   6.690   5.817   0.927
 2465SOL    HW1 8294   6.706   5.835   0.830
 2465SOL    HW2 8295   6.603   5.858   0.954
 2466SOL     OW 8296   3.323   1.010   1.522
 2466SOL    HW1 8297   3.282   0.951   1.591
 2466SOL    HW2 8298   3.404   0.966   1.484
 2467SOL     OW 8299   5.482   1.904   5.778
 2467SOL    HW1 8300   5.533   1.979   5.822
 2467SOL    HW2 8301   5.385   1.928   5.774
 2468SOL     OW 8302   6.290   6.467   1.992
 2468SOL    HW1 8303   6.197   6.504   1.983
 2468SOL    HW2 8304   6.286   6.376   2.033
 2469SOL     OW 8305   3.698   4.910   5.139
 2469SOL    HW1 8306   3.603   4.884   5.162
 2469SOL    HW2 8307   3.700   4.949   5.047
 2470SOL     OW 8308   3.030   4.469   6.290
 2470SOL    HW1 8309   3.126   4.496   6.292
 2470SOL    HW2 8310   2.972   4.550   6.298
 2471SOL     OW 8311   1.882   6.025   1.755
 2471SOL    HW1 8312   1.938   6.082   1.696
 2471SOL    HW2 8313   1.846   5.947   1.704
 2472SOL     OW 8314   5.736   1.308   4.364
 2472SOL    HW1 8315   5.808   1.258   4.411
 2472SOL    HW2 8316   5.764   1.328   4.270
 2473SOL     OW 8317   1.736   4.013   5.287
 2473SOL    HW1 8318   1.792   3.946   5.336
 2473SOL    HW2 8319   1.651   4.029   5.338
 2474SOL     OW 8320   0.473   5.500   0.273
 2474SOL    HW1 8321   0.510   5.408   0.257
 2474SOL    HW2 8322   0.383   5.507   0.231
 2475SOL     OW 8323   4.382   1.224   0.987
 2475SOL    HW1 8324   4.422   1.153   1.045
 2475SOL    HW2 8325   4.292   1.249   1.023
 2476SOL     OW 8326   0.805   2.688   3.384
 2476SOL    HW1 8327   0.817   2.787   3.379
 2476SOL    HW2 8328   0.714   2.663   3.351
 2477SOL     OW 8329   6.257   0.329   2.272
 2477SOL    HW1 8330   6.177   0.333   2.332
 2477SOL    HW2 8331   6.278   0.234   2.251
 2478SOL     OW 8332   5.554   6.705   2.177
 2478SOL    HW1 8333   5.562   6.611   2.144
 2478SOL    HW2 8334   5.539   6.704   2.276
 2479SOL     OW 8335   0.758   3.557   1.661
 2479SOL    HW1 8336   0.722   3.517   1.746
 2479SOL    HW2 8337   0.686   3.611   1.617
 2480SOL     OW 8338   6.073   3.819   0.896
 2480SOL    HW1 8339   6.103   3.797   0.803
 2480SOL    HW2 8340   6.037   3.737   0.940
 2481SOL     OW 8341   3.193   6.574   0.631
 2481SOL    HW1 8342   3.240   6.625   0.703
 2481SOL    HW2 8343   3.261   6.541   0.564
 2482SOL     OW 8344   5.023   3.141   5.432
 2482SOL    HW1 8345   5.102   3.097   5.475
 2482SOL    HW2 8346   4.941   3.121   5.486
 2483SOL     OW 8347   2.505   1.606   6.999
 2483SOL    HW1 8348   2.595   1.572   0.000
 2483SOL    HW2 8349   2.460   1.537   6.942
 2484SOL     OW 8350   2.044   0.883   0.409
 2484SOL    HW1 8351   2.065   0.973   0.370
 2484SOL    HW2 8352   1.948   0.860   0.390
 2485SOL     OW 8353   4.523   5.013   1.829
 2485SOL    HW1 8354   4.515   5.054   1.738
 2485SOL    HW2 8355   4.525   5.086   1.897
 2486SOL     OW 8356   2.993   5.931   3.128
 2486SOL    HW1 8357   2.895   5.912   3.119
 2486SOL    HW2 8358   3.045   5.858   3.083
 2487SOL     OW 8359   3.840   5.330   6.918
 2487SOL    HW1 8360   3.928   5.312   6.876
 2487SOL    HW2 8361   3.852   5.394   6.994
 2488SOL     OW 8362   2.324   4.200   2.102
 2488SOL    HW1 8363   2.375   4.280   2.133
 2488SOL    HW2 8364   2.284   4.153   2.180
 2489SOL     OW 8365   2.282   4.633   3.956
 2489SOL    HW1 8366   2.292   4.684   4.042
 2489SOL    HW2 8367   2.336   4.676   3.885
 2490SOL     OW 8368   6.278   5.561   0.882
 2490SOL    HW1 8369   6.324   5.515   0.957
 2490SOL    HW2 8370   6.346   5.603   0.821
 2491SOL     OW 8371   2.098   5.570   3.188
 2491SOL    HW1 8372   2.011   5.576   3.236
 2491SOL    HW2 8373   2.159   5.643   3.220
 2492SOL     OW 8374   3.760   2.945   6.708
 2492SOL    HW1 8375   3.700   2.874   6.744
 2492SOL    HW2 8376   3.839   2.904   6.664
 2493SOL     OW 8377   6.071   0.086   3.125
 2493SOL    HW1 8378   6.166   0.104   3.148
 2493SOL    HW2 8379   6.035   0.013   3.184
 2494SOL     OW 8380   5.322   3.378   2.335
 2494SOL    HW1 8381   5.398   3.314   2.322
 2494SOL    HW2 8382   5.241   3.343   2.287
 2495SOL     OW 8383   4.918   0.432   5.330
 2495SOL    HW1 8384   4.862   0.492   5.388
 2495SOL    HW2 8385   4.915   0.466   5.235
 2496SOL     OW 8386   0.646   5.372   7.017
 2496SOL    HW1 8387   0.701   5.455   7.016
 2496SOL    HW2 8388   0.642   5.336   0.083
 2497SOL     OW 8389   0.278   1.856   0.203
 2497SOL    HW1 8390   0.224   1.922   0.255
 2497SOL    HW2 8391   0.277   1.768   0.250
 2498SOL     OW 8392   2.678   2.380   3.398
 2498SOL    HW1 8393   2.693   2.420   3.489
 2498SOL    HW2 8394   2.590   2.412   3.362
 2499SOL     OW 8395   5.546   1.119   4.466
 2499SOL    HW1 8396   5.518   1.038   4.415
 2499SOL    HW2 8397   5.588   1.185   4.404
 2500SOL     OW 8398   4.931   3.488   5.477
 2500SOL    HW1 8399   4.919   3.581   5.442
 2500SOL    HW2 8400   4.853   3.432   5.450
 2501SOL     OW 8401   6.213   5.010   6.773
 2501SOL    HW1 8402   6.232   5.039   6.866
 2501SOL    HW2 8403   6.256   4.921   6.756
 2502SOL     OW 8404   2.822   6.333   3.652
 2502SOL    HW1 8405   2.843   6.425   3.685
 2502SOL    HW2 8406   2.823   6.269   3.729
 2503SOL     OW 8407   3.790   5.672   5.753
 2503SOL    HW1 8408   3.866   5.712   5.701
 2503SOL    HW2 8409   3.747   5.744   5.808
 2504SOL     OW 8410   2.505   5.296   5.128
 2504SOL    HW1 8411   2.436   5.233   5.092
 2504SOL    HW2 8412   2.522   5.369   5.061
 2505SOL     OW 8413   2.853   6.209   4.592
 2505SOL    HW1 8414   2.922   6.174   4.529
 2505SOL    HW2 8415   2.864   6.164   4.681
 2506SOL     OW 8416   0.342   3.511   5.944
 2506SOL    HW1 8417   0.428   3.466   5.970
 2506SOL    HW2 8418   0.271   3.487   6.010
 2507SOL     OW 8419   5.933   5.011   6.792
 2507SOL    HW1 8420   6.033   5.008   6.799
 2507SOL    HW2 8421   5.905   5.095   6.746
 2508SOL     OW 8422   2.678   1.855   1.819
 2508SOL    HW1 8423   2.735   1.784   1.860
 2508SOL    HW2 8424   2.736   1.918   1.766
 2509SOL     OW 8425   5.639   2.420   2.656
 2509SOL    HW1 8426   5.660   2.409   2.559
 2509SOL    HW2 8427   5.599   2.336   2.692
 2510SOL     OW 8428   2.664   4.420   0.686
 2510SOL    HW1 8429   2.673   4.516   0.713
 2510SOL    HW2 8430   2.569   4.402   0.661
 2511SOL     OW 8431   1.263   1.619   4.695
 2511SOL    HW1 8432   1.256   1.610   4.596
 2511SOL    HW2 8433   1.305   1.536   4.733
 2512SOL     OW 8434   5.916   4.194   4.754
 2512SOL    HW1 8435   5.924   4.232   4.662
 2512SOL    HW2 8436   5.970   4.250   4.818
 2513SOL     OW 8437   1.293   2.380   6.110
 2513SOL    HW1 8438   1.244   2.467   6.118
 2513SOL    HW2 8439   1.279   2.343   6.019
 2514SOL     OW 8440   0.510   2.984   3.780
 2514SOL    HW1 8441   0.511   2.986   3.680
 2514SOL    HW2 8442   0.555   2.900   3.812
 2515SOL     OW 8443   1.179   6.339   1.251
 2515SOL    HW1 8444   1.205   6.410   1.186
 2515SOL    HW2 8445   1.259   6.312   1.305
 2516SOL     OW 8446   6.188   5.188   3.087
 2516SOL    HW1 8447   6.118   5.141   3.140
 2516SOL    HW2 8448   6.146   5.264   3.037
 2517SOL     OW 8449   2.266   5.766   6.469
 2517SOL    HW1 8450   2.314   5.839   6.420
 2517SOL    HW2 8451   2.198   5.723   6.409
 2518SOL     OW 8452   2.038   3.245   0.024
 2518SOL    HW1 8453   1.959   3.184   0.027
 2518SOL    HW2 8454   2.108   3.211   0.087
 2519SOL     OW 8455   4.705   4.792   4.369
 2519SOL    HW1 8456   4.772   4.718   4.359
 2519SOL    HW2 8457   4.679   4.825   4.279
 2520SOL     OW 8458   1.581   2.505   1.060
 2520SOL    HW1 8459   1.522   2.424   1.060
 2520SOL    HW2 8460   1.639   2.503   1.142
 2521SOL     OW 8461   1.103   0.069   5.821
 2521SOL    HW1 8462   1.166   0.040   5.749
 2521SOL    HW2 8463   1.020   0.106   5.780
 2522SOL     OW 8464   0.971   3.210   4.980
 2522SOL    HW1 8465   0.923   3.277   4.923
 2522SOL    HW2 8466   0.909   3.135   5.003
 2523SOL     OW 8467   6.566   2.868   0.752
 2523SOL    HW1 8468   6.662   2.838   0.750
 2523SOL    HW2 8469   6.559   2.952   0.805
 2524SOL     OW 8470   0.302   6.293   4.849
 2524SOL    HW1 8471   0.242   6.235   4.904
 2524SOL    HW2 8472   0.338   6.240   4.772
 2525SOL     OW 8473   1.842   3.347   4.064
 2525SOL    HW1 8474   1.800   3.336   4.153
 2525SOL    HW2 8475   1.850   3.258   4.019
 2526SOL     OW 8476   0.367   3.293   5.356
 2526SOL    HW1 8477   0.455   3.301   5.404
 2526SOL    HW2 8478   0.326   3.384   5.348
 2527SOL     OW 8479   6.082   0.249   5.350
 2527SOL    HW1 8480   6.018   0.176   5.326
 2527SOL    HW2 8481   6.127   0.227   5.437
 2528SOL     OW 8482   5.819   4.795   1.333
 2528SOL    HW1 8483   5.790   4.729   1.264
 2528SOL    HW2 8484   5.861   4.874   1.289
 2529SOL     OW 8485   5.692   4.781   5.877
 2529SOL    HW1 8486   5.709   4.874   5.910
 2529SOL    HW2 8487   5.636   4.732   5.943
 2530SOL     OW 8488   1.180   6.515   4.527
 2530SOL    HW1 8489   1.256   6.526   4.463
 2530SOL    HW2 8490   1.152   6.604   4.562
 2531SOL     OW 8491   5.707   6.417   4.700
 2531SOL    HW1 8492   5.615   6.432   4.734
 2531SOL    HW2 8493   5.711   6.327   4.655
 2532SOL     OW 8494   0.872   5.703   0.637
 2532SOL    HW1 8495   0.874   5.776   0.568
 2532SOL    HW2 8496   0.790   5.715   0.694
 2533SOL     OW 8497   5.648   6.647   5.041
 2533SOL    HW1 8498   5.735   6.649   4.990
 2533SOL    HW2 8499   5.650   6.571   5.106
 2534SOL     OW 8500   2.270   0.798   3.329
 2534SOL    HW1 8501   2.210   0.730   3.288
 2534SOL    HW2 8502   2.269   0.787   3.428
 2535SOL     OW 8503   2.016   1.794   6.264
 2535SOL    HW1 8504   2.052   1.726   6.328
 2535SOL    HW2 8505   1.916   1.794   6.267
 2536SOL     OW 8506   0.575   1.693   3.472
 2536SOL    HW1 8507   0.523   1.773   3.501
 2536SOL    HW2 8508   0.670   1.718   3.456
 2537SOL     OW 8509   4.682   6.332   0.509
 2537SOL    HW1 8510   4.647   6.275   0.583
 2537SOL    HW2 8511   4.702   6.424   0.544
 2538SOL     OW 8512   1.811   4.237   5.099
 2538SOL    HW1 8513   1.779   4.153   5.142
 2538SOL    HW2 8514   1.887   4.216   5.037
 2539SOL     OW 8515   4.139   6.760   5.469
 2539SOL    HW1 8516   4.173   6.702   5.544
 2539SOL    HW2 8517   4.101   6.844   5.507
 2540SOL     OW 8518   5.191   1.095   1.334
 2540SOL    HW1 8519   5.174   1.011   1.284
 2540SOL    HW2 8520   5.173   1.174   1.274
 2541SOL     OW 8521   1.341   0.537   5.686
 2541SOL    HW1 8522   1.257   0.503   5.644
 2541SOL    HW2 8523   1.326   0.629   5.723
 2542SOL     OW 8524   3.886   2.152   4.491
 2542SOL    HW1 8525   3.966   2.184   4.442
 2542SOL    HW2 8526   3.807   2.150   4.429
 2543SOL     OW 8527   2.068   0.862   2.905
 2543SOL    HW1 8528   2.010   0.937   2.874
 2543SOL    HW2 8529   2.114   0.820   2.827
 2544SOL     OW 8530   0.566   4.957   2.073
 2544SOL    HW1 8531   0.538   4.889   2.140
 2544SOL    HW2 8532   0.489   4.976   2.011
 2545SOL     OW 8533   1.435   1.247   1.551
 2545SOL    HW1 8534   1.507   1.245   1.619
 2545SOL    HW2 8535   1.464   1.196   1.469
 2546SOL     OW 8536   6.854   3.188   0.730
 2546SOL    HW1 8537   6.899   3.253   0.791
 2546SOL    HW2 8538   6.758   3.180   0.755
 2547SOL     OW 8539   5.593   5.612   0.645
 2547SOL    HW1 8540   5.509   5.588   0.597
 2547SOL    HW2 8541   5.591   5.708   0.671
 2548SOL     OW 8542   2.493   0.450   4.630
 2548SOL    HW1 8543   2.475   0.472   4.726
 2548SOL    HW2 8544   2.410   0.462   4.576
 2549SOL     OW 8545   2.236   2.517   1.746
 2549SOL    HW1 8546   2.288   2.563   1.817
 2549SOL    HW2 8547   2.273   2.426   1.731
 2550SOL     OW 8548   5.392   0.942   6.965
 2550SOL    HW1 8549   5.300   0.978   6.983
 2550SOL    HW2 8550   5.396   0.845   6.991
 2551SOL     OW 8551   3.598   5.387   6.857
 2551SOL    HW1 8552   3.586   5.466   6.916
 2551SOL    HW2 8553   3.690   5.350   6.870
 2552SOL     OW 8554   2.374   5.369   6.849
 2552SOL    HW1 8555   2.466   5.347   6.882
 2552SOL    HW2 8556   2.380   5.433   6.773
 2553SOL     OW 8557   3.301   2.783   6.251
 2553SOL    HW1 8558   3.217   2.837   6.248
 2553SOL    HW2 8559   3.350   2.792   6.165
 2554SOL     OW 8560   1.574   5.857   6.804
 2554SOL    HW1 8561   1.525   5.813   6.729
 2554SOL    HW2 8562   1.623   5.788   6.857
 2555SOL     OW 8563   6.004   6.390   6.663
 2555SOL    HW1 8564   6.004   6.332   6.581
 2555SOL    HW2 8565   5.913   6.428   6.677
 2556SOL     OW 8566   4.123   0.106   1.251
 2556SOL    HW1 8567   4.119   0.033   1.319
 2556SOL    HW2 8568   4.178   0.076   1.173
 2557SOL     OW 8569   2.606   0.320   6.917
 2557SOL    HW1 8570   2.541   0.373   6.970
 2557SOL    HW2 8571   2.667   0.270   6.978
 2558SOL     OW 8572   4.541   4.019   5.531
 2558SOL    HW1 8573   4.524   4.093   5.467
 2558SOL    HW2 8574   4.520   3.931   5.488
 2559SOL     OW 8575   6.623   3.358   3.670
 2559SOL    HW1 8576   6.715   3.329   3.642
 2559SOL    HW2 8577   6.598   3.310   3.755
 2560SOL     OW 8578   5.318   3.699   3.597
 2560SOL    HW1 8579   5.321   3.669   3.692
 2560SOL    HW2 8580   5.224   3.689   3.562
 2561SOL     OW 8581   3.662   1.567   3.183
 2561SOL    HW1 8582   3.708   1.553   3.095
 2561SOL    HW2 8583   3.610   1.652   3.180
 2562SOL     OW 8584   2.906   5.856   3.444
 2562SOL    HW1 8585   2.938   5.843   3.537
 2562SOL    HW2 8586   2.959   5.799   3.381
 2563SOL     OW 8587   3.130   1.475   6.117
 2563SOL    HW1 8588   3.158   1.562   6.157
 2563SOL    HW2 8589   3.163   1.470   6.023
 2564SOL     OW 8590   1.960   6.749   0.231
 2564SOL    HW1 8591   1.960   6.652   0.205
 2564SOL    HW2 8592   1.890   6.764   0.301
 2565SOL     OW 8593   0.365   0.702   6.971
 2565SOL    HW1 8594   0.403   0.752   0.021
 2565SOL    HW2 8595   0.437   0.686   6.903
 2566SOL     OW 8596   2.324   6.452   1.687
 2566SOL    HW1 8597   2.304   6.525   1.621
 2566SOL    HW2 8598   2.293   6.480   1.778
 2567SOL     OW 8599   1.558   1.232   1.080
 2567SOL    HW1 8600   1.631   1.297   1.099
 2567SOL    HW2 8601   1.564   1.201   0.985
 2568SOL     OW 8602   2.824   6.688   0.764
 2568SOL    HW1 8603   2.792   6.607   0.813
 2568SOL    HW2 8604   2.898   6.731   0.816
 2569SOL     OW 8605   2.492   1.942   1.993
 2569SOL    HW1 8606   2.572   1.926   1.934
 2569SOL    HW2 8607   2.422   1.874   1.972
 2570SOL     OW 8608   4.590   6.238   6.325
 2570SOL    HW1 8609   4.578   6.336   6.308
 2570SOL    HW2 8610   4.645   6.197   6.252
 2571SOL     OW 8611   3.876   3.130   4.464
 2571SOL    HW1 8612   3.799   3.193   4.470
 2571SOL    HW2 8613   3.844   3.037   4.480
 2572SOL     OW 8614   2.263   6.190   1.156
 2572SOL    HW1 8615   2.218   6.184   1.067
 2572SOL    HW2 8616   2.229   6.117   1.216
 2573SOL     OW 8617   6.552   1.485   2.944
 2573SOL    HW1 8618   6.502   1.518   3.023
 2573SOL    HW2 8619   6.495   1.496   2.862
 2574SOL     OW 8620   6.228   3.565   0.857
 2574SOL    HW1 8621   6.295   3.630   0.820
 2574SOL    HW2 8622   6.264   3.527   0.943
 2575SOL     OW 8623   5.378   3.358   1.653
 2575SOL    HW1 8624   5.459   3.359   1.711
 2575SOL    HW2 8625   5.340   3.265   1.650
 2576SOL     OW 8626   3.673   0.074   3.905
 2576SOL    HW1 8627   3.736   0.107   3.835
 2576SOL    HW2 8628   3.725   0.050   3.987
 2577SOL     OW 8629   4.979   0.388   3.513
 2577SOL    HW1 8630   5.056   0.378   3.576
 2577SOL    HW2 8631   5.007   0.363   3.420
 2578SOL     OW 8632   4.714   2.694   5.354
 2578SOL    HW1 8633   4.660   2.731   5.278
 2578SOL    HW2 8634   4.652   2.653   5.421
 2579SOL     OW 8635   1.276   1.700   5.319
 2579SOL    HW1 8636   1.187   1.741   5.335
 2579SOL    HW2 8637   1.265   1.615   5.267
 2580SOL     OW 8638   2.028   2.462   6.158
 2580SOL    HW1 8639   1.986   2.402   6.090
 2580SOL    HW2 8640   1.982   2.551   6.157
 2581SOL     OW 8641   5.828   4.619   1.753
 2581SOL    HW1 8642   5.779   4.540   1.716
 2581SOL    HW2 8643   5.810   4.626   1.851
 2582SOL     OW 8644   2.142   4.915   2.997
 2582SOL    HW1 8645   2.147   4.816   3.007
 2582SOL    HW2 8646   2.104   4.956   3.080
 2583SOL     OW 8647   1.525   0.705   0.794
 2583SOL    HW1 8648   1.510   0.792   0.841
 2583SOL    HW2 8649   1.554   0.722   0.700
 2584SOL     OW 8650   4.096   5.983   0.763
 2584SOL    HW1 8651   4.069   6.066   0.715
 2584SOL    HW2 8652   4.059   5.903   0.715
 2585SOL     OW 8653   3.172   0.540   0.720
 2585SOL    HW1 8654   3.212   0.530   0.812
 2585SOL    HW2 8655   3.111   0.619   0.719
 2586SOL     OW 8656   5.453   1.735   4.343
 2586SOL    HW1 8657   5.354   1.736   4.356
 2586SOL    HW2 8658   5.490   1.649   4.377
 2587SOL     OW 8659   6.756   0.535   4.863
 2587SOL    HW1 8660   6.659   0.550   4.883
 2587SOL    HW2 8661   6.777   0.437   4.869
 2588SOL     OW 8662   4.338   0.152   0.371
 2588SOL    HW1 8663   4.332   0.175   0.468
 2588SOL    HW2 8664   4.349   0.053   0.361
 2589SOL     OW 8665   0.725   6.654   5.591
 2589SOL    HW1 8666   0.719   6.735   5.648
 2589SOL    HW2 8667   0.803   6.663   5.528
 2590SOL     OW 8668   3.902   0.014   2.745
 2590SOL    HW1 8669   3.987   0.066   2.745
 2590SOL    HW2 8670   3.830   0.067   2.791
 2591SOL     OW 8671   5.029   5.961   2.587
 2591SOL    HW1 8672   5.008   5.868   2.558
 2591SOL    HW2 8673   5.030   5.965   2.687
 2592SOL     OW 8674   2.629   6.448   1.799
 2592SOL    HW1 8675   2.683   6.526   1.768
 2592SOL    HW2 8676   2.538   6.453   1.759
 2593SOL     OW 8677   3.794   6.562   2.253
 2593SOL    HW1 8678   3.816   6.564   2.351
 2593SOL    HW2 8679   3.703   6.601   2.239
 2594SOL     OW 8680   0.269   6.496   6.037
 2594SOL    HW1 8681   0.329   6.475   6.114
 2594SOL    HW2 8682   0.287   6.589   6.005
 2595SOL     OW 8683   0.010   2.138   5.770
 2595SOL    HW1 8684   0.096   2.147   5.720
 2595SOL    HW2 8685   0.014   2.193   5.854
 2596SOL     OW 8686   3.863   2.018   2.067
 2596SOL    HW1 8687   3.779   2.072   2.059
 2596SOL    HW2 8688   3.942   2.076   2.047
 2597SOL     OW 8689   2.160   3.669   0.712
 2597SOL    HW1 8690   2.132   3.764   0.696
 2597SOL    HW2 8691   2.175   3.655   0.810
 2598SOL     OW 8692   5.638   2.182   4.486
 2598SOL    HW1 8693   5.622   2.233   4.571
 2598SOL    HW2 8694   5.667   2.246   4.415
 2599SOL     OW 8695   3.816   5.629   0.026
 2599SOL    HW1 8696   3.830   5.692   6.977
 2599SOL    HW2 8697   3.718   5.614   0.039
 2600SOL     OW 8698   4.906   3.846   4.555
 2600SOL    HW1 8699   5.004   3.833   4.535
 2600SOL    HW2 8700   4.874   3.770   4.612
 2601SOL     OW 8701   4.033   2.192   6.468
 2601SOL    HW1 8702   4.054   2.276   6.517
 2601SOL    HW2 8703   4.106   2.126   6.481
 2602SOL     OW 8704   0.035   4.884   3.716
 2602SOL    HW1 8705   0.133   4.875   3.699
 2602SOL    HW2 8706   0.009   4.826   3.794
 2603SOL     OW 8707   2.906   1.990   1.542
 2603SOL    HW1 8708   2.816   1.999   1.499
 2603SOL    HW2 8709   2.928   2.074   1.591
 2604SOL     OW 8710   4.813   1.216   1.554
 2604SOL    HW1 8711   4.775   1.160   1.628
 2604SOL    HW2 8712   4.913   1.214   1.558
 2605SOL     OW 8713   4.154   5.247   3.461
 2605SOL    HW1 8714   4.085   5.309   3.423
 2605SOL    HW2 8715   4.174   5.274   3.555
 2606SOL     OW 8716   6.577   4.604   0.506
 2606SOL    HW1 8717   6.646   4.668   0.473
 2606SOL    HW2 8718   6.486   4.643   0.494
 2607SOL     OW 8719   0.258   1.912   6.013
 2607SOL    HW1 8720   0.165   1.879   6.027
 2607SOL    HW2 8721   0.319   1.874   6.082
 2608SOL     OW 8722   4.264   5.981   2.749
 2608SOL    HW1 8723   4.235   6.003   2.842
 2608SOL    HW2 8724   4.298   6.063   2.704
 2609SOL     OW 8725   0.603   2.605   1.395
 2609SOL    HW1 8726   0.690   2.643   1.364
 2609SOL    HW2 8727   0.619   2.540   1.469
 2610SOL     OW 8728   6.661   5.517   3.951
 2610SOL    HW1 8729   6.693   5.428   3.984
 2610SOL    HW2 8730   6.619   5.505   3.861
 2611SOL     OW 8731   6.075   6.875   1.063
 2611SOL    HW1 8732   6.044   6.859   0.969
 2611SOL    HW2 8733   6.152   6.938   1.062
 2612SOL     OW 8734   6.445   6.815   5.523
 2612SOL    HW1 8735   6.414   6.832   5.429
 2612SOL    HW2 8736   6.420   6.722   5.551
 2613SOL     OW 8737   2.750   6.171   1.713
 2613SOL    HW1 8738   2.728   6.245   1.649
 2613SOL    HW2 8739   2.701   6.088   1.687
 2614SOL     OW 8740   6.495   6.528   5.700
 2614SOL    HW1 8741   6.452   6.568   5.781
 2614SOL    HW2 8742   6.472   6.431   5.694
 2615SOL     OW 8743   5.626   4.342   3.245
 2615SOL    HW1 8744   5.577   4.387   3.320
 2615SOL    HW2 8745   5.714   4.309   3.280
 2616SOL     OW 8746   3.624   3.725   3.931
 2616SOL    HW1 8747   3.591   3.795   3.867
 2616SOL    HW2 8748   3.571   3.641   3.919
 2617SOL     OW 8749   3.061   6.616   1.630
 2617SOL    HW1 8750   3.025   6.696   1.678
 2617SOL    HW2 8751   3.133   6.645   1.567
 2618SOL     OW 8752   0.439   6.691   3.754
 2618SOL    HW1 8753   0.376   6.644   3.693
 2618SOL    HW2 8754   0.389   6.728   3.832
 2619SOL     OW 8755   3.550   1.382   3.339
 2619SOL    HW1 8756   3.527   1.433   3.421
 2619SOL    HW2 8757   3.598   1.441   3.274
 2620SOL     OW 8758   0.855   5.910   3.488
 2620SOL    HW1 8759   0.900   5.875   3.406
 2620SOL    HW2 8760   0.894   5.865   3.569
 2621SOL     OW 8761   1.617   5.937   3.252
 2621SOL    HW1 8762   1.576   5.915   3.163
 2621SOL    HW2 8763   1.701   5.990   3.238
 2622SOL     OW 8764   2.258   2.112   6.068
 2622SOL    HW1 8765   2.187   2.147   6.008
 2622SOL    HW2 8766   2.241   2.142   6.162
 2623SOL     OW 8767   3.208   1.858   4.936
 2623SOL    HW1 8768   3.221   1.957   4.936
 2623SOL    HW2 8769   3.188   1.827   5.029
 2624SOL     OW 8770   6.514   3.396   4.202
 2624SOL    HW1 8771   6.611   3.405   4.221
 2624SOL    HW2 8772   6.461   3.437   4.276
 2625SOL     OW 8773   2.537   2.752   5.266
 2625SOL    HW1 8774   2.507   2.841   5.231
 2625SOL    HW2 8775   2.637   2.754   5.278
 2626SOL     OW 8776   0.624   6.982   4.353
 2626SOL    HW1 8777   0.619   6.914   4.426
 2626SOL    HW2 8778   0.532   6.999   4.316
 2627SOL     OW 8779   0.354   0.841   4.110
 2627SOL    HW1 8780   0.256   0.855   4.128
 2627SOL    HW2 8781   0.400   0.930   4.104
 2628SOL     OW 8782   3.171   5.689   6.629
 2628SOL    HW1 8783   3.143   5.781   6.601
 2628SOL    HW2 8784   3.203   5.638   6.548
 2629SOL     OW 8785   3.492   3.874   2.313
 2629SOL    HW1 8786   3.493   3.852   2.410
 2629SOL    HW2 8787   3.484   3.973   2.301
 2630SOL     OW 8788   3.686   1.863   3.122
 2630SOL    HW1 8789   3.761   1.816   3.076
 2630SOL    HW2 8790   3.679   1.957   3.088
 2631SOL     OW 8791   4.925   0.215   4.268
 2631SOL    HW1 8792   4.862   0.159   4.322
 2631SOL    HW2 8793   4.932   0.177   4.176
 2632SOL     OW 8794   2.403   1.853   5.812
 2632SOL    HW1 8795   2.436   1.943   5.784
 2632SOL    HW2 8796   2.412   1.843   5.911
 2633SOL     OW 8797   6.174   2.390   6.010
 2633SOL    HW1 8798   6.244   2.380   6.081
 2633SOL    HW2 8799   6.113   2.465   6.035
 2634SOL     OW 8800   2.178   3.927   3.117
 2634SOL    HW1 8801   2.221   3.952   3.203
 2634SOL    HW2 8802   2.140   3.835   3.123
 2635SOL     OW 8803   6.004   5.774   4.617
 2635SOL    HW1 8804   5.976   5.722   4.536
 2635SOL    HW2 8805   6.001   5.872   4.596
 2636SOL     OW 8806   4.852   0.610   6.178
 2636SOL    HW1 8807   4.932   0.658   6.143
 2636SOL    HW2 8808   4.771   0.638   6.126
 2637SOL     OW 8809   6.205   1.114   3.656
 2637SOL    HW1 8810   6.181   1.018   3.650
 2637SOL    HW2 8811   6.173   1.151   3.743
 2638SOL     OW 8812   0.115   6.737   3.030
 2638SOL    HW1 8813   0.126   6.734   2.931
 2638SOL    HW2 8814   0.025   6.700   3.055
 2639SOL     OW 8815   0.203   0.223   2.116
 2639SOL    HW1 8816   0.260   0.195   2.194
 2639SOL    HW2 8817   0.152   0.306   2.140
 2640SOL     OW 8818   6.812   6.004   5.385
 2640SOL    HW1 8819   6.899   6.052   5.374
 2640SOL    HW2 8820   6.770   5.989   5.296
 2641SOL     OW 8821   5.352   2.705   1.914
 2641SOL    HW1 8822   5.279   2.773   1.915
 2641SOL    HW2 8823   5.315   2.614   1.932
 2642SOL     OW 8824   5.505   7.009   4.536
 2642SOL    HW1 8825   5.415   0.018   4.560
 2642SOL    HW2 8826   5.509   6.912   4.558
 2643SOL     OW 8827   1.263   5.008   3.408
 2643SOL    HW1 8828   1.289   5.093   3.362
 2643SOL    HW2 8829   1.175   5.019   3.453
 2644SOL     OW 8830   7.007   4.434   5.593
 2644SOL    HW1 8831   0.027   4.350   5.620
 2644SOL    HW2 8832   6.938   4.412   5.524
 2645SOL     OW 8833   4.766   6.322   4.334
 2645SOL    HW1 8834   4.704   6.332   4.411
 2645SOL    HW2 8835   4.729   6.371   4.255
 2646SOL     OW 8836   5.772   6.700   6.422
 2646SOL    HW1 8837   5.720   6.722   6.505
 2646SOL    HW2 8838   5.855   6.651   6.448
 2647SOL     OW 8839   5.127   0.704   1.051
 2647SOL    HW1 8840   5.210   0.647   1.053
 2647SOL    HW2 8841   5.152   0.798   1.029
 2648SOL     OW 8842   6.820   0.416   4.013
 2648SOL    HW1 8843   6.816   0.330   3.962
 2648SOL    HW2 8844   6.737   0.427   4.068
 2649SOL     OW 8845   4.731   1.995   6.407
 2649SOL    HW1 8846   4.713   2.079   6.457
 2649SOL    HW2 8847   4.810   2.008   6.346
 2650SOL     OW 8848   0.699   4.046   3.728
 2650SOL    HW1 8849   0.635   3.989   3.779
 2650SOL    HW2 8850   0.752   3.989   3.666
 2651SOL     OW 8851   1.105   1.371   0.458
 2651SOL    HW1 8852   1.063   1.391   0.546
 2651SOL    HW2 8853   1.203   1.353   0.471
 2652SOL     OW 8854   3.090   3.823   3.714
 2652SOL    HW1 8855   3.161   3.762   3.747
 2652SOL    HW2 8856   3.002   3.798   3.756
 2653SOL     OW 8857   5.107   0.198   4.896
 2653SOL    HW1 8858   5.028   0.172   4.841
 2653SOL    HW2 8859   5.079   0.212   4.991
 2654SOL     OW 8860   4.977   3.720   0.613
 2654SOL    HW1 8861   4.980   3.820   0.623
 2654SOL    HW2 8862   4.882   3.689   0.614
 2655SOL     OW 8863   4.874   4.537   4.299
 2655SOL    HW1 8864   4.864   4.527   4.200
 2655SOL    HW2 8865   4.892   4.447   4.340
 2656SOL     OW 8866   4.346   5.143   4.266
 2656SOL    HW1 8867   4.256   5.099   4.262
 2656SOL    HW2 8868   4.381   5.139   4.360
 2657SOL     OW 8869   2.635   4.456   6.392
 2657SOL    HW1 8870   2.546   4.416   6.413
 2657SOL    HW2 8871   2.705   4.385   6.396
 2658SOL     OW 8872   5.462   3.878   0.639
 2658SOL    HW1 8873   5.559   3.900   0.632
 2658SOL    HW2 8874   5.451   3.786   0.677
 2659SOL     OW 8875   6.518   2.396   4.545
 2659SOL    HW1 8876   6.463   2.368   4.466
 2659SOL    HW2 8877   6.589   2.460   4.516
 2660SOL     OW 8878   0.316   1.557   1.361
 2660SOL    HW1 8879   0.341   1.465   1.333
 2660SOL    HW2 8880   0.260   1.553   1.444
 2661SOL     OW 8881   2.401   6.215   2.355
 2661SOL    HW1 8882   2.442   6.146   2.297
 2661SOL    HW2 8883   2.459   6.296   2.357
 2662SOL     OW 8884   4.589   0.003   5.361
 2662SOL    HW1 8885   4.588   0.002   5.461
 2662SOL    HW2 8886   4.628   0.089   5.329
 2663SOL     OW 8887   2.932   4.049   1.461
 2663SOL    HW1 8888   2.936   4.089   1.553
 2663SOL    HW2 8889   2.880   4.109   1.401
 2664SOL     OW 8890   3.918   3.979   4.111
 2664SOL    HW1 8891   3.873   4.027   4.035
 2664SOL    HW2 8892   3.971   3.902   4.075
 2665SOL     OW 8893   2.709   1.661   4.689
 2665SOL    HW1 8894   2.788   1.603   4.667
 2665SOL    HW2 8895   2.733   1.757   4.674
 2666SOL     OW 8896   4.336   3.858   1.591
 2666SOL    HW1 8897   4.399   3.923   1.633
 2666SOL    HW2 8898   4.244   3.898   1.588
 2667SOL     OW 8899   1.849   6.059   4.478
 2667SOL    HW1 8900   1.829   6.156   4.467
 2667SOL    HW2 8901   1.900   6.045   4.563
 2668SOL     OW 8902   6.768   3.107   3.203
 2668SOL    HW1 8903   6.671   3.094   3.184
 2668SOL    HW2 8904   6.806   3.024   3.244
 2669SOL     OW 8905   3.001   4.800   5.205
 2669SOL    HW1 8906   3.000   4.859   5.125
 2669SOL    HW2 8907   2.959   4.712   5.183
 2670SOL     OW 8908   5.758   1.664   6.507
 2670SOL    HW1 8909   5.795   1.604   6.436
 2670SOL    HW2 8910   5.733   1.609   6.587
 2671SOL     OW 8911   3.332   5.174   0.447
 2671SOL    HW1 8912   3.267   5.249   0.448
 2671SOL    HW2 8913   3.288   5.091   0.481
 2672SOL     OW 8914   0.187   5.512   6.909
 2672SOL    HW1 8915   0.205   5.588   6.847
 2672SOL    HW2 8916   0.121   5.449   6.866
 2673SOL     OW 8917   6.133   2.085   4.085
 2673SOL    HW1 8918   6.123   1.994   4.044
 2673SOL    HW2 8919   6.191   2.141   4.027
 2674SOL     OW 8920   1.913   3.949   4.839
 2674SOL    HW1 8921   1.861   3.886   4.781
 2674SOL    HW2 8922   2.008   3.918   4.845
 2675SOL     OW 8923   0.538   4.885   4.639
 2675SOL    HW1 8924   0.510   4.955   4.574
 2675SOL    HW2 8925   0.604   4.824   4.596
 2676SOL     OW 8926   4.154   1.000   2.927
 2676SOL    HW1 8927   4.135   1.051   2.843
 2676SOL    HW2 8928   4.245   1.023   2.959
 2677SOL     OW 8929   3.188   4.888   0.333
 2677SOL    HW1 8930   3.136   4.968   0.303
 2677SOL    HW2 8931   3.247   4.857   0.259
 2678SOL     OW 8932   6.992   3.719   1.152
 2678SOL    HW1 8933   6.941   3.730   1.067
 2678SOL    HW2 8934   6.939   3.756   1.228
 2679SOL     OW 8935   4.365   5.146   1.008
 2679SOL    HW1 8936   4.358   5.214   0.934
 2679SOL    HW2 8937   4.350   5.191   1.096
 2680SOL     OW 8938   1.786   1.611   0.935
 2680SOL    HW1 8939   1.760   1.633   0.841
 2680SOL    HW2 8940   1.853   1.678   0.967
 2681SOL     OW 8941   1.600   2.386   4.679
 2681SOL    HW1 8942   1.561   2.450   4.745
 2681SOL    HW2 8943   1.531   2.363   4.610
 2682SOL     OW 8944   5.442   3.821   2.366
 2682SOL    HW1 8945   5.407   3.865   2.448
 2682SOL    HW2 8946   5.526   3.771   2.388
 2683SOL     OW 8947   1.229   3.568   0.067
 2683SOL    HW1 8948   1.214   3.595   6.999
 2683SOL    HW2 8949   1.319   3.526   0.076
 2684SOL     OW 8950   4.234   5.559   2.980
 2684SOL    HW1 8951   4.196   5.616   3.053
 2684SOL    HW2 8952   4.319   5.517   3.011
 2685SOL     OW 8953   0.070   6.803   6.131
 2685SOL    HW1 8954   0.033   6.861   6.203
 2685SOL    HW2 8955   0.012   6.809   6.050
 2686SOL     OW 8956   1.735   1.805   5.456
 2686SOL    HW1 8957   1.708   1.876   5.391
 2686SOL    HW2 8958   1.770   1.848   5.539
 2687SOL     OW 8959   4.136   4.758   3.116
 2687SOL    HW1 8960   4.188   4.691   3.063
 2687SOL    HW2 8961   4.159   4.749   3.213
 2688SOL     OW 8962   4.681   5.575   6.572
 2688SOL    HW1 8963   4.605   5.638   6.585
 2688SOL    HW2 8964   4.756   5.621   6.525
 2689SOL     OW 8965   2.284   1.951   3.184
 2689SOL    HW1 8966   2.323   1.998   3.105
 2689SOL    HW2 8967   2.357   1.904   3.234
 2690SOL     OW 8968   3.141   4.063   3.964
 2690SOL    HW1 8969   3.107   4.041   4.055
 2690SOL    HW2 8970   3.091   4.009   3.896
 2691SOL     OW 8971   1.108   5.598   2.203
 2691SOL    HW1 8972   1.057   5.596   2.290
 2691SOL    HW2 8973   1.176   5.525   2.203
 2692SOL     OW 8974   4.574   5.253   3.914
 2692SOL    HW1 8975   4.504   5.325   3.920
 2692SOL    HW2 8976   4.533   5.165   3.939
 2693SOL     OW 8977   1.600   4.107   2.509
 2693SOL    HW1 8978   1.681   4.151   2.549
 2693SOL    HW2 8979   1.568   4.161   2.432
 2694SOL     OW 8980   3.925   0.923   2.556
 2694SOL    HW1 8981   3.932   0.851   2.626
 2694SOL    HW2 8982   3.970   1.006   2.589
 2695SOL     OW 8983   5.629   1.335   2.693
 2695SOL    HW1 8984   5.683   1.376   2.620
 2695SOL    HW2 8985   5.635   1.236   2.688
 2696SOL     OW 8986   3.669   3.207   5.275
 2696SOL    HW1 8987   3.752   3.220   5.221
 2696SOL    HW2 8988   3.654   3.287   5.333
 2697SOL     OW 8989   4.348   1.824   3.313
 2697SOL    HW1 8990   4.419   1.755   3.296
 2697SOL    HW2 8991   4.266   1.778   3.346
 2698SOL     OW 8992   1.792   5.202   0.909
 2698SOL    HW1 8993   1.709   5.255   0.926
 2698SOL    HW2 8994   1.858   5.217   0.983
 2699SOL     OW 8995   3.345   5.644   0.360
 2699SOL    HW1 8996   3.412   5.689   0.420
 2699SOL    HW2 8997   3.304   5.566   0.408
 2700SOL     OW 8998   1.942   3.713   1.273
 2700SOL    HW1 8999   1.989   3.753   1.352
 2700SOL    HW2 9000   1.881   3.781   1.233
 2701SOL     OW 9001   3.765   6.988   6.560
 2701SOL    HW1 9002   3.834   0.001   6.621
 2701SOL    HW2 9003   3.692   6.948   6.616
 2702SOL     OW 9004   0.399   2.373   3.422
 2702SOL    HW1 9005   0.390   2.292   3.365
 2702SOL    HW2 9006   0.310   2.400   3.458
 2703SOL     OW 9007   2.063   0.947   2.592
 2703SOL    HW1 9008   2.088   0.851   2.583
 2703SOL    HW2 9009   1.987   0.967   2.531
 2704SOL     OW 9010   0.654   5.200   1.021
 2704SOL    HW1 9011   0.636   5.285   0.971
 2704SOL    HW2 9012   0.751   5.198   1.047
 2705SOL     OW 9013   1.770   5.640   4.488
 2705SOL    HW1 9014   1.855   5.673   4.529
 2705SOL    HW2 9015   1.693   5.660   4.549
 2706SOL     OW 9016   0.364   0.628   1.117
 2706SOL    HW1 9017   0.444   0.629   1.058
 2706SOL    HW2 9018   0.374   0.555   1.185
 2707SOL     OW 9019   2.003   0.482   5.436
 2707SOL    HW1 9020   2.057   0.530   5.367
 2707SOL    HW2 9021   2.061   0.463   5.516
 2708SOL     OW 9022   1.675   2.142   1.399
 2708SOL    HW1 9023   1.646   2.047   1.406
 2708SOL    HW2 9024   1.763   2.146   1.352
 2709SOL     OW 9025   5.409   6.614   0.874
 2709SOL    HW1 9026   5.465   6.664   0.940
 2709SOL    HW2 9027   5.313   6.640   0.885
 2710SOL     OW 9028   6.916   2.576   2.779
 2710SOL    HW1 9029   6.889   2.647   2.715
 2710SOL    HW2 9030   6.928   2.616   2.870
 2711SOL     OW 9031   3.029   1.148   3.308
 2711SOL    HW1 9032   3.011   1.122   3.402
 2711SOL    HW2 9033   3.010   1.246   3.296
 2712SOL     OW 9034   3.152   5.548   1.285
 2712SOL    HW1 9035   3.079   5.488   1.256
 2712SOL    HW2 9036   3.197   5.509   1.366
 2713SOL     OW 9037   1.698   1.718   4.882
 2713SOL    HW1 9038   1.771   1.786   4.871
 2713SOL    HW2 9039   1.692   1.692   4.979
 2714SOL     OW 9040   4.790   2.077   6.781
 2714SOL    HW1 9041   4.796   2.132   6.698
 2714SOL    HW2 9042   4.694   2.070   6.810
 2715SOL     OW 9043   5.728   0.383   0.266
 2715SOL    HW1 9044   5.793   0.460   0.265
 2715SOL    HW2 9045   5.778   0.298   0.246
 2716SOL     OW 9046   5.772   5.467   2.173
 2716SOL    HW1 9047   5.785   5.403   2.097
 2716SOL    HW2 9048   5.738   5.554   2.137
 2717SOL     OW 9049   0.881   4.991   1.521
 2717SOL    HW1 9050   0.914   4.981   1.614
 2717SOL    HW2 9051   0.838   4.906   1.491
 2718SOL     OW 9052   2.162   3.864   4.840
 2718SOL    HW1 9053   2.165   3.779   4.893
 2718SOL    HW2 9054   2.222   3.932   4.882
 2719SOL     OW 9055   5.367   4.953   1.743
 2719SOL    HW1 9056   5.452   4.983   1.701
 2719SOL    HW2 9057   5.293   5.013   1.714
 2720SOL     OW 9058   1.996   6.113   3.486
 2720SOL    HW1 9059   2.015   6.087   3.581
 2720SOL    HW2 9060   1.930   6.189   3.485
 2721SOL     OW 9061   3.414   0.241   4.222
 2721SOL    HW1 9062   3.376   0.152   4.249
 2721SOL    HW2 9063   3.339   0.306   4.208
 2722SOL     OW 9064   6.383   5.168   2.789
 2722SOL    HW1 9065   6.427   5.185   2.701
 2722SOL    HW2 9066   6.406   5.242   2.852
 2723SOL     OW 9067   1.344   7.014   5.703
 2723SOL    HW1 9068   1.418   6.986   5.763
 2723SOL    HW2 9069   1.355   6.970   5.614
 2724SOL     OW 9070   3.067   6.202   5.934
 2724SOL    HW1 9071   3.032   6.114   5.904
 2724SOL    HW2 9072   3.133   6.236   5.868
 2725SOL     OW 9073   6.137   4.956   3.360
 2725SOL    HW1 9074   6.167   4.882   3.422
 2725SOL    HW2 9075   6.182   5.041   3.387
 2726SOL     OW 9076   6.623   4.533   1.239
 2726SOL    HW1 9077   6.680   4.503   1.316
 2726SOL    HW2 9078   6.581   4.454   1.196
 2727SOL     OW 9079   0.326   4.612   2.636
 2727SOL    HW1 9080   0.315   4.705   2.602
 2727SOL    HW2 9081   0.415   4.576   2.610
 2728SOL     OW 9082   3.704   0.146   5.202
 2728SOL    HW1 9083   3.770   0.155   5.277
 2728SOL    HW2 9084   3.731   0.071   5.141
 2729SOL     OW 9085   6.079   6.024   1.677
 2729SOL    HW1 9086   6.085   6.029   1.577
 2729SOL    HW2 9087   5.992   6.061   1.707
 2730SOL     OW 9088   1.577   5.825   1.371
 2730SOL    HW1 9089   1.652   5.761   1.391
 2730SOL    HW2 9090   1.574   5.896   1.441
 2731SOL     OW 9091   4.118   3.717   1.841
 2731SOL    HW1 9092   4.070   3.727   1.928
 2731SOL    HW2 9093   4.216   3.711   1.858
 2732SOL     OW 9094   6.013   2.958   1.680
 2732SOL    HW1 9095   5.935   3.019   1.668
 2732SOL    HW2 9096   5.981   2.868   1.710
 2733SOL     OW 9097   0.349   0.245   5.486
 2733SOL    HW1 9098   0.379   0.172   5.424
 2733SOL    HW2 9099   0.375   0.333   5.448
 2734SOL     OW 9100   2.152   4.990   2.193
 2734SOL    HW1 9101   2.134   4.894   2.170
 2734SOL    HW2 9102   2.223   4.995   2.263
 2735SOL     OW 9103   0.684   3.806   3.020
 2735SOL    HW1 9104   0.741   3.802   3.103
 2735SOL    HW2 9105   0.622   3.884   3.026
 2736SOL     OW 9106   5.294   0.316   4.445
 2736SOL    HW1 9107   5.234   0.270   4.380
 2736SOL    HW2 9108   5.323   0.251   4.515
 2737SOL     OW 9109   3.116   3.108   5.479
 2737SOL    HW1 9110   3.120   3.008   5.482
 2737SOL    HW2 9111   3.103   3.138   5.385
 2738SOL     OW 9112   5.362   5.324   4.355
 2738SOL    HW1 9113   5.383   5.420   4.375
 2738SOL    HW2 9114   5.413   5.265   4.418
 2739SOL     OW 9115   5.852   5.045   0.031
 2739SOL    HW1 9116   5.874   5.009   6.968
 2739SOL    HW2 9117   5.850   4.970   0.097
 2740SOL     OW 9118   6.210   3.084   2.396
 2740SOL    HW1 9119   6.305   3.107   2.418
 2740SOL    HW2 9120   6.202   2.985   2.383
 2741SOL     OW 9121   6.905   1.107   6.130
 2741SOL    HW1 9122   6.838   1.155   6.186
 2741SOL    HW2 9123   6.881   1.010   6.126
 2742SOL     OW 9124   1.850   5.378   6.802
 2742SOL    HW1 9125   1.869   5.328   6.718
 2742SOL    HW2 9126   1.831   5.314   6.876
 2743SOL     OW 9127   6.350   5.482   2.112
 2743SOL    HW1 9128   6.302   5.395   2.127
 2743SOL    HW2 9129   6.285   5.551   2.080
 2744SOL     OW 9130   4.269   2.075   6.715
 2744SOL    HW1 9131   4.268   2.072   6.615
 2744SOL    HW2 9132   4.178   2.101   6.748
 2745SOL     OW 9133   1.254   6.894   6.794
 2745SOL    HW1 9134   1.158   6.893   6.822
 2745SOL    HW2 9135   1.286   6.801   6.781
 2746SOL     OW 9136   2.082   1.841   4.351
 2746SOL    HW1 9137   2.147   1.846   4.427
 2746SOL    HW2 9138   2.069   1.933   4.313
 2747SOL     OW 9139   5.616   3.452   5.596
 2747SOL    HW1 9140   5.598   3.524   5.528
 2747SOL    HW2 9141   5.577   3.479   5.684
 2748SOL     OW 9142   3.655   1.385   0.966
 2748SOL    HW1 9143   3.743   1.338   0.974
 2748SOL    HW2 9144   3.671   1.484   0.964
 2749SOL     OW 9145   6.013   4.280   3.875
 2749SOL    HW1 9146   5.918   4.286   3.905
 2749SOL    HW2 9147   6.064   4.358   3.909
 2750SOL     OW 9148   0.178   5.004   1.940
 2750SOL    HW1 9149   0.212   5.098   1.939
 2750SOL    HW2 9150   0.103   4.995   1.874
 2751SOL     OW 9151   1.439   6.836   0.445
 2751SOL    HW1 9152   1.455   6.745   0.482
 2751SOL    HW2 9153   1.479   6.843   0.354
 2752SOL     OW 9154   5.148   5.263   5.061
 2752SOL    HW1 9155   5.149   5.354   5.103
 2752SOL    HW2 9156   5.226   5.210   5.093
 2753SOL     OW 9157   1.645   0.318   6.586
 2753SOL    HW1 9158   1.573   0.362   6.639
 2753SOL    HW2 9159   1.727   0.374   6.588
 2754SOL     OW 9160   6.880   0.781   4.221
 2754SOL    HW1 9161   6.906   0.802   4.315
 2754SOL    HW2 9162   6.783   0.758   4.218
 2755SOL     OW 9163   3.533   6.901   3.217
 2755SOL    HW1 9164   3.458   6.862   3.272
 2755SOL    HW2 9165   3.522   6.874   3.122
 2756SOL     OW 9166   6.482   3.845   4.614
 2756SOL    HW1 9167   6.404   3.842   4.551
 2756SOL    HW2 9168   6.559   3.795   4.573
 2757SOL     OW 9169   2.464   0.970   6.812
 2757SOL    HW1 9170   2.538   0.914   6.849
 2757SOL    HW2 9171   2.426   1.027   6.885
 2758SOL     OW 9172   5.354   6.284   3.743
 2758SOL    HW1 9173   5.259   6.317   3.745
 2758SOL    HW2 9174   5.359   6.195   3.787
 2759SOL     OW 9175   3.825   5.552   5.258
 2759SOL    HW1 9176   3.852   5.528   5.165
 2759SOL    HW2 9177   3.746   5.496   5.285
 2760SOL     OW 9178   6.739   5.081   2.855
 2760SOL    HW1 9179   6.782   5.161   2.895
 2760SOL    HW2 9180   6.786   5.057   2.770
 2761SOL     OW 9181   1.628   4.463   3.624
 2761SOL    HW1 9182   1.694   4.490   3.695
 2761SOL    HW2 9183   1.548   4.522   3.631
 2762SOL     OW 9184   1.622   2.123   0.093
 2762SOL    HW1 9185   1.622   2.040   0.037
 2762SOL    HW2 9186   1.714   2.137   0.131
 2763SOL     OW 9187   5.033   2.394   5.548
 2763SOL    HW1 9188   4.963   2.425   5.613
 2763SOL    HW2 9189   4.995   2.319   5.493
 2764SOL     OW 9190   0.343   5.930   2.754
 2764SOL    HW1 9191   0.371   5.883   2.670
 2764SOL    HW2 9192   0.317   5.863   2.823
 2765SOL     OW 9193   6.895   6.953   0.583
 2765SOL    HW1 9194   6.847   6.943   0.670
 2765SOL    HW2 9195   6.845   7.016   0.524
 2766SOL     OW 9196   3.567   1.131   6.347
 2766SOL    HW1 9197   3.607   1.204   6.402
 2766SOL    HW2 9198   3.487   1.166   6.298
 2767SOL     OW 9199   6.177   6.091   6.269
 2767SOL    HW1 9200   6.083   6.126   6.263
 2767SOL    HW2 9201   6.185   6.029   6.347
 2768SOL     OW 9202   4.357   1.246   0.001
 2768SOL    HW1 9203   4.313   1.334   0.020
 2768SOL    HW2 9204   4.456   1.256   0.012
 2769SOL     OW 9205   2.395   5.048   6.569
 2769SOL    HW1 9206   2.349   5.124   6.523
 2769SOL    HW2 9207   2.332   4.970   6.575
 2770SOL     OW 9208   4.318   5.973   6.038
 2770SOL    HW1 9209   4.310   5.985   6.137
 2770SOL    HW2 9210   4.227   5.968   5.997
 2771SOL     OW 9211   5.895   0.526   4.681
 2771SOL    HW1 9212   5.893   0.573   4.592
 2771SOL    HW2 9213   5.810   0.475   4.694
 2772SOL     OW 9214   2.835   1.583   1.973
 2772SOL    HW1 9215   2.889   1.597   1.889
 2772SOL    HW2 9216   2.858   1.655   2.039
 2773SOL     OW 9217   6.942   3.261   3.890
 2773SOL    HW1 9218   6.980   3.249   3.798
 2773SOL    HW2 9219   6.905   3.174   3.923
 2774SOL     OW 9220   5.177   3.094   2.531
 2774SOL    HW1 9221   5.273   3.085   2.559
 2774SOL    HW2 9222   5.135   3.003   2.525
 2775SOL     OW 9223   6.281   3.926   3.700
 2775SOL    HW1 9224   6.313   3.863   3.771
 2775SOL    HW2 9225   6.347   4.001   3.689
 2776SOL     OW 9226   5.536   4.230   5.439
 2776SOL    HW1 9227   5.477   4.215   5.360
 2776SOL    HW2 9228   5.480   4.238   5.522
 2777SOL     OW 9229   2.204   1.506   6.990
 2777SOL    HW1 9230   2.256   1.448   6.928
 2777SOL    HW2 9231   2.248   1.508   0.053
 2778SOL     OW 9232   1.983   5.896   6.454
 2778SOL    HW1 9233   2.015   5.832   6.524
 2778SOL    HW2 9234   1.888   5.919   6.471
 2779SOL     OW 9235   5.254   6.677   2.113
 2779SOL    HW1 9236   5.210   6.674   2.202
 2779SOL    HW2 9237   5.340   6.728   2.119
 2780SOL     OW 9238   6.613   0.210   6.020
 2780SOL    HW1 9239   6.517   0.187   6.039
 2780SOL    HW2 9240   6.620   0.308   6.000
 2781SOL     OW 9241   5.802   0.238   3.247
 2781SOL    HW1 9242   5.719   0.256   3.194
 2781SOL    HW2 9243   5.859   0.172   3.198
 2782SOL     OW 9244   4.488   1.417   5.385
 2782SOL    HW1 9245   4.413   1.480   5.403
 2782SOL    HW2 9246   4.572   1.468   5.370
 2783SOL     OW 9247   6.753   3.749   1.287
 2783SOL    HW1 9248   6.760   3.847   1.306
 2783SOL    HW2 9249   6.657   3.722   1.282
 2784SOL     OW 9250   3.194   1.528   2.014
 2784SOL    HW1 9251   3.285   1.567   2.007
 2784SOL    HW2 9252   3.156   1.547   2.105
 2785SOL     OW 9253   5.365   2.022   0.934
 2785SOL    HW1 9254   5.341   1.925   0.926
 2785SOL    HW2 9255   5.446   2.040   0.878
 2786SOL     OW 9256   6.715   6.271   1.343
 2786SOL    HW1 9257   6.694   6.175   1.360
 2786SOL    HW2 9258   6.767   6.309   1.420
 2787SOL     OW 9259   6.684   5.788   5.513
 2787SOL    HW1 9260   6.735   5.849   5.452
 2787SOL    HW2 9261   6.632   5.723   5.459
 2788SOL     OW 9262   2.766   6.123   6.475
 2788SOL    HW1 9263   2.747   6.057   6.402
 2788SOL    HW2 9264   2.681   6.145   6.523
 2789SOL     OW 9265   2.276   1.933   3.632
 2789SOL    HW1 9266   2.307   1.995   3.560
 2789SOL    HW2 9267   2.303   1.839   3.609
 2790SOL     OW 9268   3.109   5.359   0.911
 2790SOL    HW1 9269   3.101   5.300   0.991
 2790SOL    HW2 9270   3.153   5.445   0.937
 2791SOL     OW 9271   0.151   4.349   2.374
 2791SOL    HW1 9272   0.055   4.322   2.365
 2791SOL    HW2 9273   0.159   4.421   2.443
 2792SOL     OW 9274   2.634   1.383   4.454
 2792SOL    HW1 9275   2.668   1.292   4.427
 2792SOL    HW2 9276   2.707   1.450   4.444
 2793SOL     OW 9277   5.357   3.800   2.108
 2793SOL    HW1 9278   5.369   3.701   2.105
 2793SOL    HW2 9279   5.388   3.835   2.196
 2794SOL     OW 9280   6.453   2.031   6.100
 2794SOL    HW1 9281   6.489   2.072   6.016
 2794SOL    HW2 9282   6.367   1.986   6.080
 2795SOL     OW 9283   0.258   4.478   1.236
 2795SOL    HW1 9284   0.282   4.485   1.139
 2795SOL    HW2 9285   0.230   4.568   1.270
 2796SOL     OW 9286   0.849   5.561   4.173
 2796SOL    HW1 9287   0.765   5.615   4.172
 2796SOL    HW2 9288   0.832   5.473   4.129
 2797SOL     OW 9289   5.623   5.378   5.826
 2797SOL    HW1 9290   5.538   5.335   5.855
 2797SOL    HW2 9291   5.665   5.324   5.753
 2798SOL     OW 9292   6.212   5.891   2.499
 2798SOL    HW1 9293   6.208   5.867   2.596
 2798SOL    HW2 9294   6.238   5.987   2.490
 2799SOL     OW 9295   4.949   5.929   5.484
 2799SOL    HW1 9296   4.952   6.025   5.512
 2799SOL    HW2 9297   4.856   5.906   5.455
 2800SOL     OW 9298   5.872   0.729   6.287
 2800SOL    HW1 9299   5.953   0.787   6.289
 2800SOL    HW2 9300   5.885   0.655   6.220
 2801SOL     OW 9301   1.433   5.835   5.905
 2801SOL    HW1 9302   1.354   5.774   5.907
 2801SOL    HW2 9303   1.480   5.831   5.993
 2802SOL     OW 9304   6.759   6.466   5.640
 2802SOL    HW1 9305   6.663   6.494   5.635
 2802SOL    HW2 9306   6.765   6.374   5.679
 2803SOL     OW 9307   3.424   4.410   6.046
 2803SOL    HW1 9308   3.387   4.435   5.956
 2803SOL    HW2 9309   3.359   4.352   6.094
 2804SOL     OW 9310   0.315   3.945   4.771
 2804SOL    HW1 9311   0.297   3.935   4.674
 2804SOL    HW2 9312   0.339   4.040   4.791
 2805SOL     OW 9313   6.152   4.148   2.456
 2805SOL    HW1 9314   6.157   4.099   2.543
 2805SOL    HW2 9315   6.065   4.127   2.411
 2806SOL     OW 9316   1.653   4.499   6.656
 2806SOL    HW1 9317   1.719   4.529   6.726
 2806SOL    HW2 9318   1.642   4.400   6.662
 2807SOL     OW 9319   4.123   0.799   3.133
 2807SOL    HW1 9320   4.108   0.863   3.059
 2807SOL    HW2 9321   4.220   0.775   3.138
 2808SOL     OW 9322   6.219   6.231   0.889
 2808SOL    HW1 9323   6.174   6.254   0.975
 2808SOL    HW2 9324   6.306   6.280   0.883
 2809SOL     OW 9325   5.740   2.209   1.379
 2809SOL    HW1 9326   5.731   2.295   1.430
 2809SOL    HW2 9327   5.657   2.154   1.391
 2810SOL     OW 9328   2.130   5.594   2.928
 2810SOL    HW1 9329   2.037   5.588   2.891
 2810SOL    HW2 9330   2.128   5.577   3.027
 2811SOL     OW 9331   0.783   1.559   2.558
 2811SOL    HW1 9332   0.849   1.484   2.560
 2811SOL    HW2 9333   0.718   1.547   2.633
 2812SOL     OW 9334   6.394   3.364   0.715
 2812SOL    HW1 9335   6.481   3.381   0.761
 2812SOL    HW2 9336   6.319   3.403   0.769
 2813SOL     OW 9337   0.550   1.588   0.416
 2813SOL    HW1 9338   0.547   1.679   0.455
 2813SOL    HW2 9339   0.565   1.594   0.317
 2814SOL     OW 9340   3.130   4.024   5.501
 2814SOL    HW1 9341   3.196   3.953   5.525
 2814SOL    HW2 9342   3.084   4.056   5.584
 2815SOL     OW 9343   6.998   5.534   5.920
 2815SOL    HW1 9344   7.022   5.437   5.922
 2815SOL    HW2 9345   6.984   5.563   5.825
 2816SOL     OW 9346   7.020   5.743   4.542
 2816SOL    HW1 9347   0.073   5.801   4.553
 2816SOL    HW2 9348   7.000   5.732   4.445
 2817SOL     OW 9349   3.822   1.609   2.472
 2817SOL    HW1 9350   3.753   1.662   2.423
 2817SOL    HW2 9351   3.874   1.553   2.407
 2818SOL     OW 9352   6.715   1.109   2.154
 2818SOL    HW1 9353   6.735   1.100   2.252
 2818SOL    HW2 9354   6.679   1.022   2.119
 2819SOL     OW 9355   1.553   0.151   1.038
 2819SOL    HW1 9356   1.455   0.143   1.059
 2819SOL    HW2 9357   1.586   0.241   1.066
 2820SOL     OW 9358   0.572   2.484   2.238
 2820SOL    HW1 9359   0.562   2.430   2.155
 2820SOL    HW2 9360   0.658   2.536   2.233
 2821SOL     OW 9361   3.011   5.299   6.045
 2821SOL    HW1 9362   2.956   5.313   6.127
 2821SOL    HW2 9363   3.008   5.382   5.989
 2822SOL     OW 9364   4.578   2.519   0.181
 2822SOL    HW1 9365   4.666   2.539   0.225
 2822SOL    HW2 9366   4.503   2.547   0.241
 2823SOL     OW 9367   5.694   0.882   6.983
 2823SOL    HW1 9368   5.609   0.926   7.011
 2823SOL    HW2 9369   5.710   0.900   6.886
 2824SOL     OW 9370   1.766   3.262   5.641
 2824SOL    HW1 9371   1.686   3.204   5.624
 2824SOL    HW2 9372   1.737   3.346   5.686
 2825SOL     OW 9373   5.867   0.700   6.664
 2825SOL    HW1 9374   5.890   0.674   6.570
 2825SOL    HW2 9375   5.792   0.642   6.696
 2826SOL     OW 9376   2.351   2.857   6.428
 2826SOL    HW1 9377   2.395   2.851   6.517
 2826SOL    HW2 9378   2.258   2.891   6.438
 2827SOL     OW 9379   0.475   0.907   6.630
 2827SOL    HW1 9380   0.521   0.837   6.685
 2827SOL    HW2 9381   0.377   0.888   6.627
 2828SOL     OW 9382   1.618   3.471   1.381
 2828SOL    HW1 9383   1.655   3.394   1.329
 2828SOL    HW2 9384   1.521   3.454   1.401
 2829SOL     OW 9385   3.092   3.101   3.306
 2829SOL    HW1 9386   3.022   3.170   3.326
 2829SOL    HW2 9387   3.163   3.105   3.376
 2830SOL     OW 9388   3.504   4.139   5.376
 2830SOL    HW1 9389   3.529   4.142   5.279
 2830SOL    HW2 9390   3.565   4.198   5.428
 2831SOL     OW 9391   0.348   2.352   2.831
 2831SOL    HW1 9392   0.413   2.421   2.798
 2831SOL    HW2 9393   0.258   2.370   2.792
 2832SOL     OW 9394   1.099   3.283   1.477
 2832SOL    HW1 9395   1.132   3.189   1.476
 2832SOL    HW2 9396   1.124   3.328   1.391
 2833SOL     OW 9397   2.579   1.585   1.913
 2833SOL    HW1 9398   2.523   1.563   1.994
 2833SOL    HW2 9399   2.676   1.585   1.939
 2834SOL     OW 9400   4.861   6.522   4.655
 2834SOL    HW1 9401   4.840   6.618   4.633
 2834SOL    HW2 9402   4.779   6.466   4.644
 2835SOL     OW 9403   1.007   6.398   0.719
 2835SOL    HW1 9404   1.030   6.494   0.700
 2835SOL    HW2 9405   0.957   6.392   0.805
 2836SOL     OW 9406   2.364   6.412   2.873
 2836SOL    HW1 9407   2.352   6.346   2.947
 2836SOL    HW2 9408   2.438   6.382   2.813
 2837SOL     OW 9409   5.449   4.532   2.359
 2837SOL    HW1 9410   5.503   4.448   2.365
 2837SOL    HW2 9411   5.488   4.591   2.288
 2838SOL     OW 9412   5.016   4.036   0.388
 2838SOL    HW1 9413   5.101   4.011   0.434
 2838SOL    HW2 9414   4.993   4.131   0.411
 2839SOL     OW 9415   0.247   2.620   2.356
 2839SOL    HW1 9416   0.256   2.717   2.332
 2839SOL    HW2 9417   0.197   2.573   2.283
 2840SOL     OW 9418   1.494   5.612   2.711
 2840SOL    HW1 9419   1.580   5.655   2.683
 2840SOL    HW2 9420   1.484   5.620   2.811
 2841SOL     OW 9421   6.742   2.238   0.015
 2841SOL    HW1 9422   6.838   2.210   0.012
 2841SOL    HW2 9423   6.704   2.235   6.950
 2842SOL     OW 9424   1.642   6.158   4.810
 2842SOL    HW1 9425   1.619   6.118   4.898
 2842SOL    HW2 9426   1.559   6.186   4.763
 2843SOL     OW 9427   2.560   2.135   3.134
 2843SOL    HW1 9428   2.648   2.174   3.158
 2843SOL    HW2 9429   2.491   2.207   3.131
 2844SOL     OW 9430   5.125   4.655   1.419
 2844SOL    HW1 9431   5.115   4.555   1.425
 2844SOL    HW2 9432   5.154   4.691   1.507
 2845SOL     OW 9433   5.200   2.726   2.902
 2845SOL    HW1 9434   5.261   2.700   2.976
 2845SOL    HW2 9435   5.133   2.793   2.935
 2846SOL     OW 9436   3.277   1.137   0.109
 2846SOL    HW1 9437   3.226   1.061   0.069
 2846SOL    HW2 9438   3.375   1.116   0.107
 2847SOL     OW 9439   4.792   4.034   2.472
 2847SOL    HW1 9440   4.771   4.109   2.409
 2847SOL    HW2 9441   4.835   3.959   2.422
 2848SOL     OW 9442   1.746   2.654   5.451
 2848SOL    HW1 9443   1.663   2.633   5.400
 2848SOL    HW2 9444   1.768   2.752   5.442
 2849SOL     OW 9445   3.926   1.193   1.305
 2849SOL    HW1 9446   3.916   1.274   1.362
 2849SOL    HW2 9447   3.967   1.218   1.217
 2850SOL     OW 9448   2.239   6.927   3.598
 2850SOL    HW1 9449   2.191   6.840   3.612
 2850SOL    HW2 9450   2.175   7.003   3.611
 2851SOL     OW 9451   4.252   3.725   6.656
 2851SOL    HW1 9452   4.347   3.698   6.668
 2851SOL    HW2 9453   4.213   3.678   6.577
 2852SOL     OW 9454   6.528   4.536   6.836
 2852SOL    HW1 9455   6.595   4.510   6.906
 2852SOL    HW2 9456   6.446   4.480   6.847
 2853SOL     OW 9457   0.789   3.560   0.602
 2853SOL    HW1 9458   0.711   3.507   0.636
 2853SOL    HW2 9459   0.790   3.649   0.648
 2854SOL     OW 9460   3.306   0.671   6.215
 2854SOL    HW1 9461   3.370   0.606   6.258
 2854SOL    HW2 9462   3.241   0.704   6.283
 2855SOL     OW 9463   1.001   2.765   4.608
 2855SOL    HW1 9464   0.960   2.829   4.543
 2855SOL    HW2 9465   1.094   2.743   4.580
 2856SOL     OW 9466   1.521   2.474   3.341
 2856SOL    HW1 9467   1.565   2.456   3.428
 2856SOL    HW2 9468   1.459   2.552   3.349
 2857SOL     OW 9469   0.322   3.093   0.941
 2857SOL    HW1 9470   0.405   3.146   0.961
 2857SOL    HW2 9471   0.337   2.997   0.965
 2858SOL     OW 9472   5.145   6.367   2.290
 2858SOL    HW1 9473   5.205   6.305   2.240
 2858SOL    HW2 9474   5.093   6.422   2.225
 2859SOL     OW 9475   5.266   5.998   0.663
 2859SOL    HW1 9476   5.304   5.974   0.574
 2859SOL    HW2 9477   5.236   5.916   0.710
 2860SOL     OW 9478   1.984   6.642   1.888
 2860SOL    HW1 9479   1.962   6.737   1.864
 2860SOL    HW2 9480   1.982   6.585   1.806
 2861SOL     OW 9481   2.879   5.507   5.452
 2861SOL    HW1 9482   2.871   5.467   5.543
 2861SOL    HW2 9483   2.954   5.573   5.451
 2862SOL     OW 9484   4.538   2.429   2.186
 2862SOL    HW1 9485   4.580   2.487   2.116
 2862SOL    HW2 9486   4.602   2.418   2.262
 2863SOL     OW 9487   5.223   1.662   6.686
 2863SOL    HW1 9488   5.317   1.633   6.704
 2863SOL    HW2 9489   5.223   1.738   6.621
 2864SOL     OW 9490   4.932   3.232   1.202
 2864SOL    HW1 9491   4.942   3.136   1.231
 2864SOL    HW2 9492   4.840   3.246   1.166
 2865SOL     OW 9493   4.174   0.063   4.165
 2865SOL    HW1 9494   4.138   0.071   4.072
 2865SOL    HW2 9495   4.140   7.006   4.207
 2866SOL     OW 9496   5.964   3.980   0.374
 2866SOL    HW1 9497   6.044   4.036   0.353
 2866SOL    HW2 9498   5.905   3.973   0.294
 2867SOL     OW 9499   6.377   6.094   2.645
 2867SOL    HW1 9500   6.425   6.075   2.559
 2867SOL    HW2 9501   6.329   6.182   2.637
 2868SOL     OW 9502   0.946   1.163   5.289
 2868SOL    HW1 9503   0.873   1.132   5.228
 2868SOL    HW2 9504   0.990   1.084   5.331
 2869SOL     OW 9505   6.159   0.550   3.723
 2869SOL    HW1 9506   6.229   0.602   3.772
 2869SOL    HW2 9507   6.199   0.466   3.687
 2870SOL     OW 9508   0.733   1.800   6.868
 2870SOL    HW1 9509   0.728   1.816   6.769
 2870SOL    HW2 9510   0.667   1.859   6.914
 2871SOL     OW 9511   6.111   0.587   0.058
 2871SOL    HW1 9512   6.165   0.668   0.036
 2871SOL    HW2 9513   6.022   0.594   0.013
 2872SOL     OW 9514   2.841   1.575   0.887
 2872SOL    HW1 9515   2.887   1.529   0.963
 2872SOL    HW2 9516   2.749   1.537   0.875
 2873SOL     OW 9517   6.638   6.052   1.462
 2873SOL    HW1 9518   6.670   5.963   1.495
 2873SOL    HW2 9519   6.552   6.076   1.508
 2874SOL     OW 9520   4.436   6.871   2.696
 2874SOL    HW1 9521   4.507   6.802   2.677
 2874SOL    HW2 9522   4.469   6.961   2.667
 2875SOL     OW 9523   3.577   6.997   2.734
 2875SOL    HW1 9524   3.640   6.959   2.666
 2875SOL    HW2 9525   3.489   7.018   2.691
 2876SOL     OW 9526   1.366   6.466   2.134
 2876SOL    HW1 9527   1.268   6.448   2.137
 2876SOL    HW2 9528   1.413   6.386   2.096
 2877SOL     OW 9529   2.347   0.806   0.109
 2877SOL    HW1 9530   2.342   0.755   0.023
 2877SOL    HW2 9531   2.411   0.882   0.098
 2878SOL     OW 9532   3.072   3.782   4.607
 2878SOL    HW1 9533   3.055   3.824   4.696
 2878SOL    HW2 9534   3.010   3.705   4.594
 2879SOL     OW 9535   4.394   5.340   6.048
 2879SOL    HW1 9536   4.367   5.369   5.957
 2879SOL    HW2 9537   4.475   5.391   6.077
 2880SOL     OW 9538   0.552   2.058   3.924
 2880SOL    HW1 9539   0.455   2.063   3.898
 2880SOL    HW2 9540   0.582   1.963   3.922
 2881SOL     OW 9541   3.499   5.942   0.196
 2881SOL    HW1 9542   3.477   5.939   0.099
 2881SOL    HW2 9543   3.570   5.875   0.216
 2882SOL     OW 9544   6.142   6.273   1.141
 2882SOL    HW1 9545   6.231   6.283   1.185
 2882SOL    HW2 9546   6.083   6.214   1.196
 2883SOL     OW 9547   5.925   6.648   3.748
 2883SOL    HW1 9548   5.975   6.703   3.682
 2883SOL    HW2 9549   5.985   6.579   3.787
 2884SOL     OW 9550   6.776   5.710   2.017
 2884SOL    HW1 9551   6.691   5.663   1.994
 2884SOL    HW2 9552   6.761   5.809   2.015
 2885SOL     OW 9553   1.309   2.356   4.344
 2885SOL    HW1 9554   1.237   2.409   4.298
 2885SOL    HW2 9555   1.268   2.282   4.397
 2886SOL     OW 9556   2.246   4.599   6.723
 2886SOL    HW1 9557   2.343   4.574   6.716
 2886SOL    HW2 9558   2.190   4.523   6.692
 2887SOL     OW 9559   6.955   6.263   4.168
 2887SOL    HW1 9560   0.016   6.311   4.166
 2887SOL    HW2 9561   6.966   6.175   4.213
 2888SOL     OW 9562   0.298   5.068   0.336
 2888SOL    HW1 9563   0.345   5.057   0.249
 2888SOL    HW2 9564   0.270   5.164   0.347
 2889SOL     OW 9565   2.885   6.775   2.981
 2889SOL    HW1 9566   2.940   6.721   2.917
 2889SOL    HW2 9567   2.900   6.873   2.963
 2890SOL     OW 9568   1.790   4.944   0.724
 2890SOL    HW1 9569   1.845   4.969   0.645
 2890SOL    HW2 9570   1.798   5.016   0.794
 2891SOL     OW 9571   1.248   3.319   3.436
 2891SOL    HW1 9572   1.291   3.341   3.348
 2891SOL    HW2 9573   1.211   3.226   3.432
 2892SOL     OW 9574   5.875   2.740   1.030
 2892SOL    HW1 9575   5.921   2.826   1.053
 2892SOL    HW2 9576   5.919   2.664   1.078
 2893SOL     OW 9577   1.884   5.540   4.879
 2893SOL    HW1 9578   1.934   5.626   4.894
 2893SOL    HW2 9579   1.942   5.463   4.908
 2894SOL     OW 9580   1.697   4.035   1.666
 2894SOL    HW1 9581   1.643   4.088   1.730
 2894SOL    HW2 9582   1.657   4.041   1.575
 2895SOL     OW 9583   3.821   0.668   6.419
 2895SOL    HW1 9584   3.742   0.710   6.464
 2895SOL    HW2 9585   3.890   0.737   6.399
 2896SOL     OW 9586   5.389   0.152   5.843
 2896SOL    HW1 9587   5.335   0.167   5.759
 2896SOL    HW2 9588   5.475   0.202   5.836
 2897SOL     OW 9589   4.231   5.057   2.812
 2897SOL    HW1 9590   4.232   5.121   2.889
 2897SOL    HW2 9591   4.136   5.035   2.789
 2898SOL     OW 9592   5.059   3.955   3.963
 2898SOL    HW1 9593   5.127   3.936   4.035
 2898SOL    HW2 9594   5.105   3.959   3.875
 2899SOL     OW 9595   6.608   1.683   0.743
 2899SOL    HW1 9596   6.612   1.586   0.769
 2899SOL    HW2 9597   6.673   1.735   0.798
 2900SOL     OW 9598   4.538   4.905   6.482
 2900SOL    HW1 9599   4.581   4.987   6.520
 2900SOL    HW2 9600   4.526   4.838   6.554
 2901SOL     OW 9601   1.813   5.139   3.350
 2901SOL    HW1 9602   1.727   5.093   3.374
 2901SOL    HW2 9603   1.811   5.233   3.382
 2902SOL     OW 9604   7.011   5.284   3.441
 2902SOL    HW1 9605   6.932   5.345   3.435
 2902SOL    HW2 9606   6.980   5.189   3.428
 2903SOL     OW 9607   4.363   6.335   1.041
 2903SOL    HW1 9608   4.320   6.250   1.074
 2903SOL    HW2 9609   4.325   6.412   1.092
 2904SOL     OW 9610   3.380   5.242   4.919
 2904SOL    HW1 9611   3.386   5.199   5.009
 2904SOL    HW2 9612   3.373   5.170   4.849
 2905SOL     OW 9613   1.512   4.206   3.706
 2905SOL    HW1 9614   1.465   4.160   3.630
 2905SOL    HW2 9615   1.557   4.288   3.671
 2906SOL     OW 9616   5.463   5.839   2.730
 2906SOL    HW1 9617   5.505   5.882   2.809
 2906SOL    HW2 9618   5.395   5.772   2.761
 2907SOL     OW 9619   0.509   1.712   4.100
 2907SOL    HW1 9620   0.608   1.723   4.103
 2907SOL    HW2 9621   0.487   1.623   4.060
 2908SOL     OW 9622   5.375   6.571   3.833
 2908SOL    HW1 9623   5.409   6.649   3.779
 2908SOL    HW2 9624   5.364   6.492   3.773
 2909SOL     OW 9625   1.827   6.866   3.335
 2909SOL    HW1 9626   1.843   6.772   3.306
 2909SOL    HW2 9627   1.759   6.867   3.409
 2910SOL     OW 9628   6.987   0.747   3.651
 2910SOL    HW1 9629   6.971   0.824   3.713
 2910SOL    HW2 9630   6.983   0.779   3.556
 2911SOL     OW 9631   1.345   4.874   3.673
 2911SOL    HW1 9632   1.294   4.884   3.758
 2911SOL    HW2 9633   1.281   4.869   3.596
 2912SOL     OW 9634   6.899   6.387   6.667
 2912SOL    HW1 9635   6.938   6.419   6.753
 2912SOL    HW2 9636   6.904   6.287   6.664
 2913SOL     OW 9637   3.148   4.896   2.574
 2913SOL    HW1 9638   3.194   4.929   2.656
 2913SOL    HW2 9639   3.185   4.941   2.494
 2914SOL     OW 9640   5.517   5.560   1.098
 2914SOL    HW1 9641   5.573   5.632   1.139
 2914SOL    HW2 9642   5.566   5.520   1.021
 2915SOL     OW 9643   3.226   1.904   3.982
 2915SOL    HW1 9644   3.302   1.863   3.931
 2915SOL    HW2 9645   3.150   1.840   3.985
 2916SOL     OW 9646   1.797   5.078   0.437
 2916SOL    HW1 9647   1.840   4.997   0.398
 2916SOL    HW2 9648   1.857   5.157   0.425
 2917SOL     OW 9649   3.339   0.605   4.465
 2917SOL    HW1 9650   3.278   0.544   4.416
 2917SOL    HW2 9651   3.355   0.688   4.412
 2918SOL     OW 9652   5.776   3.896   6.643
 2918SOL    HW1 9653   5.874   3.915   6.651
 2918SOL    HW2 9654   5.759   3.801   6.670
 2919SOL     OW 9655   6.266   6.495   3.289
 2919SOL    HW1 9656   6.207   6.467   3.364
 2919SOL    HW2 9657   6.348   6.438   3.288
 2920SOL     OW 9658   3.098   0.264   1.983
 2920SOL    HW1 9659   3.071   0.353   1.946
 2920SOL    HW2 9660   3.023   0.227   2.037
 2921SOL     OW 9661   0.446   0.261   6.209
 2921SOL    HW1 9662   0.397   0.204   6.143
 2921SOL    HW2 9663   0.488   0.338   6.161
 2922SOL     OW 9664   3.701   6.223   1.831
 2922SOL    HW1 9665   3.633   6.188   1.767
 2922SOL    HW2 9666   3.658   6.287   1.894
 2923SOL     OW 9667   6.503   5.228   4.870
 2923SOL    HW1 9668   6.556   5.208   4.952
 2923SOL    HW2 9669   6.505   5.327   4.853
 2924SOL     OW 9670   0.073   1.801   4.531
 2924SOL    HW1 9671   0.059   1.723   4.592
 2924SOL    HW2 9672   0.012   1.876   4.558
 2925SOL     OW 9673   5.583   2.000   6.906
 2925SOL    HW1 9674   5.674   2.005   6.866
 2925SOL    HW2 9675   5.575   1.914   6.958
 2926SOL     OW 9676   6.415   2.307   6.181
 2926SOL    HW1 9677   6.492   2.367   6.160
 2926SOL    HW2 9678   6.446   2.212   6.180
 2927SOL     OW 9679   1.473   3.026   0.658
 2927SOL    HW1 9680   1.523   3.109   0.684
 2927SOL    HW2 9681   1.381   3.050   0.629
 2928SOL     OW 9682   6.724   1.128   6.824
 2928SOL    HW1 9683   6.746   1.226   6.827
 2928SOL    HW2 9684   6.799   1.078   6.781
 2929SOL     OW 9685   1.526   2.534   4.945
 2929SOL    HW1 9686   1.531   2.447   4.994
 2929SOL    HW2 9687   1.599   2.595   4.976
 2930SOL     OW 9688   5.507   6.366   4.997
 2930SOL    HW1 9689   5.603   6.356   5.024
 2930SOL    HW2 9690   5.481   6.290   4.938
 2931SOL     OW 9691   4.423   4.813   6.737
 2931SOL    HW1 9692   4.497   4.832   6.801
 2931SOL    HW2 9693   4.362   4.744   6.776
 2932SOL     OW 9694   0.077   5.601   1.158
 2932SOL    HW1 9695   0.052   5.645   1.072
 2932SOL    HW2 9696   0.004   5.615   1.225
 2933SOL     OW 9697   0.566   6.999   2.112
 2933SOL    HW1 9698   0.647   6.942   2.127
 2933SOL    HW2 9699   0.517   6.967   2.032
 2934SOL     OW 9700   4.939   2.615   1.270
 2934SOL    HW1 9701   4.948   2.673   1.189
 2934SOL    HW2 9702   4.996   2.651   1.343
 2935SOL     OW 9703   0.472   2.843   6.186
 2935SOL    HW1 9704   0.537   2.881   6.252
 2935SOL    HW2 9705   0.497   2.748   6.166
 2936SOL     OW 9706   3.832   6.187   0.917
 2936SOL    HW1 9707   3.784   6.129   0.851
 2936SOL    HW2 9708   3.919   6.144   0.942
 2937SOL     OW 9709   4.914   5.233   0.812
 2937SOL    HW1 9710   4.913   5.162   0.742
 2937SOL    HW2 9711   4.993   5.221   0.872
 2938SOL     OW 9712   6.610   5.468   0.235
 2938SOL    HW1 9713   6.686   5.520   0.197
 2938SOL    HW2 9714   6.558   5.526   0.298
 2939SOL     OW 9715   1.698   0.454   1.582
 2939SOL    HW1 9716   1.606   0.492   1.592
 2939SOL    HW2 9717   1.722   0.450   1.485
 2940SOL     OW 9718   6.278   5.534   4.815
 2940SOL    HW1 9719   6.266   5.628   4.783
 2940SOL    HW2 9720   6.200   5.508   4.872
 2941SOL     OW 9721   2.390   2.351   3.071
 2941SOL    HW1 9722   2.462   2.416   3.048
 2941SOL    HW2 9723   2.338   2.328   2.989
 2942SOL     OW 9724   3.691   2.405   0.554
 2942SOL    HW1 9725   3.645   2.486   0.517
 2942SOL    HW2 9726   3.690   2.332   0.485
 2943SOL     OW 9727   6.041   5.064   3.904
 2943SOL    HW1 9728   6.095   5.032   3.826
 2943SOL    HW2 9729   5.982   5.140   3.875
 2944SOL     OW 9730   2.347   6.111   3.697
 2944SOL    HW1 9731   2.375   6.052   3.773
 2944SOL    HW2 9732   2.407   6.191   3.692
 2945SOL     OW 9733   5.130   2.887   1.798
 2945SOL    HW1 9734   5.148   2.802   1.749
 2945SOL    HW2 9735   5.046   2.877   1.851
 2946SOL     OW 9736   2.145   4.228   5.818
 2946SOL    HW1 9737   2.055   4.191   5.840
 2946SOL    HW2 9738   2.135   4.316   5.770
 2947SOL     OW 9739   0.205   5.321   0.363
 2947SOL    HW1 9740   0.210   5.393   0.294
 2947SOL    HW2 9741   0.207   5.361   0.454
 2948SOL     OW 9742   6.899   4.525   3.455
 2948SOL    HW1 9743   6.860   4.439   3.489
 2948SOL    HW2 9744   6.906   4.590   3.530
 2949SOL     OW 9745   0.256   5.729   6.720
 2949SOL    HW1 9746   0.232   5.819   6.758
 2949SOL    HW2 9747   0.355   5.717   6.724
 2950SOL     OW 9748   5.916   5.923   3.800
 2950SOL    HW1 9749   5.912   5.926   3.900
 2950SOL    HW2 9750   5.844   5.863   3.766
 2951SOL     OW 9751   5.318   1.262   2.145
 2951SOL    HW1 9752   5.249   1.265   2.073
 2951SOL    HW2 9753   5.407   1.286   2.106
 2952SOL     OW 9754   6.972   7.004   5.173
 2952SOL    HW1 9755   7.020   6.918   5.155
 2952SOL    HW2 9756   6.910   7.025   5.098
 2953SOL     OW 9757   0.199   4.172   3.246
 2953SOL    HW1 9758   0.170   4.220   3.329
 2953SOL    HW2 9759   0.206   4.074   3.265
 2954SOL     OW 9760   6.900   4.671   6.645
 2954SOL    HW1 9761   6.936   4.764   6.654
 2954SOL    HW2 9762   6.802   4.672   6.663
 2955SOL     OW 9763   0.863   4.478   0.816
 2955SOL    HW1 9764   0.895   4.541   0.886
 2955SOL    HW2 9765   0.835   4.392   0.858
 2956SOL     OW 9766   0.038   5.429   3.777
 2956SOL    HW1 9767   0.004   5.357   3.837
 2956SOL    HW2 9768   0.014   5.408   3.682
 2957SOL     OW 9769   4.463   4.895   1.378
 2957SOL    HW1 9770   4.551   4.871   1.337
 2957SOL    HW2 9771   4.390   4.845   1.332
 2958SOL     OW 9772   2.316   4.969   3.371
 2958SOL    HW1 9773   2.291   4.978   3.468
 2958SOL    HW2 9774   2.242   5.006   3.314
 2959SOL     OW 9775   5.412   2.785   2.525
 2959SOL    HW1 9776   5.351   2.752   2.596
 2959SOL    HW2 9777   5.504   2.795   2.562
 2960SOL     OW 9778   3.855   0.223   6.714
 2960SOL    HW1 9779   3.841   0.283   6.635
 2960SOL    HW2 9780   3.768   0.207   6.760
 2961SOL     OW 9781   6.248   4.676   3.075
 2961SOL    HW1 9782   6.176   4.746   3.072
 2961SOL    HW2 9783   6.302   4.682   2.991
 2962SOL     OW 9784   4.883   6.500   3.416
 2962SOL    HW1 9785   4.802   6.550   3.384
 2962SOL    HW2 9786   4.945   6.485   3.339
 2963SOL     OW 9787   1.002   0.609   6.611
 2963SOL    HW1 9788   1.051   0.663   6.679
 2963SOL    HW2 9789   0.921   0.567   6.654
 2964SOL     OW 9790   0.046   2.005   6.567
 2964SOL    HW1 9791   0.003   2.034   6.652
 2964SOL    HW2 9792   7.009   2.015   6.492
 2965SOL     OW 9793   0.812   0.455   4.800
 2965SOL    HW1 9794   0.721   0.413   4.801
 2965SOL    HW2 9795   0.868   0.415   4.728
 2966SOL     OW 9796   4.812   5.878   3.853
 2966SOL    HW1 9797   4.883   5.948   3.856
 2966SOL    HW2 9798   4.855   5.787   3.849
 2967SOL     OW 9799   6.402   1.091   5.742
 2967SOL    HW1 9800   6.353   1.039   5.812
 2967SOL    HW2 9801   6.375   1.187   5.747
 2968SOL     OW 9802   1.474   2.308   0.846
 2968SOL    HW1 9803   1.494   2.404   0.868
 2968SOL    HW2 9804   1.393   2.304   0.787
 2969SOL     OW 9805   5.027   3.282   4.664
 2969SOL    HW1 9806   4.958   3.298   4.735
 2969SOL    HW2 9807   5.117   3.270   4.707
 2970SOL     OW 9808   2.851   2.944   5.350
 2970SOL    HW1 9809   2.846   2.951   5.450
 2970SOL    HW2 9810   2.798   3.018   5.309
 2971SOL     OW 9811   5.465   4.143   0.156
 2971SOL    HW1 9812   5.520   4.223   0.181
 2971SOL    HW2 9813   5.462   4.134   0.057
 2972SOL     OW 9814   5.274   5.147   6.595
 2972SOL    HW1 9815   5.315   5.231   6.628
 2972SOL    HW2 9816   5.343   5.095   6.544
 2973SOL     OW 9817   4.724   6.690   2.163
 2973SOL    HW1 9818   4.783   6.691   2.244
 2973SOL    HW2 9819   4.629   6.699   2.192
 2974SOL     OW 9820   6.592   4.112   3.441
 2974SOL    HW1 9821   6.576   4.169   3.360
 2974SOL    HW2 9822   6.528   4.139   3.513
 2975SOL     OW 9823   4.972   4.295   4.413
 2975SOL    HW1 9824   5.046   4.271   4.349
 2975SOL    HW2 9825   4.964   4.225   4.483
 2976SOL     OW 9826   5.102   1.983   2.809
 2976SOL    HW1 9827   5.094   1.889   2.840
 2976SOL    HW2 9828   5.163   2.034   2.870
 2977SOL     OW 9829   0.403   0.817   2.657
 2977SOL    HW1 9830   0.364   0.725   2.646
 2977SOL    HW2 9831   0.361   0.879   2.591
 2978SOL     OW 9832   3.820   4.290   0.249
 2978SOL    HW1 9833   3.736   4.261   0.203
 2978SOL    HW2 9834   3.806   4.379   0.292
 2979SOL     OW 9835   3.284   1.576   4.071
 2979SOL    HW1 9836   3.201   1.558   4.019
 2979SOL    HW2 9837   3.259   1.605   4.164
 2980SOL     OW 9838   2.142   5.428   6.554
 2980SOL    HW1 9839   2.093   5.502   6.508
 2980SOL    HW2 9840   2.223   5.466   6.600
 2981SOL     OW 9841   2.488   1.287   0.302
 2981SOL    HW1 9842   2.583   1.314   0.291
 2981SOL    HW2 9843   2.481   1.187   0.307
 2982SOL     OW 9844   1.929   6.007   2.294
 2982SOL    HW1 9845   1.894   6.063   2.370
 2982SOL    HW2 9846   2.002   5.947   2.328
 2983SOL     OW 9847   6.971   2.029   1.037
 2983SOL    HW1 9848   6.936   2.122   1.043
 2983SOL    HW2 9849   6.931   1.974   1.111
 2984SOL     OW 9850   5.711   5.081   6.252
 2984SOL    HW1 9851   5.719   5.069   6.153
 2984SOL    HW2 9852   5.800   5.069   6.295
 2985SOL     OW 9853   0.861   1.552   5.012
 2985SOL    HW1 9854   0.905   1.531   4.925
 2985SOL    HW2 9855   0.782   1.612   4.997
 2986SOL     OW 9856   3.573   4.160   2.078
 2986SOL    HW1 9857   3.521   4.105   2.143
 2986SOL    HW2 9858   3.661   4.187   2.118
 2987SOL     OW 9859   1.420   1.083   4.169
 2987SOL    HW1 9860   1.512   1.119   4.188
 2987SOL    HW2 9861   1.390   1.027   4.247
 2988SOL     OW 9862   1.680   6.972   1.602
 2988SOL    HW1 9863   1.675   0.030   1.655
 2988SOL    HW2 9864   1.737   6.906   1.651
 2989SOL     OW 9865   5.513   3.877   5.186
 2989SOL    HW1 9866   5.512   3.940   5.108
 2989SOL    HW2 9867   5.420   3.844   5.203
 2990SOL     OW 9868   4.874   2.417   4.640
 2990SOL    HW1 9869   4.786   2.374   4.659
 2990SOL    HW2 9870   4.889   2.418   4.541
 2991SOL     OW 9871   6.091   3.195   6.039
 2991SOL    HW1 9872   6.118   3.268   5.976
 2991SOL    HW2 9873   6.117   3.220   6.132
 2992SOL     OW 9874   1.595   4.841   4.897
 2992SOL    HW1 9875   1.525   4.777   4.929
 2992SOL    HW2 9876   1.606   4.831   4.798
 2993SOL     OW 9877   0.177   4.924   0.539
 2993SOL    HW1 9878   0.233   4.968   0.469
 2993SOL    HW2 9879   0.084   4.914   0.505
 2994SOL     OW 9880   3.759   5.837   0.265
 2994SOL    HW1 9881   3.791   5.780   0.189
 2994SOL    HW2 9882   3.821   5.915   0.276
 2995SOL     OW 9883   4.189   0.187   0.111
 2995SOL    HW1 9884   4.180   0.105   0.055
 2995SOL    HW2 9885   4.230   0.163   0.199
 2996SOL     OW 9886   0.627   2.137   4.663
 2996SOL    HW1 9887   0.620   2.110   4.567
 2996SOL    HW2 9888   0.636   2.055   4.720
 2997SOL     OW 9889   4.755   0.005   3.262
 2997SOL    HW1 9890   4.853   0.000   3.281
 2997SOL    HW2 9891   4.739   0.003   3.164
 2998SOL     OW 9892   3.939   6.742   3.328
 2998SOL    HW1 9893   3.842   6.744   3.352
 2998SOL    HW2 9894   3.959   6.815   3.263
 2999SOL     OW 9895   2.913   5.068   5.954
 2999SOL    HW1 9896   2.952   5.157   5.976
 2999SOL    HW2 9897   2.816   5.078   5.931
 3000SOL     OW 9898   2.775   4.078   6.634
 3000SOL    HW1 9899   2.749   4.122   6.549
 3000SOL    HW2 9900   2.796   3.981   6.618
 3001SOL     OW 9901   6.172   2.022   0.410
 3001SOL    HW1 9902   6.260   2.000   0.369
 3001SOL    HW2 9903   6.158   1.965   0.491
 3002SOL     OW 9904   3.370   1.813   0.491
 3002SOL    HW1 9905   3.335   1.721   0.506
 3002SOL    HW2 9906   3.469   1.815   0.510
 3003SOL     OW 9907   0.850   6.531   1.340
 3003SOL    HW1 9908   0.925   6.517   1.404
 3003SOL    HW2 9909   0.801   6.444   1.326
 3004SOL     OW 9910   1.587   4.752   3.122
 3004SOL    HW1 9911   1.504   4.752   3.178
 3004SOL    HW2 9912   1.665   4.726   3.179
 3005SOL     OW 9913   1.502   3.265   6.544
 3005SOL    HW1 9914   1.547   3.349   6.513
 3005SOL    HW2 9915   1.551   3.227   6.622
 3006SOL     OW 9916   5.545   1.500   4.865
 3006SOL    HW1 9917   5.615   1.431   4.883
 3006SOL    HW2 9918   5.560   1.579   4.925
 3007SOL     OW 9919   4.843   5.283   0.019
 3007SOL    HW1 9920   4.792   5.278   0.104
 3007SOL    HW2 9921   4.932   5.238   0.029
 3008SOL     OW 9922   3.322   2.175   6.393
 3008SOL    HW1 9923   3.260   2.105   6.356
 3008SOL    HW2 9924   3.281   2.265   6.380
 3009SOL     OW 9925   6.996   2.936   2.585
 3009SOL    HW1 9926   7.016   2.973   2.675
 3009SOL    HW2 9927   0.049   2.890   2.549
 3010SOL     OW 9928   2.714   5.514   4.538
 3010SOL    HW1 9929   2.776   5.529   4.614
 3010SOL    HW2 9930   2.651   5.439   4.561
 3011SOL     OW 9931   6.203   0.342   1.777
 3011SOL    HW1 9932   6.203   0.311   1.682
 3011SOL    HW2 9933   6.274   0.293   1.828
 3012SOL     OW 9934   2.436   3.370   0.027
 3012SOL    HW1 9935   2.439   3.377   0.126
 3012SOL    HW2 9936   2.407   3.278   0.001
 3013SOL     OW 9937   6.400   4.575   3.294
 3013SOL    HW1 9938   6.490   4.618   3.286
 3013SOL    HW2 9939   6.340   4.611   3.223
 3014SOL     OW 9940   4.606   1.734   6.450
 3014SOL    HW1 9941   4.663   1.692   6.520
 3014SOL    HW2 9942   4.644   1.824   6.426
 3015SOL     OW 9943   2.237   1.830   0.112
 3015SOL    HW1 9944   2.285   1.917   0.124
 3015SOL    HW2 9945   2.299   1.762   0.074
 3016SOL     OW 9946   3.239   6.606   4.474
 3016SOL    HW1 9947   3.205   6.512   4.473
 3016SOL    HW2 9948   3.213   6.651   4.559
 3017SOL     OW 9949   5.228   4.982   2.686
 3017SOL    HW1 9950   5.197   4.985   2.781
 3017SOL    HW2 9951   5.216   4.890   2.649
 3018SOL     OW 9952   3.623   6.899   6.762
 3018SOL    HW1 9953   3.542   6.847   6.789
 3018SOL    HW2 9954   3.694   6.892   6.832
 3019SOL     OW 9955   0.846   6.989   0.254
 3019SOL    HW1 9956   0.768   0.014   0.218
 3019SOL    HW2 9957   0.813   6.905   0.296
 3020SOL     OW 9958   4.551   3.194   0.666
 3020SOL    HW1 9959   4.457   3.172   0.641
 3020SOL    HW2 9960   4.574   3.147   0.752
 3021SOL     OW 9961   2.647   6.969   3.959
 3021SOL    HW1 9962   2.619   7.015   4.042
 3021SOL    HW2 9963   2.730   7.011   3.923
 3022SOL     OW 9964   4.119   5.439   4.438
 3022SOL    HW1 9965   4.104   5.391   4.352
 3022SOL    HW2 9966   4.191   5.508   4.426
 3023SOL     OW 9967   3.668   6.678   3.038
 3023SOL    HW1 9968   3.747   6.732   3.009
 3023SOL    HW2 9969   3.591   6.698   2.977
 3024SOL     OW 9970   6.066   6.587   5.159
 3024SOL    HW1 9971   6.097   6.667   5.212
 3024SOL    HW2 9972   6.129   6.511   5.174
 3025SOL     OW 9973   3.932   6.046   1.859
 3025SOL    HW1 9974   3.843   6.091   1.861
 3025SOL    HW2 9975   3.934   5.974   1.929
 3026SOL     OW 9976   0.562   1.383   6.482
 3026SOL    HW1 9977   0.574   1.291   6.517
 3026SOL    HW2 9978   0.604   1.389   6.391
 3027SOL     OW 9979   3.892   1.498   2.236
 3027SOL    HW1 9980   3.874   1.583   2.186
 3027SOL    HW2 9981   3.863   1.420   2.180
 3028SOL     OW 9982   1.628   3.970   6.530
 3028SOL    HW1 9983   1.648   4.059   6.571
 3028SOL    HW2 9984   1.548   3.930   6.575
 3029SOL     OW 9985   1.073   2.533   3.704
 3029SOL    HW1 9986   1.106   2.462   3.642
 3029SOL    HW2 9987   1.026   2.491   3.781
 3030SOL     OW 9988   1.170   4.247   0.807
 3030SOL    HW1 9989   1.215   4.331   0.777
 3030SOL    HW2 9990   1.196   4.172   0.747
 3031SOL     OW 9991   1.260   4.482   0.707
 3031SOL    HW1 9992   1.196   4.558   0.694
 3031SOL    HW2 9993   1.333   4.488   0.640
 3032SOL     OW 9994   2.308   5.782   2.126
 3032SOL    HW1 9995   2.287   5.701   2.071
 3032SOL    HW2 9996   2.277   5.864   2.078
 3033SOL     OW 9997   6.413   1.518   2.703
 3033SOL    HW1 9998   6.424   1.555   2.610
 3033SOL    HW2 9999   6.333   1.459   2.705
 3034SOL     OW10000   0.785   6.132   3.636
 3034SOL    HW110001   0.818   6.058   3.578
 3034SOL    HW210002   0.724   6.095   3.706
 3035SOL     OW10003   1.129   3.044   6.230
 3035SOL    HW110004   1.073   3.052   6.148
 3035SOL    HW210005   1.186   2.962   6.224
 3036SOL     OW10006   1.310   2.476   5.144
 3036SOL    HW110007   1.333   2.385   5.110
 3036SOL    HW210008   1.210   2.486   5.147
 3037SOL     OW10009   6.505   5.014   5.153
 3037SOL    HW110010   6.535   4.995   5.246
 3037SOL    HW210011   6.531   5.108   5.128
 3038SOL     OW10012   5.241   4.262   6.019
 3038SOL    HW110013   5.142   4.266   6.028
 3038SOL    HW210014   5.275   4.346   5.976
 3039SOL     OW10015   0.114   3.275   0.255
 3039SOL    HW110016   0.125   3.190   0.205
 3039SOL    HW210017   0.046   3.262   0.328
 3040SOL     OW10018   3.173   4.605   6.003
 3040SOL    HW110019   3.202   4.520   6.047
 3040SOL    HW210020   3.232   4.623   5.925
 3041SOL     OW10021   0.988   4.975   6.253
 3041SOL    HW110022   1.011   5.072   6.265
 3041SOL    HW210023   0.961   4.936   6.341
 3042SOL     OW10024   5.650   6.175   2.595
 3042SOL    HW110025   5.595   6.180   2.678
 3042SOL    HW210026   5.702   6.089   2.595
 3043SOL     OW10027   3.445   3.978   1.007
 3043SOL    HW110028   3.419   3.935   1.093
 3043SOL    HW210029   3.451   4.077   1.019
 3044SOL     OW10030   2.769   4.828   5.533
 3044SOL    HW110031   2.827   4.749   5.518
 3044SOL    HW210032   2.793   4.872   5.620
 3045SOL     OW10033   4.902   6.730   3.141
 3045SOL    HW110034   4.945   6.643   3.165
 3045SOL    HW210035   4.804   6.716   3.127
 3046SOL     OW10036   3.507   6.629   0.464
 3046SOL    HW110037   3.495   6.530   0.462
 3046SOL    HW210038   3.447   6.671   0.396
 3047SOL     OW10039   6.751   6.968   0.825
 3047SOL    HW110040   6.745   0.014   0.892
 3047SOL    HW210041   6.659   6.935   0.804
 3048SOL     OW10042   4.847   2.513   0.758
 3048SOL    HW110043   4.921   2.541   0.819
 3048SOL    HW210044   4.763   2.562   0.782
 3049SOL     OW10045   0.922   0.532   4.245
 3049SOL    HW110046   1.010   0.577   4.259
 3049SOL    HW210047   0.876   0.572   4.166
 3050SOL     OW10048   2.451   2.747   1.562
 3050SOL    HW110049   2.458   2.648   1.571
 3050SOL    HW210050   2.517   2.790   1.623
 3051SOL     OW10051   2.903   6.726   6.422
 3051SOL    HW110052   2.865   6.799   6.365
 3051SOL    HW210053   2.900   6.754   6.518
 3052SOL     OW10054   5.302   5.372   2.233
 3052SOL    HW110055   5.390   5.402   2.270
 3052SOL    HW210056   5.240   5.350   2.309
 3053SOL     OW10057   0.386   3.453   1.281
 3053SOL    HW110058   0.313   3.507   1.239
 3053SOL    HW210059   0.463   3.446   1.218
 3054SOL     OW10060   5.972   0.704   1.896
 3054SOL    HW110061   6.071   0.718   1.901
 3054SOL    HW210062   5.941   0.721   1.803
 3055SOL     OW10063   5.667   0.195   5.319
 3055SOL    HW110064   5.759   0.161   5.301
 3055SOL    HW210065   5.612   0.123   5.361
 3056SOL     OW10066   6.183   1.479   5.808
 3056SOL    HW110067   6.205   1.402   5.748
 3056SOL    HW210068   6.186   1.564   5.755
 3057SOL     OW10069   5.076   6.533   4.459
 3057SOL    HW110070   5.031   6.497   4.541
 3057SOL    HW210071   5.175   6.540   4.476
 3058SOL     OW10072   6.292   4.206   0.805
 3058SOL    HW110073   6.390   4.225   0.808
 3058SOL    HW210074   6.276   4.121   0.754
 3059SOL     OW10075   2.711   1.829   4.344
 3059SOL    HW110076   2.615   1.814   4.368
 3059SOL    HW210077   2.734   1.772   4.265
 3060SOL     OW10078   2.261   5.139   6.978
 3060SOL    HW110079   2.289   5.207   6.909
 3060SOL    HW210080   2.325   5.063   6.976
 3061SOL     OW10081   5.999   5.704   5.767
 3061SOL    HW110082   5.955   5.617   5.789
 3061SOL    HW210083   6.074   5.720   5.831
 3062SOL     OW10084   2.763   5.627   1.427
 3062SOL    HW110085   2.726   5.536   1.409
 3062SOL    HW210086   2.693   5.696   1.408
 3063SOL     OW10087   0.681   4.510   1.204
 3063SOL    HW110088   0.725   4.482   1.290
 3063SOL    HW210089   0.598   4.562   1.225
 3064SOL     OW10090   4.152   3.620   0.266
 3064SOL    HW110091   4.173   3.625   0.364
 3064SOL    HW210092   4.212   3.553   0.223
 3065SOL     OW10093   1.255   1.891   6.359
 3065SOL    HW110094   1.268   1.976   6.308
 3065SOL    HW210095   1.168   1.894   6.407
 3066SOL     OW10096   5.141   5.421   6.109
 3066SOL    HW110097   5.221   5.423   6.169
 3066SOL    HW210098   5.068   5.367   6.151
 3067SOL     OW10099   3.074   1.415   0.765
 3067SOL    HW110100   3.034   1.327   0.788
 3067SOL    HW210101   3.017   1.488   0.803
 3068SOL     OW10102   6.976   0.332   1.799
 3068SOL    HW110103   0.016   0.399   1.768
 3068SOL    HW210104   7.022   0.257   1.845
 3069SOL     OW10105   6.074   6.406   3.506
 3069SOL    HW110106   6.121   6.320   3.489
 3069SOL    HW210107   5.978   6.398   3.480
 3070SOL     OW10108   2.479   0.790   6.601
 3070SOL    HW110109   2.520   0.868   6.648
 3070SOL    HW210110   2.390   0.770   6.642
 3071SOL     OW10111   6.490   5.187   3.815
 3071SOL    HW110112   6.446   5.239   3.742
 3071SOL    HW210113   6.576   5.149   3.781
 3072SOL     OW10114   1.941   5.963   6.810
 3072SOL    HW110115   1.978   6.029   6.876
 3072SOL    HW210116   1.853   5.995   6.776
 3073SOL     OW10117   0.025   4.054   1.840
 3073SOL    HW110118   0.036   4.048   1.939
 3073SOL    HW210119   6.995   3.979   1.808
 3074SOL     OW10120   0.930   4.225   0.948
 3074SOL    HW110121   0.929   4.289   1.025
 3074SOL    HW210122   0.998   4.254   0.881
 3075SOL     OW10123   2.526   5.261   3.832
 3075SOL    HW110124   2.611   5.297   3.868
 3075SOL    HW210125   2.538   5.236   3.736
 3076SOL     OW10126   6.793   1.523   4.594
 3076SOL    HW110127   6.889   1.533   4.618
 3076SOL    HW210128   6.738   1.521   4.677
 3077SOL     OW10129   6.108   3.485   2.103
 3077SOL    HW110130   6.027   3.537   2.078
 3077SOL    HW210131   6.082   3.407   2.160
 3078SOL     OW10132   6.648   3.356   1.895
 3078SOL    HW110133   6.577   3.338   1.964
 3078SOL    HW210134   6.663   3.455   1.889
 3079SOL     OW10135   3.273   2.173   3.614
 3079SOL    HW110136   3.269   2.186   3.713
 3079SOL    HW210137   3.368   2.161   3.585
 3080SOL     OW10138   4.975   4.314   2.099
 3080SOL    HW110139   4.960   4.216   2.101
 3080SOL    HW210140   5.036   4.341   2.173
 3081SOL     OW10141   0.735   4.650   5.807
 3081SOL    HW110142   0.685   4.734   5.825
 3081SOL    HW210143   0.764   4.648   5.711
 3082SOL     OW10144   2.601   5.746   3.996
 3082SOL    HW110145   2.643   5.813   4.057
 3082SOL    HW210146   2.669   5.716   3.929
 3083SOL     OW10147   3.052   6.183   3.008
 3083SOL    HW110148   3.026   6.160   2.914
 3083SOL    HW210149   3.008   6.119   3.071
 3084SOL     OW10150   6.631   4.023   2.731
 3084SOL    HW110151   6.611   4.079   2.651
 3084SOL    HW210152   6.665   4.081   2.805
 3085SOL     OW10153   5.688   4.191   0.877
 3085SOL    HW110154   5.770   4.135   0.861
 3085SOL    HW210155   5.664   4.239   0.793
 3086SOL     OW10156   4.268   0.972   0.165
 3086SOL    HW110157   4.256   1.034   0.088
 3086SOL    HW210158   4.358   0.986   0.206
 3087SOL     OW10159   2.783   6.300   3.185
 3087SOL    HW110160   2.873   6.271   3.154
 3087SOL    HW210161   2.786   6.320   3.283
 3088SOL     OW10162   1.492   3.167   5.622
 3088SOL    HW110163   1.480   3.074   5.657
 3088SOL    HW210164   1.420   3.188   5.556
 3089SOL     OW10165   4.550   2.549   4.650
 3089SOL    HW110166   4.456   2.519   4.633
 3089SOL    HW210167   4.606   2.533   4.569
 3090SOL     OW10168   2.249   1.403   2.255
 3090SOL    HW110169   2.204   1.381   2.341
 3090SOL    HW210170   2.181   1.439   2.190
 3091SOL     OW10171   1.608   1.127   0.812
 3091SOL    HW110172   1.616   1.214   0.764
 3091SOL    HW210173   1.619   1.052   0.747
 3092SOL     OW10174   5.048   6.525   1.093
 3092SOL    HW110175   5.006   6.577   1.167
 3092SOL    HW210176   5.107   6.454   1.132
 3093SOL     OW10177   5.659   6.450   5.698
 3093SOL    HW110178   5.636   6.538   5.656
 3093SOL    HW210179   5.756   6.430   5.681
 3094SOL     OW10180   3.015   0.571   4.123
 3094SOL    HW110181   3.044   0.634   4.051
 3094SOL    HW210182   2.943   0.511   4.088
 3095SOL     OW10183   2.137   3.728   6.033
 3095SOL    HW110184   2.168   3.794   5.966
 3095SOL    HW210185   2.188   3.643   6.023
 3096SOL     OW10186   0.956   4.435   5.307
 3096SOL    HW110187   0.886   4.378   5.350
 3096SOL    HW210188   0.919   4.479   5.226
 3097SOL     OW10189   5.621   3.099   0.066
 3097SOL    HW110190   5.600   3.011   0.023
 3097SOL    HW210191   5.536   3.150   0.082
 3098SOL     OW10192   1.850   3.420   2.012
 3098SOL    HW110193   1.831   3.352   2.083
 3098SOL    HW210194   1.948   3.419   1.991
 3099SOL     OW10195   1.063   6.311   3.891
 3099SOL    HW110196   1.093   6.239   3.954
 3099SOL    HW210197   1.143   6.357   3.852
 3100SOL     OW10198   7.002   6.281   2.423
 3100SOL    HW110199   6.941   6.292   2.345
 3100SOL    HW210200   6.948   6.272   2.507
 3101SOL     OW10201   4.559   6.300   5.725
 3101SOL    HW110202   4.623   6.225   5.738
 3101SOL    HW210203   4.580   6.374   5.789
 3102SOL     OW10204   6.907   6.145   1.155
 3102SOL    HW110205   6.848   6.189   1.223
 3102SOL    HW210206   6.961   6.214   1.107
 3103SOL     OW10207   4.768   0.698   1.444
 3103SOL    HW110208   4.809   0.611   1.470
 3103SOL    HW210209   4.679   0.682   1.401
 3104SOL     OW10210   3.544   0.737   6.463
 3104SOL    HW110211   3.566   0.790   6.381
 3104SOL    HW210212   3.474   0.785   6.516
 3105SOL     OW10213   4.600   3.750   1.476
 3105SOL    HW110214   4.506   3.777   1.498
 3105SOL    HW210215   4.628   3.794   1.391
 3106SOL     OW10216   5.508   6.808   4.854
 3106SOL    HW110217   5.480   6.764   4.768
 3106SOL    HW210218   5.542   6.739   4.917
 3107SOL     OW10219   4.316   1.323   4.520
 3107SOL    HW110220   4.308   1.254   4.448
 3107SOL    HW210221   4.409   1.323   4.556
 3108SOL     OW10222   2.009   5.327   4.971
 3108SOL    HW110223   2.051   5.280   4.894
 3108SOL    HW210224   2.066   5.317   5.052
 3109SOL     OW10225   6.309   0.395   4.412
 3109SOL    HW110226   6.210   0.406   4.398
 3109SOL    HW210227   6.336   0.303   4.385
 3110SOL     OW10228   2.202   4.268   3.350
 3110SOL    HW110229   2.181   4.272   3.252
 3110SOL    HW210230   2.272   4.336   3.371
 3111SOL     OW10231   0.450   4.375   3.261
 3111SOL    HW110232   0.531   4.318   3.251
 3111SOL    HW210233   0.389   4.361   3.182
 3112SOL     OW10234   3.097   2.969   0.073
 3112SOL    HW110235   3.055   2.985   7.011
 3112SOL    HW210236   3.069   3.042   0.136
 3113SOL     OW10237   3.049   6.641   2.793
 3113SOL    HW110238   3.113   6.618   2.867
 3113SOL    HW210239   3.084   6.605   2.706
 3114SOL     OW10240   4.219   1.661   0.254
 3114SOL    HW110241   4.132   1.660   0.304
 3114SOL    HW210242   4.286   1.604   0.302
 3115SOL     OW10243   3.936   4.586   5.354
 3115SOL    HW110244   4.034   4.589   5.335
 3115SOL    HW210245   3.906   4.490   5.355
 3116SOL     OW10246   0.197   1.562   0.320
 3116SOL    HW110247   0.265   1.567   0.246
 3116SOL    HW210248   0.160   1.470   0.325
 3117SOL     OW10249   4.617   3.000   5.599
 3117SOL    HW110250   4.615   2.911   5.645
 3117SOL    HW210251   4.628   2.986   5.501
 3118SOL     OW10252   0.964   6.658   2.014
 3118SOL    HW110253   1.002   6.702   2.095
 3118SOL    HW210254   0.988   6.561   2.015
 3119SOL     OW10255   2.911   2.365   5.804
 3119SOL    HW110256   2.824   2.317   5.792
 3119SOL    HW210257   2.895   2.464   5.805
 3120SOL     OW10258   3.415   0.834   6.019
 3120SOL    HW110259   3.400   0.790   5.930
 3120SOL    HW210260   3.380   0.775   6.092
 3121SOL     OW10261   6.108   2.205   4.351
 3121SOL    HW110262   6.120   2.168   4.258
 3121SOL    HW210263   6.139   2.136   4.417
 3122SOL     OW10264   4.456   4.730   5.319
 3122SOL    HW110265   4.376   4.728   5.379
 3122SOL    HW210266   4.461   4.817   5.271
 3123SOL     OW10267   1.595   1.119   2.922
 3123SOL    HW110268   1.610   1.029   2.880
 3123SOL    HW210269   1.595   1.110   3.021
 3124SOL     OW10270   5.299   6.997   3.722
 3124SOL    HW110271   5.318   0.058   3.679
 3124SOL    HW210272   5.261   7.011   3.813
 3125SOL     OW10273   1.366   2.896   5.367
 3125SOL    HW110274   1.453   2.935   5.398
 3125SOL    HW210275   1.335   2.945   5.285
 3126SOL     OW10276   5.146   4.224   5.556
 3126SOL    HW110277   5.099   4.210   5.643
 3126SOL    HW210278   5.203   4.306   5.561
 3127SOL     OW10279   1.831   2.415   5.093
 3127SOL    HW110280   1.801   2.480   5.023
 3127SOL    HW210281   1.884   2.463   5.163
 3128SOL     OW10282   3.432   0.778   0.459
 3128SOL    HW110283   3.515   0.729   0.431
 3128SOL    HW210284   3.446   0.876   0.447
 3129SOL     OW10285   4.953   3.688   0.929
 3129SOL    HW110286   5.051   3.704   0.918
 3129SOL    HW210287   4.937   3.592   0.951
 3130SOL     OW10288   1.536   4.275   1.258
 3130SOL    HW110289   1.521   4.245   1.163
 3130SOL    HW210290   1.625   4.320   1.264
 3131SOL     OW10291   0.661   3.212   2.307
 3131SOL    HW110292   0.754   3.175   2.303
 3131SOL    HW210293   0.631   3.237   2.216
 3132SOL     OW10294   4.672   5.132   6.550
 3132SOL    HW110295   4.613   5.211   6.532
 3132SOL    HW210296   4.695   5.129   6.647
 3133SOL     OW10297   3.762   0.992   2.915
 3133SOL    HW110298   3.664   1.001   2.898
 3133SOL    HW210299   3.787   1.052   2.991
 3134SOL     OW10300   4.208   4.941   1.561
 3134SOL    HW110301   4.241   4.863   1.615
 3134SOL    HW210302   4.285   5.000   1.537
 3135SOL     OW10303   5.075   6.722   6.140
 3135SOL    HW110304   5.142   6.659   6.102
 3135SOL    HW210305   5.086   6.726   6.240
 3136SOL     OW10306   5.556   0.191   2.010
 3136SOL    HW110307   5.545   0.113   2.071
 3136SOL    HW210308   5.565   0.160   1.916
 3137SOL     OW10309   6.595   6.619   3.062
 3137SOL    HW110310   6.536   6.674   3.121
 3137SOL    HW210311   6.548   6.600   2.976
 3138SOL     OW10312   6.080   5.585   3.541
 3138SOL    HW110313   6.128   5.570   3.454
 3138SOL    HW210314   5.987   5.618   3.523
 3139SOL     OW10315   3.446   4.899   1.536
 3139SOL    HW110316   3.481   4.975   1.482
 3139SOL    HW210317   3.361   4.865   1.496
 3140SOL     OW10318   6.540   6.576   5.354
 3140SOL    HW110319   6.549   6.573   5.254
 3140SOL    HW210320   6.599   6.507   5.395
 3141SOL     OW10321   0.493   6.929   6.972
 3141SOL    HW110322   0.579   6.979   6.985
 3141SOL    HW210323   0.513   6.833   6.953
 3142SOL     OW10324   3.425   0.734   3.281
 3142SOL    HW110325   3.378   0.646   3.278
 3142SOL    HW210326   3.361   0.805   3.310
 3143SOL     OW10327   6.142   1.729   6.728
 3143SOL    HW110328   6.230   1.775   6.712
 3143SOL    HW210329   6.158   1.641   6.773
 3144SOL     OW10330   4.704   3.662   0.620
 3144SOL    HW110331   4.721   3.712   0.705
 3144SOL    HW210332   4.610   3.629   0.619
 3145SOL     OW10333   2.016   6.431   2.313
 3145SOL    HW110334   2.009   6.530   2.305
 3145SOL    HW210335   2.009   6.404   2.409
 3146SOL     OW10336   0.515   1.161   4.894
 3146SOL    HW110337   0.530   1.113   4.807
 3146SOL    HW210338   0.503   1.093   4.967
 3147SOL     OW10339   3.043   5.127   6.949
 3147SOL    HW110340   3.080   5.209   6.994
 3147SOL    HW210341   3.113   5.056   6.946
 3148SOL     OW10342   0.067   0.394   4.164
 3148SOL    HW110343   0.105   0.462   4.102
 3148SOL    HW210344   7.004   0.366   4.132
 3149SOL     OW10345   2.967   1.187   6.687
 3149SOL    HW110346   3.002   1.257   6.748
 3149SOL    HW210347   2.869   1.174   6.703
 3150SOL     OW10348   0.069   6.170   5.009
 3150SOL    HW110349   0.012   6.253   5.007
 3150SOL    HW210350   0.013   6.092   5.037
 3151SOL     OW10351   6.800   1.314   5.685
 3151SOL    HW110352   6.800   1.228   5.737
 3151SOL    HW210353   6.714   1.362   5.700
 3152SOL     OW10354   0.447   3.866   0.091
 3152SOL    HW110355   0.515   3.818   0.035
 3152SOL    HW210356   0.494   3.920   0.160
 3153SOL     OW10357   6.303   5.354   0.013
 3153SOL    HW110358   6.294   5.352   0.113
 3153SOL    HW210359   6.373   5.422   7.015
 3154SOL     OW10360   6.456   1.000   1.120
 3154SOL    HW110361   6.398   0.954   1.052
 3154SOL    HW210362   6.427   0.974   1.212
 3155SOL     OW10363   6.110   4.801   0.327
 3155SOL    HW110364   6.158   4.777   0.242
 3155SOL    HW210365   6.146   4.886   0.363
 3156SOL     OW10366   3.271   4.094   2.097
 3156SOL    HW110367   3.258   4.111   2.195
 3156SOL    HW210368   3.335   4.160   2.059
 3157SOL     OW10369   1.878   1.462   4.913
 3157SOL    HW110370   1.781   1.444   4.928
 3157SOL    HW210371   1.913   1.519   4.987
 3158SOL     OW10372   2.210   1.028   4.747
 3158SOL    HW110373   2.207   0.995   4.841
 3158SOL    HW210374   2.257   1.116   4.744
 3159SOL     OW10375   5.518   0.272   6.603
 3159SOL    HW110376   5.460   0.282   6.522
 3159SOL    HW210377   5.613   0.262   6.574
 3160SOL     OW10378   1.155   6.446   5.748
 3160SOL    HW110379   1.200   6.414   5.832
 3160SOL    HW210380   1.065   6.484   5.771
 3161SOL     OW10381   2.630   2.385   2.704
 3161SOL    HW110382   2.715   2.332   2.708
 3161SOL    HW210383   2.592   2.378   2.612
 3162SOL     OW10384   1.033   5.636   1.106
 3162SOL    HW110385   1.017   5.538   1.093
 3162SOL    HW210386   0.954   5.687   1.071
 3163SOL     OW10387   4.033   4.080   6.929
 3163SOL    HW110388   4.111   4.104   6.870
 3163SOL    HW210389   4.050   4.112   7.022
 3164SOL     OW10390   3.824   5.542   2.190
 3164SOL    HW110391   3.886   5.575   2.119
 3164SOL    HW210392   3.768   5.467   2.153
 3165SOL     OW10393   0.723   5.767   1.896
 3165SOL    HW110394   0.787   5.708   1.848
 3165SOL    HW210395   0.737   5.862   1.867
 3166SOL     OW10396   4.890   2.096   3.841
 3166SOL    HW110397   4.972   2.041   3.853
 3166SOL    HW210398   4.906   2.166   3.771
 3167SOL     OW10399   5.665   4.328   0.575
 3167SOL    HW110400   5.733   4.401   0.563
 3167SOL    HW210401   5.667   4.266   0.497
 3168SOL     OW10402   5.860   3.170   0.169
 3168SOL    HW110403   5.762   3.153   0.155
 3168SOL    HW210404   5.873   3.264   0.201
 3169SOL     OW10405   2.125   3.946   3.615
 3169SOL    HW110406   2.144   3.966   3.711
 3169SOL    HW210407   2.113   3.847   3.604
 3170SOL     OW10408   4.276   5.494   2.247
 3170SOL    HW110409   4.203   5.557   2.272
 3170SOL    HW210410   4.309   5.447   2.329
 3171SOL     OW10411   6.214   1.995   1.520
 3171SOL    HW110412   6.267   2.074   1.489
 3171SOL    HW210413   6.117   2.010   1.498
 3172SOL     OW10414   0.112   5.068   6.543
 3172SOL    HW110415   0.163   5.134   6.488
 3172SOL    HW210416   0.087   4.990   6.486
 3173SOL     OW10417   2.987   2.099   6.516
 3173SOL    HW110418   3.060   2.106   6.585
 3173SOL    HW210419   2.976   2.187   6.470
 3174SOL     OW10420   2.911   3.012   6.862
 3174SOL    HW110421   2.997   2.977   6.824
 3174SOL    HW210422   2.900   3.108   6.834
 3175SOL     OW10423   5.840   1.482   1.648
 3175SOL    HW110424   5.848   1.430   1.733
 3175SOL    HW210425   5.919   1.543   1.639
 3176SOL     OW10426   0.898   3.133   5.505
 3176SOL    HW110427   0.858   3.140   5.413
 3176SOL    HW210428   0.944   3.218   5.528
 3177SOL     OW10429   5.189   4.121   3.709
 3177SOL    HW110430   5.147   4.105   3.620
 3177SOL    HW210431   5.266   4.060   3.722
 3178SOL     OW10432   6.396   2.408   6.884
 3178SOL    HW110433   6.491   2.397   6.854
 3178SOL    HW210434   6.394   2.426   6.983
 3179SOL     OW10435   1.140   2.035   1.854
 3179SOL    HW110436   1.163   2.050   1.951
 3179SOL    HW210437   1.222   2.046   1.798
 3180SOL     OW10438   6.433   6.923   0.483
 3180SOL    HW110439   6.518   6.893   0.441
 3180SOL    HW210440   6.430   6.893   0.578
 3181SOL     OW10441   6.552   2.693   3.968
 3181SOL    HW110442   6.463   2.674   3.927
 3181SOL    HW210443   6.540   2.755   4.046
 3182SOL     OW10444   2.565   0.247   0.525
 3182SOL    HW110445   2.524   0.199   0.448
 3182SOL    HW210446   2.516   0.221   0.609
 3183SOL     OW10447   4.529   4.457   2.502
 3183SOL    HW110448   4.571   4.405   2.577
 3183SOL    HW210449   4.453   4.511   2.538
 3184SOL     OW10450   0.420   2.183   3.224
 3184SOL    HW110451   0.381   2.095   3.252
 3184SOL    HW210452   0.519   2.177   3.224
 3185SOL     OW10453   4.698   6.307   6.812
 3185SOL    HW110454   4.654   6.233   6.760
 3185SOL    HW210455   4.630   6.354   6.868
 3186SOL     OW10456   3.063   2.153   6.949
 3186SOL    HW110457   3.126   2.116   6.881
 3186SOL    HW210458   2.991   2.204   6.902
 3187SOL     OW10459   3.890   5.414   1.805
 3187SOL    HW110460   3.881   5.453   1.714
 3187SOL    HW210461   3.942   5.328   1.800
 3188SOL     OW10462   1.472   6.967   4.284
 3188SOL    HW110463   1.484   0.013   4.352
 3188SOL    HW210464   1.381   6.974   4.243
 3189SOL     OW10465   1.140   1.678   0.932
 3189SOL    HW110466   1.159   1.677   0.834
 3189SOL    HW210467   1.128   1.584   0.965
 3190SOL     OW10468   0.008   5.745   0.187
 3190SOL    HW110469   0.009   5.825   0.127
 3190SOL    HW210470   6.977   5.764   0.266
 3191SOL     OW10471   4.738   5.185   1.594
 3191SOL    HW110472   4.798   5.134   1.532
 3191SOL    HW210473   4.644   5.153   1.584
 3192SOL     OW10474   0.576   2.982   0.727
 3192SOL    HW110475   0.619   3.054   0.674
 3192SOL    HW210476   0.593   2.998   0.825
 3193SOL     OW10477   3.538   1.533   5.084
 3193SOL    HW110478   3.606   1.578   5.141
 3193SOL    HW210479   3.490   1.601   5.029
 3194SOL     OW10480   1.543   2.234   5.786
 3194SOL    HW110481   1.613   2.256   5.717
 3194SOL    HW210482   1.566   2.280   5.871
 3195SOL     OW10483   0.962   1.508   1.812
 3195SOL    HW110484   0.903   1.463   1.745
 3195SOL    HW210485   1.050   1.529   1.769
 3196SOL     OW10486   0.056   0.378   6.758
 3196SOL    HW110487   7.011   0.310   6.747
 3196SOL    HW210488   0.062   0.406   6.854
 3197SOL     OW10489   2.771   6.923   4.916
 3197SOL    HW110490   2.708   6.848   4.898
 3197SOL    HW210491   2.839   6.927   4.843
 3198SOL     OW10492   6.659   3.155   2.847
 3198SOL    HW110493   6.720   3.077   2.862
 3198SOL    HW210494   6.574   3.123   2.805
 3199SOL     OW10495   5.100   3.928   2.925
 3199SOL    HW110496   5.152   3.842   2.932
 3199SOL    HW210497   5.003   3.907   2.918
 3200SOL     OW10498   5.681   3.146   2.483
 3200SOL    HW110499   5.609   3.090   2.442
 3200SOL    HW210500   5.758   3.087   2.507
 3201SOL     OW10501   6.686   4.360   3.060
 3201SOL    HW110502   6.624   4.348   3.138
 3201SOL    HW210503   6.772   4.398   3.092
 3202SOL     OW10504   1.091   5.004   0.499
 3202SOL    HW110505   1.041   4.932   0.546
 3202SOL    HW210506   1.187   4.978   0.489
 3203SOL     OW10507   5.844   1.386   0.824
 3203SOL    HW110508   5.887   1.296   0.829
 3203SOL    HW210509   5.836   1.413   0.728
 3204SOL     OW10510   3.972   0.189   3.249
 3204SOL    HW110511   3.998   0.130   3.326
 3204SOL    HW210512   3.922   0.136   3.182
 3205SOL     OW10513   4.740   3.022   6.092
 3205SOL    HW110514   4.693   2.949   6.042
 3205SOL    HW210515   4.755   3.100   6.031
 3206SOL     OW10516   1.773   4.207   1.045
 3206SOL    HW110517   1.679   4.172   1.050
 3206SOL    HW210518   1.781   4.270   0.967
 3207SOL     OW10519   1.379   1.097   6.651
 3207SOL    HW110520   1.354   1.063   6.560
 3207SOL    HW210521   1.459   1.047   6.684
 3208SOL     OW10522   5.310   6.130   6.481
 3208SOL    HW110523   5.218   6.138   6.443
 3208SOL    HW210524   5.374   6.103   6.410
 3209SOL     OW10525   2.871   5.172   4.308
 3209SOL    HW110526   2.940   5.101   4.296
 3209SOL    HW210527   2.784   5.130   4.332
 3210SOL     OW10528   1.384   4.692   1.189
 3210SOL    HW110529   1.473   4.736   1.204
 3210SOL    HW210530   1.363   4.693   1.091
 3211SOL     OW10531   1.362   3.947   0.831
 3211SOL    HW110532   1.343   3.920   0.925
 3211SOL    HW210533   1.440   3.895   0.796
 3212SOL     OW10534   3.051   6.805   2.405
 3212SOL    HW110535   3.036   6.873   2.333
 3212SOL    HW210536   2.983   6.818   2.478
 3213SOL     OW10537   0.975   0.127   0.004
 3213SOL    HW110538   1.011   0.045   0.049
 3213SOL    HW210539   1.045   0.166   6.972
 3214SOL     OW10540   4.490   5.655   2.124
 3214SOL    HW110541   4.412   5.625   2.179
 3214SOL    HW210542   4.457   5.715   2.050
 3215SOL     OW10543   0.202   4.255   0.858
 3215SOL    HW110544   0.105   4.231   0.854
 3215SOL    HW210545   0.257   4.172   0.854
 3216SOL     OW10546   6.004   5.951   0.663
 3216SOL    HW110547   6.072   5.964   0.591
 3216SOL    HW210548   5.964   6.039   0.687
 3217SOL     OW10549   0.371   5.458   2.448
 3217SOL    HW110550   0.373   5.456   2.548
 3217SOL    HW210551   0.283   5.494   2.418
 3218SOL     OW10552   5.754   2.539   3.231
 3218SOL    HW110553   5.812   2.619   3.248
 3218SOL    HW210554   5.812   2.461   3.206
 3219SOL     OW10555   0.276   1.246   3.998
 3219SOL    HW110556   0.322   1.208   4.078
 3219SOL    HW210557   0.278   1.178   3.923
 3220SOL     OW10558   0.073   5.613   5.617
 3220SOL    HW110559   0.032   5.701   5.639
 3220SOL    HW210560   0.139   5.625   5.542
 3221SOL     OW10561   3.523   0.042   2.355
 3221SOL    HW110562   3.561   7.001   2.418
 3221SOL    HW210563   3.598   0.092   2.311
 3222SOL     OW10564   2.807   1.449   2.982
 3222SOL    HW110565   2.709   1.459   2.963
 3222SOL    HW210566   2.860   1.485   2.905
 3223SOL     OW10567   2.946   6.453   0.226
 3223SOL    HW110568   2.935   6.551   0.237
 3223SOL    HW210569   2.927   6.427   0.131
 3224SOL     OW10570   4.844   3.059   4.874
 3224SOL    HW110571   4.847   3.158   4.890
 3224SOL    HW210572   4.852   3.041   4.776
 3225SOL     OW10573   4.976   1.985   6.238
 3225SOL    HW110574   4.938   2.029   6.156
 3225SOL    HW210575   5.069   2.018   6.254
 3226SOL     OW10576   2.335   1.114   2.298
 3226SOL    HW110577   2.293   1.194   2.255
 3226SOL    HW210578   2.264   1.055   2.336
 3227SOL     OW10579   3.838   3.657   6.457
 3227SOL    HW110580   3.872   3.743   6.494
 3227SOL    HW210581   3.749   3.635   6.499
 3228SOL     OW10582   6.658   3.964   1.051
 3228SOL    HW110583   6.687   3.992   1.142
 3228SOL    HW210584   6.558   3.964   1.045
 3229SOL     OW10585   3.820   0.987   5.705
 3229SOL    HW110586   3.799   0.948   5.794
 3229SOL    HW210587   3.854   0.915   5.644
 3230SOL     OW10588   2.199   5.429   6.212
 3230SOL    HW110589   2.254   5.353   6.249
 3230SOL    HW210590   2.139   5.394   6.140
 3231SOL     OW10591   2.675   0.471   2.140
 3231SOL    HW110592   2.769   0.499   2.163
 3231SOL    HW210593   2.640   0.529   2.067
 3232SOL     OW10594   4.437   6.539   4.707
 3232SOL    HW110595   4.475   6.582   4.789
 3232SOL    HW210596   4.405   6.610   4.644
 3233SOL     OW10597   6.838   2.374   0.669
 3233SOL    HW110598   6.844   2.364   0.768
 3233SOL    HW210599   6.742   2.387   0.643
 3234SOL     OW10600   0.850   2.488   0.247
 3234SOL    HW110601   0.753   2.506   0.231
 3234SOL    HW210602   0.899   2.489   0.159
 3235SOL     OW10603   6.993   6.930   1.607
 3235SOL    HW110604   0.052   6.913   1.559
 3235SOL    HW210605   6.916   6.916   1.545
 3236SOL     OW10606   0.599   4.013   0.241
 3236SOL    HW110607   0.649   3.989   0.324
 3236SOL    HW210608   0.662   4.055   0.175
 3237SOL     OW10609   6.087   1.578   1.869
 3237SOL    HW110610   6.002   1.631   1.866
 3237SOL    HW210611   6.066   1.481   1.870
 3238SOL     OW10612   6.143   5.499   6.745
 3238SOL    HW110613   6.158   5.504   6.843
 3238SOL    HW210614   6.231   5.494   6.698
 3239SOL     OW10615   0.340   1.297   2.600
 3239SOL    HW110616   0.364   1.393   2.611
 3239SOL    HW210617   0.377   1.244   2.677
 3240SOL     OW10618   6.806   6.751   6.542
 3240SOL    HW110619   6.888   6.745   6.484
 3240SOL    HW210620   6.731   6.790   6.489
 3241SOL     OW10621   4.807   1.005   5.867
 3241SOL    HW110622   4.761   1.035   5.783
 3241SOL    HW210623   4.745   1.018   5.945
 3242SOL     OW10624   4.297   4.438   6.413
 3242SOL    HW110625   4.341   4.483   6.335
 3242SOL    HW210626   4.273   4.506   6.482
 3243SOL     OW10627   4.637   4.949   0.557
 3243SOL    HW110628   4.563   4.913   0.499
 3243SOL    HW210629   4.632   5.049   0.559
 3244SOL     OW10630   4.694   6.364   0.093
 3244SOL    HW110631   4.718   6.407   0.006
 3244SOL    HW210632   4.597   6.379   0.112
 3245SOL     OW10633   5.340   2.634   3.709
 3245SOL    HW110634   5.352   2.624   3.808
 3245SOL    HW210635   5.354   2.545   3.665
 3246SOL     OW10636   6.757   0.113   3.056
 3246SOL    HW110637   6.703   0.033   3.031
 3246SOL    HW210638   6.837   0.121   2.996
 3247SOL     OW10639   5.969   4.198   2.121
 3247SOL    HW110640   6.048   4.141   2.145
 3247SOL    HW210641   5.947   4.183   2.024
 3248SOL     OW10642   5.687   2.641   2.345
 3248SOL    HW110643   5.689   2.687   2.256
 3248SOL    HW210644   5.687   2.542   2.332
 3249SOL     OW10645   3.479   4.165   3.291
 3249SOL    HW110646   3.479   4.263   3.314
 3249SOL    HW210647   3.569   4.127   3.312
 3250SOL     OW10648   5.788   7.004   2.542
 3250SOL    HW110649   5.719   0.036   2.582
 3250SOL    HW210650   5.820   0.016   2.456
 3251SOL     OW10651   3.489   0.434   3.640
 3251SOL    HW110652   3.425   0.457   3.713
 3251SOL    HW210653   3.488   0.506   3.570
 3252SOL     OW10654   2.883   1.150   2.696
 3252SOL    HW110655   2.882   1.145   2.796
 3252SOL    HW210656   2.817   1.219   2.665
 3253SOL     OW10657   4.619   3.341   1.147
 3253SOL    HW110658   4.618   3.404   1.225
 3253SOL    HW210659   4.669   3.382   1.071
 3254SOL     OW10660   4.808   6.113   7.007
 3254SOL    HW110661   4.759   6.143   0.062
 3254SOL    HW210662   4.829   6.193   6.951
 3255SOL     OW10663   3.917   6.660   1.557
 3255SOL    HW110664   4.011   6.630   1.574
 3255SOL    HW210665   3.865   6.653   1.642
 3256SOL     OW10666   3.461   1.172   0.963
 3256SOL    HW110667   3.398   1.175   1.040
 3256SOL    HW210668   3.526   1.248   0.970
 3257SOL     OW10669   1.323   1.997   1.498
 3257SOL    HW110670   1.415   1.973   1.466
 3257SOL    HW210671   1.329   2.044   1.586
 3258SOL     OW10672   4.483   5.951   2.500
 3258SOL    HW110673   4.559   6.015   2.506
 3258SOL    HW210674   4.447   5.934   2.592
 3259SOL     OW10675   4.950   4.636   5.051
 3259SOL    HW110676   4.871   4.631   4.990
 3259SOL    HW210677   5.027   4.587   5.010
 3260SOL     OW10678   1.748   2.423   1.281
 3260SOL    HW110679   1.836   2.396   1.320
 3260SOL    HW210680   1.675   2.373   1.327
 3261SOL     OW10681   5.580   0.735   1.203
 3261SOL    HW110682   5.524   0.670   1.151
 3261SOL    HW210683   5.595   0.700   1.295
 3262SOL     OW10684   3.489   2.147   2.510
 3262SOL    HW110685   3.540   2.090   2.574
 3262SOL    HW210686   3.490   2.242   2.541
 3263SOL     OW10687   3.007   1.398   3.201
 3263SOL    HW110688   3.038   1.391   3.106
 3263SOL    HW210689   2.912   1.430   3.203
 3264SOL     OW10690   1.856   5.572   1.113
 3264SOL    HW110691   1.882   5.498   1.175
 3264SOL    HW210692   1.758   5.591   1.123
 3265SOL     OW10693   4.901   0.006   6.203
 3265SOL    HW110694   4.837   0.076   6.171
 3265SOL    HW210695   4.980   0.003   6.141
 3266SOL     OW10696   2.613   4.409   0.041
 3266SOL    HW110697   2.624   4.337   0.109
 3266SOL    HW210698   2.701   4.428   7.026
 3267SOL     OW10699   3.037   6.113   1.770
 3267SOL    HW110700   3.046   6.205   1.809
 3267SOL    HW210701   2.941   6.094   1.750
 3268SOL     OW10702   2.544   4.132   1.584
 3268SOL    HW110703   2.477   4.062   1.557
 3268SOL    HW210704   2.507   4.186   1.659
 3269SOL     OW10705   5.455   6.042   2.501
 3269SOL    HW110706   5.528   6.108   2.522
 3269SOL    HW210707   5.435   5.987   2.582
 3270SOL     OW10708   1.799   4.086   6.744
 3270SOL    HW110709   1.812   4.152   6.818
 3270SOL    HW210710   1.794   3.994   6.781
 3271SOL     OW10711   6.394   2.972   1.388
 3271SOL    HW110712   6.398   2.946   1.291
 3271SOL    HW210713   6.310   2.936   1.429
 3272SOL     OW10714   2.914   4.390   6.028
 3272SOL    HW110715   2.939   4.425   6.119
 3272SOL    HW210716   2.889   4.467   5.969
 3273SOL     OW10717   6.350   5.080   7.019
 3273SOL    HW110718   6.325   5.176   0.005
 3273SOL    HW210719   6.359   5.035   0.080
 3274SOL     OW10720   5.904   0.512   0.544
 3274SOL    HW110721   5.905   0.455   0.462
 3274SOL    HW210722   5.977   0.483   0.606
 3275SOL     OW10723   5.158   1.101   0.196
 3275SOL    HW110724   5.194   1.038   0.265
 3275SOL    HW210725   5.188   1.194   0.218
 3276SOL     OW10726   4.224   5.915   6.716
 3276SOL    HW110727   4.279   5.916   6.633
 3276SOL    HW210728   4.252   5.839   6.774
 3277SOL     OW10729   3.263   1.007   0.873
 3277SOL    HW110730   3.202   1.010   0.794
 3277SOL    HW210731   3.345   1.060   0.853
 3278SOL     OW10732   1.354   1.073   5.628
 3278SOL    HW110733   1.306   1.115   5.705
 3278SOL    HW210734   1.289   1.054   5.554
 3279SOL     OW10735   5.208   6.626   0.236
 3279SOL    HW110736   5.131   6.572   0.204
 3279SOL    HW210737   5.294   6.579   0.215
 3280SOL     OW10738   4.924   4.520   4.585
 3280SOL    HW110739   4.911   4.421   4.585
 3280SOL    HW210740   4.914   4.555   4.492
 3281SOL     OW10741   0.925   4.809   1.177
 3281SOL    HW110742   1.014   4.816   1.223
 3281SOL    HW210743   0.853   4.840   1.239
 3282SOL     OW10744   6.983   5.112   4.995
 3282SOL    HW110745   0.048   5.090   4.965
 3282SOL    HW210746   6.960   5.205   4.968
 3283SOL     OW10747   3.269   0.929   1.130
 3283SOL    HW110748   3.294   1.019   1.164
 3283SOL    HW210749   3.275   0.927   1.030
 3284SOL     OW10750   0.869   6.156   6.267
 3284SOL    HW110751   0.915   6.193   6.187
 3284SOL    HW210752   0.832   6.231   6.322
 3285SOL     OW10753   4.517   2.179   4.167
 3285SOL    HW110754   4.530   2.080   4.178
 3285SOL    HW210755   4.566   2.227   4.240
 3286SOL     OW10756   4.116   3.202   2.065
 3286SOL    HW110757   4.050   3.135   2.033
 3286SOL    HW210758   4.142   3.180   2.160
 3287SOL     OW10759   0.547   0.052   0.280
 3287SOL    HW110760   0.556   0.047   0.380
 3287SOL    HW210761   0.525   6.988   0.245
 3288SOL     OW10762   1.943   6.284   0.294
 3288SOL    HW110763   1.844   6.287   0.312
 3288SOL    HW210764   1.967   6.359   0.232
 3289SOL     OW10765   3.108   1.405   5.832
 3289SOL    HW110766   3.043   1.431   5.760
 3289SOL    HW210767   3.199   1.439   5.807
 3290SOL     OW10768   6.742   4.970   1.203
 3290SOL    HW110769   6.731   5.030   1.124
 3290SOL    HW210770   6.781   4.883   1.173
 3291SOL     OW10771   2.101   0.682   6.185
 3291SOL    HW110772   2.176   0.678   6.119
 3291SOL    HW210773   2.014   0.692   6.137
 3292SOL     OW10774   6.967   0.872   0.564
 3292SOL    HW110775   6.904   0.921   0.624
 3292SOL    HW210776   0.032   0.906   0.579
 3293SOL     OW10777   6.123   4.613   1.652
 3293SOL    HW110778   6.176   4.654   1.727
 3293SOL    HW210779   6.025   4.618   1.675
 3294SOL     OW10780   5.398   3.246   6.321
 3294SOL    HW110781   5.476   3.194   6.357
 3294SOL    HW210782   5.403   3.340   6.355
 3295SOL     OW10783   1.171   2.904   2.031
 3295SOL    HW110784   1.084   2.924   1.987
 3295SOL    HW210785   1.246   2.917   1.966
 3296SOL     OW10786   1.139   0.860   2.533
 3296SOL    HW110787   1.215   0.894   2.588
 3296SOL    HW210788   1.160   0.873   2.436
 3297SOL     OW10789   2.768   1.771   5.437
 3297SOL    HW110790   2.855   1.750   5.481
 3297SOL    HW210791   2.724   1.847   5.485
 3298SOL     OW10792   5.774   2.079   5.788
 3298SOL    HW110793   5.830   2.003   5.821
 3298SOL    HW210794   5.822   2.165   5.801
 3299SOL     OW10795   3.462   5.935   3.032
 3299SOL    HW110796   3.546   5.985   3.010
 3299SOL    HW210797   3.443   5.942   3.130
 3300SOL     OW10798   0.832   0.801   6.173
 3300SOL    HW110799   0.927   0.828   6.187
 3300SOL    HW210800   0.795   0.763   6.258
 3301SOL     OW10801   1.992   3.143   3.418
 3301SOL    HW110802   1.998   3.127   3.319
 3301SOL    HW210803   1.917   3.090   3.456
 3302SOL     OW10804   0.737   5.034   5.264
 3302SOL    HW110805   0.715   4.978   5.344
 3302SOL    HW210806   0.666   5.104   5.252
 3303SOL     OW10807   3.376   3.510   0.343
 3303SOL    HW110808   3.394   3.601   0.380
 3303SOL    HW210809   3.332   3.518   0.253
 3304SOL     OW10810   2.073   5.747   5.679
 3304SOL    HW110811   2.047   5.821   5.617
 3304SOL    HW210812   2.166   5.717   5.657
 3305SOL     OW10813   2.183   1.694   2.708
 3305SOL    HW110814   2.271   1.737   2.726
 3305SOL    HW210815   2.167   1.691   2.610
 3306SOL     OW10816   2.063   5.484   5.505
 3306SOL    HW110817   2.016   5.535   5.434
 3306SOL    HW210818   1.996   5.442   5.567
 3307SOL     OW10819   0.706   6.317   6.414
 3307SOL    HW110820   0.740   6.325   6.508
 3307SOL    HW210821   0.615   6.278   6.415
 3308SOL     OW10822   2.884   5.594   1.740
 3308SOL    HW110823   2.868   5.657   1.665
 3308SOL    HW210824   2.972   5.617   1.784
 3309SOL     OW10825   6.047   5.573   3.794
 3309SOL    HW110826   6.036   5.479   3.826
 3309SOL    HW210827   6.065   5.572   3.695
 3310SOL     OW10828   0.255   4.278   5.460
 3310SOL    HW110829   0.283   4.374   5.455
 3310SOL    HW210830   0.200   4.264   5.542
 3311SOL     OW10831   3.558   4.525   0.513
 3311SOL    HW110832   3.587   4.473   0.593
 3311SOL    HW210833   3.461   4.546   0.520
 3312SOL     OW10834   4.045   4.121   5.702
 3312SOL    HW110835   4.025   4.207   5.654
 3312SOL    HW210836   4.074   4.052   5.637
 3313SOL     OW10837   0.962   6.504   4.074
 3313SOL    HW110838   0.972   6.424   4.015
 3313SOL    HW210839   0.955   6.586   4.018
 3314SOL     OW10840   2.135   1.647   2.440
 3314SOL    HW110841   2.130   1.559   2.392
 3314SOL    HW210842   2.198   1.707   2.392
 3315SOL     OW10843   0.419   4.189   4.788
 3315SOL    HW110844   0.503   4.231   4.822
 3315SOL    HW210845   0.359   4.260   4.749
 3316SOL     OW10846   5.275   0.942   5.245
 3316SOL    HW110847   5.347   0.965   5.179
 3316SOL    HW210848   5.210   1.018   5.250
 3317SOL     OW10849   4.982   2.603   2.070
 3317SOL    HW110850   5.055   2.541   2.040
 3317SOL    HW210851   4.961   2.668   1.996
 3318SOL     OW10852   2.130   1.671   1.292
 3318SOL    HW110853   2.056   1.738   1.302
 3318SOL    HW210854   2.216   1.710   1.322
 3319SOL     OW10855   6.005   1.295   3.553
 3319SOL    HW110856   5.918   1.254   3.579
 3319SOL    HW210857   6.078   1.228   3.563
 3320SOL     OW10858   6.293   0.998   6.034
 3320SOL    HW110859   6.249   0.922   5.987
 3320SOL    HW210860   6.235   1.079   6.029
 3321SOL     OW10861   5.127   1.995   0.314
 3321SOL    HW110862   5.056   1.945   0.264
 3321SOL    HW210863   5.127   1.966   0.410
 3322SOL     OW10864   6.798   2.406   0.959
 3322SOL    HW110865   6.723   2.461   0.995
 3322SOL    HW210866   6.883   2.433   1.005
 3323SOL     OW10867   3.360   2.919   0.075
 3323SOL    HW110868   3.261   2.928   0.089
 3323SOL    HW210869   3.395   2.847   0.135
 3324SOL     OW10870   3.685   4.797   6.521
 3324SOL    HW110871   3.770   4.749   6.501
 3324SOL    HW210872   3.695   4.848   6.607
 3325SOL     OW10873   0.029   3.937   6.841
 3325SOL    HW110874   0.049   3.911   6.936
 3325SOL    HW210875   6.958   3.930   6.824
 3326SOL     OW10876   5.124   1.886   1.747
 3326SOL    HW110877   5.190   1.891   1.821
 3326SOL    HW210878   5.042   1.838   1.777
 3327SOL     OW10879   2.979   5.475   2.071
 3327SOL    HW110880   2.888   5.439   2.048
 3327SOL    HW210881   3.024   5.413   2.135
 3328SOL     OW10882   4.218   2.119   0.776
 3328SOL    HW110883   4.260   2.030   0.792
 3328SOL    HW210884   4.179   2.153   0.862
 3329SOL     OW10885   5.910   0.243   5.028
 3329SOL    HW110886   5.895   0.341   5.023
 3329SOL    HW210887   6.002   0.222   4.994
 3330SOL     OW10888   6.480   4.013   1.781
 3330SOL    HW110889   6.442   4.032   1.691
 3330SOL    HW210890   6.524   4.095   1.817
 3331SOL     OW10891   2.415   3.016   1.759
 3331SOL    HW110892   2.393   3.101   1.712
 3331SOL    HW210893   2.494   2.973   1.715
 3332SOL     OW10894   5.633   5.798   0.006
 3332SOL    HW110895   5.704   5.728   0.005
 3332SOL    HW210896   5.551   5.764   6.989
 3333SOL     OW10897   4.333   5.464   6.667
 3333SOL    HW110898   4.276   5.411   6.730
 3333SOL    HW210899   4.370   5.403   6.597
 3334SOL     OW10900   3.367   3.971   1.299
 3334SOL    HW110901   3.391   4.025   1.380
 3334SOL    HW210902   3.283   3.920   1.317
 3335SOL     OW10903   4.771   5.771   5.792
 3335SOL    HW110904   4.724   5.816   5.717
 3335SOL    HW210905   4.845   5.713   5.756
 3336SOL     OW10906   2.925   5.220   5.001
 3336SOL    HW110907   2.850   5.204   5.065
 3336SOL    HW210908   3.012   5.202   5.045
 3337SOL     OW10909   2.989   3.817   2.336
 3337SOL    HW110910   2.912   3.827   2.273
 3337SOL    HW210911   3.053   3.750   2.299
 3338SOL     OW10912   5.708   2.610   1.376
 3338SOL    HW110913   5.644   2.540   1.344
 3338SOL    HW210914   5.671   2.700   1.355
 3339SOL     OW10915   6.431   6.938   6.602
 3339SOL    HW110916   6.360   7.004   6.628
 3339SOL    HW210917   6.479   6.969   6.520
 3340SOL     OW10918   3.511   0.352   1.947
 3340SOL    HW110919   3.503   0.440   1.900
 3340SOL    HW210920   3.449   0.351   2.025
 3341SOL     OW10921   0.878   6.383   3.650
 3341SOL    HW110922   0.939   6.394   3.728
 3341SOL    HW210923   0.839   6.290   3.652
 3342SOL     OW10924   2.517   6.591   4.165
 3342SOL    HW110925   2.502   6.501   4.124
 3342SOL    HW210926   2.508   6.662   4.094
 3343SOL     OW10927   4.902   2.929   0.644
 3343SOL    HW110928   4.868   2.951   0.736
 3343SOL    HW210929   4.882   3.005   0.582
 3344SOL     OW10930   6.124   3.192   4.470
 3344SOL    HW110931   6.078   3.150   4.392
 3344SOL    HW210932   6.056   3.225   4.536
 3345SOL     OW10933   1.570   3.838   5.794
 3345SOL    HW110934   1.506   3.796   5.730
 3345SOL    HW210935   1.518   3.878   5.870
 3346SOL     OW10936   1.937   0.743   0.861
 3346SOL    HW110937   1.896   0.751   0.770
 3346SOL    HW210938   2.037   0.750   0.853
 3347SOL     OW10939   0.365   4.477   4.057
 3347SOL    HW110940   0.431   4.518   3.994
 3347SOL    HW210941   0.328   4.393   4.017
 3348SOL     OW10942   3.069   3.038   3.633
 3348SOL    HW110943   3.140   3.075   3.573
 3348SOL    HW210944   2.992   3.007   3.578
 3349SOL     OW10945   0.844   5.293   4.071
 3349SOL    HW110946   0.786   5.326   3.996
 3349SOL    HW210947   0.811   5.204   4.103
 3350SOL     OW10948   1.393   2.372   5.514
 3350SOL    HW110949   1.297   2.395   5.504
 3350SOL    HW210950   1.450   2.451   5.490
 3351SOL     OW10951   5.042   0.564   2.645
 3351SOL    HW110952   5.124   0.616   2.668
 3351SOL    HW210953   5.039   0.548   2.547
 3352SOL     OW10954   0.238   2.336   0.442
 3352SOL    HW110955   0.319   2.336   0.383
 3352SOL    HW210956   0.225   2.245   0.481
 3353SOL     OW10957   1.576   6.018   1.869
 3353SOL    HW110958   1.554   5.921   1.869
 3353SOL    HW210959   1.617   6.043   1.782
 3354SOL     OW10960   5.108   2.614   4.487
 3354SOL    HW110961   5.185   2.576   4.538
 3354SOL    HW210962   5.105   2.713   4.501
 3355SOL     OW10963   1.628   1.473   0.398
 3355SOL    HW110964   1.622   1.408   0.474
 3355SOL    HW210965   1.721   1.511   0.394
 3356SOL     OW10966   2.366   3.768   6.582
 3356SOL    HW110967   2.452   3.745   6.627
 3356SOL    HW210968   2.292   3.713   6.621
 3357SOL     OW10969   2.656   4.796   1.888
 3357SOL    HW110970   2.699   4.708   1.911
 3357SOL    HW210971   2.703   4.869   1.938
 3358SOL     OW10972   4.990   0.405   1.061
 3358SOL    HW110973   4.906   0.398   1.006
 3358SOL    HW210974   4.971   0.456   1.144
 3359SOL     OW10975   6.809   0.416   3.654
 3359SOL    HW110976   6.767   0.380   3.738
 3359SOL    HW210977   6.812   0.516   3.660
 3360SOL     OW10978   0.637   0.748   6.837
 3360SOL    HW110979   0.641   0.838   6.880
 3360SOL    HW210980   0.666   0.678   6.903
 3361SOL     OW10981   0.187   4.159   2.680
 3361SOL    HW110982   0.225   4.121   2.596
 3361SOL    HW210983   0.159   4.084   2.740
 3362SOL     OW10984   3.714   1.382   4.007
 3362SOL    HW110985   3.625   1.368   4.051
 3362SOL    HW210986   3.729   1.310   3.940
 3363SOL     OW10987   0.020   0.118   0.002
 3363SOL    HW110988   7.003   0.034   0.036
 3363SOL    HW210989   0.114   0.098   7.002
 3364SOL     OW10990   1.266   4.687   4.393
 3364SOL    HW110991   1.363   4.686   4.419
 3364SOL    HW210992   1.255   4.644   4.303
 3365SOL     OW10993   0.607   2.212   5.447
 3365SOL    HW110994   0.564   2.231   5.358
 3365SOL    HW210995   0.565   2.131   5.487
 3366SOL     OW10996   5.822   0.527   6.128
 3366SOL    HW110997   5.753   0.577   6.075
 3366SOL    HW210998   5.798   0.430   6.132
 3367SOL     OW10999   3.295   2.840   1.357
 3367SOL    HW111000   3.313   2.911   1.289
 3367SOL    HW211001   3.362   2.766   1.348
 3368SOL     OW11002   0.940   5.744   5.992
 3368SOL    HW111003   0.906   5.796   5.914
 3368SOL    HW211004   0.873   5.746   6.066
 3369SOL     OW11005   3.797   2.717   5.934
 3369SOL    HW111006   3.799   2.733   5.836
 3369SOL    HW211007   3.827   2.623   5.953
 3370SOL     OW11008   6.637   6.061   5.846
 3370SOL    HW111009   6.598   6.137   5.898
 3370SOL    HW211010   6.729   6.043   5.879
 3371SOL     OW11011   1.392   3.771   2.345
 3371SOL    HW111012   1.461   3.726   2.288
 3371SOL    HW211013   1.303   3.766   2.300
 3372SOL     OW11014   0.614   1.355   1.290
 3372SOL    HW111015   0.639   1.383   1.197
 3372SOL    HW211016   0.533   1.296   1.286
 3373SOL     OW11017   7.011   1.525   3.069
 3373SOL    HW111018   0.064   1.520   3.129
 3373SOL    HW211019   7.003   1.440   3.017
 3374SOL     OW11020   2.217   5.841   4.730
 3374SOL    HW111021   2.275   5.921   4.747
 3374SOL    HW211022   2.152   5.831   4.805
 3375SOL     OW11023   5.181   5.048   6.205
 3375SOL    HW111024   5.128   4.972   6.242
 3375SOL    HW211025   5.137   5.135   6.229
 3376SOL     OW11026   3.400   3.391   3.603
 3376SOL    HW111027   3.349   3.373   3.687
 3376SOL    HW211028   3.355   3.464   3.552
 3377SOL     OW11029   0.223   6.673   4.512
 3377SOL    HW111030   0.206   6.624   4.427
 3377SOL    HW211031   0.137   6.706   4.550
 3378SOL     OW11032   6.595   0.577   0.396
 3378SOL    HW111033   6.577   0.613   0.304
 3378SOL    HW211034   6.566   0.644   0.464
 3379SOL     OW11035   6.872   5.422   6.509
 3379SOL    HW111036   6.928   5.456   6.433
 3379SOL    HW211037   6.831   5.335   6.483
 3380SOL     OW11038   5.535   6.842   5.795
 3380SOL    HW111039   5.467   6.872   5.861
 3380SOL    HW211040   5.600   6.917   5.779
 3381SOL     OW11041   1.277   2.900   1.350
 3381SOL    HW111042   1.264   2.808   1.387
 3381SOL    HW211043   1.297   2.894   1.252
 3382SOL     OW11044   0.867   0.265   0.545
 3382SOL    HW111045   0.893   0.241   0.452
 3382SOL    HW211046   0.948   0.277   0.601
 3383SOL     OW11047   4.402   5.748   2.732
 3383SOL    HW111048   4.354   5.834   2.749
 3383SOL    HW211049   4.450   5.720   2.815
 3384SOL     OW11050   2.506   3.577   5.413
 3384SOL    HW111051   2.602   3.551   5.424
 3384SOL    HW211052   2.451   3.496   5.393
 3385SOL     OW11053   0.131   3.590   3.795
 3385SOL    HW111054   0.071   3.539   3.855
 3385SOL    HW211055   0.226   3.566   3.814
 3386SOL     OW11056   6.934   3.493   6.297
 3386SOL    HW111057   7.007   3.561   6.304
 3386SOL    HW211058   6.847   3.538   6.278
 3387SOL     OW11059   3.056   1.380   3.864
 3387SOL    HW111060   2.987   1.319   3.902
 3387SOL    HW211061   3.061   1.366   3.765
 3388SOL     OW11062   5.195   3.519   1.878
 3388SOL    HW111063   5.139   3.440   1.851
 3388SOL    HW211064   5.211   3.576   1.797
 3389SOL     OW11065   5.146   5.365   4.579
 3389SOL    HW111066   5.150   5.308   4.497
 3389SOL    HW211067   5.212   5.331   4.646
 3390SOL     OW11068   5.332   4.465   5.665
 3390SOL    HW111069   5.362   4.542   5.609
 3390SOL    HW211070   5.336   4.490   5.762
 3391SOL     OW11071   5.245   2.917   5.067
 3391SOL    HW111072   5.308   2.840   5.076
 3391SOL    HW211073   5.198   2.911   4.979
 3392SOL     OW11074   2.905   7.005   3.554
 3392SOL    HW111075   2.846   0.006   3.478
 3392SOL    HW211076   2.980   0.043   3.564
 3393SOL     OW11077   0.305   6.340   0.161
 3393SOL    HW111078   0.333   6.251   0.125
 3393SOL    HW211079   0.227   6.374   0.108
 3394SOL     OW11080   6.241   2.885   0.879
 3394SOL    HW111081   6.226   2.793   0.845
 3394SOL    HW211082   6.303   2.934   0.817
 3395SOL     OW11083   6.050   3.553   3.505
 3395SOL    HW111084   6.018   3.460   3.493
 3395SOL    HW211085   6.095   3.562   3.594
 3396SOL     OW11086   5.860   2.259   3.491
 3396SOL    HW111087   5.830   2.185   3.431
 3396SOL    HW211088   5.887   2.221   3.579
 3397SOL     OW11089   2.517   1.001   5.804
 3397SOL    HW111090   2.490   1.024   5.710
 3397SOL    HW211091   2.593   0.936   5.801
 3398SOL     OW11092   1.194   6.725   3.816
 3398SOL    HW111093   1.125   6.752   3.883
 3398SOL    HW211094   1.279   6.776   3.833
 3399SOL     OW11095   5.391   4.072   4.578
 3399SOL    HW111096   5.340   4.063   4.663
 3399SOL    HW211097   5.415   4.168   4.564
 3400SOL     OW11098   4.762   2.019   5.640
 3400SOL    HW111099   4.800   2.091   5.698
 3400SOL    HW211100   4.748   2.053   5.548
 3401SOL     OW11101   6.959   3.273   0.449
 3401SOL    HW111102   7.004   3.356   0.482
 3401SOL    HW211103   6.907   3.231   0.524
 3402SOL     OW11104   3.956   6.407   0.080
 3402SOL    HW111105   3.973   6.395   0.178
 3402SOL    HW211106   4.006   6.488   0.047
 3403SOL     OW11107   4.454   6.689   4.939
 3403SOL    HW111108   4.469   6.648   5.029
 3403SOL    HW211109   4.355   6.698   4.923
 3404SOL     OW11110   5.588   1.789   0.034
 3404SOL    HW111111   5.497   1.824   0.057
 3404SOL    HW211112   5.617   1.723   0.103
 3405SOL     OW11113   6.732   4.093   4.441
 3405SOL    HW111114   6.816   4.044   4.416
 3405SOL    HW211115   6.732   4.183   4.398
 3406SOL     OW11116   0.800   3.841   2.613
 3406SOL    HW111117   0.755   3.907   2.553
 3406SOL    HW211118   0.845   3.889   2.689
 3407SOL     OW11119   1.723   5.557   0.265
 3407SOL    HW111120   1.677   5.603   0.341
 3407SOL    HW211121   1.660   5.549   0.188
 3408SOL     OW11122   5.224   3.953   5.430
 3408SOL    HW111123   5.216   4.033   5.489
 3408SOL    HW211124   5.241   3.872   5.486
 3409SOL     OW11125   3.690   6.057   6.468
 3409SOL    HW111126   3.698   6.147   6.512
 3409SOL    HW211127   3.631   6.065   6.387
 3410SOL     OW11128   6.673   5.732   6.954
 3410SOL    HW111129   6.697   5.744   0.023
 3410SOL    HW211130   6.580   5.697   6.947
 3411SOL     OW11131   0.225   2.520   1.645
 3411SOL    HW111132   0.150   2.494   1.706
 3411SOL    HW211133   0.237   2.619   1.647
 3412SOL     OW11134   4.343   2.800   6.580
 3412SOL    HW111135   4.353   2.864   6.656
 3412SOL    HW211136   4.337   2.850   6.494
 3413SOL     OW11137   5.560   0.445   2.117
 3413SOL    HW111138   5.582   0.349   2.098
 3413SOL    HW211139   5.632   0.504   2.080
 3414SOL     OW11140   1.605   0.977   5.638
 3414SOL    HW111141   1.619   0.961   5.736
 3414SOL    HW211142   1.512   1.009   5.622
 3415SOL     OW11143   1.514   3.996   4.688
 3415SOL    HW111144   1.581   4.054   4.733
 3415SOL    HW211145   1.443   3.970   4.754
 3416SOL     OW11146   0.137   5.852   0.594
 3416SOL    HW111147   0.061   5.788   0.593
 3416SOL    HW211148   0.222   5.803   0.573
 3417SOL     OW11149   0.609   5.928   3.406
 3417SOL    HW111150   0.706   5.917   3.429
 3417SOL    HW211151   0.571   6.003   3.461
 3418SOL     OW11152   3.864   0.398   4.887
 3418SOL    HW111153   3.803   0.326   4.855
 3418SOL    HW211154   3.867   0.472   4.820
 3419SOL     OW11155   4.438   5.630   4.859
 3419SOL    HW111156   4.376   5.620   4.936
 3419SOL    HW211157   4.490   5.545   4.847
 3420SOL     OW11158   5.735   3.297   3.951
 3420SOL    HW111159   5.765   3.266   3.861
 3420SOL    HW211160   5.718   3.395   3.949
 3421SOL     OW11161   5.627   0.817   6.330
 3421SOL    HW111162   5.584   0.861   6.251
 3421SOL    HW211163   5.722   0.794   6.309
 3422SOL     OW11164   2.022   6.940   1.323
 3422SOL    HW111165   2.079   6.965   1.245
 3422SOL    HW211166   2.075   6.946   1.408
 3423SOL     OW11167   2.309   6.486   0.874
 3423SOL    HW111168   2.210   6.484   0.866
 3423SOL    HW211169   2.346   6.396   0.850
 3424SOL     OW11170   2.966   0.217   2.484
 3424SOL    HW111171   2.893   0.153   2.460
 3424SOL    HW211172   3.012   0.186   2.567
 3425SOL     OW11173   5.689   4.439   2.471
 3425SOL    HW111174   5.738   4.439   2.558
 3425SOL    HW211175   5.719   4.361   2.416
 3426SOL     OW11176   3.485   2.745   0.231
 3426SOL    HW111177   3.543   2.827   0.226
 3426SOL    HW211178   3.447   2.737   0.323
 3427SOL     OW11179   6.458   6.648   6.990
 3427SOL    HW111180   6.379   6.653   0.024
 3427SOL    HW211181   6.427   6.623   6.898
 3428SOL     OW11182   3.087   5.198   1.131
 3428SOL    HW111183   3.175   5.175   1.173
 3428SOL    HW211184   3.045   5.274   1.180
 3429SOL     OW11185   0.968   1.742   7.016
 3429SOL    HW111186   0.884   1.765   6.967
 3429SOL    HW211187   0.955   1.756   0.087
 3430SOL     OW11188   6.968   6.365   5.269
 3430SOL    HW111189   6.977   6.427   5.191
 3430SOL    HW211190   6.880   6.380   5.314
 3431SOL     OW11191   2.203   6.760   1.136
 3431SOL    HW111192   2.135   6.717   1.196
 3431SOL    HW211193   2.285   6.703   1.135
 3432SOL     OW11194   2.438   2.650   0.058
 3432SOL    HW111195   2.385   2.732   0.078
 3432SOL    HW211196   2.379   2.569   0.063
 3433SOL     OW11197   1.362   6.877   6.468
 3433SOL    HW111198   1.456   6.912   6.471
 3433SOL    HW211199   1.344   6.823   6.550
 3434SOL     OW11200   4.517   2.438   0.855
 3434SOL    HW111201   4.471   2.381   0.922
 3434SOL    HW211202   4.596   2.483   0.897
 3435SOL     OW11203   1.343   1.312   1.217
 3435SOL    HW111204   1.422   1.271   1.169
 3435SOL    HW211205   1.297   1.241   1.271
 3436SOL     OW11206   3.188   6.745   6.051
 3436SOL    HW111207   3.266   6.685   6.070
 3436SOL    HW211208   3.214   6.811   5.981
 3437SOL     OW11209   3.140   0.950   6.046
 3437SOL    HW111210   3.080   0.965   6.125
 3437SOL    HW211211   3.232   0.928   6.078
 3438SOL     OW11212   1.231   2.281   0.681
 3438SOL    HW111213   1.215   2.282   0.582
 3438SOL    HW211214   1.152   2.242   0.727
 3439SOL     OW11215   2.116   6.449   5.350
 3439SOL    HW111216   2.202   6.397   5.353
 3439SOL    HW211217   2.092   6.479   5.443
 3440SOL     OW11218   3.848   3.601   1.704
 3440SOL    HW111219   3.868   3.512   1.664
 3440SOL    HW211220   3.933   3.647   1.727
 3441SOL     OW11221   5.233   6.967   4.006
 3441SOL    HW111222   5.319   7.000   4.045
 3441SOL    HW211223   5.224   6.869   4.023
 3442SOL     OW11224   3.258   5.049   2.787
 3442SOL    HW111225   3.253   5.048   2.887
 3442SOL    HW211226   3.343   5.004   2.757
 3443SOL     OW11227   5.388   6.717   1.668
 3443SOL    HW111228   5.344   6.649   1.608
 3443SOL    HW211229   5.430   6.788   1.612
 3444SOL     OW11230   5.275   5.700   0.528
 3444SOL    HW111231   5.225   5.683   0.613
 3444SOL    HW211232   5.237   5.780   0.482
 3445SOL     OW11233   6.257   5.781   4.705
 3445SOL    HW111234   6.315   5.820   4.633
 3445SOL    HW211235   6.162   5.780   4.674
 3446SOL     OW11236   5.812   0.389   2.271
 3446SOL    HW111237   5.863   0.304   2.255
 3446SOL    HW211238   5.716   0.367   2.292
 3447SOL     OW11239   5.011   5.650   1.160
 3447SOL    HW111240   4.962   5.608   1.083
 3447SOL    HW211241   4.962   5.631   1.245
 3448SOL     OW11242   3.241   0.584   0.978
 3448SOL    HW111243   3.320   0.587   1.040
 3448SOL    HW211244   3.175   0.654   1.004
 3449SOL     OW11245   6.320   6.694   3.620
 3449SOL    HW111246   6.366   6.651   3.698
 3449SOL    HW211247   6.388   6.732   3.558
 3450SOL     OW11248   0.383   2.144   6.712
 3450SOL    HW111249   0.292   2.139   6.672
 3450SOL    HW211250   0.438   2.210   6.662
 3451SOL     OW11251   1.652   6.251   2.839
 3451SOL    HW111252   1.663   6.275   2.742
 3451SOL    HW211253   1.578   6.305   2.878
 3452SOL     OW11254   6.002   1.777   6.499
 3452SOL    HW111255   6.049   1.772   6.587
 3452SOL    HW211256   5.908   1.743   6.509
 3453SOL     OW11257   6.766   5.788   6.311
 3453SOL    HW111258   6.805   5.719   6.250
 3453SOL    HW211259   6.708   5.744   6.379
 3454SOL     OW11260   1.538   1.576   6.850
 3454SOL    HW111261   1.581   1.535   6.930
 3454SOL    HW211262   1.439   1.569   6.858
 3455SOL     OW11263   2.090   2.710   4.165
 3455SOL    HW111264   2.084   2.611   4.174
 3455SOL    HW211265   1.998   2.750   4.173
 3456SOL     OW11266   5.614   5.704   2.518
 3456SOL    HW111267   5.661   5.750   2.593
 3456SOL    HW211268   5.516   5.720   2.525
 3457SOL     OW11269   2.825   5.649   3.608
 3457SOL    HW111270   2.772   5.625   3.690
 3457SOL    HW211271   2.767   5.702   3.546
 3458SOL     OW11272   4.578   0.424   0.604
 3458SOL    HW111273   4.667   0.418   0.648
 3458SOL    HW211274   4.590   0.425   0.505
 3459SOL     OW11275   5.997   4.052   2.716
 3459SOL    HW111276   6.089   4.014   2.726
 3459SOL    HW211277   5.930   3.979   2.720
 3460SOL     OW11278   2.316   2.947   0.127
 3460SOL    HW111279   2.395   2.965   0.186
 3460SOL    HW211280   2.328   2.997   0.041
 3461SOL     OW11281   4.647   6.337   4.630
 3461SOL    HW111282   4.581   6.399   4.672
 3461SOL    HW211283   4.603   6.250   4.608
 3462SOL     OW11284   0.504   3.555   2.368
 3462SOL    HW111285   0.438   3.602   2.309
 3462SOL    HW211286   0.506   3.458   2.346
 3463SOL     OW11287   1.250   3.767   3.530
 3463SOL    HW111288   1.185   3.700   3.495
 3463SOL    HW211289   1.336   3.761   3.478
 3464SOL     OW11290   6.928   3.050   6.971
 3464SOL    HW111291   6.848   3.107   6.948
 3464SOL    HW211292   7.012   3.099   6.948
 3465SOL     OW11293   1.418   2.489   1.877
 3465SOL    HW111294   1.358   2.413   1.900
 3465SOL    HW211295   1.442   2.538   1.961
 3466SOL     OW11296   6.580   4.869   6.984
 3466SOL    HW111297   6.507   4.862   6.915
 3466SOL    HW211298   6.554   4.815   0.037
 3467SOL     OW11299   2.511   2.381   1.028
 3467SOL    HW111300   2.412   2.394   1.022
 3467SOL    HW211301   2.532   2.285   1.008
 3468SOL     OW11302   5.908   0.654   2.335
 3468SOL    HW111303   5.859   0.696   2.411
 3468SOL    HW211304   5.881   0.558   2.326
 3469SOL     OW11305   4.531   0.572   4.196
 3469SOL    HW111306   4.549   0.566   4.097
 3469SOL    HW211307   4.597   0.635   4.238
 3470SOL     OW11308   6.860   2.076   1.518
 3470SOL    HW111309   6.767   2.044   1.533
 3470SOL    HW211310   6.902   2.101   1.605
 3471SOL     OW11311   4.790   4.595   4.821
 3471SOL    HW111312   4.700   4.597   4.776
 3471SOL    HW211313   4.861   4.580   4.752
 3472SOL     OW11314   2.706   1.356   3.343
 3472SOL    HW111315   2.722   1.258   3.332
 3472SOL    HW211316   2.774   1.393   3.406
 3473SOL     OW11317   6.966   2.828   1.826
 3473SOL    HW111318   6.964   2.873   1.737
 3473SOL    HW211319   6.939   2.732   1.815
 3474SOL     OW11320   0.963   4.249   2.938
 3474SOL    HW111321   1.052   4.292   2.924
 3474SOL    HW211322   0.897   4.317   2.970
 3475SOL     OW11323   1.411   4.006   3.914
 3475SOL    HW111324   1.467   4.086   3.897
 3475SOL    HW211325   1.445   3.929   3.859
 3476SOL     OW11326   2.335   2.025   2.915
 3476SOL    HW111327   2.348   2.115   2.874
 3476SOL    HW211328   2.388   1.957   2.865
 3477SOL     OW11329   2.026   4.741   0.922
 3477SOL    HW111330   1.993   4.809   0.856
 3477SOL    HW211331   2.101   4.781   0.975
 3478SOL     OW11332   2.400   5.639   6.215
 3478SOL    HW111333   2.345   5.564   6.177
 3478SOL    HW211334   2.352   5.725   6.200
 3479SOL     OW11335   1.144   0.433   2.858
 3479SOL    HW111336   1.137   0.452   2.956
 3479SOL    HW211337   1.082   0.493   2.808
 3480SOL     OW11338   6.689   5.673   4.639
 3480SOL    HW111339   6.780   5.714   4.646
 3480SOL    HW211340   6.648   5.698   4.550
 3481SOL     OW11341   5.001   0.551   0.666
 3481SOL    HW111342   5.045   0.474   0.711
 3481SOL    HW211343   4.943   0.599   0.731
 3482SOL     OW11344   6.115   1.100   1.863
 3482SOL    HW111345   6.165   1.179   1.828
 3482SOL    HW211346   6.078   1.121   1.953
 3483SOL     OW11347   5.189   2.203   1.840
 3483SOL    HW111348   5.201   2.216   1.742
 3483SOL    HW211349   5.257   2.139   1.875
 3484SOL     OW11350   0.647   2.834   0.472
 3484SOL    HW111351   0.623   2.866   0.563
 3484SOL    HW211352   0.566   2.797   0.427
 3485SOL     OW11353   1.748   1.968   4.422
 3485SOL    HW111354   1.847   1.979   4.421
 3485SOL    HW211355   1.710   2.016   4.501
 3486SOL     OW11356   2.713   0.403   3.681
 3486SOL    HW111357   2.651   0.325   3.694
 3486SOL    HW211358   2.780   0.381   3.610
 3487SOL     OW11359   6.385   1.919   0.296
 3487SOL    HW111360   6.418   1.972   0.218
 3487SOL    HW211361   6.453   1.851   0.321
 3488SOL     OW11362   6.513   0.363   4.890
 3488SOL    HW111363   6.465   0.279   4.916
 3488SOL    HW211364   6.454   0.442   4.908
 3489SOL     OW11365   3.477   0.563   1.777
 3489SOL    HW111366   3.532   0.644   1.798
 3489SOL    HW211367   3.488   0.539   1.680
 3490SOL     OW11368   3.857   4.079   1.097
 3490SOL    HW111369   3.814   4.163   1.128
 3490SOL    HW211370   3.808   4.044   1.016
 3491SOL     OW11371   4.599   2.825   5.920
 3491SOL    HW111372   4.538   2.904   5.916
 3491SOL    HW211373   4.581   2.772   6.003
 3492SOL     OW11374   6.512   4.784   1.232
 3492SOL    HW111375   6.572   4.863   1.245
 3492SOL    HW211376   6.568   4.701   1.224
 3493SOL     OW11377   4.889   4.110   4.884
 3493SOL    HW111378   4.811   4.148   4.935
 3493SOL    HW211379   4.921   4.027   4.930
 3494SOL     OW11380   3.353   1.031   2.078
 3494SOL    HW111381   3.412   1.021   1.998
 3494SOL    HW211382   3.372   0.958   2.143
 3495SOL     OW11383   5.759   4.860   1.600
 3495SOL    HW111384   5.789   4.848   1.505
 3495SOL    HW211385   5.780   4.777   1.652
 3496SOL     OW11386   6.030   5.176   0.976
 3496SOL    HW111387   5.976   5.125   1.043
 3496SOL    HW211388   6.127   5.167   0.997
 3497SOL     OW11389   2.317   1.118   4.092
 3497SOL    HW111390   2.304   1.087   4.187
 3497SOL    HW211391   2.403   1.168   4.085
 3498SOL     OW11392   3.117   2.191   1.018
 3498SOL    HW111393   3.172   2.270   1.045
 3498SOL    HW211394   3.177   2.117   0.989
 3499SOL     OW11395   5.773   4.055   3.905
 3499SOL    HW111396   5.837   3.996   3.954
 3499SOL    HW211397   5.759   4.019   3.813
 3500SOL     OW11398   2.080   3.624   4.970
 3500SOL    HW111399   2.125   3.561   4.906
 3500SOL    HW211400   1.994   3.583   5.001
 3501SOL     OW11401   2.208   5.855   5.207
 3501SOL    HW111402   2.206   5.943   5.159
 3501SOL    HW211403   2.264   5.864   5.289
 3502SOL     OW11404   6.598   2.907   1.650
 3502SOL    HW111405   6.613   3.006   1.658
 3502SOL    HW211406   6.589   2.867   1.741
 3503SOL     OW11407   6.210   6.381   4.756
 3503SOL    HW111408   6.210   6.284   4.781
 3503SOL    HW211409   6.116   6.415   4.752
 3504SOL     OW11410   2.346   1.099   1.886
 3504SOL    HW111411   2.398   1.111   1.802
 3504SOL    HW211412   2.392   1.146   1.961
 3505SOL     OW11413   5.726   4.457   5.498
 3505SOL    HW111414   5.653   4.393   5.475
 3505SOL    HW211415   5.791   4.462   5.423
 3506SOL     OW11416   4.860   5.328   5.390
 3506SOL    HW111417   4.932   5.260   5.403
 3506SOL    HW211418   4.873   5.403   5.454
 3507SOL     OW11419   2.492   0.622   1.486
 3507SOL    HW111420   2.493   0.532   1.442
 3507SOL    HW211421   2.561   0.626   1.558
 3508SOL     OW11422   2.504   1.528   5.998
 3508SOL    HW111423   2.539   1.446   6.043
 3508SOL    HW211424   2.510   1.606   6.060
 3509SOL     OW11425   4.891   0.920   6.767
 3509SOL    HW111426   4.934   0.849   6.711
 3509SOL    HW211427   4.961   0.965   6.822
 3510SOL     OW11428   1.211   1.767   1.698
 3510SOL    HW111429   1.214   1.838   1.628
 3510SOL    HW211430   1.278   1.788   1.769
 3511SOL     OW11431   2.612   5.078   1.160
 3511SOL    HW111432   2.563   4.991   1.156
 3511SOL    HW211433   2.708   5.064   1.136
 3512SOL     OW11434   6.859   4.404   0.952
 3512SOL    HW111435   6.928   4.424   1.021
 3512SOL    HW211436   6.770   4.437   0.984
 3513SOL     OW11437   5.624   2.786   6.523
 3513SOL    HW111438   5.535   2.806   6.482
 3513SOL    HW211439   5.647   2.690   6.507
 3514SOL     OW11440   0.104   1.787   1.789
 3514SOL    HW111441   0.182   1.807   1.729
 3514SOL    HW211442   0.135   1.737   1.869
 3515SOL     OW11443   4.563   6.086   3.413
 3515SOL    HW111444   4.610   6.015   3.465
 3515SOL    HW211445   4.624   6.165   3.401
 3516SOL     OW11446   5.118   6.647   0.867
 3516SOL    HW111447   5.078   6.622   0.956
 3516SOL    HW211448   5.075   6.731   0.835
 3517SOL     OW11449   1.475   2.208   1.158
 3517SOL    HW111450   1.392   2.259   1.137
 3517SOL    HW211451   1.477   2.187   1.256
 3518SOL     OW11452   5.728   2.508   4.309
 3518SOL    HW111453   5.681   2.429   4.270
 3518SOL    HW211454   5.819   2.516   4.268
 3519SOL     OW11455   1.446   0.560   6.401
 3519SOL    HW111456   1.478   0.498   6.330
 3519SOL    HW211457   1.352   0.535   6.426
 3520SOL     OW11458   2.927   5.403   6.813
 3520SOL    HW111459   3.012   5.454   6.823
 3520SOL    HW211460   2.940   5.309   6.846
 3521SOL     OW11461   5.228   2.514   0.042
 3521SOL    HW111462   5.240   2.473   0.132
 3521SOL    HW211463   5.240   2.444   6.999
 3522SOL     OW11464   6.923   5.053   1.397
 3522SOL    HW111465   6.852   5.018   1.335
 3522SOL    HW211466   6.880   5.092   1.478
 3523SOL     OW11467   1.722   4.935   6.312
 3523SOL    HW111468   1.686   4.851   6.353
 3523SOL    HW211469   1.808   4.915   6.265
 3524SOL     OW11470   4.556   1.519   1.900
 3524SOL    HW111471   4.476   1.578   1.888
 3524SOL    HW211472   4.582   1.480   1.811
 3525SOL     OW11473   0.759   4.492   3.000
 3525SOL    HW111474   0.738   4.510   3.096
 3525SOL    HW211475   0.774   4.578   2.952
 3526SOL     OW11476   2.408   6.376   4.040
 3526SOL    HW111477   2.335   6.396   4.105
 3526SOL    HW211478   2.413   6.277   4.025
 3527SOL     OW11479   5.673   3.440   6.463
 3527SOL    HW111480   5.708   3.524   6.504
 3527SOL    HW211481   5.581   3.422   6.496
 3528SOL     OW11482   1.610   6.078   5.069
 3528SOL    HW111483   1.620   6.142   5.146
 3528SOL    HW211484   1.569   5.993   5.102
 3529SOL     OW11485   3.795   0.474   6.219
 3529SOL    HW111486   3.858   0.405   6.254
 3529SOL    HW211487   3.784   0.547   6.286
 3530SOL     OW11488   0.152   4.692   2.315
 3530SOL    HW111489   0.216   4.615   2.311
 3530SOL    HW211490   0.196   4.775   2.281
 3531SOL     OW11491   4.717   2.920   0.134
 3531SOL    HW111492   4.657   2.953   0.060
 3531SOL    HW211493   4.773   2.844   0.100
 3532SOL     OW11494   2.993   0.513   1.936
 3532SOL    HW111495   2.910   0.480   1.891
 3532SOL    HW211496   2.968   0.559   2.022
 3533SOL     OW11497   1.895   1.753   2.796
 3533SOL    HW111498   1.975   1.788   2.748
 3533SOL    HW211499   1.890   1.794   2.887
 3534SOL     OW11500   6.754   1.580   0.035
 3534SOL    HW111501   6.854   1.579   0.038
 3534SOL    HW211502   6.718   1.560   0.126
 3535SOL     OW11503   1.937   5.966   0.868
 3535SOL    HW111504   1.850   5.929   0.900
 3535SOL    HW211505   2.011   5.902   0.891
 3536SOL     OW11506   3.120   1.923   3.168
 3536SOL    HW111507   3.220   1.931   3.163
 3536SOL    HW211508   3.094   1.827   3.169
 3537SOL     OW11509   3.286   6.016   1.903
 3537SOL    HW111510   3.365   5.975   1.859
 3537SOL    HW211511   3.235   6.072   1.837
 3538SOL     OW11512   1.460   0.145   6.436
 3538SOL    HW111513   1.391   0.141   6.508
 3538SOL    HW211514   1.510   0.232   6.444
 3539SOL     OW11515   5.072   3.330   5.983
 3539SOL    HW111516   5.107   3.268   5.912
 3539SOL    HW211517   5.074   3.424   5.949
 3540SOL     OW11518   2.123   1.939   5.501
 3540SOL    HW111519   2.139   1.915   5.405
 3540SOL    HW211520   2.146   1.862   5.559
 3541SOL     OW11521   1.805   2.215   6.145
 3541SOL    HW111522   1.864   2.185   6.220
 3541SOL    HW211523   1.812   2.150   6.069
 3542SOL     OW11524   1.846   5.515   2.872
 3542SOL    HW111525   1.822   5.572   2.950
 3542SOL    HW211526   1.854   5.420   2.902
 3543SOL     OW11527   0.838   2.294   4.722
 3543SOL    HW111528   0.877   2.368   4.667
 3543SOL    HW211529   0.751   2.265   4.683
 3544SOL     OW11530   2.786   4.210   6.370
 3544SOL    HW111531   2.721   4.164   6.310
 3544SOL    HW211532   2.879   4.180   6.349
 3545SOL     OW11533   4.152   4.891   0.495
 3545SOL    HW111534   4.143   4.879   0.594
 3545SOL    HW211535   4.074   4.848   0.450
 3546SOL     OW11536   1.469   4.323   4.389
 3546SOL    HW111537   1.377   4.346   4.421
 3546SOL    HW211538   1.479   4.223   4.384
 3547SOL     OW11539   6.601   4.964   4.353
 3547SOL    HW111540   6.687   4.920   4.329
 3547SOL    HW211541   6.617   5.030   4.427
 3548SOL     OW11542   5.699   1.522   6.099
 3548SOL    HW111543   5.627   1.592   6.098
 3548SOL    HW211544   5.760   1.536   6.021
 3549SOL     OW11545   6.538   4.960   5.419
 3549SOL    HW111546   6.503   4.872   5.452
 3549SOL    HW211547   6.630   4.974   5.454
 3550SOL     OW11548   6.354   3.054   2.792
 3550SOL    HW111549   6.322   3.146   2.811
 3550SOL    HW211550   6.349   3.036   2.694
 3551SOL     OW11551   3.805   1.071   2.354
 3551SOL    HW111552   3.845   0.998   2.409
 3551SOL    HW211553   3.874   1.142   2.338
 3552SOL     OW11554   5.488   6.421   2.398
 3552SOL    HW111555   5.412   6.413   2.333
 3552SOL    HW211556   5.454   6.403   2.490
 3553SOL     OW11557   4.934   4.723   1.214
 3553SOL    HW111558   4.931   4.727   1.114
 3553SOL    HW211559   5.018   4.677   1.242
 3554SOL     OW11560   4.821   1.955   1.262
 3554SOL    HW111561   4.723   1.962   1.281
 3554SOL    HW211562   4.867   1.917   1.343
 3555SOL     OW11563   1.156   4.664   4.080
 3555SOL    HW111564   1.217   4.589   4.056
 3555SOL    HW211565   1.156   4.732   4.007
 3556SOL     OW11566   4.094   1.438   3.955
 3556SOL    HW111567   4.022   1.476   4.013
 3556SOL    HW211568   4.123   1.350   3.991
 3557SOL     OW11569   1.035   1.020   4.570
 3557SOL    HW111570   0.943   0.982   4.580
 3557SOL    HW211571   1.103   0.946   4.579
 3558SOL     OW11572   1.428   6.385   1.815
 3558SOL    HW111573   1.456   6.369   1.910
 3558SOL    HW211574   1.475   6.465   1.780
 3559SOL     OW11575   0.615   6.078   5.466
 3559SOL    HW111576   0.713   6.066   5.453
 3559SOL    HW211577   0.572   6.099   5.379
 3560SOL     OW11578   0.422   5.815   1.593
 3560SOL    HW111579   0.411   5.717   1.611
 3560SOL    HW211580   0.460   5.859   1.674
 3561SOL     OW11581   4.295   4.805   4.913
 3561SOL    HW111582   4.261   4.839   5.000
 3561SOL    HW211583   4.330   4.712   4.925
 3562SOL     OW11584   4.661   1.281   3.308
 3562SOL    HW111585   4.603   1.261   3.387
 3562SOL    HW211586   4.685   1.378   3.308
 3563SOL     OW11587   5.645   1.611   0.253
 3563SOL    HW111588   5.698   1.537   0.295
 3563SOL    HW211589   5.650   1.692   0.311
 3564SOL     OW11590   1.786   4.543   3.836
 3564SOL    HW111591   1.855   4.596   3.787
 3564SOL    HW211592   1.804   4.548   3.935
 3565SOL     OW11593   2.778   5.558   5.203
 3565SOL    HW111594   2.680   5.577   5.210
 3565SOL    HW211595   2.816   5.546   5.295
 3566SOL     OW11596   6.895   3.659   5.990
 3566SOL    HW111597   6.900   3.573   5.938
 3566SOL    HW211598   6.986   3.700   5.995
 3567SOL     OW11599   0.375   3.365   0.409
 3567SOL    HW111600   0.275   3.355   0.407
 3567SOL    HW211601   0.399   3.457   0.380
 3568SOL     OW11602   4.764   5.500   4.173
 3568SOL    HW111603   4.703   5.434   4.216
 3568SOL    HW211604   4.851   5.502   4.222
 3569SOL     OW11605   2.142   1.709   5.751
 3569SOL    HW111606   2.240   1.726   5.755
 3569SOL    HW211607   2.100   1.732   5.839
 3570SOL     OW11608   5.362   0.593   5.015
 3570SOL    HW111609   5.381   0.526   4.943
 3570SOL    HW211610   5.393   0.684   4.985
 3571SOL     OW11611   1.383   6.435   5.276
 3571SOL    HW111612   1.464   6.451   5.332
 3571SOL    HW211613   1.375   6.507   5.207
 3572SOL     OW11614   5.707   2.908   2.814
 3572SOL    HW111615   5.683   2.893   2.719
 3572SOL    HW211616   5.624   2.914   2.869
 3573SOL     OW11617   6.507   4.339   3.261
 3573SOL    HW111618   6.489   4.437   3.274
 3573SOL    HW211619   6.425   4.287   3.281
 3574SOL     OW11620   0.432   2.805   0.932
 3574SOL    HW111621   0.505   2.770   0.991
 3574SOL    HW211622   0.469   2.823   0.841
 3575SOL     OW11623   5.392   5.636   2.888
 3575SOL    HW111624   5.400   5.536   2.882
 3575SOL    HW211625   5.483   5.676   2.895
 3576SOL     OW11626   0.849   2.207   6.753
 3576SOL    HW111627   0.836   2.117   6.711
 3576SOL    HW211628   0.882   2.195   6.847
 3577SOL     OW11629   1.604   2.703   6.946
 3577SOL    HW111630   1.578   2.763   6.870
 3577SOL    HW211631   1.573   2.743   0.005
 3578SOL     OW11632   3.976   1.291   0.684
 3578SOL    HW111633   3.945   1.267   0.776
 3578SOL    HW211634   4.031   1.216   0.647
 3579SOL     OW11635   6.659   2.486   3.014
 3579SOL    HW111636   6.586   2.418   3.017
 3579SOL    HW211637   6.745   2.441   2.988
 3580SOL     OW11638   6.374   2.928   1.101
 3580SOL    HW111639   6.385   3.026   1.084
 3580SOL    HW211640   6.325   2.887   1.024
 3581SOL     OW11641   0.899   5.075   3.173
 3581SOL    HW111642   0.945   5.164   3.179
 3581SOL    HW211643   0.892   5.048   3.077
 3582SOL     OW11644   1.324   3.534   6.374
 3582SOL    HW111645   1.389   3.551   6.301
 3582SOL    HW211646   1.236   3.576   6.351
 3583SOL     OW11647   1.360   4.440   6.916
 3583SOL    HW111648   1.391   4.527   6.879
 3583SOL    HW211649   1.431   4.371   6.902
 3584SOL     OW11650   5.957   4.683   5.947
 3584SOL    HW111651   5.859   4.691   5.929
 3584SOL    HW211652   6.008   4.692   5.861
 3585SOL     OW11653   2.850   1.948   4.761
 3585SOL    HW111654   2.927   2.011   4.750
 3585SOL    HW211655   2.789   1.981   4.833
 3586SOL     OW11656   6.029   1.493   4.628
 3586SOL    HW111657   5.936   1.519   4.602
 3586SOL    HW211658   6.073   1.445   4.551
 3587SOL     OW11659   1.914   4.882   5.911
 3587SOL    HW111660   1.998   4.937   5.917
 3587SOL    HW211661   1.858   4.917   5.836
 3588SOL     OW11662   0.766   3.431   5.110
 3588SOL    HW111663   0.793   3.466   5.200
 3588SOL    HW211664   0.817   3.348   5.089
 3589SOL     OW11665   5.775   0.942   5.791
 3589SOL    HW111666   5.773   0.853   5.744
 3589SOL    HW211667   5.748   0.929   5.887
 3590SOL     OW11668   0.105   3.502   0.501
 3590SOL    HW111669   0.109   3.576   0.568
 3590SOL    HW211670   0.128   3.537   0.411
 3591SOL     OW11671   5.688   3.733   0.262
 3591SOL    HW111672   5.702   3.704   0.356
 3591SOL    HW211673   5.634   3.665   0.213
 3592SOL     OW11674   0.637   5.952   2.433
 3592SOL    HW111675   0.614   5.875   2.374
 3592SOL    HW211676   0.577   6.029   2.412
 3593SOL     OW11677   0.984   4.881   5.470
 3593SOL    HW111678   1.052   4.816   5.505
 3593SOL    HW211679   1.023   4.930   5.392
 3594SOL     OW11680   4.769   6.796   3.453
 3594SOL    HW111681   4.788   6.875   3.394
 3594SOL    HW211682   4.788   6.821   3.548
 3595SOL     OW11683   4.825   6.185   6.518
 3595SOL    HW111684   4.741   6.177   6.464
 3595SOL    HW211685   4.838   6.102   6.571
 3596SOL     OW11686   4.973   3.219   2.403
 3596SOL    HW111687   4.996   3.298   2.347
 3596SOL    HW211688   5.057   3.174   2.434
 3597SOL     OW11689   2.006   2.159   5.518
 3597SOL    HW111690   2.032   2.217   5.440
 3597SOL    HW211691   2.051   2.070   5.510
 3598SOL     OW11692   1.542   6.884   5.870
 3598SOL    HW111693   1.505   6.801   5.829
 3598SOL    HW211694   1.633   6.903   5.833
 3599SOL     OW11695   4.868   1.815   0.209
 3599SOL    HW111696   4.795   1.747   0.202
 3599SOL    HW211697   4.829   1.905   0.228
 3600SOL     OW11698   1.078   2.841   2.320
 3600SOL    HW111699   1.094   2.860   2.223
 3600SOL    HW211700   1.139   2.898   2.375
 3601SOL     OW11701   5.147   2.898   6.098
 3601SOL    HW111702   5.053   2.895   6.132
 3601SOL    HW211703   5.192   2.980   6.134
 3602SOL     OW11704   1.031   4.077   0.548
 3602SOL    HW111705   0.984   4.023   0.478
 3602SOL    HW211706   1.066   4.161   0.508
 3603SOL     OW11707   3.773   1.019   4.365
 3603SOL    HW111708   3.829   1.040   4.444
 3603SOL    HW211709   3.685   1.066   4.373
 3604SOL     OW11710   6.794   6.237   3.348
 3604SOL    HW111711   6.719   6.226   3.413
 3604SOL    HW211712   6.758   6.241   3.255
 3605SOL     OW11713   0.556   4.806   3.774
 3605SOL    HW111714   0.563   4.821   3.872
 3605SOL    HW211715   0.527   4.712   3.756
 3606SOL     OW11716   0.715   0.053   4.642
 3606SOL    HW111717   0.618   0.059   4.667
 3606SOL    HW211718   0.744   0.140   4.600
 3607SOL     OW11719   5.325   5.173   2.031
 3607SOL    HW111720   5.334   5.223   2.117
 3607SOL    HW211721   5.231   5.180   1.998
 3608SOL     OW11722   4.625   2.323   4.395
 3608SOL    HW111723   4.624   2.423   4.399
 3608SOL    HW211724   4.625   2.287   4.488
 3609SOL     OW11725   1.757   0.246   4.045
 3609SOL    HW111726   1.695   0.193   3.986
 3609SOL    HW211727   1.722   0.245   4.138
 3610SOL     OW11728   1.470   0.356   6.229
 3610SOL    HW111729   1.567   0.349   6.206
 3610SOL    HW211730   1.432   0.264   6.241
 3611SOL     OW11731   4.571   5.293   4.272
 3611SOL    HW111732   4.483   5.252   4.247
 3611SOL    HW211733   4.638   5.220   4.287
 3612SOL     OW11734   0.266   0.515   0.138
 3612SOL    HW111735   0.317   0.429   0.140
 3612SOL    HW211736   0.294   0.568   0.058
 3613SOL     OW11737   4.962   4.631   2.060
 3613SOL    HW111738   4.894   4.648   1.989
 3613SOL    HW211739   4.917   4.591   2.140
 3614SOL     OW11740   3.408   3.797   0.634
 3614SOL    HW111741   3.504   3.825   0.637
 3614SOL    HW211742   3.350   3.879   0.633
 3615SOL     OW11743   5.289   3.139   6.115
 3615SOL    HW111744   5.243   3.206   6.057
 3615SOL    HW211745   5.319   3.183   6.200
 3616SOL     OW11746   0.838   1.164   6.646
 3616SOL    HW111747   0.903   1.089   6.653
 3616SOL    HW211748   0.886   1.248   6.618
 3617SOL     OW11749   4.185   0.819   6.639
 3617SOL    HW111750   4.253   0.830   6.711
 3617SOL    HW211751   4.166   0.722   6.626
 3618SOL     OW11752   2.264   3.035   5.342
 3618SOL    HW111753   2.342   3.054   5.283
 3618SOL    HW211754   2.270   3.090   5.425
 3619SOL     OW11755   6.263   2.784   5.605
 3619SOL    HW111756   6.193   2.836   5.556
 3619SOL    HW211757   6.348   2.785   5.552
 3620SOL     OW11758   5.988   5.342   5.552
 3620SOL    HW111759   6.072   5.304   5.515
 3620SOL    HW211760   6.009   5.397   5.633
 3621SOL     OW11761   3.265   2.946   4.847
 3621SOL    HW111762   3.355   2.982   4.824
 3621SOL    HW211763   3.250   2.861   4.797
 3622SOL     OW11764   1.408   1.198   0.148
 3622SOL    HW111765   1.332   1.215   0.085
 3622SOL    HW211766   1.386   1.120   0.206
 3623SOL     OW11767   6.579   6.185   4.190
 3623SOL    HW111768   6.625   6.129   4.121
 3623SOL    HW211769   6.648   6.222   4.253
 3624SOL     OW11770   1.674   0.320   2.287
 3624SOL    HW111771   1.728   0.265   2.350
 3624SOL    HW211772   1.580   0.285   2.283
 3625SOL     OW11773   0.424   3.489   6.332
 3625SOL    HW111774   0.470   3.402   6.353
 3625SOL    HW211775   0.374   3.480   6.247
 3626SOL     OW11776   0.844   2.871   5.594
 3626SOL    HW111777   0.821   2.833   5.504
 3626SOL    HW211778   0.885   2.962   5.583
 3627SOL     OW11779   4.157   2.886   1.463
 3627SOL    HW111780   4.190   2.981   1.470
 3627SOL    HW211781   4.217   2.827   1.516
 3628SOL     OW11782   0.688   1.737   1.890
 3628SOL    HW111783   0.767   1.722   1.950
 3628SOL    HW211784   0.720   1.752   1.796
 3629SOL     OW11785   0.596   0.864   5.344
 3629SOL    HW111786   0.610   0.794   5.415
 3629SOL    HW211787   0.539   0.937   5.381
 3630SOL     OW11788   5.670   2.596   3.995
 3630SOL    HW111789   5.726   2.526   4.039
 3630SOL    HW211790   5.598   2.552   3.941
 3631SOL     OW11791   1.942   0.493   2.688
 3631SOL    HW111792   1.964   0.509   2.592
 3631SOL    HW211793   1.926   0.396   2.703
 3632SOL     OW11794   5.678   5.105   1.118
 3632SOL    HW111795   5.637   5.038   1.179
 3632SOL    HW211796   5.621   5.117   1.037
 3633SOL     OW11797   4.260   2.366   6.011
 3633SOL    HW111798   4.211   2.425   5.947
 3633SOL    HW211799   4.204   2.350   6.092
 3634SOL     OW11800   1.843   5.748   6.225
 3634SOL    HW111801   1.896   5.778   6.145
 3634SOL    HW211802   1.750   5.725   6.196
 3635SOL     OW11803   2.832   0.655   1.400
 3635SOL    HW111804   2.793   0.746   1.414
 3635SOL    HW211805   2.887   0.629   1.479
 3636SOL     OW11806   6.411   5.548   0.448
 3636SOL    HW111807   6.320   5.539   0.407
 3636SOL    HW211808   6.455   5.458   0.450
 3637SOL     OW11809   7.009   2.446   1.793
 3637SOL    HW111810   6.941   2.492   1.736
 3637SOL    HW211811   6.997   2.474   1.888
 3638SOL     OW11812   6.942   3.962   2.987
 3638SOL    HW111813   6.865   4.025   2.977
 3638SOL    HW211814   6.924   3.899   3.063
 3639SOL     OW11815   4.430   4.859   0.392
 3639SOL    HW111816   4.446   4.799   0.313
 3639SOL    HW211817   4.332   4.870   0.406
 3640SOL     OW11818   4.810   1.358   0.376
 3640SOL    HW111819   4.793   1.417   0.298
 3640SOL    HW211820   4.743   1.377   0.448
 3641SOL     OW11821   6.384   3.538   2.162
 3641SOL    HW111822   6.292   3.530   2.124
 3641SOL    HW211823   6.408   3.453   2.210
 3642SOL     OW11824   4.721   2.045   0.213
 3642SOL    HW111825   4.691   2.057   0.308
 3642SOL    HW211826   4.644   2.061   0.151
 3643SOL     OW11827   3.516   5.720   5.432
 3643SOL    HW111828   3.564   5.642   5.472
 3643SOL    HW211829   3.563   5.749   5.349
 3644SOL     OW11830   2.252   1.809   1.978
 3644SOL    HW111831   2.238   1.821   2.076
 3644SOL    HW211832   2.203   1.727   1.947
 3645SOL     OW11833   1.953   3.044   4.075
 3645SOL    HW111834   1.966   3.011   3.982
 3645SOL    HW211835   2.042   3.068   4.115
 3646SOL     OW11836   1.018   4.069   5.930
 3646SOL    HW111837   0.972   4.089   5.843
 3646SOL    HW211838   1.018   4.151   5.987
 3647SOL     OW11839   2.471   6.007   0.002
 3647SOL    HW111840   2.535   5.970   6.962
 3647SOL    HW211841   2.420   5.932   0.043
 3648SOL     OW11842   4.771   6.238   3.488
 3648SOL    HW111843   4.819   6.325   3.478
 3648SOL    HW211844   4.836   6.168   3.519
 3649SOL     OW11845   6.266   3.173   0.336
 3649SOL    HW111846   6.229   3.129   0.255
 3649SOL    HW211847   6.366   3.166   0.335
 3650SOL     OW11848   5.676   5.286   1.605
 3650SOL    HW111849   5.703   5.359   1.543
 3650SOL    HW211850   5.659   5.323   1.696
 3651SOL     OW11851   1.970   0.354   4.558
 3651SOL    HW111852   1.880   0.313   4.543
 3651SOL    HW211853   1.964   0.453   4.544
 3652SOL     OW11854   6.069   6.694   3.494
 3652SOL    HW111855   6.150   6.700   3.551
 3652SOL    HW211856   6.052   6.598   3.470
 3653SOL     OW11857   1.411   1.518   2.796
 3653SOL    HW111858   1.422   1.495   2.892
 3653SOL    HW211859   1.473   1.593   2.772
 3654SOL     OW11860   4.164   4.901   0.788
 3654SOL    HW111861   4.132   4.943   0.873
 3654SOL    HW211862   4.250   4.852   0.805
 3655SOL     OW11863   3.643   0.907   4.043
 3655SOL    HW111864   3.731   0.867   4.067
 3655SOL    HW211865   3.616   0.876   3.952
 3656SOL     OW11866   0.212   5.439   1.589
 3656SOL    HW111867   0.301   5.459   1.632
 3656SOL    HW211868   0.219   5.355   1.536
 3657SOL     OW11869   4.892   5.633   4.769
 3657SOL    HW111870   4.984   5.595   4.757
 3657SOL    HW211871   4.898   5.732   4.774
 3658SOL     OW11872   2.643   5.054   6.681
 3658SOL    HW111873   2.544   5.051   6.662
 3658SOL    HW211874   2.685   4.969   6.649
 3659SOL     OW11875   1.460   2.602   5.769
 3659SOL    HW111876   1.413   2.661   5.703
 3659SOL    HW211877   1.414   2.513   5.773
 3660SOL     OW11878   6.124   6.134   4.474
 3660SOL    HW111879   6.114   6.233   4.470
 3660SOL    HW211880   6.202   6.106   4.417
 3661SOL     OW11881   6.950   0.954   5.091
 3661SOL    HW111882   0.018   0.930   5.109
 3661SOL    HW211883   6.896   0.943   5.174
 3662SOL     OW11884   4.211   0.603   4.896
 3662SOL    HW111885   4.187   0.700   4.899
 3662SOL    HW211886   4.310   0.593   4.888
 3663SOL     OW11887   1.520   2.785   0.163
 3663SOL    HW111888   1.493   2.734   0.244
 3663SOL    HW211889   1.502   2.883   0.177
 3664SOL     OW11890   4.739   2.322   1.836
 3664SOL    HW111891   4.712   2.283   1.748
 3664SOL    HW211892   4.829   2.288   1.861
 3665SOL     OW11893   0.671   6.281   5.192
 3665SOL    HW111894   0.753   6.272   5.135
 3665SOL    HW211895   0.690   6.344   5.268
 3666SOL     OW11896   1.120   3.877   3.089
 3666SOL    HW111897   1.196   3.836   3.139
 3666SOL    HW211898   1.080   3.951   3.142
 3667SOL     OW11899   0.253   1.013   3.423
 3667SOL    HW111900   0.204   1.090   3.462
 3667SOL    HW211901   0.200   0.974   3.348
 3668SOL     OW11902   1.193   0.490   1.481
 3668SOL    HW111903   1.137   0.506   1.399
 3668SOL    HW211904   1.134   0.479   1.560
 3669SOL     OW11905   6.066   1.687   3.643
 3669SOL    HW111906   6.051   1.654   3.550
 3669SOL    HW211907   6.001   1.760   3.663
 3670SOL     OW11908   2.580   5.159   0.227
 3670SOL    HW111909   2.605   5.193   0.317
 3670SOL    HW211910   2.654   5.102   0.192
 3671SOL     OW11911   0.150   2.316   3.994
 3671SOL    HW111912   0.184   2.407   4.020
 3671SOL    HW211913   0.106   2.274   4.072
 3672SOL     OW11914   4.439   2.081   2.868
 3672SOL    HW111915   4.470   1.992   2.902
 3672SOL    HW211916   4.428   2.143   2.945
 3673SOL     OW11917   3.954   5.869   6.888
 3673SOL    HW111918   4.036   5.910   6.847
 3673SOL    HW211919   3.878   5.877   6.824
 3674SOL     OW11920   1.678   6.172   5.946
 3674SOL    HW111921   1.695   6.176   6.044
 3674SOL    HW211922   1.732   6.242   5.900
 3675SOL     OW11923   1.404   2.755   4.028
 3675SOL    HW111924   1.345   2.687   3.986
 3675SOL    HW211925   1.457   2.802   3.957
 3676SOL     OW11926   5.745   3.796   2.214
 3676SOL    HW111927   5.801   3.877   2.228
 3676SOL    HW211928   5.689   3.808   2.132
 3677SOL     OW11929   3.351   6.999   4.424
 3677SOL    HW111930   3.378   6.963   4.513
 3677SOL    HW211931   3.256   6.972   4.405
 3678SOL     OW11932   1.669   0.475   4.391
 3678SOL    HW111933   1.760   0.516   4.380
 3678SOL    HW211934   1.605   0.544   4.423
 3679SOL     OW11935   0.047   0.418   3.067
 3679SOL    HW111936   0.083   0.383   3.154
 3679SOL    HW211937   6.976   0.436   3.077
 3680SOL     OW11938   5.150   2.862   4.566
 3680SOL    HW111939   5.163   2.915   4.650
 3680SOL    HW211940   5.233   2.865   4.511
 3681SOL     OW11941   1.015   1.362   6.571
 3681SOL    HW111942   1.025   1.411   6.485
 3681SOL    HW211943   1.065   1.411   6.643
 3682SOL     OW11944   5.888   2.545   0.236
 3682SOL    HW111945   5.849   2.562   0.327
 3682SOL    HW211946   5.858   2.455   0.204
 3683SOL     OW11947   0.016   0.525   3.815
 3683SOL    HW111948   6.957   0.495   3.856
 3683SOL    HW211949   7.025   0.596   3.747
 3684SOL     OW11950   1.042   5.657   7.003
 3684SOL    HW111951   1.078   5.569   0.008
 3684SOL    HW211952   1.118   5.722   6.993
 3685SOL     OW11953   2.075   5.792   6.086
 3685SOL    HW111954   2.099   5.874   6.138
 3685SOL    HW211955   2.152   5.764   6.029
 3686SOL     OW11956   6.444   5.431   4.308
 3686SOL    HW111957   6.439   5.356   4.242
 3686SOL    HW211958   6.433   5.394   4.401
 3687SOL     OW11959   4.728   6.749   4.025
 3687SOL    HW111960   4.743   6.686   4.101
 3687SOL    HW211961   4.644   6.801   4.041
 3688SOL     OW11962   6.677   3.488   6.831
 3688SOL    HW111963   6.644   3.467   6.923
 3688SOL    HW211964   6.600   3.496   6.769
 3689SOL     OW11965   2.125   0.894   5.444
 3689SOL    HW111966   2.058   0.922   5.512
 3689SOL    HW211967   2.144   0.971   5.383
 3690SOL     OW11968   4.442   5.756   0.618
 3690SOL    HW111969   4.411   5.793   0.530
 3690SOL    HW211970   4.446   5.829   0.686
 3691SOL     OW11971   2.514   1.869   6.963
 3691SOL    HW111972   2.538   1.781   7.005
 3691SOL    HW211973   2.589   1.934   6.975
 3692SOL     OW11974   6.604   5.156   5.909
 3692SOL    HW111975   6.608   5.175   6.007
 3692SOL    HW211976   6.686   5.193   5.865
 3693SOL     OW11977   2.068   2.016   2.870
 3693SOL    HW111978   2.048   1.939   2.929
 3693SOL    HW211979   2.164   2.042   2.880
 3694SOL     OW11980   1.733   6.833   2.206
 3694SOL    HW111981   1.742   6.798   2.112
 3694SOL    HW211982   1.681   6.768   2.261
 3695SOL     OW11983   5.363   1.513   1.599
 3695SOL    HW111984   5.418   1.505   1.516
 3695SOL    HW211985   5.424   1.524   1.678
 3696SOL     OW11986   4.099   6.924   4.656
 3696SOL    HW111987   4.141   7.007   4.693
 3696SOL    HW211988   4.059   6.944   4.567
 3697SOL     OW11989   6.761   6.129   2.952
 3697SOL    HW111990   6.730   6.047   2.904
 3697SOL    HW211991   6.837   6.105   3.013
 3698SOL     OW11992   2.218   0.784   3.590
 3698SOL    HW111993   2.119   0.773   3.600
 3698SOL    HW211994   2.247   0.871   3.628
 3699SOL     OW11995   1.666   1.155   3.449
 3699SOL    HW111996   1.641   1.107   3.365
 3699SOL    HW211997   1.720   1.093   3.507
 3700SOL     OW11998   1.506   5.105   5.041
 3700SOL    HW111999   1.559   5.031   5.082
 3700SOL    HW212000   1.548   5.193   5.065
 3701SOL     OW12001   0.938   6.540   3.288
 3701SOL    HW112002   0.895   6.605   3.351
 3701SOL    HW212003   1.028   6.513   3.325
 3702SOL     OW12004   5.266   6.540   3.086
 3702SOL    HW112005   5.348   6.592   3.064
 3702SOL    HW212006   5.275   6.499   3.176
 3703SOL     OW12007   0.573   0.558   6.550
 3703SOL    HW112008   0.569   0.476   6.492
 3703SOL    HW212009   0.608   0.533   6.640
 3704SOL     OW12010   4.720   2.186   1.561
 3704SOL    HW112011   4.778   2.138   1.495
 3704SOL    HW212012   4.643   2.127   1.587
 3705SOL     OW12013   5.344   4.470   4.321
 3705SOL    HW112014   5.306   4.539   4.259
 3705SOL    HW212015   5.338   4.380   4.278
 3706SOL     OW12016   0.607   4.350   6.899
 3706SOL    HW112017   0.552   4.305   6.970
 3706SOL    HW212018   0.592   4.303   6.811
 3707SOL     OW12019   4.363   6.145   4.285
 3707SOL    HW112020   4.268   6.170   4.306
 3707SOL    HW212021   4.381   6.164   4.188
 3708SOL     OW12022   4.314   6.612   1.162
 3708SOL    HW112023   4.230   6.574   1.201
 3708SOL    HW212024   4.291   6.686   1.098
 3709SOL     OW12025   2.734   0.385   1.817
 3709SOL    HW112026   2.680   0.363   1.899
 3709SOL    HW212027   2.785   0.304   1.788
 3710SOL     OW12028   0.339   5.298   4.339
 3710SOL    HW112029   0.341   5.336   4.431
 3710SOL    HW212030   0.339   5.372   4.272
 3711SOL     OW12031   1.363   5.782   5.382
 3711SOL    HW112032   1.332   5.688   5.389
 3711SOL    HW212033   1.429   5.801   5.455
 3712SOL     OW12034   1.367   6.048   0.016
 3712SOL    HW112035   1.454   6.053   0.066
 3712SOL    HW212036   1.292   6.073   0.078
 3713SOL     OW12037   0.660   6.988   5.194
 3713SOL    HW112038   0.733   6.987   5.261
 3713SOL    HW212039   0.698   7.006   5.103
 3714SOL     OW12040   5.663   5.759   6.684
 3714SOL    HW112041   5.577   5.739   6.730
 3714SOL    HW212042   5.734   5.774   6.753
 3715SOL     OW12043   1.115   4.718   1.959
 3715SOL    HW112044   1.085   4.743   1.867
 3715SOL    HW212045   1.095   4.794   2.022
 3716SOL     OW12046   6.115   6.091   4.758
 3716SOL    HW112047   6.107   6.103   4.659
 3716SOL    HW212048   6.023   6.093   4.799
 3717SOL     OW12049   5.211   0.899   0.732
 3717SOL    HW112050   5.242   0.815   0.688
 3717SOL    HW212051   5.161   0.877   0.816
 3718SOL     OW12052   6.788   6.957   6.849
 3718SOL    HW112053   6.809   6.956   6.947
 3718SOL    HW212054   6.832   6.878   6.805
 3719SOL     OW12055   4.094   3.004   6.822
 3719SOL    HW112056   4.037   3.042   6.895
 3719SOL    HW212057   4.125   2.913   6.847
 3720SOL     OW12058   5.740   3.422   1.012
 3720SOL    HW112059   5.670   3.432   0.941
 3720SOL    HW212060   5.808   3.355   0.982
 3721SOL     OW12061   0.145   4.534   0.964
 3721SOL    HW112062   0.234   4.563   0.998
 3721SOL    HW212063   0.145   4.436   0.947
 3722SOL     OW12064   5.910   6.349   1.523
 3722SOL    HW112065   5.906   6.404   1.440
 3722SOL    HW212066   5.859   6.264   1.510
 3723SOL     OW12067   4.684   4.814   0.798
 3723SOL    HW112068   4.672   4.866   0.713
 3723SOL    HW212069   4.650   4.868   0.875
 3724SOL     OW12070   1.624   4.190   5.900
 3724SOL    HW112071   1.593   4.272   5.947
 3724SOL    HW212072   1.711   4.160   5.940
 3725SOL     OW12073   0.577   5.933   6.531
 3725SOL    HW112074   0.662   5.980   6.555
 3725SOL    HW212075   0.588   5.835   6.548
 3726SOL     OW12076   5.297   3.694   6.020
 3726SOL    HW112077   5.218   3.673   6.077
 3726SOL    HW212078   5.280   3.781   5.972
 3727SOL     OW12079   6.855   2.889   5.573
 3727SOL    HW112080   6.830   2.884   5.476
 3727SOL    HW212081   6.774   2.875   5.630
 3728SOL     OW12082   1.843   3.276   6.480
 3728SOL    HW112083   1.863   3.367   6.516
 3728SOL    HW212084   1.823   3.283   6.382
 3729SOL     OW12085   1.353   1.870   4.146
 3729SOL    HW112086   1.443   1.909   4.132
 3729SOL    HW212087   1.349   1.778   4.107
 3730SOL     OW12088   3.595   6.369   5.666
 3730SOL    HW112089   3.652   6.293   5.699
 3730SOL    HW212090   3.503   6.361   5.705
 3731SOL     OW12091   0.252   1.074   0.250
 3731SOL    HW112092   0.187   1.014   0.201
 3731SOL    HW212093   0.215   1.166   0.254
 3732SOL     OW12094   2.703   2.195   0.393
 3732SOL    HW112095   2.702   2.276   0.334
 3732SOL    HW212096   2.696   2.222   0.488
 3733SOL     OW12097   2.446   2.071   3.451
 3733SOL    HW112098   2.470   1.989   3.399
 3733SOL    HW212099   2.384   2.128   3.396
 3734SOL     OW12100   4.369   0.298   1.535
 3734SOL    HW112101   4.275   0.294   1.503
 3734SOL    HW212102   4.421   0.360   1.476
 3735SOL     OW12103   3.280   0.819   2.849
 3735SOL    HW112104   3.209   0.825   2.919
 3735SOL    HW212105   3.271   0.895   2.785
 3736SOL     OW12106   6.804   1.377   1.051
 3736SOL    HW112107   6.829   1.454   1.110
 3736SOL    HW212108   6.886   1.325   1.027
 3737SOL     OW12109   6.238   1.457   3.599
 3737SOL    HW112110   6.236   1.557   3.601
 3737SOL    HW212111   6.146   1.421   3.612
 3738SOL     OW12112   6.178   0.298   1.458
 3738SOL    HW112113   6.097   0.356   1.453
 3738SOL    HW212114   6.207   0.274   1.365
 3739SOL     OW12115   2.191   4.506   1.636
 3739SOL    HW112116   2.267   4.570   1.625
 3739SOL    HW212117   2.208   4.425   1.579
 3740SOL     OW12118   6.302   5.860   0.458
 3740SOL    HW112119   6.336   5.767   0.453
 3740SOL    HW212120   6.211   5.864   0.415
 3741SOL     OW12121   4.957   2.681   6.697
 3741SOL    HW112122   5.036   2.737   6.673
 3741SOL    HW212123   4.988   2.591   6.728
 3742SOL     OW12124   4.073   6.911   0.400
 3742SOL    HW112125   4.022   6.960   0.329
 3742SOL    HW212126   4.083   6.969   0.481
 3743SOL     OW12127   5.259   3.546   1.471
 3743SOL    HW112128   5.283   3.488   1.548
 3743SOL    HW212129   5.317   3.627   1.470
 3744SOL     OW12130   1.081   5.847   2.124
 3744SOL    HW112131   1.091   5.755   2.163
 3744SOL    HW212132   1.132   5.912   2.181
 3745SOL     OW12133   5.464   4.062   2.944
 3745SOL    HW112134   5.441   4.159   2.940
 3745SOL    HW212135   5.501   4.040   3.034
 3746SOL     OW12136   6.420   0.571   3.950
 3746SOL    HW112137   6.410   0.502   3.878
 3746SOL    HW212138   6.467   0.529   4.029
 3747SOL     OW12139   4.160   6.270   5.455
 3747SOL    HW112140   4.137   6.328   5.376
 3747SOL    HW212141   4.180   6.177   5.423
 3748SOL     OW12142   5.110   0.564   1.861
 3748SOL    HW112143   5.027   0.600   1.902
 3748SOL    HW212144   5.180   0.550   1.931
 3749SOL     OW12145   2.443   4.851   3.025
 3749SOL    HW112146   2.406   4.944   3.036
 3749SOL    HW212147   2.374   4.794   2.980
 3750SOL     OW12148   6.163   4.497   0.765
 3750SOL    HW112149   6.138   4.525   0.857
 3750SOL    HW212150   6.208   4.407   0.769
 3751SOL     OW12151   6.635   3.421   0.804
 3751SOL    HW112152   6.689   3.404   0.887
 3751SOL    HW212153   6.686   3.482   0.744
 3752SOL     OW12154   0.881   6.958   0.626
 3752SOL    HW112155   0.944   7.019   0.674
 3752SOL    HW212156   0.800   6.943   0.681
 3753SOL     OW12157   6.726   1.017   4.065
 3753SOL    HW112158   6.785   1.006   4.145
 3753SOL    HW212159   6.760   1.092   4.008
 3754SOL     OW12160   3.926   6.363   1.411
 3754SOL    HW112161   3.872   6.447   1.403
 3754SOL    HW212162   3.923   6.330   1.506
 3755SOL     OW12163   5.886   5.899   4.084
 3755SOL    HW112164   5.789   5.880   4.074
 3755SOL    HW212165   5.937   5.813   4.077
 3756SOL     OW12166   1.950   6.499   6.060
 3756SOL    HW112167   2.022   6.516   6.128
 3756SOL    HW212168   1.899   6.584   6.044
 3757SOL     OW12169   3.663   6.557   7.017
 3757SOL    HW112170   3.709   6.607   0.062
 3757SOL    HW212171   3.638   6.466   0.023
 3758SOL     OW12172   1.652   1.267   4.416
 3758SOL    HW112173   1.723   1.234   4.478
 3758SOL    HW212174   1.666   1.227   4.325
 3759SOL     OW12175   4.696   5.233   6.264
 3759SOL    HW112176   4.631   5.174   6.216
 3759SOL    HW212177   4.729   5.187   6.346
 3760SOL     OW12178   1.900   2.880   4.271
 3760SOL    HW112179   1.900   2.933   4.186
 3760SOL    HW212180   1.925   2.939   4.348
 3761SOL     OW12181   0.417   0.526   5.418
 3761SOL    HW112182   0.508   0.543   5.455
 3761SOL    HW212183   0.421   0.524   5.318
 3762SOL     OW12184   0.371   5.307   6.970
 3762SOL    HW112185   0.466   5.339   6.975
 3762SOL    HW212186   0.311   5.385   6.950
 3763SOL     OW12187   6.898   4.795   6.998
 3763SOL    HW112188   6.962   4.844   6.939
 3763SOL    HW212189   6.809   4.789   6.955
 3764SOL     OW12190   1.841   0.240   3.455
 3764SOL    HW112191   1.906   0.165   3.461
 3764SOL    HW212192   1.855   0.290   3.369
 3765SOL     OW12193   4.865   1.431   1.025
 3765SOL    HW112194   4.772   1.394   1.022
 3765SOL    HW212195   4.867   1.512   1.084
 3766SOL     OW12196   1.154   1.104   3.990
 3766SOL    HW112197   1.250   1.123   4.010
 3766SOL    HW212198   1.113   1.057   4.068
 3767SOL     OW12199   2.346   5.129   0.363
 3767SOL    HW112200   2.344   5.081   0.451
 3767SOL    HW212201   2.432   5.111   0.317
 3768SOL     OW12202   2.449   5.854   5.395
 3768SOL    HW112203   2.494   5.850   5.484
 3768SOL    HW212204   2.503   5.910   5.332
 3769SOL     OW12205   5.535   5.556   4.978
 3769SOL    HW112206   5.492   5.509   5.055
 3769SOL    HW212207   5.512   5.654   4.983
 3770SOL     OW12208   1.957   6.985   6.986
 3770SOL    HW112209   1.869   6.937   6.986
 3770SOL    HW212210   2.022   6.935   6.929
 3771SOL     OW12211   6.619   2.815   6.703
 3771SOL    HW112212   6.529   2.783   6.736
 3771SOL    HW212213   6.611   2.910   6.672
 3772SOL     OW12214   0.060   0.955   0.113
 3772SOL    HW112215   0.054   0.860   0.081
 3772SOL    HW212216   0.022   1.016   0.043
 3773SOL     OW12217   6.601   3.068   6.613
 3773SOL    HW112218   6.504   3.070   6.588
 3773SOL    HW212219   6.656   3.051   6.531
 3774SOL     OW12220   0.678   5.772   0.218
 3774SOL    HW112221   0.619   5.737   0.290
 3774SOL    HW212222   0.684   5.704   0.144
 3775SOL     OW12223   5.007   4.896   2.228
 3775SOL    HW112224   4.972   4.931   2.315
 3775SOL    HW212225   5.036   4.801   2.239
 3776SOL     OW12226   4.091   1.037   0.633
 3776SOL    HW112227   4.180   1.025   0.590
 3776SOL    HW212228   4.020   1.000   0.573
 3777SOL     OW12229   3.398   4.993   4.789
 3777SOL    HW112230   3.334   4.968   4.861
 3777SOL    HW212231   3.356   4.975   4.700
 3778SOL     OW12232   2.950   5.060   3.198
 3778SOL    HW112233   2.910   5.124   3.133
 3778SOL    HW212234   2.902   5.066   3.285
 3779SOL     OW12235   1.833   4.565   1.030
 3779SOL    HW112236   1.878   4.491   1.081
 3779SOL    HW212237   1.900   4.634   1.005
 3780SOL     OW12238   4.619   5.474   6.187
 3780SOL    HW112239   4.697   5.520   6.144
 3780SOL    HW212240   4.649   5.386   6.224
 3781SOL     OW12241   1.929   6.988   4.203
 3781SOL    HW112242   1.880   0.001   4.126
 3781SOL    HW212243   1.974   0.033   4.256
 3782SOL     OW12244   2.589   0.996   4.557
 3782SOL    HW112245   2.497   0.962   4.535
 3782SOL    HW212246   2.641   1.010   4.473
 3783SOL     OW12247   5.654   6.163   4.567
 3783SOL    HW112248   5.691   6.103   4.639
 3783SOL    HW212249   5.683   6.129   4.478
 3784SOL     OW12250   5.356   2.439   3.142
 3784SOL    HW112251   5.409   2.519   3.116
 3784SOL    HW212252   5.414   2.375   3.192
 3785SOL     OW12253   1.108   0.937   6.728
 3785SOL    HW112254   1.035   0.904   6.669
 3785SOL    HW212255   1.168   0.998   6.676
 3786SOL     OW12256   2.136   6.850   2.825
 3786SOL    HW112257   2.149   6.900   2.911
 3786SOL    HW212258   2.209   6.783   2.814
 3787SOL     OW12259   5.862   6.629   3.113
 3787SOL    HW112260   5.961   6.639   3.108
 3787SOL    HW212261   5.838   6.532   3.120
 3788SOL     OW12262   0.860   3.602   4.274
 3788SOL    HW112263   0.825   3.609   4.180
 3788SOL    HW212264   0.867   3.506   4.300
 3789SOL     OW12265   0.591   3.340   4.443
 3789SOL    HW112266   0.521   3.356   4.513
 3789SOL    HW212267   0.561   3.378   4.356
 3790SOL     OW12268   2.130   3.968   5.613
 3790SOL    HW112269   2.205   4.008   5.561
 3790SOL    HW212270   2.166   3.915   5.689
 3791SOL     OW12271   6.325   0.265   0.304
 3791SOL    HW112272   6.343   0.185   0.362
 3791SOL    HW212273   6.402   0.328   0.310
 3792SOL     OW12274   0.147   0.852   3.932
 3792SOL    HW112275   0.239   0.817   3.952
 3792SOL    HW212276   0.150   0.952   3.922
 3793SOL     OW12277   3.825   0.315   2.693
 3793SOL    HW112278   3.769   0.386   2.651
 3793SOL    HW212279   3.807   0.312   2.792
 3794SOL     OW12280   2.229   4.146   1.381
 3794SOL    HW112281   2.147   4.092   1.361
 3794SOL    HW212282   2.304   4.117   1.321
 3795SOL     OW12283   3.699   6.574   6.737
 3795SOL    HW112284   3.602   6.584   6.715
 3795SOL    HW212285   3.714   6.596   6.833
 3796SOL     OW12286   2.874   1.857   1.100
 3796SOL    HW112287   2.869   1.780   1.163
 3796SOL    HW212288   2.954   1.847   1.040
 3797SOL     OW12289   6.280   4.240   2.815
 3797SOL    HW112290   6.208   4.307   2.830
 3797SOL    HW212291   6.349   4.279   2.753
 3798SOL     OW12292   3.735   6.028   2.964
 3798SOL    HW112293   3.753   6.115   3.010
 3798SOL    HW212294   3.723   6.044   2.866
 3799SOL     OW12295   6.931   2.618   3.916
 3799SOL    HW112296   6.849   2.598   3.862
 3799SOL    HW212297   6.990   2.680   3.865
 3800SOL     OW12298   5.343   3.308   4.487
 3800SOL    HW112299   5.292   3.307   4.573
 3800SOL    HW212300   5.440   3.323   4.506
 3801SOL     OW12301   6.488   6.028   3.286
 3801SOL    HW112302   6.423   6.052   3.214
 3801SOL    HW212303   6.577   6.009   3.246
 3802SOL     OW12304   0.796   2.492   3.578
 3802SOL    HW112305   0.795   2.548   3.495
 3802SOL    HW212306   0.827   2.547   3.656
 3803SOL     OW12307   3.837   2.216   1.091
 3803SOL    HW112308   3.762   2.206   1.026
 3803SOL    HW212309   3.866   2.126   1.122
 3804SOL     OW12310   5.119   2.226   3.336
 3804SOL    HW112311   5.127   2.296   3.407
 3804SOL    HW212312   5.064   2.150   3.370
 3805SOL     OW12313   2.806   3.526   1.621
 3805SOL    HW112314   2.826   3.573   1.707
 3805SOL    HW212315   2.879   3.461   1.600
 3806SOL     OW12316   3.043   3.765   6.800
 3806SOL    HW112317   3.103   3.770   6.881
 3806SOL    HW212318   2.958   3.815   6.818
 3807SOL     OW12319   2.564   6.523   3.885
 3807SOL    HW112320   2.510   6.606   3.871
 3807SOL    HW212321   2.513   6.459   3.943
 3808SOL     OW12322   4.027   0.168   0.965
 3808SOL    HW112323   3.998   0.193   0.873
 3808SOL    HW212324   4.127   0.168   0.970
 3809SOL     OW12325   6.206   3.002   0.529
 3809SOL    HW112326   6.223   3.073   0.460
 3809SOL    HW212327   6.261   3.020   0.610
 3810SOL     OW12328   4.578   2.414   5.325
 3810SOL    HW112329   4.546   2.469   5.402
 3810SOL    HW212330   4.672   2.441   5.301
 3811SOL     OW12331   1.201   4.415   3.945
 3811SOL    HW112332   1.202   4.406   3.845
 3811SOL    HW212333   1.178   4.327   3.985
 3812SOL     OW12334   5.069   0.749   5.431
 3812SOL    HW112335   4.979   0.705   5.434
 3812SOL    HW212336   5.060   0.840   5.392
 3813SOL     OW12337   4.213   4.032   0.634
 3813SOL    HW112338   4.138   4.090   0.601
 3813SOL    HW212339   4.219   4.039   0.734
 3814SOL     OW12340   0.410   0.086   1.155
 3814SOL    HW112341   0.323   0.120   1.193
 3814SOL    HW212342   0.486   0.135   1.198
 3815SOL     OW12343   4.597   3.009   0.358
 3815SOL    HW112344   4.621   2.937   0.422
 3815SOL    HW212345   4.634   2.988   0.268
 3816SOL     OW12346   0.630   6.042   0.155
 3816SOL    HW112347   0.603   6.091   0.238
 3816SOL    HW212348   0.650   5.947   0.178
 3817SOL     OW12349   5.480   3.618   3.368
 3817SOL    HW112350   5.445   3.530   3.334
 3817SOL    HW212351   5.441   3.637   3.458
 3818SOL     OW12352   4.950   0.213   0.420
 3818SOL    HW112353   4.927   0.117   0.437
 3818SOL    HW212354   5.042   0.231   0.454
 3819SOL     OW12355   5.438   5.287   1.054
 3819SOL    HW112356   5.473   5.262   0.964
 3819SOL    HW212357   5.469   5.379   1.078
 3820SOL     OW12358   6.919   6.781   3.331
 3820SOL    HW112359   6.972   6.863   3.311
 3820SOL    HW212360   6.948   6.744   3.419
 3821SOL     OW12361   2.397   2.632   0.569
 3821SOL    HW112362   2.442   2.699   0.628
 3821SOL    HW212363   2.373   2.676   0.482
 3822SOL     OW12364   1.431   6.394   2.908
 3822SOL    HW112365   1.409   6.483   2.949
 3822SOL    HW212366   1.348   6.339   2.900
 3823SOL     OW12367   3.848   2.168   5.972
 3823SOL    HW112368   3.756   2.137   5.948
 3823SOL    HW212369   3.864   2.149   6.069
 3824SOL     OW12370   5.423   2.100   6.715
 3824SOL    HW112371   5.395   2.177   6.772
 3824SOL    HW212372   5.484   2.040   6.767
 3825SOL     OW12373   0.370   6.621   0.797
 3825SOL    HW112374   0.452   6.597   0.745
 3825SOL    HW212375   0.303   6.664   0.736
 3826SOL     OW12376   0.324   3.396   7.018
 3826SOL    HW112377   0.414   3.413   6.976
 3826SOL    HW212378   0.336   3.379   0.089
 3827SOL     OW12379   3.382   2.805   1.047
 3827SOL    HW112380   3.285   2.818   1.066
 3827SOL    HW212381   3.405   2.708   1.055
 3828SOL     OW12382   4.723   2.451   1.407
 3828SOL    HW112383   4.812   2.482   1.373
 3828SOL    HW212384   4.736   2.385   1.481
 3829SOL     OW12385   2.170   4.586   4.252
 3829SOL    HW112386   2.267   4.586   4.230
 3829SOL    HW212387   2.152   4.519   4.324
 3830SOL     OW12388   0.992   0.111   5.100
 3830SOL    HW112389   0.915   0.170   5.076
 3830SOL    HW212390   1.061   0.164   5.148
 3831SOL     OW12391   4.613   1.763   2.339
 3831SOL    HW112392   4.687   1.797   2.398
 3831SOL    HW212393   4.599   1.827   2.264
 3832SOL     OW12394   5.954   1.129   2.087
 3832SOL    HW112395   5.937   1.034   2.116
 3832SOL    HW212396   6.014   1.173   2.154
 3833SOL     OW12397   1.091   5.958   6.155
 3833SOL    HW112398   1.039   6.015   6.219
 3833SOL    HW212399   1.122   6.014   6.079
 3834SOL     OW12400   3.506   2.649   1.312
 3834SOL    HW112401   3.515   2.583   1.237
 3834SOL    HW212402   3.587   2.708   1.313
 3835SOL     OW12403   3.133   5.120   5.142
 3835SOL    HW112404   3.099   5.166   5.223
 3835SOL    HW212405   3.230   5.098   5.154
 3836SOL     OW12406   1.912   3.845   5.462
 3836SOL    HW112407   1.954   3.813   5.377
 3836SOL    HW212408   1.981   3.892   5.517
 3837SOL     OW12409   5.061   3.627   6.813
 3837SOL    HW112410   4.979   3.671   6.849
 3837SOL    HW212411   5.141   3.685   6.829
 3838SOL     OW12412   6.622   4.470   4.176
 3838SOL    HW112413   6.641   4.382   4.135
 3838SOL    HW212414   6.523   4.483   4.185
 3839SOL     OW12415   4.233   0.613   4.611
 3839SOL    HW112416   4.229   0.567   4.700
 3839SOL    HW212417   4.162   0.683   4.606
 3840SOL     OW12418   1.778   1.190   5.095
 3840SOL    HW112419   1.815   1.154   5.010
 3840SOL    HW212420   1.771   1.290   5.089
 3841SOL     OW12421   0.113   3.464   4.826
 3841SOL    HW112422   0.204   3.507   4.833
 3841SOL    HW212423   0.121   3.367   4.848
 3842SOL     OW12424   1.071   4.386   6.977
 3842SOL    HW112425   1.083   4.318   0.022
 3842SOL    HW212426   1.161   4.423   6.952
 3843SOL     OW12427   6.853   4.729   1.860
 3843SOL    HW112428   6.923   4.793   1.828
 3843SOL    HW212429   6.763   4.771   1.851
 3844SOL     OW12430   0.236   4.109   5.887
 3844SOL    HW112431   0.289   4.033   5.924
 3844SOL    HW212432   0.208   4.170   5.961
 3845SOL     OW12433   3.875   2.970   2.853
 3845SOL    HW112434   3.788   2.934   2.885
 3845SOL    HW212435   3.900   3.051   2.906
 3846SOL     OW12436   0.529   4.824   4.048
 3846SOL    HW112437   0.557   4.880   4.125
 3846SOL    HW212438   0.438   4.785   4.066
 3847SOL     OW12439   6.061   1.191   5.216
 3847SOL    HW112440   6.044   1.166   5.312
 3847SOL    HW212441   5.982   1.241   5.180
 3848SOL     OW12442   3.128   5.732   3.025
 3848SOL    HW112443   3.218   5.688   3.019
 3848SOL    HW212444   3.082   5.700   3.108
 3849SOL     OW12445   0.575   1.540   5.171
 3849SOL    HW112446   0.604   1.613   5.232
 3849SOL    HW212447   0.550   1.580   5.082
 3850SOL     OW12448   2.784   3.533   1.323
 3850SOL    HW112449   2.873   3.510   1.284
 3850SOL    HW212450   2.790   3.529   1.423
 3851SOL     OW12451   1.322   4.589   3.165
 3851SOL    HW112452   1.304   4.495   3.134
 3851SOL    HW212453   1.410   4.593   3.211
 3852SOL     OW12454   4.594   6.833   4.353
 3852SOL    HW112455   4.660   6.815   4.426
 3852SOL    HW212456   4.528   6.759   4.349
 3853SOL     OW12457   1.596   3.206   2.615
 3853SOL    HW112458   1.629   3.112   2.606
 3853SOL    HW212459   1.674   3.268   2.625
 3854SOL     OW12460   1.039   4.153   2.618
 3854SOL    HW112461   1.029   4.145   2.717
 3854SOL    HW212462   1.085   4.072   2.582
 3855SOL     OW12463   4.882   5.939   6.636
 3855SOL    HW112464   4.898   5.846   6.603
 3855SOL    HW212465   4.798   5.941   6.691
 3856SOL     OW12466   6.744   6.179   4.966
 3856SOL    HW112467   6.727   6.165   4.868
 3856SOL    HW212468   6.657   6.174   5.015
 3857SOL     OW12469   0.938   6.299   5.626
 3857SOL    HW112470   0.885   6.359   5.566
 3857SOL    HW212471   1.012   6.351   5.668
 3858SOL     OW12472   1.525   6.575   6.032
 3858SOL    HW112473   1.592   6.505   6.057
 3858SOL    HW212474   1.518   6.643   6.105
 3859SOL     OW12475   7.026   1.757   3.254
 3859SOL    HW112476   6.972   1.825   3.205
 3859SOL    HW212477   7.002   1.665   3.221
 3860SOL     OW12478   0.984   6.913   4.964
 3860SOL    HW112479   0.994   6.995   5.020
 3860SOL    HW212480   1.054   6.913   4.893
 3861SOL     OW12481   5.258   4.501   1.904
 3861SOL    HW112482   5.261   4.578   1.968
 3861SOL    HW212483   5.308   4.423   1.943
 3862SOL     OW12484   6.653   6.933   5.375
 3862SOL    HW112485   6.595   6.864   5.417
 3862SOL    HW212486   6.651   6.923   5.276
 3863SOL     OW12487   3.928   3.913   6.581
 3863SOL    HW112488   3.901   3.882   6.673
 3863SOL    HW212489   3.899   4.007   6.567
 3864SOL     OW12490   4.324   1.850   5.609
 3864SOL    HW112491   4.246   1.798   5.644
 3864SOL    HW212492   4.388   1.868   5.684
 3865SOL     OW12493   3.557   0.250   1.678
 3865SOL    HW112494   3.563   0.298   1.766
 3865SOL    HW212495   3.650   0.232   1.644
 3866SOL     OW12496   3.697   0.686   0.383
 3866SOL    HW112497   3.782   0.635   0.395
 3866SOL    HW212498   3.696   0.728   0.292
 3867SOL     OW12499   1.699   3.703   4.198
 3867SOL    HW112500   1.640   3.637   4.149
 3867SOL    HW212501   1.734   3.770   4.133
 3868SOL     OW12502   2.273   6.431   2.193
 3868SOL    HW112503   2.350   6.368   2.190
 3868SOL    HW212504   2.206   6.399   2.260
 3869SOL     OW12505   6.858   3.018   4.316
 3869SOL    HW112506   6.766   3.045   4.287
 3869SOL    HW212507   6.881   2.930   4.276
 3870SOL     OW12508   4.484   4.633   0.171
 3870SOL    HW112509   4.530   4.553   0.211
 3870SOL    HW212510   4.418   4.603   0.103
 3871SOL     OW12511   2.848   0.971   2.485
 3871SOL    HW112512   2.836   1.023   2.570
 3871SOL    HW212513   2.929   1.004   2.437
 3872SOL     OW12514   2.990   2.919   1.750
 3872SOL    HW112515   2.953   2.928   1.843
 3872SOL    HW212516   3.048   2.839   1.745
 3873SOL     OW12517   5.860   5.441   1.173
 3873SOL    HW112518   5.879   5.407   1.080
 3873SOL    HW212519   5.768   5.414   1.200
 3874SOL     OW12520   4.102   6.510   0.608
 3874SOL    HW112521   4.196   6.527   0.579
 3874SOL    HW212522   4.069   6.586   0.663
 3875SOL     OW12523   1.100   3.240   3.007
 3875SOL    HW112524   1.138   3.265   2.917
 3875SOL    HW212525   1.001   3.247   3.004
 3876SOL     OW12526   5.184   5.508   6.404
 3876SOL    HW112527   5.178   5.449   6.484
 3876SOL    HW212528   5.259   5.477   6.345
 3877SOL     OW12529   6.571   1.169   0.606
 3877SOL    HW112530   6.632   1.248   0.594
 3877SOL    HW212531   6.496   1.175   0.540
 3878SOL     OW12532   2.579   5.962   6.103
 3878SOL    HW112533   2.501   5.943   6.161
 3878SOL    HW212534   2.579   6.059   6.077
 3879SOL     OW12535   4.768   5.840   1.254
 3879SOL    HW112536   4.802   5.928   1.221
 3879SOL    HW212537   4.748   5.847   1.352
 3880SOL     OW12538   5.936   4.091   3.139
 3880SOL    HW112539   5.908   4.158   3.207
 3880SOL    HW212540   6.035   4.096   3.126
 3881SOL     OW12541   1.314   5.350   0.935
 3881SOL    HW112542   1.277   5.373   0.845
 3881SOL    HW212543   1.265   5.272   0.972
 3882SOL     OW12544   6.345   0.940   4.964
 3882SOL    HW112545   6.419   0.873   4.957
 3882SOL    HW212546   6.354   1.007   4.890
 3883SOL     OW12547   4.569   1.542   3.589
 3883SOL    HW112548   4.549   1.490   3.672
 3883SOL    HW212549   4.488   1.541   3.529
 3884SOL     OW12550   1.330   6.407   4.792
 3884SOL    HW112551   1.363   6.342   4.723
 3884SOL    HW212552   1.267   6.472   4.749
 3885SOL     OW12553   6.412   0.768   4.707
 3885SOL    HW112554   6.331   0.724   4.669
 3885SOL    HW212555   6.441   0.843   4.647
 3886SOL     OW12556   6.118   0.471   5.714
 3886SOL    HW112557   6.113   0.372   5.702
 3886SOL    HW212558   6.132   0.493   5.811
 3887SOL     OW12559   5.273   2.120   5.305
 3887SOL    HW112560   5.227   2.068   5.376
 3887SOL    HW212561   5.337   2.185   5.347
 3888SOL     OW12562   6.967   0.512   6.387
 3888SOL    HW112563   0.037   0.535   6.374
 3888SOL    HW212564   6.942   0.531   6.482
 3889SOL     OW12565   0.156   4.983   6.161
 3889SOL    HW112566   0.154   4.899   6.214
 3889SOL    HW212567   0.243   4.990   6.113
 3890SOL     OW12568   6.537   6.564   2.804
 3890SOL    HW112569   6.541   6.464   2.801
 3890SOL    HW212570   6.467   6.597   2.741
 3891SOL     OW12571   5.454   4.617   4.721
 3891SOL    HW112572   5.540   4.627   4.671
 3891SOL    HW212573   5.400   4.701   4.712
 3892SOL     OW12574   1.296   0.568   2.506
 3892SOL    HW112575   1.256   0.655   2.533
 3892SOL    HW212576   1.396   0.576   2.504
 3893SOL     OW12577   3.214   5.879   3.317
 3893SOL    HW112578   3.133   5.885   3.260
 3893SOL    HW212579   3.255   5.788   3.308
 3894SOL     OW12580   3.864   2.457   0.746
 3894SOL    HW112581   3.794   2.442   0.677
 3894SOL    HW212582   3.828   2.433   0.836
 3895SOL     OW12583   1.146   0.955   5.474
 3895SOL    HW112584   1.056   0.938   5.515
 3895SOL    HW212585   1.153   0.906   5.388
 3896SOL     OW12586   0.775   2.152   6.468
 3896SOL    HW112587   0.779   2.160   6.368
 3896SOL    HW212588   0.716   2.225   6.505
 3897SOL     OW12589   3.098   6.542   2.553
 3897SOL    HW112590   3.047   6.607   2.497
 3897SOL    HW212591   3.134   6.469   2.496
 3898SOL     OW12592   3.295   3.097   3.472
 3898SOL    HW112593   3.368   3.163   3.455
 3898SOL    HW212594   3.334   3.015   3.513
 3899SOL     OW12595   5.148   1.140   4.948
 3899SOL    HW112596   5.077   1.188   4.896
 3899SOL    HW212597   5.111   1.115   5.038
 3900SOL     OW12598   5.929   2.720   3.268
 3900SOL    HW112599   6.027   2.701   3.270
 3900SOL    HW212600   5.914   2.817   3.252
 3901SOL     OW12601   1.793   6.806   5.736
 3901SOL    HW112602   1.797   6.774   5.830
 3901SOL    HW212603   1.769   6.730   5.676
 3902SOL     OW12604   5.171   4.202   2.998
 3902SOL    HW112605   5.137   4.120   2.952
 3902SOL    HW212606   5.101   4.237   3.060
 3903SOL     OW12607   4.565   3.570   0.146
 3903SOL    HW112608   4.661   3.554   0.171
 3903SOL    HW212609   4.506   3.528   0.216
 3904SOL     OW12610   1.003   6.765   0.103
 3904SOL    HW112611   0.922   6.790   0.157
 3904SOL    HW212612   1.004   6.818   0.019
 3905SOL     OW12613   6.254   6.588   6.405
 3905SOL    HW112614   6.305   6.505   6.382
 3905SOL    HW212615   6.243   6.594   6.504
 3906SOL     OW12616   1.443   4.793   3.949
 3906SOL    HW112617   1.507   4.822   3.877
 3906SOL    HW212618   1.445   4.693   3.957
 3907SOL     OW12619   0.123   1.362   4.740
 3907SOL    HW112620   0.060   1.284   4.746
 3907SOL    HW212621   0.206   1.341   4.792
 3908SOL     OW12622   0.999   0.719   5.820
 3908SOL    HW112623   1.093   0.730   5.788
 3908SOL    HW212624   0.994   0.639   5.879
 3909SOL     OW12625   4.930   3.400   6.182
 3909SOL    HW112626   4.974   3.374   6.097
 3909SOL    HW212627   4.990   3.378   6.259
 3910SOL     OW12628   3.943   3.778   2.069
 3910SOL    HW112629   3.962   3.680   2.075
 3910SOL    HW212630   3.889   3.806   2.148
 3911SOL     OW12631   5.461   0.417   0.827
 3911SOL    HW112632   5.497   0.326   0.849
 3911SOL    HW212633   5.517   0.458   0.756
 3912SOL     OW12634   3.188   1.812   5.971
 3912SOL    HW112635   3.203   1.907   5.997
 3912SOL    HW212636   3.183   1.755   6.054
 3913SOL     OW12637   3.785   6.482   0.723
 3913SOL    HW112638   3.798   6.384   0.742
 3913SOL    HW212639   3.765   6.495   0.626
 3914SOL     OW12640   5.309   1.348   1.237
 3914SOL    HW112641   5.309   1.308   1.145
 3914SOL    HW212642   5.362   1.291   1.298
 3915SOL     OW12643   3.135   6.010   0.650
 3915SOL    HW112644   3.166   6.103   0.629
 3915SOL    HW212645   3.105   6.007   0.746
 3916SOL     OW12646   3.484   0.622   2.852
 3916SOL    HW112647   3.424   0.702   2.857
 3916SOL    HW212648   3.569   0.642   2.902
 3917SOL     OW12649   2.474   4.892   0.770
 3917SOL    HW112650   2.531   4.967   0.803
 3917SOL    HW212651   2.389   4.928   0.732
 3918SOL     OW12652   5.025   1.263   0.584
 3918SOL    HW112653   5.008   1.171   0.619
 3918SOL    HW212654   5.019   1.262   0.484
 3919SOL     OW12655   4.590   1.429   0.545
 3919SOL    HW112656   4.665   1.473   0.596
 3919SOL    HW212657   4.582   1.334   0.573
 3920SOL     OW12658   2.956   1.600   6.906
 3920SOL    HW112659   3.022   1.527   6.889
 3920SOL    HW212660   3.004   1.681   6.940
 3921SOL     OW12661   6.906   2.840   6.784
 3921SOL    HW112662   6.909   2.930   6.828
 3921SOL    HW212663   6.811   2.812   6.772
 3922SOL     OW12664   4.705   4.868   2.023
 3922SOL    HW112665   4.713   4.775   1.990
 3922SOL    HW212666   4.618   4.908   1.992
 3923SOL     OW12667   5.815   0.868   1.507
 3923SOL    HW112668   5.859   0.873   1.418
 3923SOL    HW212669   5.878   0.902   1.577
 3924SOL     OW12670   0.104   4.555   3.777
 3924SOL    HW112671   0.200   4.576   3.759
 3924SOL    HW212672   0.065   4.625   3.837
 3925SOL     OW12673   4.800   3.982   0.660
 3925SOL    HW112674   4.775   3.957   0.566
 3925SOL    HW212675   4.888   4.029   0.659
 3926SOL     OW12676   1.063   0.443   5.955
 3926SOL    HW112677   1.120   0.360   5.957
 3926SOL    HW212678   0.971   0.421   5.987
 3927SOL     OW12679   0.370   3.074   4.530
 3927SOL    HW112680   0.285   3.039   4.491
 3927SOL    HW212681   0.415   3.003   4.583
 3928SOL     OW12682   2.550   6.964   3.178
 3928SOL    HW112683   2.461   6.925   3.201
 3928SOL    HW212684   2.613   6.891   3.152
 3929SOL     OW12685   6.869   1.951   5.976
 3929SOL    HW112686   6.953   1.996   5.947
 3929SOL    HW212687   6.791   1.991   5.926
 3930SOL     OW12688   1.627   2.368   3.567
 3930SOL    HW112689   1.543   2.346   3.616
 3930SOL    HW212690   1.705   2.358   3.629
 3931SOL     OW12691   1.646   1.910   1.730
 3931SOL    HW112692   1.657   1.966   1.811
 3931SOL    HW212693   1.564   1.852   1.740
 3932SOL     OW12694   1.865   5.553   3.684
 3932SOL    HW112695   1.823   5.590   3.767
 3932SOL    HW212696   1.879   5.627   3.618
 3933SOL     OW12697   1.498   5.372   0.385
 3933SOL    HW112698   1.488   5.467   0.415
 3933SOL    HW212699   1.587   5.360   0.341
 3934SOL     OW12700   0.649   1.541   2.810
 3934SOL    HW112701   0.738   1.534   2.855
 3934SOL    HW212702   0.584   1.481   2.857
 3935SOL     OW12703   6.129   3.332   6.287
 3935SOL    HW112704   6.092   3.264   6.351
 3935SOL    HW212705   6.062   3.405   6.274
 3936SOL     OW12706   6.455   5.663   5.037
 3936SOL    HW112707   6.487   5.633   4.947
 3936SOL    HW212708   6.359   5.641   5.048
 3937SOL     OW12709   0.514   5.161   2.674
 3937SOL    HW112710   0.482   5.254   2.690
 3937SOL    HW212711   0.446   5.096   2.708
 3938SOL     OW12712   6.924   3.838   4.595
 3938SOL    HW112713   6.950   3.835   4.691
 3938SOL    HW212714   6.984   3.902   4.547
 3939SOL     OW12715   0.795   1.482   2.038
 3939SOL    HW112716   0.848   1.414   2.088
 3939SOL    HW212717   0.835   1.494   1.947
 3940SOL     OW12718   2.883   4.683   1.644
 3940SOL    HW112719   2.852   4.612   1.580
 3940SOL    HW212720   2.886   4.645   1.736
 3941SOL     OW12721   6.261   0.141   4.162
 3941SOL    HW112722   6.357   0.145   4.190
 3941SOL    HW212723   6.243   0.215   4.097
 3942SOL     OW12724   1.222   6.701   6.062
 3942SOL    HW112725   1.238   6.612   6.018
 3942SOL    HW212726   1.153   6.751   6.010
 3943SOL     OW12727   0.567   3.956   1.979
 3943SOL    HW112728   0.653   3.998   2.008
 3943SOL    HW212729   0.557   3.867   2.022
 3944SOL     OW12730   6.168   3.115   6.847
 3944SOL    HW112731   6.261   3.112   6.884
 3944SOL    HW212732   6.140   3.023   6.818
 3945SOL     OW12733   0.883   2.050   3.447
 3945SOL    HW112734   0.974   2.047   3.407
 3945SOL    HW212735   0.880   2.123   3.516
 3946SOL     OW12736   6.896   3.739   0.470
 3946SOL    HW112737   6.851   3.743   0.380
 3946SOL    HW212738   6.956   3.818   0.481
 3947SOL     OW12739   5.646   6.164   0.484
 3947SOL    HW112740   5.562   6.111   0.478
 3947SOL    HW212741   5.703   6.147   0.404
 3948SOL     OW12742   1.920   2.429   6.446
 3948SOL    HW112743   1.968   2.489   6.510
 3948SOL    HW212744   1.950   2.448   6.353
 3949SOL     OW12745   6.315   6.695   2.663
 3949SOL    HW112746   6.258   6.680   2.582
 3949SOL    HW212747   6.259   6.737   2.735
 3950SOL     OW12748   4.194   4.227   1.598
 3950SOL    HW112749   4.247   4.271   1.526
 3950SOL    HW212750   4.257   4.194   1.670
 3951SOL     OW12751   0.215   2.148   5.591
 3951SOL    HW112752   0.239   2.230   5.539
 3951SOL    HW212753   0.188   2.075   5.529
 3952SOL     OW12754   5.498   2.106   4.841
 3952SOL    HW112755   5.464   2.077   4.931
 3952SOL    HW212756   5.476   2.036   4.774
 3953SOL     OW12757   2.917   3.714   6.032
 3953SOL    HW112758   2.829   3.672   6.054
 3953SOL    HW212759   2.925   3.801   6.081
 3954SOL     OW12760   6.875   4.097   5.532
 3954SOL    HW112761   6.841   4.062   5.444
 3954SOL    HW212762   6.892   4.020   5.593
 3955SOL     OW12763   5.099   6.242   0.121
 3955SOL    HW112764   5.011   6.256   0.167
 3955SOL    HW212765   5.113   6.315   0.054
 3956SOL     OW12766   0.696   2.747   5.810
 3956SOL    HW112767   0.711   2.782   5.902
 3956SOL    HW212768   0.771   2.777   5.751
 3957SOL     OW12769   2.919   0.394   3.954
 3957SOL    HW112770   2.959   0.417   3.865
 3957SOL    HW212771   2.825   0.363   3.940
 3958SOL     OW12772   6.464   6.022   7.011
 3958SOL    HW112773   6.522   6.080   6.954
 3958SOL    HW212774   6.377   6.005   6.963
 3959SOL     OW12775   2.485   5.641   0.992
 3959SOL    HW112776   2.398   5.595   1.012
 3959SOL    HW212777   2.467   5.735   0.964
 3960SOL     OW12778   4.318   2.892   6.993
 3960SOL    HW112779   4.401   2.838   6.979
 3960SOL    HW212780   4.322   2.938   0.054
 3961SOL     OW12781   5.160   1.780   2.149
 3961SOL    HW112782   5.069   1.739   2.146
 3961SOL    HW212783   5.219   1.734   2.083
 3962SOL     OW12784   1.098   6.322   0.312
 3962SOL    HW112785   1.166   6.340   0.242
 3962SOL    HW212786   1.008   6.312   0.270
 3963SOL     OW12787   5.104   5.833   3.393
 3963SOL    HW112788   5.128   5.886   3.311
 3963SOL    HW212789   5.042   5.759   3.367
 3964SOL     OW12790   5.348   6.218   5.202
 3964SOL    HW112791   5.267   6.222   5.144
 3964SOL    HW212792   5.420   6.274   5.161
 3965SOL     OW12793   3.877   5.176   6.638
 3965SOL    HW112794   3.918   5.105   6.581
 3965SOL    HW212795   3.918   5.265   6.616
 3966SOL     OW12796   6.077   4.771   6.178
 3966SOL    HW112797   6.024   4.736   6.100
 3966SOL    HW212798   6.019   4.773   6.259
 3967SOL     OW12799   0.707   5.641   4.681
 3967SOL    HW112800   0.747   5.685   4.761
 3967SOL    HW212801   0.780   5.604   4.623
 3968SOL     OW12802   5.161   0.350   2.811
 3968SOL    HW112803   5.121   0.414   2.745
 3968SOL    HW212804   5.197   0.270   2.762
 3969SOL     OW12805   1.422   5.076   2.885
 3969SOL    HW112806   1.515   5.056   2.917
 3969SOL    HW212807   1.409   5.175   2.881
 3970SOL     OW12808   4.664   4.862   4.120
 3970SOL    HW112809   4.661   4.804   4.038
 3970SOL    HW212810   4.593   4.931   4.115
 3971SOL     OW12811   2.853   5.411   3.347
 3971SOL    HW112812   2.841   5.450   3.438
 3971SOL    HW212813   2.880   5.315   3.356
 3972SOL     OW12814   0.209   6.375   0.825
 3972SOL    HW112815   0.234   6.282   0.797
 3972SOL    HW212816   0.280   6.439   0.795
 3973SOL     OW12817   3.236   3.385   4.640
 3973SOL    HW112818   3.297   3.417   4.568
 3973SOL    HW212819   3.201   3.295   4.616
 3974SOL     OW12820   0.213   1.595   5.915
 3974SOL    HW112821   0.172   1.519   5.865
 3974SOL    HW212822   0.141   1.649   5.958
 3975SOL     OW12823   6.051   0.940   6.352
 3975SOL    HW112824   6.119   0.883   6.398
 3975SOL    HW212825   6.072   1.036   6.367
 3976SOL     OW12826   0.569   4.339   0.963
 3976SOL    HW112827   0.629   4.371   1.038
 3976SOL    HW212828   0.478   4.379   0.975
 3977SOL     OW12829   2.352   5.985   6.305
 3977SOL    HW112830   2.405   6.069   6.296
 3977SOL    HW212831   2.260   5.999   6.267
 3978SOL     OW12832   5.687   1.722   5.678
 3978SOL    HW112833   5.734   1.675   5.754
 3978SOL    HW212834   5.600   1.760   5.711
 3979SOL     OW12835   1.691   0.190   1.725
 3979SOL    HW112836   1.607   0.236   1.754
 3979SOL    HW212837   1.748   0.254   1.674
 3980SOL     OW12838   5.582   3.387   4.596
 3980SOL    HW112839   5.563   3.484   4.610
 3980SOL    HW212840   5.590   3.342   4.685
 3981SOL     OW12841   0.240   1.816   6.577
 3981SOL    HW112842   0.272   1.790   6.486
 3981SOL    HW212843   0.175   1.892   6.569
 3982SOL     OW12844   1.827   0.911   4.519
 3982SOL    HW112845   1.842   1.009   4.531
 3982SOL    HW212846   1.821   0.890   4.421
 3983SOL     OW12847   3.193   0.284   4.748
 3983SOL    HW112848   3.239   0.350   4.689
 3983SOL    HW212849   3.260   0.223   4.790
 3984SOL     OW12850   1.484   6.649   1.920
 3984SOL    HW112851   1.581   6.639   1.942
 3984SOL    HW212852   1.430   6.644   2.004
 3985SOL     OW12853   1.510   3.972   7.002
 3985SOL    HW112854   1.442   4.010   0.038
 3985SOL    HW212855   1.535   3.880   0.004
 3986SOL     OW12856   0.232   2.179   1.601
 3986SOL    HW112857   0.294   2.254   1.623
 3986SOL    HW212858   0.238   2.158   1.503
 3987SOL     OW12859   1.678   5.552   5.519
 3987SOL    HW112860   1.723   5.616   5.581
 3987SOL    HW212861   1.604   5.504   5.567
 3988SOL     OW12862   4.080   1.443   6.380
 3988SOL    HW112863   4.080   1.368   6.313
 3988SOL    HW212864   4.146   1.512   6.352
 3989SOL     OW12865   6.035   6.846   6.550
 3989SOL    HW112866   6.021   6.928   6.606
 3989SOL    HW212867   6.073   6.872   6.462
 3990SOL     OW12868   7.026   2.700   4.701
 3990SOL    HW112869   6.970   2.671   4.779
 3990SOL    HW212870   6.997   2.792   4.673
 3991SOL     OW12871   0.612   2.151   3.643
 3991SOL    HW112872   0.582   2.066   3.688
 3991SOL    HW212873   0.559   2.228   3.679
 3992SOL     OW12874   3.975   3.474   6.683
 3992SOL    HW112875   3.909   3.477   6.608
 3992SOL    HW212876   3.956   3.395   6.741
 3993SOL     OW12877   2.840   2.079   2.550
 3993SOL    HW112878   2.811   2.087   2.454
 3993SOL    HW212879   2.810   1.990   2.586
 3994SOL     OW12880   2.264   2.457   5.081
 3994SOL    HW112881   2.228   2.409   5.001
 3994SOL    HW212882   2.191   2.510   5.124
 3995SOL     OW12883   2.235   4.002   3.363
 3995SOL    HW112884   2.189   3.987   3.450
 3995SOL    HW212885   2.257   4.099   3.353
 3996SOL     OW12886   0.987   1.286   4.096
 3996SOL    HW112887   1.054   1.221   4.060
 3996SOL    HW212888   0.990   1.371   4.042
 3997SOL     OW12889   5.034   3.370   3.011
 3997SOL    HW112890   5.126   3.333   3.021
 3997SOL    HW212891   4.982   3.354   3.094
 3998SOL     OW12892   6.334   1.643   2.199
 3998SOL    HW112893   6.327   1.679   2.106
 3998SOL    HW212894   6.382   1.556   2.197
 3999SOL     OW12895   5.676   4.092   3.475
 3999SOL    HW112896   5.702   4.014   3.532
 3999SOL    HW212897   5.577   4.088   3.457
 4000SOL     OW12898   2.954   6.073   2.767
 4000SOL    HW112899   2.997   6.131   2.698
 4000SOL    HW212900   2.863   6.046   2.736
 4001SOL     OW12901   2.369   3.997   6.384
 4001SOL    HW112902   2.281   4.014   6.341
 4001SOL    HW212903   2.363   3.913   6.439
 4002SOL     OW12904   4.045   3.354   4.715
 4002SOL    HW112905   3.955   3.392   4.696
 4002SOL    HW212906   4.113   3.396   4.656
 4003SOL     OW12907   2.271   0.966   6.269
 4003SOL    HW112908   2.228   0.906   6.337
 4003SOL    HW212909   2.202   1.003   6.208
 4004SOL     OW12910   6.209   3.969   3.444
 4004SOL    HW112911   6.273   3.955   3.368
 4004SOL    HW212912   6.253   3.945   3.530
 4005SOL     OW12913   3.877   4.367   1.090
 4005SOL    HW112914   3.911   4.327   1.004
 4005SOL    HW212915   3.825   4.450   1.069
 4006SOL     OW12916   5.376   4.910   2.006
 4006SOL    HW112917   5.359   4.918   1.908
 4006SOL    HW212918   5.392   5.001   2.045
 4007SOL     OW12919   0.048   2.278   3.753
 4007SOL    HW112920   6.977   2.269   3.739
 4007SOL    HW212921   0.067   2.294   3.850
 4008SOL     OW12922   2.916   6.732   0.254
 4008SOL    HW112923   2.912   6.764   0.160
 4008SOL    HW212924   2.985   6.785   0.305
 4009SOL     OW12925   5.090   2.062   1.129
 4009SOL    HW112926   5.000   2.028   1.156
 4009SOL    HW212927   5.080   2.134   1.061
 4010SOL     OW12928   3.011   3.347   1.622
 4010SOL    HW112929   2.987   3.251   1.607
 4010SOL    HW212930   3.054   3.357   1.712
 4011SOL     OW12931   6.451   6.097   1.699
 4011SOL    HW112932   6.473   6.152   1.780
 4011SOL    HW212933   6.486   6.005   1.711
 4012SOL     OW12934   3.680   6.876   2.491
 4012SOL    HW112935   3.703   6.779   2.490
 4012SOL    HW212936   3.763   6.930   2.480
 4013SOL     OW12937   1.764   0.372   1.324
 4013SOL    HW112938   1.864   0.368   1.323
 4013SOL    HW212939   1.727   0.279   1.326
 4014SOL     OW12940   3.593   6.435   3.944
 4014SOL    HW112941   3.577   6.372   4.020
 4014SOL    HW212942   3.651   6.392   3.876
 4015SOL     OW12943   4.401   5.068   6.300
 4015SOL    HW112944   4.413   5.058   6.201
 4015SOL    HW212945   4.456   5.000   6.348
 4016SOL     OW12946   2.639   5.201   0.484
 4016SOL    HW112947   2.728   5.242   0.462
 4016SOL    HW212948   2.650   5.102   0.494
 4017SOL     OW12949   6.913   4.755   5.101
 4017SOL    HW112950   6.860   4.764   5.017
 4017SOL    HW212951   7.010   4.745   5.077
 4018SOL     OW12952   4.101   6.919   1.712
 4018SOL    HW112953   4.030   6.849   1.725
 4018SOL    HW212954   4.092   6.989   1.783
 4019SOL     OW12955   5.500   4.110   2.672
 4019SOL    HW112956   5.499   4.089   2.770
 4019SOL    HW212957   5.491   4.209   2.659
 4020SOL     OW12958   0.158   3.145   5.415
 4020SOL    HW112959   0.108   3.199   5.482
 4020SOL    HW212960   0.243   3.191   5.392
 4021SOL     OW12961   3.981   3.885   5.286
 4021SOL    HW112962   4.052   3.952   5.308
 4021SOL    HW212963   3.927   3.919   5.209
 4022SOL     OW12964   3.975   6.329   0.368
 4022SOL    HW112965   3.922   6.382   0.434
 4022SOL    HW212966   4.061   6.377   0.349
 4023SOL     OW12967   0.449   1.167   6.189
 4023SOL    HW112968   0.354   1.197   6.182
 4023SOL    HW212969   0.510   1.245   6.180
 4024SOL     OW12970   2.439   4.716   4.441
 4024SOL    HW112971   2.489   4.784   4.494
 4024SOL    HW212972   2.476   4.625   4.460
 4025SOL     OW12973   0.527   6.489   4.641
 4025SOL    HW112974   0.448   6.539   4.676
 4025SOL    HW212975   0.550   6.415   4.704
 4026SOL     OW12976   6.250   6.409   4.139
 4026SOL    HW112977   6.193   6.377   4.215
 4026SOL    HW212978   6.201   6.480   4.088
 4027SOL     OW12979   2.876   2.329   6.790
 4027SOL    HW112980   2.845   2.416   6.828
 4027SOL    HW212981   2.921   2.346   6.702
 4028SOL     OW12982   4.808   1.464   3.531
 4028SOL    HW112983   4.832   1.372   3.563
 4028SOL    HW212984   4.712   1.483   3.552
 4029SOL     OW12985   3.168   3.983   5.894
 4029SOL    HW112986   3.083   4.035   5.904
 4029SOL    HW212987   3.214   4.010   5.810
 4030SOL     OW12988   6.330   0.944   2.065
 4030SOL    HW112989   6.296   0.862   2.110
 4030SOL    HW212990   6.421   0.928   2.029
 4031SOL     OW12991   4.878   6.101   3.070
 4031SOL    HW112992   4.853   6.129   3.163
 4031SOL    HW212993   4.799   6.110   3.010
 4032SOL     OW12994   0.119   6.980   2.710
 4032SOL    HW112995   0.196   6.917   2.701
 4032SOL    HW212996   0.116   0.013   2.631
 4033SOL     OW12997   1.676   2.758   1.894
 4033SOL    HW112998   1.634   2.703   1.966
 4033SOL    HW212999   1.661   2.714   1.805
 4034SOL     OW13000   5.964   1.971   5.203
 4034SOL    HW113001   6.024   1.939   5.129
 4034SOL    HW213002   5.899   2.038   5.166
 4035SOL     OW13003   6.163   1.099   0.731
 4035SOL    HW113004   6.248   1.097   0.784
 4035SOL    HW213005   6.170   1.036   0.654
 4036SOL     OW13006   4.485   4.899   2.433
 4036SOL    HW113007   4.537   4.893   2.518
 4036SOL    HW213008   4.453   4.809   2.406
 4037SOL     OW13009   2.035   1.216   6.393
 4037SOL    HW113010   2.060   1.284   6.324
 4037SOL    HW213011   1.996   1.262   6.473
 4038SOL     OW13012   4.575   3.127   0.940
 4038SOL    HW113013   4.481   3.099   0.955
 4038SOL    HW213014   4.607   3.182   1.017
 4039SOL     OW13015   4.955   5.530   1.972
 4039SOL    HW113016   5.010   5.588   2.033
 4039SOL    HW213017   4.992   5.437   1.973
 4040SOL     OW13018   3.338   0.132   4.943
 4040SOL    HW113019   3.324   0.215   4.998
 4040SOL    HW213020   3.366   0.057   5.003
 4041SOL     OW13021   1.366   4.972   0.815
 4041SOL    HW113022   1.294   5.015   0.870
 4041SOL    HW213023   1.397   5.036   0.744
 4042SOL     OW13024   6.313   6.050   4.281
 4042SOL    HW113025   6.238   6.045   4.215
 4042SOL    HW213026   6.393   6.089   4.237
 4043SOL     OW13027   6.698   1.982   6.224
 4043SOL    HW113028   6.608   1.988   6.181
 4043SOL    HW213029   6.769   1.972   6.154
 4044SOL     OW13030   5.108   6.260   3.473
 4044SOL    HW113031   5.042   6.185   3.469
 4044SOL    HW213032   5.122   6.288   3.568
 4045SOL     OW13033   4.025   6.015   6.020
 4045SOL    HW113034   4.063   5.931   6.059
 4045SOL    HW213035   3.938   6.036   6.064
 4046SOL     OW13036   1.145   2.042   3.363
 4046SOL    HW113037   1.235   2.009   3.394
 4046SOL    HW213038   1.147   2.141   3.356
 4047SOL     OW13039   2.763   1.963   6.793
 4047SOL    HW113040   2.831   2.031   6.765
 4047SOL    HW213041   2.758   1.960   6.892
 4048SOL     OW13042   5.072   1.170   1.558
 4048SOL    HW113043   5.073   1.084   1.609
 4048SOL    HW213044   5.110   1.154   1.467
 4049SOL     OW13045   5.050   5.000   6.523
 4049SOL    HW113046   5.132   5.057   6.534
 4049SOL    HW213047   5.034   4.949   6.607
 4050SOL     OW13048   0.838   6.602   2.364
 4050SOL    HW113049   0.843   6.503   2.373
 4050SOL    HW213050   0.770   6.638   2.428
 4051SOL     OW13051   3.815   1.527   6.430
 4051SOL    HW113052   3.812   1.495   6.525
 4051SOL    HW213053   3.903   1.504   6.390
 4052SOL     OW13054   6.037   1.299   2.921
 4052SOL    HW113055   6.103   1.346   2.981
 4052SOL    HW213056   6.077   1.214   2.888
 4053SOL     OW13057   3.005   6.959   4.352
 4053SOL    HW113058   2.908   6.959   4.373
 4053SOL    HW213059   3.020   6.930   4.257
 4054SOL     OW13060   5.415   4.171   1.230
 4054SOL    HW113061   5.427   4.113   1.149
 4054SOL    HW213062   5.425   4.267   1.205
 4055SOL     OW13063   2.991   3.688   0.553
 4055SOL    HW113064   2.931   3.737   0.617
 4055SOL    HW213065   2.982   3.728   0.462
 4056SOL     OW13066   5.677   4.090   0.424
 4056SOL    HW113067   5.718   4.015   0.474
 4056SOL    HW213068   5.682   4.072   0.326
 4057SOL     OW13069   6.946   2.632   0.591
 4057SOL    HW113070   6.895   2.570   0.649
 4057SOL    HW213071   0.015   2.608   0.592
 4058SOL     OW13072   2.562   6.744   4.885
 4058SOL    HW113073   2.525   6.676   4.948
 4058SOL    HW213074   2.558   6.708   4.791
 4059SOL     OW13075   0.889   1.826   2.490
 4059SOL    HW113076   0.969   1.805   2.433
 4059SOL    HW213077   0.843   1.740   2.515
 4060SOL     OW13078   5.435   5.474   5.217
 4060SOL    HW113079   5.407   5.383   5.245
 4060SOL    HW213080   5.398   5.542   5.280
 4061SOL     OW13081   1.977   4.448   2.269
 4061SOL    HW113082   1.994   4.510   2.346
 4061SOL    HW213083   1.878   4.433   2.261
 4062SOL     OW13084   2.561   0.637   1.962
 4062SOL    HW113085   2.533   0.726   1.997
 4062SOL    HW213086   2.614   0.649   1.878
 4063SOL     OW13087   6.059   6.539   0.416
 4063SOL    HW113088   6.045   6.445   0.449
 4063SOL    HW213089   6.101   6.537   0.326
 4064SOL     OW13090   2.448   0.545   3.846
 4064SOL    HW113091   2.395   0.519   3.766
 4064SOL    HW213092   2.536   0.582   3.817
 4065SOL     OW13093   1.128   6.521   1.512
 4065SOL    HW113094   1.192   6.550   1.441
 4065SOL    HW213095   1.154   6.431   1.546
 4066SOL     OW13096   6.212   4.104   3.048
 4066SOL    HW113097   6.271   4.025   3.068
 4066SOL    HW213098   6.254   4.158   2.976
 4067SOL     OW13099   6.042   3.668   3.062
 4067SOL    HW113100   5.981   3.602   3.019
 4067SOL    HW213101   6.111   3.619   3.115
 4068SOL     OW13102   1.423   1.233   5.003
 4068SOL    HW113103   1.494   1.163   5.012
 4068SOL    HW213104   1.339   1.191   4.969
 4069SOL     OW13105   3.177   5.493   6.820
 4069SOL    HW113106   3.190   5.556   6.743
 4069SOL    HW213107   3.231   5.526   6.898
 4070SOL     OW13108   0.379   2.795   2.732
 4070SOL    HW113109   0.349   2.830   2.821
 4070SOL    HW213110   0.436   2.863   2.687
 4071SOL     OW13111   1.114   1.747   5.658
 4071SOL    HW113112   1.069   1.813   5.598
 4071SOL    HW213113   1.206   1.728   5.623
 4072SOL     OW13114   1.092   5.622   4.658
 4072SOL    HW113115   1.051   5.590   4.572
 4072SOL    HW213116   1.169   5.563   4.682
 4073SOL     OW13117   2.909   6.783   6.686
 4073SOL    HW113118   2.996   6.741   6.713
 4073SOL    HW213119   2.904   6.876   6.722
 4074SOL     OW13120   0.036   3.820   1.525
 4074SOL    HW113121   0.132   3.794   1.522
 4074SOL    HW213122   0.016   3.884   1.450
 4075SOL     OW13123   4.563   1.992   1.331
 4075SOL    HW113124   4.530   1.939   1.409
 4075SOL    HW213125   4.485   2.014   1.272
 4076SOL     OW13126   3.041   3.101   6.047
 4076SOL    HW113127   3.097   3.158   5.987
 4076SOL    HW213128   2.945   3.106   6.017
 4077SOL     OW13129   3.729   1.439   6.884
 4077SOL    HW113130   3.783   1.435   6.800
 4077SOL    HW213131   3.722   1.347   6.923
 4078SOL     OW13132   0.223   5.265   1.355
 4078SOL    HW113133   0.255   5.173   1.335
 4078SOL    HW213134   0.149   5.289   1.292
 4079SOL     OW13135   1.814   1.038   3.656
 4079SOL    HW113136   1.848   0.948   3.631
 4079SOL    HW213137   1.886   1.090   3.701
 4080SOL     OW13138   4.049   4.118   6.146
 4080SOL    HW113139   4.059   4.153   6.240
 4080SOL    HW213140   3.967   4.061   6.140
 4081SOL     OW13141   2.186   3.220   4.471
 4081SOL    HW113142   2.214   3.315   4.483
 4081SOL    HW213143   2.247   3.160   4.523
 4082SOL     OW13144   0.758   3.658   0.103
 4082SOL    HW113145   0.723   3.640   0.011
 4082SOL    HW213146   0.707   3.604   0.170
 4083SOL     OW13147   6.823   3.164   2.028
 4083SOL    HW113148   6.807   3.187   2.124
 4083SOL    HW213149   6.754   3.207   1.971
 4084SOL     OW13150   5.873   1.994   3.718
 4084SOL    HW113151   5.929   2.075   3.734
 4084SOL    HW213152   5.797   1.993   3.784
 4085SOL     OW13153   2.837   5.882   1.843
 4085SOL    HW113154   2.837   5.797   1.896
 4085SOL    HW213155   2.885   5.953   1.894
 4086SOL     OW13156   1.303   5.538   1.893
 4086SOL    HW113157   1.333   5.564   1.985
 4086SOL    HW213158   1.284   5.620   1.839
 4087SOL     OW13159   2.015   1.557   3.322
 4087SOL    HW113160   1.951   1.497   3.369
 4087SOL    HW213161   1.966   1.615   3.258
 4088SOL     OW13162   0.084   1.299   0.263
 4088SOL    HW113163   0.014   1.232   0.288
 4088SOL    HW213164   0.075   1.323   0.166
 4089SOL     OW13165   5.872   6.388   4.192
 4089SOL    HW113166   5.798   6.448   4.222
 4089SOL    HW213167   5.863   6.370   4.094
 4090SOL     OW13168   1.425   4.860   6.251
 4090SOL    HW113169   1.434   4.840   6.154
 4090SOL    HW213170   1.370   4.789   6.295
 4091SOL     OW13171   0.029   6.486   0.180
 4091SOL    HW113172   0.033   6.431   0.263
 4091SOL    HW213173   6.964   6.484   0.143
 4092SOL     OW13174   6.729   2.358   5.828
 4092SOL    HW113175   6.735   2.307   5.743
 4092SOL    HW213176   6.778   2.444   5.819
 4093SOL     OW13177   4.652   0.052   2.769
 4093SOL    HW113178   4.643   0.110   2.850
 4093SOL    HW213179   4.746   0.056   2.735
 4094SOL     OW13180   2.569   5.721   4.316
 4094SOL    HW113181   2.557   5.639   4.372
 4094SOL    HW213182   2.531   5.705   4.225
 4095SOL     OW13183   0.363   3.956   0.569
 4095SOL    HW113184   0.365   3.865   0.609
 4095SOL    HW213185   0.453   3.981   0.535
 4096SOL     OW13186   4.754   6.131   6.106
 4096SOL    HW113187   4.732   6.033   6.102
 4096SOL    HW213188   4.774   6.165   6.015
 4097SOL     OW13189   3.687   4.770   5.416
 4097SOL    HW113190   3.630   4.688   5.412
 4097SOL    HW213191   3.783   4.743   5.405
 4098SOL     OW13192   0.328   2.974   1.564
 4098SOL    HW113193   0.383   3.057   1.578
 4098SOL    HW213194   0.231   2.996   1.582
 4099SOL     OW13195   2.599   4.869   1.578
 4099SOL    HW113196   2.674   4.828   1.630
 4099SOL    HW213197   2.580   4.813   1.497
 4100SOL     OW13198   6.617   5.744   4.396
 4100SOL    HW113199   6.654   5.837   4.400
 4100SOL    HW213200   6.585   5.725   4.303
 4101SOL     OW13201   5.973   0.891   0.022
 4101SOL    HW113202   6.034   0.938   6.986
 4101SOL    HW213203   5.882   0.884   7.009
 4102SOL     OW13204   6.577   0.608   1.034
 4102SOL    HW113205   6.549   0.698   1.066
 4102SOL    HW213206   6.547   0.595   0.940
 4103SOL     OW13207   0.266   0.627   0.376
 4103SOL    HW113208   0.275   0.563   0.300
 4103SOL    HW213209   0.352   0.678   0.386
 4104SOL     OW13210   0.676   4.587   2.620
 4104SOL    HW113211   0.723   4.664   2.578
 4104SOL    HW213212   0.740   4.511   2.631
 4105SOL     OW13213   4.375   6.672   1.443
 4105SOL    HW113214   4.474   6.670   1.436
 4105SOL    HW213215   4.336   6.698   1.354
 4106SOL     OW13216   6.737   2.729   3.558
 4106SOL    HW113217   6.801   2.728   3.482
 4106SOL    HW213218   6.644   2.742   3.523
 4107SOL     OW13219   0.977   5.587   1.376
 4107SOL    HW113220   1.014   5.610   1.286
 4107SOL    HW213221   1.020   5.646   1.445
 4108SOL     OW13222   6.133   4.455   5.273
 4108SOL    HW113223   6.079   4.457   5.189
 4108SOL    HW213224   6.072   4.439   5.351
 4109SOL     OW13225   5.906   0.053   5.232
 4109SOL    HW113226   5.851   6.997   5.239
 4109SOL    HW213227   5.911   0.081   5.137
 4110SOL     OW13228   4.171   3.610   6.135
 4110SOL    HW113229   4.205   3.688   6.083
 4110SOL    HW213230   4.168   3.633   6.232
 4111SOL     OW13231   4.012   3.799   0.095
 4111SOL    HW113232   4.022   3.719   0.153
 4111SOL    HW213233   4.080   3.797   0.022
 4112SOL     OW13234   5.013   6.737   5.195
 4112SOL    HW113235   4.944   6.730   5.123
 4112SOL    HW213236   5.058   6.826   5.190
 4113SOL     OW13237   4.988   6.155   4.307
 4113SOL    HW113238   4.930   6.234   4.329
 4113SOL    HW213239   5.049   6.136   4.384
 4114SOL     OW13240   3.347   2.069   4.394
 4114SOL    HW113241   3.399   2.084   4.478
 4114SOL    HW213242   3.269   2.131   4.392
 4115SOL     OW13243   3.839   4.848   2.408
 4115SOL    HW113244   3.905   4.871   2.336
 4115SOL    HW213245   3.771   4.785   2.370
 4116SOL     OW13246   3.846   1.592   1.872
 4116SOL    HW113247   3.822   1.668   1.811
 4116SOL    HW213248   3.848   1.625   1.967
 4117SOL     OW13249   1.019   4.606   2.185
 4117SOL    HW113250   1.089   4.606   2.257
 4117SOL    HW213251   1.057   4.645   2.101
 4118SOL     OW13252   2.791   6.460   0.939
 4118SOL    HW113253   2.730   6.440   1.016
 4118SOL    HW213254   2.772   6.395   0.865
 4119SOL     OW13255   3.669   2.050   4.041
 4119SOL    HW113256   3.707   1.962   4.011
 4119SOL    HW213257   3.577   2.035   4.078
 4120SOL     OW13258   3.799   0.127   0.459
 4120SOL    HW113259   3.845   0.109   0.372
 4120SOL    HW213260   3.705   0.092   0.454
 4121SOL     OW13261   6.228   0.710   5.163
 4121SOL    HW113262   6.180   0.797   5.148
 4121SOL    HW213263   6.183   0.660   5.237
 4122SOL     OW13264   1.019   5.787   5.270
 4122SOL    HW113265   1.023   5.732   5.187
 4122SOL    HW213266   1.111   5.821   5.293
 4123SOL     OW13267   4.332   4.670   5.689
 4123SOL    HW113268   4.417   4.663   5.741
 4123SOL    HW213269   4.254   4.668   5.751
 4124SOL     OW13270   5.707   5.448   6.611
 4124SOL    HW113271   5.685   5.403   6.525
 4124SOL    HW213272   5.675   5.543   6.608
 4125SOL     OW13273   4.556   1.447   2.442
 4125SOL    HW113274   4.642   1.470   2.486
 4125SOL    HW213275   4.554   1.349   2.422
 4126SOL     OW13276   1.433   3.777   4.328
 4126SOL    HW113277   1.387   3.758   4.241
 4126SOL    HW213278   1.532   3.774   4.316
 4127SOL     OW13279   4.450   4.795   4.662
 4127SOL    HW113280   4.390   4.785   4.742
 4127SOL    HW213281   4.531   4.848   4.687
 4128SOL     OW13282   1.677   3.026   1.852
 4128SOL    HW113283   1.770   3.062   1.843
 4128SOL    HW213284   1.680   2.927   1.864
 4129SOL     OW13285   4.341   1.675   6.339
 4129SOL    HW113286   4.310   1.764   6.307
 4129SOL    HW213287   4.396   1.686   6.423
 4130SOL     OW13288   6.631   2.801   5.733
 4130SOL    HW113289   6.550   2.787   5.677
 4130SOL    HW213290   6.605   2.848   5.818
 4131SOL     OW13291   2.004   0.311   2.963
 4131SOL    HW113292   1.956   0.271   2.885
 4131SOL    HW213293   1.937   0.348   3.028
 4132SOL     OW13294   4.946   4.330   3.630
 4132SOL    HW113295   4.859   4.281   3.624
 4132SOL    HW213296   4.974   4.360   3.539
 4133SOL     OW13297   3.086   6.688   1.162
 4133SOL    HW113298   3.179   6.664   1.133
 4133SOL    HW213299   3.047   6.614   1.216
 4134SOL     OW13300   2.531   3.028   0.278
 4134SOL    HW113301   2.600   3.091   0.242
 4134SOL    HW213302   2.577   2.951   0.323
 4135SOL     OW13303   1.584   1.475   3.052
 4135SOL    HW113304   1.668   1.441   3.096
 4135SOL    HW213305   1.598   1.569   3.023
 4136SOL     OW13306   1.375   2.139   2.774
 4136SOL    HW113307   1.403   2.089   2.692
 4136SOL    HW213308   1.451   2.194   2.807
 4137SOL     OW13309   0.583   4.626   0.788
 4137SOL    HW113310   0.660   4.563   0.795
 4137SOL    HW213311   0.569   4.652   0.692
 4138SOL     OW13312   4.378   5.258   3.283
 4138SOL    HW113313   4.280   5.273   3.300
 4138SOL    HW213314   4.426   5.345   3.292
 4139SOL     OW13315   2.005   2.149   4.964
 4139SOL    HW113316   1.923   2.198   4.935
 4139SOL    HW213317   2.087   2.198   4.934
 4140SOL     OW13318   2.586   1.297   5.419
 4140SOL    HW113319   2.557   1.202   5.415
 4140SOL    HW213320   2.686   1.301   5.424
 4141SOL     OW13321   6.321   6.151   1.465
 4141SOL    HW113322   6.224   6.171   1.451
 4141SOL    HW213323   6.338   6.140   1.563
 4142SOL     OW13324   6.352   6.023   0.663
 4142SOL    HW113325   6.330   6.117   0.638
 4142SOL    HW213326   6.333   5.963   0.586
 4143SOL     OW13327   6.817   3.087   1.080
 4143SOL    HW113328   6.780   3.075   1.172
 4143SOL    HW213329   6.897   3.146   1.084
 4144SOL     OW13330   4.715   4.036   5.760
 4144SOL    HW113331   4.695   3.971   5.834
 4144SOL    HW213332   4.637   4.042   5.698
 4145SOL     OW13333   6.931   5.932   0.996
 4145SOL    HW113334   6.914   6.009   1.057
 4145SOL    HW213335   6.844   5.901   0.957
 4146SOL     OW13336   6.808   0.861   5.304
 4146SOL    HW113337   6.726   0.804   5.291
 4146SOL    HW213338   6.849   0.840   5.393
 4147SOL     OW13339   4.895   3.566   5.795
 4147SOL    HW113340   4.799   3.541   5.810
 4147SOL    HW213341   4.926   3.528   5.708
 4148SOL     OW13342   1.167   0.291   5.167
 4148SOL    HW113343   1.265   0.306   5.176
 4148SOL    HW213344   1.127   0.276   5.257
 4149SOL     OW13345   0.178   2.538   0.255
 4149SOL    HW113346   0.191   2.460   0.317
 4149SOL    HW213347   0.095   2.588   0.280
 4150SOL     OW13348   0.560   0.945   5.787
 4150SOL    HW113349   0.540   0.961   5.690
 4150SOL    HW213350   0.486   0.982   5.843
 4151SOL     OW13351   3.752   6.157   5.779
 4151SOL    HW113352   3.851   6.169   5.777
 4151SOL    HW213353   3.730   6.065   5.812
 4152SOL     OW13354   3.113   6.331   1.508
 4152SOL    HW113355   3.159   6.408   1.552
 4152SOL    HW213356   3.142   6.245   1.550
 4153SOL     OW13357   4.636   4.780   6.987
 4153SOL    HW113358   4.640   4.701   0.021
 4153SOL    HW213359   4.671   4.861   0.008
 4154SOL     OW13360   0.742   4.749   4.522
 4154SOL    HW113361   0.827   4.771   4.571
 4154SOL    HW213362   0.740   4.651   4.502
 4155SOL     OW13363   6.665   1.715   2.062
 4155SOL    HW113364   6.574   1.751   2.082
 4155SOL    HW213365   6.680   1.715   1.963
 4156SOL     OW13366   5.586   5.885   4.584
 4156SOL    HW113367   5.653   5.856   4.515
 4156SOL    HW213368   5.515   5.940   4.540
 4157SOL     OW13369   4.221   6.135   4.568
 4157SOL    HW113370   4.199   6.037   4.568
 4157SOL    HW213371   4.158   6.183   4.507
 4158SOL     OW13372   1.688   4.965   2.959
 4158SOL    HW113373   1.708   4.928   2.868
 4158SOL    HW213374   1.664   4.890   3.021
 4159SOL     OW13375   2.184   3.478   4.544
 4159SOL    HW113376   2.090   3.452   4.566
 4159SOL    HW213377   2.186   3.575   4.521
 4160SOL     OW13378   6.132   0.458   0.672
 4160SOL    HW113379   6.173   0.514   0.599
 4160SOL    HW213380   6.138   0.507   0.759
 4161SOL     OW13381   0.637   0.599   0.050
 4161SOL    HW113382   0.593   0.672   0.102
 4161SOL    HW213383   0.637   0.515   0.105
 4162SOL     OW13384   6.150   6.669   5.640
 4162SOL    HW113385   6.207   6.654   5.559
 4162SOL    HW213386   6.186   6.746   5.693
 4163SOL     OW13387   6.294   6.977   3.469
 4163SOL    HW113388   6.269   6.921   3.548
 4163SOL    HW213389   6.235   6.953   3.392
 4164SOL     OW13390   1.318   6.610   6.729
 4164SOL    HW113391   1.385   6.536   6.722
 4164SOL    HW213392   1.226   6.574   6.715
 4165SOL     OW13393   4.110   0.178   6.789
 4165SOL    HW113394   4.024   0.177   6.738
 4165SOL    HW213395   4.109   0.254   6.854
 4166SOL     OW13396   6.368   3.903   1.057
 4166SOL    HW113397   6.309   3.891   0.976
 4166SOL    HW213398   6.318   3.954   1.127
 4167SOL     OW13399   1.232   4.001   1.078
 4167SOL    HW113400   1.139   4.015   1.044
 4167SOL    HW213401   1.233   4.009   1.178
 4168SOL     OW13402   6.410   5.422   1.088
 4168SOL    HW113403   6.334   5.362   1.111
 4168SOL    HW213404   6.448   5.461   1.172
 4169SOL     OW13405   5.742   4.331   3.917
 4169SOL    HW113406   5.747   4.363   4.012
 4169SOL    HW213407   5.747   4.231   3.915
 4170SOL     OW13408   3.319   4.176   5.136
 4170SOL    HW113409   3.253   4.164   5.063
 4170SOL    HW213410   3.277   4.229   5.210
 4171SOL     OW13411   5.036   5.271   1.405
 4171SOL    HW113412   4.998   5.179   1.406
 4171SOL    HW213413   5.118   5.273   1.349
 4172SOL     OW13414   0.508   2.027   6.147
 4172SOL    HW113415   0.567   2.052   6.070
 4172SOL    HW213416   0.447   2.104   6.168
 4173SOL     OW13417   5.231   3.708   5.273
 4173SOL    HW113418   5.178   3.781   5.315
 4173SOL    HW213419   5.276   3.654   5.345
 4174SOL     OW13420   5.154   0.877   3.548
 4174SOL    HW113421   5.123   0.972   3.547
 4174SOL    HW213422   5.236   0.869   3.491
 4175SOL     OW13423   2.138   6.108   4.623
 4175SOL    HW113424   2.145   6.080   4.527
 4175SOL    HW213425   2.054   6.071   4.662
 4176SOL     OW13426   3.239   6.895   2.125
 4176SOL    HW113427   3.239   6.926   2.030
 4176SOL    HW213428   3.203   6.967   2.184
 4177SOL     OW13429   0.045   4.248   4.541
 4177SOL    HW113430   7.025   4.295   4.615
 4177SOL    HW213431   0.060   4.312   4.465
 4178SOL     OW13432   4.515   1.361   4.119
 4178SOL    HW113433   4.535   1.319   4.208
 4178SOL    HW213434   4.427   1.328   4.085
 4179SOL     OW13435   5.583   2.279   3.351
 4179SOL    HW113436   5.681   2.268   3.333
 4179SOL    HW213437   5.566   2.368   3.393
 4180SOL     OW13438   5.163   3.783   1.688
 4180SOL    HW113439   5.211   3.796   1.601
 4180SOL    HW213440   5.216   3.825   1.762
 4181SOL     OW13441   2.366   1.811   6.733
 4181SOL    HW113442   2.274   1.784   6.764
 4181SOL    HW213443   2.424   1.831   6.812
 4182SOL     OW13444   0.218   6.319   2.968
 4182SOL    HW113445   0.150   6.360   3.029
 4182SOL    HW213446   0.255   6.389   2.907
 4183SOL     OW13447   4.361   0.754   0.440
 4183SOL    HW113448   4.460   0.753   0.427
 4183SOL    HW213449   4.318   0.688   0.379
 4184SOL     OW13450   4.349   5.313   1.412
 4184SOL    HW113451   4.302   5.260   1.341
 4184SOL    HW213452   4.281   5.363   1.466
 4185SOL     OW13453   0.893   6.153   2.239
 4185SOL    HW113454   0.939   6.204   2.167
 4185SOL    HW213455   0.850   6.071   2.201
 4186SOL     OW13456   1.850   4.957   1.208
 4186SOL    HW113457   1.805   4.973   1.296
 4186SOL    HW213458   1.797   4.890   1.155
 4187SOL     OW13459   3.311   3.844   5.567
 4187SOL    HW113460   3.333   3.779   5.640
 4187SOL    HW213461   3.394   3.867   5.517
 4188SOL     OW13462   5.446   0.103   4.030
 4188SOL    HW113463   5.486   0.107   4.121
 4188SOL    HW213464   5.516   0.123   3.961
 4189SOL     OW13465   3.489   0.808   5.175
 4189SOL    HW113466   3.444   0.800   5.264
 4189SOL    HW213467   3.493   0.718   5.132
 4190SOL     OW13468   0.688   0.104   6.932
 4190SOL    HW113469   0.779   0.121   6.969
 4190SOL    HW213470   0.636   0.190   6.930
 4191SOL     OW13471   5.693   3.379   3.072
 4191SOL    HW113472   5.714   3.375   3.170
 4191SOL    HW213473   5.656   3.470   3.050
 4192SOL     OW13474   0.527   0.613   3.776
 4192SOL    HW113475   0.493   0.704   3.752
 4192SOL    HW213476   0.627   0.614   3.781
 4193SOL     OW13477   2.259   6.641   2.548
 4193SOL    HW113478   2.320   6.684   2.483
 4193SOL    HW213479   2.276   6.677   2.640
 4194SOL     OW13480   6.086   1.064   5.473
 4194SOL    HW113481   6.134   0.976   5.470
 4194SOL    HW213482   5.989   1.048   5.490
 4195SOL     OW13483   4.014   0.429   1.755
 4195SOL    HW113484   3.933   0.466   1.802
 4195SOL    HW213485   4.048   0.495   1.689
 4196SOL     OW13486   6.060   2.517   3.719
 4196SOL    HW113487   6.000   2.586   3.677
 4196SOL    HW213488   6.133   2.493   3.655
 4197SOL     OW13489   5.326   5.570   5.463
 4197SOL    HW113490   5.349   5.612   5.550
 4197SOL    HW213491   5.323   5.470   5.473
 4198SOL     OW13492   5.508   3.111   6.701
 4198SOL    HW113493   5.579   3.181   6.715
 4198SOL    HW213494   5.524   3.034   6.763
 4199SOL     OW13495   1.967   4.262   6.411
 4199SOL    HW113496   2.032   4.189   6.390
 4199SOL    HW213497   1.979   4.338   6.347
 4200SOL     OW13498   3.168   6.307   5.052
 4200SOL    HW113499   3.103   6.246   5.098
 4200SOL    HW213500   3.253   6.258   5.034
 4201SOL     OW13501   6.046   6.021   3.481
 4201SOL    HW113502   5.995   5.936   3.495
 4201SOL    HW213503   6.051   6.071   3.568
 4202SOL     OW13504   4.059   5.764   6.064
 4202SOL    HW113505   3.968   5.735   6.092
 4202SOL    HW213506   4.092   5.704   5.991
 4203SOL     OW13507   4.544   5.515   1.360
 4203SOL    HW113508   4.540   5.486   1.264
 4203SOL    HW213509   4.483   5.457   1.414
 4204SOL     OW13510   3.751   3.303   2.206
 4204SOL    HW113511   3.831   3.309   2.147
 4204SOL    HW213512   3.715   3.210   2.202
 4205SOL     OW13513   4.064   5.069   4.266
 4205SOL    HW113514   3.988   5.021   4.223
 4205SOL    HW213515   4.089   5.023   4.352
 4206SOL     OW13516   5.911   0.673   5.673
 4206SOL    HW113517   5.952   0.587   5.643
 4206SOL    HW213518   5.981   0.731   5.715
 4207SOL     OW13519   2.417   1.871   1.673
 4207SOL    HW113520   2.495   1.830   1.719
 4207SOL    HW213521   2.337   1.812   1.684
 4208SOL     OW13522   1.537   2.713   6.449
 4208SOL    HW113523   1.493   2.623   6.460
 4208SOL    HW213524   1.634   2.700   6.431
 4209SOL     OW13525   0.689   1.726   5.368
 4209SOL    HW113526   0.663   1.687   5.456
 4209SOL    HW213527   0.779   1.690   5.341
 4210SOL     OW13528   2.906   3.594   2.131
 4210SOL    HW113529   2.990   3.591   2.077
 4210SOL    HW213530   2.831   3.625   2.074
 4211SOL     OW13531   3.649   5.903   5.238
 4211SOL    HW113532   3.635   5.872   5.144
 4211SOL    HW213533   3.617   5.998   5.247
 4212SOL     OW13534   6.071   2.401   2.543
 4212SOL    HW113535   6.055   2.435   2.450
 4212SOL    HW213536   6.002   2.440   2.604
 4213SOL     OW13537   2.864   1.189   2.989
 4213SOL    HW113538   2.820   1.279   2.998
 4213SOL    HW213539   2.962   1.199   3.006
 4214SOL     OW13540   0.758   4.209   6.110
 4214SOL    HW113541   0.815   4.288   6.129
 4214SOL    HW213542   0.663   4.238   6.101
 4215SOL     OW13543   6.407   5.929   4.523
 4215SOL    HW113544   6.360   5.963   4.441
 4215SOL    HW213545   6.484   5.872   4.496
 4216SOL     OW13546   1.901   1.861   3.058
 4216SOL    HW113547   1.896   1.899   3.151
 4216SOL    HW213548   1.924   1.764   3.063
 4217SOL     OW13549   6.459   0.015   2.407
 4217SOL    HW113550   6.401   0.061   2.475
 4217SOL    HW213551   6.411   0.015   2.319
 4218SOL     OW13552   4.804   7.006   1.271
 4218SOL    HW113553   4.762   6.929   1.318
 4218SOL    HW213554   4.877   6.973   1.210
 4219SOL     OW13555   2.728   5.084   4.548
 4219SOL    HW113556   2.658   5.155   4.557
 4219SOL    HW213557   2.808   5.109   4.602
 4220SOL     OW13558   6.245   2.745   2.957
 4220SOL    HW113559   6.318   2.812   2.968
 4220SOL    HW213560   6.207   2.722   3.047
 4221SOL     OW13561   6.221   5.666   6.279
 4221SOL    HW113562   6.168   5.598   6.329
 4221SOL    HW213563   6.209   5.756   6.321
 4222SOL     OW13564   6.356   2.085   2.598
 4222SOL    HW113565   6.404   2.032   2.528
 4222SOL    HW213566   6.365   2.183   2.577
 4223SOL     OW13567   2.891   3.558   4.570
 4223SOL    HW113568   2.916   3.524   4.661
 4223SOL    HW213569   2.791   3.556   4.561
 4224SOL     OW13570   4.967   3.170   3.646
 4224SOL    HW113571   5.001   3.108   3.716
 4224SOL    HW213572   4.900   3.123   3.589
 4225SOL     OW13573   4.675   0.254   5.300
 4225SOL    HW113574   4.612   0.322   5.336
 4225SOL    HW213575   4.767   0.293   5.294
 4226SOL     OW13576   0.943   0.712   3.267
 4226SOL    HW113577   0.872   0.642   3.277
 4226SOL    HW213578   0.929   0.784   3.336
 4227SOL     OW13579   3.328   4.995   6.885
 4227SOL    HW113580   3.313   4.939   6.804
 4227SOL    HW213581   3.354   5.088   6.857
 4228SOL     OW13582   6.685   3.636   3.115
 4228SOL    HW113583   6.598   3.613   3.072
 4228SOL    HW213584   6.760   3.594   3.064
 4229SOL     OW13585   4.776   4.832   5.494
 4229SOL    HW113586   4.737   4.749   5.533
 4229SOL    HW213587   4.735   4.912   5.537
 4230SOL     OW13588   2.084   0.847   4.588
 4230SOL    HW113589   2.129   0.909   4.652
 4230SOL    HW213590   1.986   0.868   4.585
 4231SOL     OW13591   5.397   6.271   4.678
 4231SOL    HW113592   5.475   6.239   4.624
 4231SOL    HW213593   5.383   6.210   4.755
 4232SOL     OW13594   0.332   4.710   1.987
 4232SOL    HW113595   0.355   4.624   2.032
 4232SOL    HW213596   0.281   4.768   2.051
 4233SOL     OW13597   6.863   0.191   6.760
 4233SOL    HW113598   6.850   0.093   6.775
 4233SOL    HW213599   6.812   0.242   6.828
 4234SOL     OW13600   1.211   0.219   6.003
 4234SOL    HW113601   1.169   0.153   5.941
 4234SOL    HW213602   1.220   0.179   6.094
 4235SOL     OW13603   6.228   3.527   5.704
 4235SOL    HW113604   6.186   3.612   5.669
 4235SOL    HW213605   6.291   3.491   5.635
 4236SOL     OW13606   0.374   3.207   3.237
 4236SOL    HW113607   0.300   3.271   3.218
 4236SOL    HW213608   0.337   3.115   3.248
 4237SOL     OW13609   6.328   4.829   4.048
 4237SOL    HW113610   6.327   4.879   4.135
 4237SOL    HW213611   6.331   4.893   3.972
 4238SOL     OW13612   4.640   4.770   3.860
 4238SOL    HW113613   4.676   4.807   3.774
 4238SOL    HW213614   4.540   4.774   3.858
 4239SOL     OW13615   5.908   0.678   3.569
 4239SOL    HW113616   5.894   0.641   3.661
 4239SOL    HW213617   5.939   0.605   3.508
 4240SOL     OW13618   2.109   6.898   6.784
 4240SOL    HW113619   2.110   6.989   6.743
 4240SOL    HW213620   2.203   6.872   6.807
 4241SOL     OW13621   4.768   0.968   1.012
 4241SOL    HW113622   4.684   0.976   1.065
 4241SOL    HW213623   4.761   0.889   0.951
 4242SOL     OW13624   1.691   0.577   2.809
 4242SOL    HW113625   1.781   0.556   2.773
 4242SOL    HW213626   1.676   0.526   2.894
 4243SOL     OW13627   0.795   3.816   3.288
 4243SOL    HW113628   0.828   3.723   3.275
 4243SOL    HW213629   0.697   3.814   3.309
 4244SOL     OW13630   4.752   5.221   1.029
 4244SOL    HW113631   4.720   5.302   1.079
 4244SOL    HW213632   4.803   5.251   0.948
 4245SOL     OW13633   0.148   1.431   0.023
 4245SOL    HW113634   0.084   1.507   0.030
 4245SOL    HW213635   0.177   1.419   6.955
 4246SOL     OW13636   5.912   2.681   3.570
 4246SOL    HW113637   5.812   2.680   3.573
 4246SOL    HW213638   5.943   2.710   3.479
 4247SOL     OW13639   2.367   5.284   4.268
 4247SOL    HW113640   2.307   5.363   4.255
 4247SOL    HW213641   2.328   5.225   4.339
 4248SOL     OW13642   1.319   1.163   3.518
 4248SOL    HW113643   1.287   1.211   3.600
 4248SOL    HW213644   1.410   1.125   3.535
 4249SOL     OW13645   6.563   1.285   3.437
 4249SOL    HW113646   6.509   1.209   3.474
 4249SOL    HW213647   6.621   1.323   3.510
 4250SOL     OW13648   6.982   6.017   3.630
 4250SOL    HW113649   0.041   6.032   3.582
 4250SOL    HW213650   7.001   5.989   3.724
 4251SOL     OW13651   6.805   3.028   0.251
 4251SOL    HW113652   6.858   3.005   0.332
 4251SOL    HW213653   6.847   2.987   0.170
 4252SOL     OW13654   5.507   6.138   6.253
 4252SOL    HW113655   5.496   6.133   6.153
 4252SOL    HW213656   5.522   6.233   6.280
 4253SOL     OW13657   3.899   5.830   2.134
 4253SOL    HW113658   3.880   5.732   2.133
 4253SOL    HW213659   3.839   5.875   2.201
 4254SOL     OW13660   2.040   4.343   1.973
 4254SOL    HW113661   2.098   4.420   1.945
 4254SOL    HW213662   2.060   4.319   2.068
 4255SOL     OW13663   0.519   3.939   3.905
 4255SOL    HW113664   0.431   3.931   3.859
 4255SOL    HW213665   0.532   3.860   3.965
 4256SOL     OW13666   1.187   5.802   1.853
 4256SOL    HW113667   1.226   5.893   1.841
 4256SOL    HW213668   1.140   5.797   1.941
 4257SOL     OW13669   5.467   1.069   4.162
 4257SOL    HW113670   5.387   1.022   4.200
 4257SOL    HW213671   5.466   1.165   4.190
 4258SOL     OW13672   3.175   5.893   1.381
 4258SOL    HW113673   3.129   5.939   1.305
 4258SOL    HW213674   3.243   5.829   1.345
 4259SOL     OW13675   1.798   6.196   1.011
 4259SOL    HW113676   1.875   6.178   0.950
 4259SOL    HW213677   1.735   6.118   1.008
 4260SOL     OW13678   5.502   6.785   3.733
 4260SOL    HW113679   5.429   6.845   3.701
 4260SOL    HW213680   5.584   6.839   3.753
 4261SOL     OW13681   1.669   0.886   2.806
 4261SOL    HW113682   1.693   0.791   2.829
 4261SOL    HW213683   1.662   0.895   2.707
 4262SOL     OW13684   1.239   4.098   6.147
 4262SOL    HW113685   1.226   4.071   6.052
 4262SOL    HW213686   1.328   4.141   6.158
 4263SOL     OW13687   2.453   1.143   3.405
 4263SOL    HW113688   2.476   1.046   3.414
 4263SOL    HW213689   2.505   1.182   3.329
 4264SOL     OW13690   6.282   1.694   4.284
 4264SOL    HW113691   6.374   1.732   4.276
 4264SOL    HW213692   6.282   1.601   4.247
 4265SOL     OW13693   3.747   0.931   0.662
 4265SOL    HW113694   3.814   0.869   0.622
 4265SOL    HW213695   3.758   0.933   0.762
 4266SOL     OW13696   1.259   6.631   0.134
 4266SOL    HW113697   1.187   6.682   0.180
 4266SOL    HW213698   1.222   6.545   0.098
 4267SOL     OW13699   1.746   3.577   3.903
 4267SOL    HW113700   1.789   3.517   3.971
 4267SOL    HW213701   1.751   3.534   3.813
 4268SOL     OW13702   2.087   5.504   6.914
 4268SOL    HW113703   2.025   5.434   6.879
 4268SOL    HW213704   2.179   5.465   6.923
 4269SOL     OW13705   2.947   1.017   3.728
 4269SOL    HW113706   2.879   0.994   3.659
 4269SOL    HW213707   2.903   1.060   3.807
 4270SOL     OW13708   3.258   2.892   1.914
 4270SOL    HW113709   3.339   2.834   1.918
 4270SOL    HW213710   3.212   2.892   2.003
 4271SOL     OW13711   6.866   0.716   6.891
 4271SOL    HW113712   6.926   0.707   6.971
 4271SOL    HW213713   6.784   0.768   6.917
 4272SOL     OW13714   6.813   3.254   5.410
 4272SOL    HW113715   6.871   3.174   5.396
 4272SOL    HW213716   6.870   3.335   5.422
 4273SOL     OW13717   4.699   5.909   5.145
 4273SOL    HW113718   4.694   5.810   5.144
 4273SOL    HW213719   4.781   5.939   5.095
 4274SOL     OW13720   1.020   0.261   1.907
 4274SOL    HW113721   0.931   0.219   1.890
 4274SOL    HW213722   1.052   0.237   1.998
 4275SOL     OW13723   0.511   1.802   4.365
 4275SOL    HW113724   0.509   1.768   4.270
 4275SOL    HW213725   0.597   1.850   4.382
 4276SOL     OW13726   2.953   5.169   3.698
 4276SOL    HW113727   2.883   5.100   3.712
 4276SOL    HW213728   2.968   5.181   3.600
 4277SOL     OW13729   6.880   4.155   2.632
 4277SOL    HW113730   6.850   4.149   2.727
 4277SOL    HW213731   6.886   4.251   2.605
 4278SOL     OW13732   0.849   6.902   3.698
 4278SOL    HW113733   0.755   6.923   3.725
 4278SOL    HW213734   0.853   6.807   3.665
 4279SOL     OW13735   0.908   1.280   2.223
 4279SOL    HW113736   0.996   1.251   2.185
 4279SOL    HW213737   0.909   1.267   2.322
 4280SOL     OW13738   6.197   6.892   5.798
 4280SOL    HW113739   6.286   6.937   5.804
 4280SOL    HW213740   6.129   6.945   5.849
 4281SOL     OW13741   5.202   4.953   3.477
 4281SOL    HW113742   5.144   4.897   3.536
 4281SOL    HW213743   5.225   5.038   3.525
 4282SOL     OW13744   2.878   5.081   1.004
 4282SOL    HW113745   2.887   4.984   1.024
 4282SOL    HW213746   2.956   5.130   1.041
 4283SOL     OW13747   4.181   0.974   3.577
 4283SOL    HW113748   4.112   0.943   3.643
 4283SOL    HW213749   4.223   0.894   3.534
 4284SOL     OW13750   4.638   5.464   0.442
 4284SOL    HW113751   4.676   5.555   0.454
 4284SOL    HW213752   4.551   5.470   0.393
 4285SOL     OW13753   2.551   1.050   6.426
 4285SOL    HW113754   2.488   0.972   6.424
 4285SOL    HW213755   2.501   1.134   6.407
 4286SOL     OW13756   5.787   0.221   6.483
 4286SOL    HW113757   5.852   0.296   6.466
 4286SOL    HW213758   5.784   0.161   6.403
 4287SOL     OW13759   4.995   1.272   5.924
 4287SOL    HW113760   4.945   1.190   5.951
 4287SOL    HW213761   4.932   1.349   5.920
 4288SOL     OW13762   0.212   5.800   3.022
 4288SOL    HW113763   0.187   5.896   3.031
 4288SOL    HW213764   0.297   5.783   3.073
 4289SOL     OW13765   1.167   2.569   6.372
 4289SOL    HW113766   1.262   2.600   6.379
 4289SOL    HW213767   1.155   2.483   6.421
 4290SOL     OW13768   0.252   6.661   4.956
 4290SOL    HW113769   0.201   6.593   4.905
 4290SOL    HW213770   0.340   6.623   4.985
 4291SOL     OW13771   5.130   3.984   6.155
 4291SOL    HW113772   5.040   3.962   6.119
 4291SOL    HW213773   5.166   4.064   6.107
 4292SOL     OW13774   6.100   3.063   0.094
 4292SOL    HW113775   6.012   3.108   0.107
 4292SOL    HW213776   6.127   3.070   7.025
 4293SOL     OW13777   3.648   4.082   6.596
 4293SOL    HW113778   3.619   4.014   6.529
 4293SOL    HW213779   3.713   4.145   6.553
 4294SOL     OW13780   2.109   1.745   6.015
 4294SOL    HW113781   2.045   1.754   6.091
 4294SOL    HW213782   2.198   1.781   6.041
 4295SOL     OW13783   4.561   6.424   3.086
 4295SOL    HW113784   4.475   6.473   3.072
 4295SOL    HW213785   4.616   6.471   3.155
 4296SOL     OW13786   3.447   6.851   0.612
 4296SOL    HW113787   3.456   6.753   0.596
 4296SOL    HW213788   3.484   6.901   0.534
 4297SOL     OW13789   6.757   6.785   2.336
 4297SOL    HW113790   6.674   6.779   2.391
 4297SOL    HW213791   6.733   6.791   2.239
 4298SOL     OW13792   3.302   6.173   2.135
 4298SOL    HW113793   3.229   6.135   2.193
 4298SOL    HW213794   3.291   6.139   2.042
 4299SOL     OW13795   0.885   3.086   7.004
 4299SOL    HW113796   0.948   3.111   6.931
 4299SOL    HW213797   0.934   3.036   0.048
 4300SOL     OW13798   2.981   6.753   0.539
 4300SOL    HW113799   2.901   6.738   0.598
 4300SOL    HW213800   3.047   6.680   0.554
 4301SOL     OW13801   4.188   0.218   1.749
 4301SOL    HW113802   4.120   0.290   1.735
 4301SOL    HW213803   4.270   0.239   1.696
 4302SOL     OW13804   6.224   0.065   6.626
 4302SOL    HW113805   6.245   0.148   6.573
 4302SOL    HW213806   6.126   0.060   6.642
 4303SOL     OW13807   0.301   4.916   3.696
 4303SOL    HW113808   0.387   4.875   3.728
 4303SOL    HW213809   0.320   4.981   3.622
 4304SOL     OW13810   3.393   3.867   1.779
 4304SOL    HW113811   3.442   3.786   1.811
 4304SOL    HW213812   3.297   3.844   1.765
 4305SOL     OW13813   0.436   6.646   5.643
 4305SOL    HW113814   0.369   6.719   5.630
 4305SOL    HW213815   0.527   6.679   5.617
 4306SOL     OW13816   4.903   5.175   4.416
 4306SOL    HW113817   4.985   5.131   4.453
 4306SOL    HW213818   4.929   5.235   4.341
 4307SOL     OW13819   5.610   3.600   5.190
 4307SOL    HW113820   5.669   3.667   5.234
 4307SOL    HW213821   5.518   3.603   5.231
 4308SOL     OW13822   5.392   5.394   1.463
 4308SOL    HW113823   5.329   5.448   1.408
 4308SOL    HW213824   5.342   5.319   1.506
 4309SOL     OW13825   1.293   2.525   0.092
 4309SOL    HW113826   1.363   2.459   0.118
 4309SOL    HW213827   1.208   2.477   0.070
 4310SOL     OW13828   1.355   2.920   1.825
 4310SOL    HW113829   1.438   2.976   1.820
 4310SOL    HW213830   1.370   2.835   1.773
 4311SOL     OW13831   1.102   6.441   2.273
 4311SOL    HW113832   1.050   6.405   2.195
 4311SOL    HW213833   1.053   6.420   2.358
 4312SOL     OW13834   1.694   5.827   2.789
 4312SOL    HW113835   1.775   5.885   2.777
 4312SOL    HW213836   1.714   5.757   2.857
 4313SOL     OW13837   3.854   2.099   0.399
 4313SOL    HW113838   3.836   2.004   0.374
 4313SOL    HW213839   3.801   2.159   0.339
 4314SOL     OW13840   6.121   1.873   4.991
 4314SOL    HW113841   6.189   1.943   4.970
 4314SOL    HW213842   6.108   1.815   4.911
 4315SOL     OW13843   1.915   1.091   3.146
 4315SOL    HW113844   1.993   1.084   3.209
 4315SOL    HW213845   1.948   1.095   3.052
 4316SOL     OW13846   5.327   0.196   2.436
 4316SOL    HW113847   5.329   0.108   2.390
 4316SOL    HW213848   5.327   0.182   2.535
 4317SOL     OW13849   4.691   1.458   5.623
 4317SOL    HW113850   4.621   1.528   5.615
 4317SOL    HW213851   4.745   1.455   5.539
 4318SOL     OW13852   0.908   1.254   4.473
 4318SOL    HW113853   0.914   1.295   4.564
 4318SOL    HW213854   0.995   1.209   4.451
 4319SOL     OW13855   1.943   1.841   1.313
 4319SOL    HW113856   1.898   1.902   1.378
 4319SOL    HW213857   1.937   1.880   1.221
 4320SOL     OW13858   3.592   6.032   1.406
 4320SOL    HW113859   3.680   6.053   1.363
 4320SOL    HW213860   3.522   6.022   1.336
 4321SOL     OW13861   6.944   5.027   3.476
 4321SOL    HW113862   6.997   4.972   3.541
 4321SOL    HW213863   6.851   5.038   3.511
 4322SOL     OW13864   6.659   2.911   6.006
 4322SOL    HW113865   6.643   3.006   6.033
 4322SOL    HW213866   6.753   2.902   5.972
 4323SOL     OW13867   4.769   5.012   0.211
 4323SOL    HW113868   4.771   4.935   0.275
 4323SOL    HW213869   4.742   5.095   0.260
 4324SOL     OW13870   6.667   4.265   5.583
 4324SOL    HW113871   6.758   4.229   5.562
 4324SOL    HW213872   6.671   4.314   5.670
 4325SOL     OW13873   2.574   1.751   2.336
 4325SOL    HW113874   2.594   1.751   2.434
 4325SOL    HW213875   2.601   1.839   2.297
 4326SOL     OW13876   5.683   3.861   1.937
 4326SOL    HW113877   5.657   3.931   1.869
 4326SOL    HW213878   5.641   3.774   1.912
 4327SOL     OW13879   4.144   6.289   2.919
 4327SOL    HW113880   4.150   6.191   2.937
 4327SOL    HW213881   4.049   6.313   2.899
 4328SOL     OW13882   5.973   4.419   5.017
 4328SOL    HW113883   5.922   4.492   4.969
 4328SOL    HW213884   6.056   4.397   4.966
 4329SOL     OW13885   6.195   3.186   5.589
 4329SOL    HW113886   6.117   3.225   5.638
 4329SOL    HW213887   6.261   3.149   5.654
 4330SOL     OW13888   2.242   6.943   4.018
 4330SOL    HW113889   2.196   6.857   3.996
 4330SOL    HW213890   2.233   6.962   4.116
 4331SOL     OW13891   6.520   0.232   1.326
 4331SOL    HW113892   6.614   0.203   1.314
 4331SOL    HW213893   6.516   0.332   1.330
 4332SOL     OW13894   6.684   3.322   3.051
 4332SOL    HW113895   6.672   3.288   2.958
 4332SOL    HW213896   6.738   3.258   3.104
 4333SOL     OW13897   4.113   2.176   4.853
 4333SOL    HW113898   4.115   2.144   4.758
 4333SOL    HW213899   4.020   2.204   4.877
 4334SOL     OW13900   1.648   2.952   2.465
 4334SOL    HW113901   1.737   2.994   2.480
 4334SOL    HW213902   1.646   2.910   2.374
 4335SOL     OW13903   3.751   2.803   1.731
 4335SOL    HW113904   3.811   2.821   1.653
 4335SOL    HW213905   3.705   2.888   1.758
 4336SOL     OW13906   2.154   5.064   5.926
 4336SOL    HW113907   2.224   5.121   5.883
 4336SOL    HW213908   2.198   4.998   5.988
 4337SOL     OW13909   1.891   5.137   1.487
 4337SOL    HW113910   1.871   5.190   1.570
 4337SOL    HW213911   1.894   5.040   1.510
 4338SOL     OW13912   5.964   0.446   6.417
 4338SOL    HW113913   6.054   0.487   6.428
 4338SOL    HW213914   5.904   0.508   6.367
 4339SOL     OW13915   3.189   2.407   6.255
 4339SOL    HW113916   3.166   2.399   6.158
 4339SOL    HW213917   3.106   2.401   6.310
 4340SOL     OW13918   5.712   3.095   1.157
 4340SOL    HW113919   5.646   3.031   1.117
 4340SOL    HW213920   5.771   3.132   1.085
 4341SOL     OW13921   1.058   5.348   1.717
 4341SOL    HW113922   1.148   5.311   1.744
 4341SOL    HW213923   1.007   5.372   1.800
 4342SOL     OW13924   5.344   3.285   3.082
 4342SOL    HW113925   5.401   3.349   3.031
 4342SOL    HW213926   5.311   3.213   3.021
 4343SOL     OW13927   2.954   6.107   5.338
 4343SOL    HW113928   3.035   6.157   5.369
 4343SOL    HW213929   2.927   6.042   5.408
 4344SOL     OW13930   1.163   2.710   3.331
 4344SOL    HW113931   1.106   2.746   3.405
 4344SOL    HW213932   1.105   2.675   3.257
 4345SOL     OW13933   3.000   3.520   4.051
 4345SOL    HW113934   3.079   3.508   3.991
 4345SOL    HW213935   2.967   3.430   4.081
 4346SOL     OW13936   2.135   2.881   2.354
 4346SOL    HW113937   2.099   2.821   2.426
 4346SOL    HW213938   2.188   2.827   2.289
 4347SOL     OW13939   6.314   6.350   2.660
 4347SOL    HW113940   6.388   6.389   2.605
 4347SOL    HW213941   6.271   6.422   2.715
 4348SOL     OW13942   0.675   6.016   4.545
 4348SOL    HW113943   0.655   5.928   4.504
 4348SOL    HW213944   0.722   6.074   4.479
 4349SOL     OW13945   6.957   3.443   4.094
 4349SOL    HW113946   6.960   3.387   4.177
 4349SOL    HW213947   6.943   3.383   4.014
 4350SOL     OW13948   5.298   2.158   3.791
 4350SOL    HW113949   5.230   2.159   3.865
 4350SOL    HW213950   5.390   2.152   3.830
 4351SOL     OW13951   0.962   5.922   1.401
 4351SOL    HW113952   0.999   5.918   1.309
 4351SOL    HW213953   0.995   6.004   1.448
 4352SOL     OW13954   6.205   3.956   1.934
 4352SOL    HW113955   6.299   3.968   1.903
 4352SOL    HW213956   6.191   4.007   2.019
 4353SOL     OW13957   3.223   3.545   0.115
 4353SOL    HW113958   3.308   3.541   0.062
 4353SOL    HW213959   3.198   3.641   0.131
 4354SOL     OW13960   0.615   1.766   5.912
 4354SOL    HW113961   0.533   1.794   5.862
 4354SOL    HW213962   0.695   1.776   5.853
 4355SOL     OW13963   1.704   0.071   2.823
 4355SOL    HW113964   1.749   0.023   2.898
 4355SOL    HW213965   1.714   0.017   2.739
 4356SOL     OW13966   4.411   3.214   5.366
 4356SOL    HW113967   4.396   3.301   5.412
 4356SOL    HW213968   4.507   3.188   5.374
 4357SOL     OW13969   0.041   1.349   1.372
 4357SOL    HW113970   0.005   1.400   1.294
 4357SOL    HW213971   0.061   1.255   1.343
 4358SOL     OW13972   6.898   6.930   0.084
 4358SOL    HW113973   6.974   6.867   0.101
 4358SOL    HW213974   6.830   6.919   0.156
 4359SOL     OW13975   1.743   1.084   6.645
 4359SOL    HW113976   1.742   0.985   6.636
 4359SOL    HW213977   1.711   1.125   6.559
 4360SOL     OW13978   0.833   2.547   4.098
 4360SOL    HW113979   0.896   2.603   4.045
 4360SOL    HW213980   0.741   2.585   4.090
 4361SOL     OW13981   2.133   3.371   1.278
 4361SOL    HW113982   2.138   3.344   1.374
 4361SOL    HW213983   2.197   3.446   1.261
 4362SOL     OW13984   0.278   6.097   4.006
 4362SOL    HW113985   0.261   6.195   3.999
 4362SOL    HW213986   0.280   6.056   3.915
 4363SOL     OW13987   4.486   1.009   1.954
 4363SOL    HW113988   4.480   1.103   1.989
 4363SOL    HW213989   4.410   0.992   1.892
 4364SOL     OW13990   3.039   3.848   2.997
 4364SOL    HW113991   3.079   3.936   3.024
 4364SOL    HW213992   3.112   3.786   2.969
 4365SOL     OW13993   3.095   1.123   1.921
 4365SOL    HW113994   3.038   1.053   1.965
 4365SOL    HW213995   3.191   1.106   1.943
 4366SOL     OW13996   5.825   6.449   6.309
 4366SOL    HW113997   5.812   6.397   6.393
 4366SOL    HW213998   5.795   6.544   6.322
 4367SOL     OW13999   3.064   4.836   3.530
 4367SOL    HW114000   2.984   4.790   3.570
 4367SOL    HW214001   3.114   4.884   3.602
 4368SOL     OW14002   3.819   5.554   2.446
 4368SOL    HW114003   3.830   5.579   2.350
 4368SOL    HW214004   3.824   5.455   2.456
 4369SOL     OW14005   5.126   5.496   3.162
 4369SOL    HW114006   5.058   5.488   3.089
 4369SOL    HW214007   5.080   5.519   3.248
 4370SOL     OW14008   3.743   4.012   1.465
 4370SOL    HW114009   3.690   3.947   1.412
 4370SOL    HW214010   3.727   3.998   1.563
 4371SOL     OW14011   2.171   1.475   2.843
 4371SOL    HW114012   2.201   1.556   2.793
 4371SOL    HW214013   2.250   1.418   2.864
 4372SOL     OW14014   2.148   3.339   4.059
 4372SOL    HW114015   2.188   3.283   4.131
 4372SOL    HW214016   2.060   3.375   4.090
 4373SOL     OW14017   4.210   1.070   6.344
 4373SOL    HW114018   4.308   1.080   6.361
 4373SOL    HW214019   4.161   1.077   6.431
 4374SOL     OW14020   1.843   1.581   1.365
 4374SOL    HW114021   1.865   1.678   1.381
 4374SOL    HW214022   1.917   1.524   1.399
 4375SOL     OW14023   3.818   6.256   3.081
 4375SOL    HW114024   3.864   6.301   3.005
 4375SOL    HW214025   3.797   6.323   3.152
 4376SOL     OW14026   6.826   0.009   1.859
 4376SOL    HW114027   6.814   7.018   1.956
 4376SOL    HW214028   6.914   0.053   1.843
 4377SOL     OW14029   6.291   5.336   0.276
 4377SOL    HW114030   6.223   5.394   0.322
 4377SOL    HW214031   6.337   5.279   0.344
 4378SOL     OW14032   1.041   4.525   2.576
 4378SOL    HW114033   0.966   4.459   2.569
 4378SOL    HW214034   1.051   4.554   2.671
 4379SOL     OW14035   2.192   0.726   2.017
 4379SOL    HW114036   2.160   0.696   1.927
 4379SOL    HW214037   2.252   0.656   2.056
 4380SOL     OW14038   1.891   6.026   4.754
 4380SOL    HW114039   1.801   6.068   4.768
 4380SOL    HW214040   1.907   5.957   4.824
 4381SOL     OW14041   2.285   4.312   5.017
 4381SOL    HW114042   2.287   4.212   5.016
 4381SOL    HW214043   2.329   4.345   5.100
 4382SOL     OW14044   6.374   4.190   6.341
 4382SOL    HW114045   6.317   4.115   6.309
 4382SOL    HW214046   6.383   4.258   6.269
 4383SOL     OW14047   0.228   2.406   5.442
 4383SOL    HW114048   0.270   2.426   5.354
 4383SOL    HW214049   0.129   2.416   5.435
 4384SOL     OW14050   5.222   1.356   0.242
 4384SOL    HW114051   5.245   1.365   0.339
 4384SOL    HW214052   5.184   1.443   0.209
 4385SOL     OW14053   6.894   2.883   4.053
 4385SOL    HW114054   6.824   2.942   4.014
 4385SOL    HW214055   6.891   2.793   4.008
 4386SOL     OW14056   1.219   3.371   6.661
 4386SOL    HW114057   1.264   3.317   6.589
 4386SOL    HW214058   1.138   3.323   6.693
 4387SOL     OW14059   0.973   2.336   1.836
 4387SOL    HW114060   0.917   2.296   1.909
 4387SOL    HW214061   0.974   2.274   1.758
 4388SOL     OW14062   4.273   1.163   6.786
 4388SOL    HW114063   4.277   1.245   6.728
 4388SOL    HW214064   4.296   1.187   6.880
 4389SOL     OW14065   5.748   2.399   0.441
 4389SOL    HW114066   5.823   2.334   0.448
 4389SOL    HW214067   5.663   2.358   0.475
 4390SOL     OW14068   3.862   2.071   2.351
 4390SOL    HW114069   3.770   2.051   2.317
 4390SOL    HW214070   3.924   2.082   2.273
 4391SOL     OW14071   1.351   5.722   6.212
 4391SOL    HW114072   1.286   5.663   6.163
 4391SOL    HW214073   1.313   5.815   6.217
 4392SOL     OW14074   6.036   4.013   5.254
 4392SOL    HW114075   6.109   4.002   5.321
 4392SOL    HW214076   6.072   4.002   5.162
 4393SOL     OW14077   4.946   6.443   2.821
 4393SOL    HW114078   4.949   6.395   2.733
 4393SOL    HW214079   4.853   6.476   2.838
 4394SOL     OW14080   6.372   5.344   3.233
 4394SOL    HW114081   6.370   5.287   3.315
 4394SOL    HW214082   6.343   5.290   3.154
 4395SOL     OW14083   4.376   1.712   1.884
 4395SOL    HW114084   4.285   1.682   1.914
 4395SOL    HW214085   4.387   1.810   1.904
 4396SOL     OW14086   2.603   1.901   3.919
 4396SOL    HW114087   2.537   1.906   3.994
 4396SOL    HW214088   2.569   1.952   3.841
 4397SOL     OW14089   0.341   1.896   4.538
 4397SOL    HW114090   0.402   1.855   4.470
 4397SOL    HW214091   0.248   1.863   4.524
 4398SOL     OW14092   1.262   4.510   5.261
 4398SOL    HW114093   1.167   4.512   5.292
 4398SOL    HW214094   1.316   4.455   5.325
 4399SOL     OW14095   1.843   0.547   1.788
 4399SOL    HW114096   1.792   0.560   1.873
 4399SOL    HW214097   1.783   0.506   1.720
 4400SOL     OW14098   2.210   6.732   4.618
 4400SOL    HW114099   2.301   6.736   4.578
 4400SOL    HW214100   2.202   6.651   4.676
 4401SOL     OW14101   5.232   5.875   6.043
 4401SOL    HW114102   5.246   5.974   6.042
 4401SOL    HW214103   5.136   5.855   6.021
 4402SOL     OW14104   1.913   6.205   2.541
 4402SOL    HW114105   2.000   6.245   2.570
 4402SOL    HW214106   1.844   6.277   2.530
 4403SOL     OW14107   0.051   6.798   3.589
 4403SOL    HW114108   0.075   6.868   3.656
 4403SOL    HW214109   0.131   6.741   3.570
 4404SOL     OW14110   1.289   3.917   5.384
 4404SOL    HW114111   1.239   3.970   5.316
 4404SOL    HW214112   1.224   3.861   5.436
 4405SOL     OW14113   3.189   4.083   0.118
 4405SOL    HW114114   3.102   4.110   0.159
 4405SOL    HW214115   3.213   4.147   0.045
 4406SOL     OW14116   5.395   4.628   1.398
 4406SOL    HW114117   5.443   4.599   1.481
 4406SOL    HW214118   5.298   4.607   1.407
 4407SOL     OW14119   0.026   4.736   0.846
 4407SOL    HW114120   0.058   4.826   0.875
 4407SOL    HW214121   0.079   4.665   0.893
 4408SOL     OW14122   4.851   0.695   0.857
 4408SOL    HW114123   4.924   0.699   0.926
 4408SOL    HW214124   4.765   0.669   0.902
 4409SOL     OW14125   3.943   0.484   2.387
 4409SOL    HW114126   3.895   0.444   2.309
 4409SOL    HW214127   3.877   0.531   2.445
 4410SOL     OW14128   2.006   4.555   0.003
 4410SOL    HW114129   2.090   4.606   0.023
 4410SOL    HW214130   1.957   4.537   0.088
 4411SOL     OW14131   4.043   3.443   3.200
 4411SOL    HW114132   4.128   3.396   3.178
 4411SOL    HW214133   4.000   3.398   3.279
 4412SOL     OW14134   3.405   1.782   4.524
 4412SOL    HW114135   3.387   1.875   4.557
 4412SOL    HW214136   3.480   1.784   4.457
 4413SOL     OW14137   4.971   5.796   5.109
 4413SOL    HW114138   4.947   5.699   5.111
 4413SOL    HW214139   5.025   5.819   5.191
 4414SOL     OW14140   4.301   4.829   1.801
 4414SOL    HW114141   4.259   4.792   1.884
 4414SOL    HW214142   4.373   4.893   1.826
 4415SOL     OW14143   4.268   3.849   6.917
 4415SOL    HW114144   4.209   3.776   6.885
 4415SOL    HW214145   4.249   3.933   6.865
 4416SOL     OW14146   2.886   0.633   4.736
 4416SOL    HW114147   2.836   0.712   4.772
 4416SOL    HW214148   2.974   0.663   4.699
 4417SOL     OW14149   6.808   4.181   2.896
 4417SOL    HW114150   6.903   4.211   2.909
 4417SOL    HW214151   6.747   4.242   2.947
 4418SOL     OW14152   5.091   0.441   4.216
 4418SOL    HW114153   5.020   0.374   4.237
 4418SOL    HW214154   5.152   0.450   4.295
 4419SOL     OW14155   5.429   6.012   0.436
 4419SOL    HW114156   5.446   5.936   0.374
 4419SOL    HW214157   5.379   6.085   0.388
 4420SOL     OW14158   5.076   2.118   0.644
 4420SOL    HW114159   5.122   2.030   0.628
 4420SOL    HW214160   5.015   2.110   0.723
 4421SOL     OW14161   1.815   0.829   3.203
 4421SOL    HW114162   1.886   0.785   3.148
 4421SOL    HW214163   1.833   0.927   3.208
 4422SOL     OW14164   2.300   3.518   6.002
 4422SOL    HW114165   2.275   3.447   5.936
 4422SOL    HW214166   2.350   3.476   6.078
 4423SOL     OW14167   1.604   2.621   5.988
 4423SOL    HW114168   1.581   2.526   6.005
 4423SOL    HW214169   1.571   2.648   5.898
 4424SOL     OW14170   5.745   6.938   3.778
 4424SOL    HW114171   5.784   6.895   3.859
 4424SOL    HW214172   5.817   6.985   3.727
 4425SOL     OW14173   3.644   5.925   5.876
 4425SOL    HW114174   3.554   5.880   5.882
 4425SOL    HW214175   3.705   5.886   5.944
 4426SOL     OW14176   6.885   1.934   4.614
 4426SOL    HW114177   6.924   1.974   4.697
 4426SOL    HW214178   6.806   1.987   4.584
 4427SOL     OW14179   6.884   6.857   2.704
 4427SOL    HW114180   6.881   6.948   2.744
 4427SOL    HW214181   6.953   6.854   2.632
 4428SOL     OW14182   2.935   5.528   2.929
 4428SOL    HW114183   3.025   5.484   2.930
 4428SOL    HW214184   2.945   5.622   2.896
 4429SOL     OW14185   2.961   0.808   3.891
 4429SOL    HW114186   2.862   0.794   3.878
 4429SOL    HW214187   2.992   0.881   3.831
 4430SOL     OW14188   5.475   3.129   4.051
 4430SOL    HW114189   5.425   3.190   4.112
 4430SOL    HW214190   5.557   3.174   4.018
 4431SOL     OW14191   1.656   1.522   1.932
 4431SOL    HW114192   1.647   1.615   1.969
 4431SOL    HW214193   1.677   1.528   1.834
 4432SOL     OW14194   3.488   4.167   3.712
 4432SOL    HW114195   3.553   4.190   3.639
 4432SOL    HW214196   3.394   4.179   3.678
 4433SOL     OW14197   6.163   0.401   4.749
 4433SOL    HW114198   6.194   0.444   4.834
 4433SOL    HW214199   6.072   0.436   4.726
 4434SOL     OW14200   4.622   2.062   3.785
 4434SOL    HW114201   4.574   2.149   3.793
 4434SOL    HW214202   4.714   2.071   3.822
 4435SOL     OW14203   4.532   3.674   1.127
 4435SOL    HW114204   4.435   3.652   1.117
 4435SOL    HW214205   4.565   3.637   1.214
 4436SOL     OW14206   3.422   2.184   0.530
 4436SOL    HW114207   3.437   2.233   0.445
 4436SOL    HW214208   3.356   2.110   0.515
 4437SOL     OW14209   5.595   1.581   3.545
 4437SOL    HW114210   5.628   1.667   3.584
 4437SOL    HW214211   5.609   1.507   3.611
 4438SOL     OW14212   4.180   1.350   6.608
 4438SOL    HW114213   4.134   1.361   6.520
 4438SOL    HW214214   4.203   1.440   6.645
 4439SOL     OW14215   0.195   6.001   1.544
 4439SOL    HW114216   0.271   5.940   1.565
 4439SOL    HW214217   0.224   6.070   1.478
 4440SOL     OW14218   1.799   4.522   0.295
 4440SOL    HW114219   1.729   4.593   0.285
 4440SOL    HW214220   1.834   4.523   0.389
 4441SOL     OW14221   0.019   1.164   2.078
 4441SOL    HW114222   0.100   1.216   2.105
 4441SOL    HW214223   6.968   1.225   2.074
 4442SOL     OW14224   3.319   6.431   4.083
 4442SOL    HW114225   3.274   6.391   4.003
 4442SOL    HW214226   3.380   6.363   4.124
 4443SOL     OW14227   0.187   2.836   0.772
 4443SOL    HW114228   0.265   2.848   0.833
 4443SOL    HW214229   0.187   2.743   0.735
 4444SOL     OW14230   3.883   6.347   6.459
 4444SOL    HW114231   3.961   6.346   6.521
 4444SOL    HW214232   3.813   6.284   6.494
 4445SOL     OW14233   6.889   0.214   0.717
 4445SOL    HW114234   6.974   0.175   0.752
 4445SOL    HW214235   6.903   0.310   0.693
 4446SOL     OW14236   5.377   1.093   1.773
 4446SOL    HW114237   5.435   1.056   1.844
 4446SOL    HW214238   5.397   1.048   1.686
 4447SOL     OW14239   5.728   3.701   5.956
 4447SOL    HW114240   5.740   3.614   5.909
 4447SOL    HW214241   5.650   3.694   6.019
 4448SOL     OW14242   3.180   4.119   0.892
 4448SOL    HW114243   3.239   4.048   0.930
 4448SOL    HW214244   3.087   4.107   0.925
 4449SOL     OW14245   4.504   0.840   5.672
 4449SOL    HW114246   4.476   0.916   5.613
 4449SOL    HW214247   4.542   0.876   5.757
 4450SOL     OW14248   4.045   3.251   4.282
 4450SOL    HW114249   3.999   3.215   4.363
 4450SOL    HW214250   4.124   3.194   4.261
 4451SOL     OW14251   5.769   3.871   2.803
 4451SOL    HW114252   5.749   3.951   2.860
 4451SOL    HW214253   5.761   3.789   2.859
 4452SOL     OW14254   5.897   6.660   4.937
 4452SOL    HW114255   5.962   6.643   5.012
 4452SOL    HW214256   5.887   6.758   4.923
 4453SOL     OW14257   6.420   2.625   0.741
 4453SOL    HW114258   6.475   2.572   0.677
 4453SOL    HW214259   6.468   2.710   0.763
 4454SOL     OW14260   5.376   2.882   0.192
 4454SOL    HW114261   5.312   2.862   0.267
 4454SOL    HW214262   5.424   2.799   0.166
 4455SOL     OW14263   3.448   0.483   6.375
 4455SOL    HW114264   3.501   0.529   6.447
 4455SOL    HW214265   3.357   0.462   6.410
 4456SOL     OW14266   2.380   5.024   2.338
 4456SOL    HW114267   2.445   4.967   2.288
 4456SOL    HW214268   2.429   5.078   2.406
 4457SOL     OW14269   4.225   2.460   0.142
 4457SOL    HW114270   4.151   2.527   0.147
 4457SOL    HW214271   4.233   2.411   0.228
 4458SOL     OW14272   1.215   3.831   6.435
 4458SOL    HW114273   1.178   3.767   6.502
 4458SOL    HW214274   1.308   3.857   6.462
 4459SOL     OW14275   5.436   0.564   3.294
 4459SOL    HW114276   5.429   0.656   3.255
 4459SOL    HW214277   5.423   0.496   3.222
 4460SOL     OW14278   2.785   3.073   5.578
 4460SOL    HW114279   2.726   3.035   5.649
 4460SOL    HW214280   2.734   3.082   5.493
 4461SOL     OW14281   0.904   0.574   2.704
 4461SOL    HW114282   0.811   0.539   2.689
 4461SOL    HW214283   0.899   0.663   2.748
 4462SOL     OW14284   0.051   3.454   1.444
 4462SOL    HW114285   0.138   3.435   1.492
 4462SOL    HW214286   0.058   3.424   1.349
 4463SOL     OW14287   3.123   2.598   0.027
 4463SOL    HW114288   3.063   2.673   0.057
 4463SOL    HW214289   3.117   2.590   6.954
 4464SOL     OW14290   5.742   4.796   6.764
 4464SOL    HW114291   5.799   4.879   6.767
 4464SOL    HW214292   5.788   4.723   6.815
 4465SOL     OW14293   2.067   5.810   3.451
 4465SOL    HW114294   1.974   5.844   3.463
 4465SOL    HW214295   2.132   5.877   3.486
 4466SOL     OW14296   1.365   0.553   1.998
 4466SOL    HW114297   1.311   0.481   1.954
 4466SOL    HW214298   1.320   0.580   2.083
 4467SOL     OW14299   1.543   5.962   3.520
 4467SOL    HW114300   1.449   5.973   3.553
 4467SOL    HW214301   1.543   5.942   3.422
 4468SOL     OW14302   1.270   2.321   0.400
 4468SOL    HW114303   1.367   2.344   0.396
 4468SOL    HW214304   1.248   2.255   0.328
 4469SOL     OW14305   3.476   0.224   1.356
 4469SOL    HW114306   3.570   0.257   1.364
 4469SOL    HW214307   3.439   0.205   1.447
 4470SOL     OW14308   6.082   3.730   1.827
 4470SOL    HW114309   6.043   3.768   1.744
 4470SOL    HW214310   6.144   3.796   1.869
 4471SOL     OW14311   0.407   2.074   0.548
 4471SOL    HW114312   0.430   2.082   0.645
 4471SOL    HW214313   0.308   2.082   0.536
 4472SOL     OW14314   1.863   2.882   3.838
 4472SOL    HW114315   1.826   2.974   3.825
 4472SOL    HW214316   1.850   2.828   3.755
 4473SOL     OW14317   6.682   1.998   3.676
 4473SOL    HW114318   6.619   2.024   3.603
 4473SOL    HW214319   6.678   1.900   3.691
 4474SOL     OW14320   3.002   1.292   1.729
 4474SOL    HW114321   3.041   1.384   1.727
 4474SOL    HW214322   3.015   1.252   1.820
 4475SOL     OW14323   1.705   3.907   2.361
 4475SOL    HW114324   1.764   3.953   2.295
 4475SOL    HW214325   1.654   3.974   2.414
 4476SOL     OW14326   4.974   6.706   3.945
 4476SOL    HW114327   4.975   6.676   3.850
 4476SOL    HW214328   4.882   6.736   3.970
 4477SOL     OW14329   1.782   0.046   5.699
 4477SOL    HW114330   1.803   0.089   5.611
 4477SOL    HW214331   1.805   6.977   5.696
 4478SOL     OW14332   2.754   5.896   2.473
 4478SOL    HW114333   2.678   5.951   2.508
 4478SOL    HW214334   2.723   5.841   2.396
 4479SOL     OW14335   0.691   0.360   1.043
 4479SOL    HW114336   0.606   0.363   0.992
 4479SOL    HW214337   0.768   0.358   0.979
 4480SOL     OW14338   1.661   3.759   5.457
 4480SOL    HW114339   1.748   3.792   5.493
 4480SOL    HW214340   1.599   3.739   5.533
 4481SOL     OW14341   2.772   6.849   5.172
 4481SOL    HW114342   2.706   6.775   5.180
 4481SOL    HW214343   2.773   6.883   5.078
 4482SOL     OW14344   0.574   4.099   4.113
 4482SOL    HW114345   0.597   4.067   4.021
 4482SOL    HW214346   0.599   4.195   4.122
 4483SOL     OW14347   5.796   3.226   1.395
 4483SOL    HW114348   5.759   3.314   1.366
 4483SOL    HW214349   5.755   3.153   1.340
 4484SOL     OW14350   3.049   2.284   5.356
 4484SOL    HW114351   2.972   2.343   5.380
 4484SOL    HW214352   3.104   2.328   5.285
 4485SOL     OW14353   5.198   2.388   6.159
 4485SOL    HW114354   5.112   2.357   6.200
 4485SOL    HW214355   5.184   2.476   6.115
 4486SOL     OW14356   5.618   3.660   4.335
 4486SOL    HW114357   5.524   3.679   4.309
 4486SOL    HW214358   5.644   3.718   4.413
 4487SOL     OW14359   2.551   3.134   6.713
 4487SOL    HW114360   2.479   3.122   6.644
 4487SOL    HW214361   2.636   3.097   6.678
 4488SOL     OW14362   6.045   2.875   5.400
 4488SOL    HW114363   5.980   2.854   5.472
 4488SOL    HW214364   6.010   2.949   5.343
 4489SOL     OW14365   5.164   6.080   4.536
 4489SOL    HW114366   5.252   6.112   4.503
 4489SOL    HW214367   5.164   5.980   4.539
 4490SOL     OW14368   5.922   2.244   2.126
 4490SOL    HW114369   5.895   2.340   2.133
 4490SOL    HW214370   5.882   2.193   2.203
 4491SOL     OW14371   0.634   3.186   3.899
 4491SOL    HW114372   0.675   3.129   3.970
 4491SOL    HW214373   0.579   3.128   3.838
 4492SOL     OW14374   5.032   3.329   0.630
 4492SOL    HW114375   4.936   3.348   0.610
 4492SOL    HW214376   5.090   3.394   0.580
 4493SOL     OW14377   4.690   5.878   5.509
 4493SOL    HW114378   4.662   5.973   5.521
 4493SOL    HW214379   4.622   5.829   5.454
 4494SOL     OW14380   0.230   1.799   6.290
 4494SOL    HW114381   0.150   1.738   6.281
 4494SOL    HW214382   0.313   1.746   6.272
 4495SOL     OW14383   5.083   6.376   3.735
 4495SOL    HW114384   5.034   6.353   3.819
 4495SOL    HW214385   5.044   6.460   3.697
 4496SOL     OW14386   4.704   5.712   0.525
 4496SOL    HW114387   4.771   5.786   0.520
 4496SOL    HW214388   4.630   5.739   0.587
 4497SOL     OW14389   4.548   0.345   0.248
 4497SOL    HW114390   4.520   0.433   0.210
 4497SOL    HW214391   4.469   0.283   0.251
 4498SOL     OW14392   0.333   2.834   5.900
 4498SOL    HW114393   0.365   2.741   5.885
 4498SOL    HW214394   0.341   2.858   5.997
 4499SOL     OW14395   0.353   3.656   3.986
 4499SOL    HW114396   0.319   3.583   4.046
 4499SOL    HW214397   0.432   3.622   3.936
 4500SOL     OW14398   2.944   3.232   4.132
 4500SOL    HW114399   3.008   3.156   4.122
 4500SOL    HW214400   2.940   3.260   4.228
 4501SOL     OW14401   0.560   3.353   6.012
 4501SOL    HW114402   0.576   3.273   6.069
 4501SOL    HW214403   0.642   3.375   5.960
 4502SOL     OW14404   1.872   1.905   6.836
 4502SOL    HW114405   1.840   1.926   6.743
 4502SOL    HW214406   1.793   1.891   6.896
 4503SOL     OW14407   3.037   0.428   2.760
 4503SOL    HW114408   3.103   0.483   2.709
 4503SOL    HW214409   2.949   0.428   2.712
 4504SOL     OW14410   6.513   1.813   4.964
 4504SOL    HW114411   6.491   1.792   5.060
 4504SOL    HW214412   6.441   1.871   4.926
 4505SOL     OW14413   6.466   5.794   3.501
 4505SOL    HW114414   6.484   5.877   3.448
 4505SOL    HW214415   6.380   5.805   3.552
 4506SOL     OW14416   4.825   2.708   4.021
 4506SOL    HW114417   4.785   2.785   3.972
 4506SOL    HW214418   4.782   2.700   4.111
 4507SOL     OW14419   5.223   4.689   2.084
 4507SOL    HW114420   5.126   4.709   2.073
 4507SOL    HW214421   5.277   4.766   2.051
 4508SOL     OW14422   0.926   4.995   5.933
 4508SOL    HW114423   0.919   4.911   5.987
 4508SOL    HW214424   0.889   5.072   5.987
 4509SOL     OW14425   5.735   2.902   3.880
 4509SOL    HW114426   5.790   2.956   3.943
 4509SOL    HW214427   5.777   2.812   3.868
 4510SOL     OW14428   5.525   0.037   5.519
 4510SOL    HW114429   5.585   0.011   5.595
 4510SOL    HW214430   5.450   0.093   5.553
 4511SOL     OW14431   6.914   3.737   6.501
 4511SOL    HW114432   6.927   3.705   6.595
 4511SOL    HW214433   7.001   3.738   6.453
 4512SOL     OW14434   2.192   6.531   5.839
 4512SOL    HW114435   2.139   6.454   5.875
 4512SOL    HW214436   2.205   6.600   5.910
 4513SOL     OW14437   4.841   6.259   0.275
 4513SOL    HW114438   4.780   6.311   0.215
 4513SOL    HW214439   4.813   6.272   0.370
 4514SOL     OW14440   5.107   1.135   5.243
 4514SOL    HW114441   5.172   1.207   5.265
 4514SOL    HW214442   5.044   1.122   5.319
 4515SOL     OW14443   6.969   3.999   5.999
 4515SOL    HW114444   0.039   4.014   6.019
 4515SOL    HW214445   6.928   4.083   5.964
 4516SOL     OW14446   1.592   0.881   5.912
 4516SOL    HW114447   1.572   0.977   5.931
 4516SOL    HW214448   1.611   0.833   5.997
 4517SOL     OW14449   2.166   0.442   0.065
 4517SOL    HW114450   2.102   0.519   0.062
 4517SOL    HW214451   2.120   0.359   0.033
 4518SOL     OW14452   6.714   1.358   3.643
 4518SOL    HW114453   6.641   1.418   3.676
 4518SOL    HW214454   6.766   1.322   3.721
 4519SOL     OW14455   5.466   0.289   1.380
 4519SOL    HW114456   5.407   0.213   1.351
 4519SOL    HW214457   5.413   0.374   1.377
 4520SOL     OW14458   5.416   5.383   3.437
 4520SOL    HW114459   5.385   5.470   3.398
 4520SOL    HW214460   5.339   5.338   3.482
 4521SOL     OW14461   5.117   2.036   4.282
 4521SOL    HW114462   5.083   2.112   4.225
 4521SOL    HW214463   5.152   2.073   4.368
 4522SOL     OW14464   5.365   0.213   3.622
 4522SOL    HW114465   5.299   0.264   3.676
 4522SOL    HW214466   5.426   0.276   3.575
 4523SOL     OW14467   1.130   4.209   0.178
 4523SOL    HW114468   1.117   4.117   0.139
 4523SOL    HW214469   1.228   4.225   0.191
 4524SOL     OW14470   5.129   2.321   4.753
 4524SOL    HW114471   5.108   2.288   4.845
 4524SOL    HW214472   5.044   2.339   4.703
 4525SOL     OW14473   6.384   1.088   3.458
 4525SOL    HW114474   6.319   1.107   3.385
 4525SOL    HW214475   6.341   1.106   3.546
 4526SOL     OW14476   4.607   0.604   0.977
 4526SOL    HW114477   4.657   0.518   0.975
 4526SOL    HW214478   4.532   0.600   0.911
 4527SOL     OW14479   4.133   1.200   4.085
 4527SOL    HW114480   4.057   1.244   4.133
 4527SOL    HW214481   4.101   1.114   4.045
 4528SOL     OW14482   4.535   6.628   0.127
 4528SOL    HW114483   4.631   6.654   0.118
 4528SOL    HW214484   4.479   6.690   0.071
 4529SOL     OW14485   3.496   1.374   4.412
 4529SOL    HW114486   3.536   1.444   4.472
 4529SOL    HW214487   3.397   1.371   4.424
 4530SOL     OW14488   0.413   3.195   5.632
 4530SOL    HW114489   0.432   3.097   5.642
 4530SOL    HW214490   0.490   3.239   5.586
 4531SOL     OW14491   0.620   3.456   3.612
 4531SOL    HW114492   0.715   3.468   3.637
 4531SOL    HW214493   0.614   3.413   3.521
 4532SOL     OW14494   0.348   1.027   2.465
 4532SOL    HW114495   0.430   1.034   2.407
 4532SOL    HW214496   0.322   1.119   2.497
 4533SOL     OW14497   1.034   0.436   2.509
 4533SOL    HW114498   1.132   0.448   2.526
 4533SOL    HW214499   0.983   0.511   2.552
 4534SOL     OW14500   6.189   3.880   4.534
 4534SOL    HW114501   6.133   3.834   4.464
 4534SOL    HW214502   6.210   3.972   4.503
 4535SOL     OW14503   4.896   1.794   2.505
 4535SOL    HW114504   4.965   1.746   2.559
 4535SOL    HW214505   4.894   1.890   2.533
 4536SOL     OW14506   4.976   2.270   4.124
 4536SOL    HW114507   4.926   2.232   4.046
 4536SOL    HW214508   5.061   2.312   4.093
 4537SOL     OW14509   3.656   2.754   6.153
 4537SOL    HW114510   3.703   2.717   6.072
 4537SOL    HW214511   3.692   2.845   6.173
 4538SOL     OW14512   2.540   0.716   4.315
 4538SOL    HW114513   2.632   0.680   4.335
 4538SOL    HW214514   2.477   0.640   4.302
 4539SOL     OW14515   2.072   1.231   4.360
 4539SOL    HW114516   2.082   1.273   4.270
 4539SOL    HW214517   2.125   1.147   4.364
 4540SOL     OW14518   3.672   3.100   4.185
 4540SOL    HW114519   3.758   3.052   4.170
 4540SOL    HW214520   3.676   3.191   4.145
 4541SOL     OW14521   5.704   1.358   0.365
 4541SOL    HW114522   5.624   1.326   0.416
 4541SOL    HW214523   5.723   1.295   0.289
 4542SOL     OW14524   6.204   6.683   1.714
 4542SOL    HW114525   6.234   6.617   1.646
 4542SOL    HW214526   6.151   6.636   1.785
 4543SOL     OW14527   5.192   2.356   0.255
 4543SOL    HW114528   5.111   2.303   0.230
 4543SOL    HW214529   5.166   2.428   0.319
 4544SOL     OW14530   2.736   6.313   5.593
 4544SOL    HW114531   2.731   6.358   5.504
 4544SOL    HW214532   2.689   6.225   5.588
 4545SOL     OW14533   5.436   2.741   4.560
 4545SOL    HW114534   5.402   2.674   4.626
 4545SOL    HW214535   5.536   2.739   4.559
 4546SOL     OW14536   1.318   1.713   6.158
 4546SOL    HW114537   1.270   1.741   6.075
 4546SOL    HW214538   1.313   1.786   6.226
 4547SOL     OW14539   6.460   2.606   2.831
 4547SOL    HW114540   6.388   2.662   2.873
 4547SOL    HW214541   6.532   2.589   2.899
 4548SOL     OW14542   1.503   4.348   4.828
 4548SOL    HW114543   1.565   4.270   4.841
 4548SOL    HW214544   1.477   4.354   4.732
 4549SOL     OW14545   6.038   3.747   2.207
 4549SOL    HW114546   6.114   3.685   2.190
 4549SOL    HW214547   5.964   3.728   2.141
 4550SOL     OW14548   0.911   5.977   2.451
 4550SOL    HW114549   0.930   6.047   2.383
 4550SOL    HW214550   0.812   5.968   2.464
 4551SOL     OW14551   6.813   2.230   5.612
 4551SOL    HW114552   6.883   2.175   5.658
 4551SOL    HW214553   6.744   2.170   5.572
 4552SOL     OW14554   6.466   2.588   6.584
 4552SOL    HW114555   6.494   2.600   6.489
 4552SOL    HW214556   6.392   2.652   6.605
 4553SOL     OW14557   4.052   4.449   6.970
 4553SOL    HW114558   4.066   4.355   6.941
 4553SOL    HW214559   3.956   4.462   6.997
 4554SOL     OW14560   3.872   0.821   1.641
 4554SOL    HW114561   3.873   0.911   1.599
 4554SOL    HW214562   3.899   0.829   1.737
 4555SOL     OW14563   3.261   1.734   5.722
 4555SOL    HW114564   3.228   1.729   5.817
 4555SOL    HW214565   3.195   1.786   5.667
 4556SOL     OW14566   4.594   2.594   3.184
 4556SOL    HW114567   4.652   2.630   3.257
 4556SOL    HW214568   4.621   2.500   3.162
 4557SOL     OW14569   5.385   6.943   5.109
 4557SOL    HW114570   5.383   6.891   5.023
 4557SOL    HW214571   5.388   0.013   5.089
 4558SOL     OW14572   0.127   3.739   6.018
 4558SOL    HW114573   0.153   3.696   5.931
 4558SOL    HW214574   0.185   3.818   6.035
 4559SOL     OW14575   1.009   4.630   0.999
 4559SOL    HW114576   0.963   4.707   1.043
 4559SOL    HW214577   1.104   4.654   0.979
 4560SOL     OW14578   5.405   4.781   3.452
 4560SOL    HW114579   5.321   4.836   3.457
 4560SOL    HW214580   5.416   4.746   3.359
 4561SOL     OW14581   2.692   0.896   1.418
 4561SOL    HW114582   2.592   0.898   1.419
 4561SOL    HW214583   2.726   0.934   1.504
 4562SOL     OW14584   2.916   5.661   4.991
 4562SOL    HW114585   3.015   5.663   5.004
 4562SOL    HW214586   2.872   5.624   5.073
 4563SOL     OW14587   0.010   3.977   0.267
 4563SOL    HW114588   6.953   4.026   0.246
 4563SOL    HW214589   0.036   3.995   0.362
 4564SOL     OW14590   0.491   6.664   1.033
 4564SOL    HW114591   0.414   6.715   1.072
 4564SOL    HW214592   0.478   6.656   0.934
 4565SOL     OW14593   0.146   1.436   5.507
 4565SOL    HW114594   0.198   1.477   5.432
 4565SOL    HW214595   0.088   1.363   5.472
 4566SOL     OW14596   6.424   1.143   0.839
 4566SOL    HW114597   6.457   1.141   0.744
 4566SOL    HW214598   6.500   1.127   0.901
 4567SOL     OW14599   0.663   0.979   6.989
 4567SOL    HW114600   0.743   1.038   6.971
 4567SOL    HW214601   0.585   1.036   7.016
 4568SOL     OW14602   1.325   4.798   5.307
 4568SOL    HW114603   1.246   4.835   5.257
 4568SOL    HW214604   1.316   4.698   5.314
 4569SOL     OW14605   2.366   1.651   3.083
 4569SOL    HW114606   2.296   1.722   3.092
 4569SOL    HW214607   2.410   1.636   3.172
 4570SOL     OW14608   0.477   4.886   3.128
 4570SOL    HW114609   0.513   4.805   3.174
 4570SOL    HW214610   0.446   4.861   3.036
 4571SOL     OW14611   3.303   3.494   5.790
 4571SOL    HW114612   3.314   3.481   5.691
 4571SOL    HW214613   3.342   3.582   5.817
 4572SOL     OW14614   1.069   6.462   6.233
 4572SOL    HW114615   0.994   6.504   6.183
 4572SOL    HW214616   1.130   6.534   6.268
 4573SOL     OW14617   6.061   6.230   0.424
 4573SOL    HW114618   6.093   6.204   0.333
 4573SOL    HW214619   6.139   6.234   0.487
 4574SOL     OW14620   6.414   4.347   1.106
 4574SOL    HW114621   6.362   4.430   1.120
 4574SOL    HW214622   6.372   4.271   1.156
 4575SOL     OW14623   6.703   1.812   6.460
 4575SOL    HW114624   6.696   1.903   6.418
 4575SOL    HW214625   6.612   1.773   6.472
 4576SOL     OW14626   2.102   6.302   6.744
 4576SOL    HW114627   2.102   6.260   6.653
 4576SOL    HW214628   2.025   6.267   6.797
 4577SOL     OW14629   0.604   2.841   3.277
 4577SOL    HW114630   0.666   2.867   3.203
 4577SOL    HW214631   0.519   2.807   3.239
 4578SOL     OW14632   0.375   3.073   4.202
 4578SOL    HW114633   0.357   3.099   4.297
 4578SOL    HW214634   0.296   3.097   4.146
 4579SOL     OW14635   5.894   1.650   2.886
 4579SOL    HW114636   5.874   1.553   2.876
 4579SOL    HW214637   5.919   1.689   2.797
 4580SOL     OW14638   5.220   5.622   6.678
 4580SOL    HW114639   5.273   5.691   6.629
 4580SOL    HW214640   5.219   5.643   6.775
 4581SOL     OW14641   3.004   5.648   3.287
 4581SOL    HW114642   2.939   5.577   3.260
 4581SOL    HW214643   3.035   5.630   3.380
 4582SOL     OW14644   5.954   6.500   4.711
 4582SOL    HW114645   5.863   6.465   4.690
 4582SOL    HW214646   5.945   6.579   4.773
 4583SOL     OW14647   2.639   1.231   4.919
 4583SOL    HW114648   2.739   1.234   4.908
 4583SOL    HW214649   2.614   1.276   5.005
 4584SOL     OW14650   0.197   4.970   5.087
 4584SOL    HW114651   0.182   4.924   5.174
 4584SOL    HW214652   0.216   5.067   5.103
 4585SOL     OW14653   2.620   6.691   2.827
 4585SOL    HW114654   2.576   6.781   2.832
 4585SOL    HW214655   2.705   6.694   2.880
 4586SOL     OW14656   3.656   5.109   0.605
 4586SOL    HW114657   3.561   5.121   0.577
 4586SOL    HW214658   3.666   5.022   0.652
 4587SOL     OW14659   4.264   3.133   1.605
 4587SOL    HW114660   4.298   3.189   1.529
 4587SOL    HW214661   4.234   3.193   1.679
 4588SOL     OW14662   3.814   3.899   5.511
 4588SOL    HW114663   3.846   3.871   5.420
 4588SOL    HW214664   3.872   3.856   5.580
 4589SOL     OW14665   5.518   1.336   1.959
 4589SOL    HW114666   5.480   1.361   1.870
 4589SOL    HW214667   5.594   1.272   1.946
 4590SOL     OW14668   4.128   6.266   2.189
 4590SOL    HW114669   4.179   6.217   2.259
 4590SOL    HW214670   4.041   6.298   2.227
 4591SOL     OW14671   0.558   5.976   5.019
 4591SOL    HW114672   0.591   6.002   4.928
 4591SOL    HW214673   0.633   5.987   5.085
 4592SOL     OW14674   4.310   2.350   1.914
 4592SOL    HW114675   4.337   2.311   1.826
 4592SOL    HW214676   4.339   2.290   1.987
 4593SOL     OW14677   4.013   5.879   4.046
 4593SOL    HW114678   3.992   5.818   3.970
 4593SOL    HW214679   4.002   5.830   4.133
 4594SOL     OW14680   3.584   1.986   1.412
 4594SOL    HW114681   3.492   2.016   1.385
 4594SOL    HW214682   3.580   1.941   1.501
 4595SOL     OW14683   3.437   2.831   6.003
 4595SOL    HW114684   3.449   2.919   5.957
 4595SOL    HW214685   3.515   2.813   6.062
 4596SOL     OW14686   6.427   6.530   2.220
 4596SOL    HW114687   6.373   6.497   2.142
 4596SOL    HW214688   6.421   6.630   2.225
 4597SOL     OW14689   5.374   4.632   7.020
 4597SOL    HW114690   5.407   4.682   6.939
 4597SOL    HW214691   5.355   4.537   6.995
 4598SOL     OW14692   1.735   5.638   6.918
 4598SOL    HW114693   1.797   5.576   6.870
 4598SOL    HW214694   1.675   5.585   6.979
 4599SOL     OW14695   1.736   4.176   0.485
 4599SOL    HW114696   1.794   4.095   0.471
 4599SOL    HW214697   1.752   4.213   0.577
 4600SOL     OW14698   1.822   5.885   5.952
 4600SOL    HW114699   1.918   5.886   5.982
 4600SOL    HW214700   1.772   5.957   6.001
 4601SOL     OW14701   1.727   0.408   5.087
 4601SOL    HW114702   1.685   0.499   5.087
 4601SOL    HW214703   1.803   0.407   5.022
 4602SOL     OW14704   1.051   5.856   0.856
 4602SOL    HW114705   1.129   5.895   0.807
 4602SOL    HW214706   1.023   5.771   0.811
 4603SOL     OW14707   3.642   6.375   1.158
 4603SOL    HW114708   3.690   6.287   1.149
 4603SOL    HW214709   3.694   6.435   1.218
 4604SOL     OW14710   4.960   0.826   1.938
 4604SOL    HW114711   4.941   0.812   1.841
 4604SOL    HW214712   4.875   0.850   1.986
 4605SOL     OW14713   5.107   1.379   3.166
 4605SOL    HW114714   5.206   1.361   3.169
 4605SOL    HW214715   5.082   1.438   3.243
 4606SOL     OW14716   0.690   0.113   1.528
 4606SOL    HW114717   0.700   0.166   1.443
 4606SOL    HW214718   0.687   0.176   1.605
 4607SOL     OW14719   2.668   2.706   0.648
 4607SOL    HW114720   2.683   2.764   0.567
 4607SOL    HW214721   2.685   2.611   0.623
 4608SOL     OW14722   0.955   5.761   3.706
 4608SOL    HW114723   0.895   5.684   3.689
 4608SOL    HW214724   1.051   5.732   3.698
 4609SOL     OW14725   3.807   5.702   6.099
 4609SOL    HW114726   3.761   5.617   6.122
 4609SOL    HW214727   3.800   5.766   6.176
 4610SOL     OW14728   5.713   2.639   0.598
 4610SOL    HW114729   5.735   2.571   0.528
 4610SOL    HW214730   5.625   2.682   0.576
 4611SOL     OW14731   6.149   5.750   6.002
 4611SOL    HW114732   6.161   5.716   6.095
 4611SOL    HW214733   6.237   5.783   5.967
 4612SOL     OW14734   1.379   6.662   0.673
 4612SOL    HW114735   1.400   6.576   0.628
 4612SOL    HW214736   1.280   6.676   0.674
 4613SOL     OW14737   2.737   5.393   2.475
 4613SOL    HW114738   2.789   5.378   2.559
 4613SOL    HW214739   2.703   5.487   2.473
 4614SOL     OW14740   1.162   4.069   5.210
 4614SOL    HW114741   1.155   4.122   5.125
 4614SOL    HW214742   1.122   4.121   5.285
 4615SOL     OW14743   1.541   0.815   0.060
 4615SOL    HW114744   1.536   0.715   0.064
 4615SOL    HW214745   1.462   0.850   0.011
 4616SOL     OW14746   5.912   0.270   5.814
 4616SOL    HW114747   5.877   0.298   5.725
 4616SOL    HW214748   5.841   0.280   5.883
 4617SOL     OW14749   1.326   2.377   2.381
 4617SOL    HW114750   1.279   2.436   2.315
 4617SOL    HW214751   1.363   2.432   2.456
 4618SOL     OW14752   2.211   2.380   5.467
 4618SOL    HW114753   2.157   2.463   5.482
 4618SOL    HW214754   2.206   2.355   5.370
 4619SOL     OW14755   3.443   6.351   3.242
 4619SOL    HW114756   3.410   6.432   3.194
 4619SOL    HW214757   3.543   6.348   3.240
 4620SOL     OW14758   3.184   4.277   6.927
 4620SOL    HW114759   3.187   4.375   6.948
 4620SOL    HW214760   3.156   4.263   6.832
 4621SOL     OW14761   5.828   1.790   3.152
 4621SOL    HW114762   5.771   1.726   3.202
 4621SOL    HW214763   5.855   1.749   3.065
 4622SOL     OW14764   1.301   3.270   0.765
 4622SOL    HW114765   1.338   3.273   0.858
 4622SOL    HW214766   1.314   3.359   0.721
 4623SOL     OW14767   0.292   6.102   0.786
 4623SOL    HW114768   0.194   6.083   0.798
 4623SOL    HW214769   0.343   6.067   0.864
 4624SOL     OW14770   5.164   6.613   2.831
 4624SOL    HW114771   5.101   6.537   2.818
 4624SOL    HW214772   5.206   6.607   2.922
 4625SOL     OW14773   1.640   4.807   6.985
 4625SOL    HW114774   1.573   4.748   6.940
 4625SOL    HW214775   1.712   4.831   6.920
 4626SOL     OW14776   5.658   5.703   1.722
 4626SOL    HW114777   5.599   5.676   1.645
 4626SOL    HW214778   5.742   5.649   1.721
 4627SOL     OW14779   3.521   5.863   3.962
 4627SOL    HW114780   3.428   5.886   3.933
 4627SOL    HW214781   3.546   5.919   4.041
 4628SOL     OW14782   6.181   4.106   4.012
 4628SOL    HW114783   6.196   4.157   4.096
 4628SOL    HW214784   6.118   4.157   3.953
 4629SOL     OW14785   2.114   4.949   5.112
 4629SOL    HW114786   2.105   4.857   5.073
 4629SOL    HW214787   2.036   4.967   5.172
 4630SOL     OW14788   3.667   5.749   2.904
 4630SOL    HW114789   3.691   5.840   2.936
 4630SOL    HW214790   3.704   5.735   2.812
 4631SOL     OW14791   2.171   6.272   3.799
 4631SOL    HW114792   2.193   6.367   3.776
 4631SOL    HW214793   2.234   6.211   3.749
 4632SOL     OW14794   4.213   4.676   3.401
 4632SOL    HW114795   4.269   4.610   3.351
 4632SOL    HW214796   4.228   4.666   3.499
 4633SOL     OW14797   6.259   2.266   3.940
 4633SOL    HW114798   6.324   2.253   3.865
 4633SOL    HW214799   6.248   2.364   3.958
 4634SOL     OW14800   2.255   4.656   7.006
 4634SOL    HW114801   2.321   4.712   0.026
 4634SOL    HW214802   2.271   4.661   6.907
 4635SOL     OW14803   5.597   3.588   1.892
 4635SOL    HW114804   5.597   3.495   1.855
 4635SOL    HW214805   5.564   3.586   1.986
 4636SOL     OW14806   2.239   5.309   0.160
 4636SOL    HW114807   2.245   5.260   0.073
 4636SOL    HW214808   2.292   5.262   0.230
 4637SOL     OW14809   1.787   0.797   0.368
 4637SOL    HW114810   1.803   0.713   0.315
 4637SOL    HW214811   1.741   0.865   0.311
 4638SOL     OW14812   4.061   3.109   6.569
 4638SOL    HW114813   4.060   3.032   6.505
 4638SOL    HW214814   4.101   3.080   6.656
 4639SOL     OW14815   2.000   4.622   5.228
 4639SOL    HW114816   2.066   4.606   5.302
 4639SOL    HW214817   2.049   4.632   5.142
 4640SOL     OW14818   5.266   5.189   3.617
 4640SOL    HW114819   5.324   5.236   3.683
 4640SOL    HW214820   5.202   5.254   3.576
 4641SOL     OW14821   2.848   6.426   4.295
 4641SOL    HW114822   2.933   6.403   4.248
 4641SOL    HW214823   2.788   6.346   4.294
 4642SOL     OW14824   0.690   6.409   5.448
 4642SOL    HW114825   0.693   6.505   5.476
 4642SOL    HW214826   0.610   6.365   5.488
 4643SOL     OW14827   5.516   2.428   1.337
 4643SOL    HW114828   5.519   2.358   1.409
 4643SOL    HW214829   5.510   2.383   1.248
 4644SOL     OW14830   1.268   5.062   4.907
 4644SOL    HW114831   1.351   5.071   4.962
 4644SOL    HW214832   1.235   4.968   4.911
 4645SOL     OW14833   1.155   0.406   3.850
 4645SOL    HW114834   1.069   0.359   3.834
 4645SOL    HW214835   1.142   0.478   3.918
 4646SOL     OW14836   2.710   6.708   3.435
 4646SOL    HW114837   2.626   6.659   3.411
 4646SOL    HW214838   2.738   6.765   3.357
 4647SOL     OW14839   1.390   6.731   3.405
 4647SOL    HW114840   1.298   6.719   3.442
 4647SOL    HW214841   1.401   6.674   3.324
 4648SOL     OW14842   4.259   0.392   1.212
 4648SOL    HW114843   4.210   0.365   1.294
 4648SOL    HW214844   4.311   0.476   1.230
 4649SOL     OW14845   5.171   6.701   5.768
 4649SOL    HW114846   5.227   6.783   5.752
 4649SOL    HW214847   5.081   6.729   5.802
 4650SOL     OW14848   4.250   5.979   3.862
 4650SOL    HW114849   4.286   5.910   3.800
 4650SOL    HW214850   4.218   5.935   3.946
 4651SOL     OW14851   0.270   1.302   0.908
 4651SOL    HW114852   0.261   1.374   0.839
 4651SOL    HW214853   0.342   1.239   0.881
 4652SOL     OW14854   0.433   0.622   4.475
 4652SOL    HW114855   0.362   0.610   4.406
 4652SOL    HW214856   0.520   0.641   4.431
 4653SOL     OW14857   5.974   5.802   6.663
 4653SOL    HW114858   5.916   5.790   6.582
 4653SOL    HW214859   6.046   5.869   6.642
 4654SOL     OW14860   0.299   6.733   0.049
 4654SOL    HW114861   0.331   6.797   0.120
 4654SOL    HW214862   0.376   6.708   7.018
 4655SOL     OW14863   6.552   5.560   1.933
 4655SOL    HW114864   6.510   5.589   1.847
 4655SOL    HW214865   6.482   5.525   1.995
 4656SOL     OW14866   1.135   0.059   3.528
 4656SOL    HW114867   1.200   0.132   3.549
 4656SOL    HW214868   1.042   0.094   3.532
 4657SOL     OW14869   4.651   6.687   1.501
 4657SOL    HW114870   4.632   6.612   1.565
 4657SOL    HW214871   4.719   6.749   1.542
 4658SOL     OW14872   3.804   1.055   2.089
 4658SOL    HW114873   3.787   1.051   2.188
 4658SOL    HW214874   3.815   1.150   2.061
 4659SOL     OW14875   2.634   3.668   6.029
 4659SOL    HW114876   2.598   3.758   6.003
 4659SOL    HW214877   2.615   3.651   6.126
 4660SOL     OW14878   1.028   2.859   5.161
 4660SOL    HW114879   1.077   2.820   5.239
 4660SOL    HW214880   1.080   2.936   5.124
 4661SOL     OW14881   3.555   3.895   5.451
 4661SOL    HW114882   3.651   3.888   5.478
 4661SOL    HW214883   3.536   3.989   5.423
 4662SOL     OW14884   4.337   0.391   5.177
 4662SOL    HW114885   4.269   0.410   5.248
 4662SOL    HW214886   4.301   0.322   5.114
 4663SOL     OW14887   0.639   1.813   2.319
 4663SOL    HW114888   0.635   1.718   2.289
 4663SOL    HW214889   0.733   1.834   2.348
 4664SOL     OW14890   2.272   1.985   0.463
 4664SOL    HW114891   2.360   1.967   0.419
 4664SOL    HW214892   2.231   2.067   0.423
 4665SOL     OW14893   4.101   0.042   0.632
 4665SOL    HW114894   4.187   0.093   0.631
 4665SOL    HW214895   4.029   0.099   0.671
 4666SOL     OW14896   1.709   1.667   0.662
 4666SOL    HW114897   1.739   1.638   0.571
 4666SOL    HW214898   1.625   1.721   0.654
 4667SOL     OW14899   6.324   4.594   1.151
 4667SOL    HW114900   6.393   4.666   1.138
 4667SOL    HW214901   6.285   4.601   1.242
 4668SOL     OW14902   6.501   2.259   3.003
 4668SOL    HW114903   6.528   2.163   3.007
 4668SOL    HW214904   6.472   2.282   2.910
 4669SOL     OW14905   3.011   7.010   0.549
 4669SOL    HW114906   3.099   7.023   0.595
 4669SOL    HW214907   2.994   6.912   0.537
 4670SOL     OW14908   3.206   1.876   5.223
 4670SOL    HW114909   3.141   1.952   5.229
 4670SOL    HW214910   3.171   1.799   5.278
 4671SOL     OW14911   6.972   2.594   2.044
 4671SOL    HW114912   0.022   2.544   2.084
 4671SOL    HW214913   6.998   2.690   2.030
 4672SOL     OW14914   2.715   5.195   6.360
 4672SOL    HW114915   2.796   5.219   6.307
 4672SOL    HW214916   2.716   5.244   6.447
 4673SOL     OW14917   4.820   6.581   0.558
 4673SOL    HW114918   4.784   6.602   0.649
 4673SOL    HW214919   4.917   6.558   0.565
 4674SOL     OW14920   4.979   7.009   6.910
 4674SOL    HW114921   4.937   7.014   7.001
 4674SOL    HW214922   4.916   0.020   6.843
 4675SOL     OW14923   0.727   2.939   6.853
 4675SOL    HW114924   0.634   2.968   6.875
 4675SOL    HW214925   0.792   3.002   6.896
 4676SOL     OW14926   6.650   5.911   3.818
 4676SOL    HW114927   6.658   6.010   3.832
 4676SOL    HW214928   6.733   5.878   3.774
 4677SOL     OW14929   2.928   2.147   0.798
 4677SOL    HW114930   2.874   2.067   0.824
 4677SOL    HW214931   2.984   2.176   0.876
 4678SOL     OW14932   2.207   4.635   2.970
 4678SOL    HW114933   2.119   4.601   3.001
 4678SOL    HW214934   2.280   4.584   3.015
 4679SOL     OW14935   4.574   0.080   1.602
 4679SOL    HW114936   4.553   0.173   1.573
 4679SOL    HW214937   4.524   0.059   1.686
 4680SOL     OW14938   3.846   1.080   6.470
 4680SOL    HW114939   3.932   1.064   6.519
 4680SOL    HW214940   3.865   1.114   6.378
 4681SOL     OW14941   5.519   4.931   0.174
 4681SOL    HW114942   5.554   4.847   0.216
 4681SOL    HW214943   5.498   4.914   0.078
 4682SOL     OW14944   4.600   4.561   5.515
 4682SOL    HW114945   4.606   4.481   5.455
 4682SOL    HW214946   4.557   4.636   5.465
 4683SOL     OW14947   5.689   5.443   2.637
 4683SOL    HW114948   5.653   5.417   2.726
 4683SOL    HW214949   5.675   5.541   2.622
 4684SOL     OW14950   5.134   0.027   5.668
 4684SOL    HW114951   5.130   0.013   5.767
 4684SOL    HW214952   5.131   6.966   5.621
 4685SOL     OW14953   2.099   4.991   6.783
 4685SOL    HW114954   2.142   5.068   6.830
 4685SOL    HW214955   2.157   4.960   6.708
 4686SOL     OW14956   3.958   5.953   0.128
 4686SOL    HW114957   3.966   5.927   0.032
 4686SOL    HW214958   4.036   6.012   0.153
 4687SOL     OW14959   4.808   3.036   4.046
 4687SOL    HW114960   4.806   3.061   3.949
 4687SOL    HW214961   4.902   3.035   4.079
 4688SOL     OW14962   6.024   2.672   5.228
 4688SOL    HW114963   6.036   2.743   5.297
 4688SOL    HW214964   6.109   2.619   5.219
 4689SOL     OW14965   5.459   0.939   0.902
 4689SOL    HW114966   5.521   1.011   0.934
 4689SOL    HW214967   5.373   0.945   0.952
 4690SOL     OW14968   2.070   0.462   0.639
 4690SOL    HW114969   1.980   0.504   0.652
 4690SOL    HW214970   2.075   0.422   0.547
 4691SOL     OW14971   3.081   3.443   0.924
 4691SOL    HW114972   3.098   3.491   1.010
 4691SOL    HW214973   3.106   3.501   0.847
 4692SOL     OW14974   5.615   5.399   2.897
 4692SOL    HW114975   5.684   5.465   2.927
 4692SOL    HW214976   5.546   5.388   2.969
 4693SOL     OW14977   1.515   0.581   3.594
 4693SOL    HW114978   1.495   0.610   3.501
 4693SOL    HW214979   1.470   0.642   3.659
 4694SOL     OW14980   2.369   1.502   0.188
 4694SOL    HW114981   2.409   1.416   0.218
 4694SOL    HW214982   2.435   1.553   0.132
 4695SOL     OW14983   1.282   4.676   0.921
 4695SOL    HW114984   1.298   4.750   0.855
 4695SOL    HW214985   1.323   4.592   0.887
 4696SOL     OW14986   0.356   5.618   6.222
 4696SOL    HW114987   0.312   5.639   6.134
 4696SOL    HW214988   0.302   5.656   6.297
 4697SOL     OW14989   1.103   3.786   2.164
 4697SOL    HW114990   1.069   3.692   2.168
 4697SOL    HW214991   1.039   3.847   2.211
 4698SOL     OW14992   4.193   6.314   3.226
 4698SOL    HW114993   4.237   6.236   3.271
 4698SOL    HW214994   4.204   6.307   3.127
 4699SOL     OW14995   0.462   6.338   2.558
 4699SOL    HW114996   0.388   6.314   2.621
 4699SOL    HW214997   0.444   6.297   2.469
 4700SOL     OW14998   6.554   1.997   2.384
 4700SOL    HW114999   6.620   2.063   2.350
 4700SOL    HW215000   6.545   1.922   2.319
 4701SOL     OW15001   3.572   2.091   0.127
 4701SOL    HW115002   3.576   1.991   0.138
 4701SOL    HW215003   3.630   2.118   0.050
 4702SOL     OW15004   5.012   5.011   0.058
 4702SOL    HW115005   4.928   5.037   0.106
 4702SOL    HW215006   5.081   4.984   0.124
 4703SOL     OW15007   1.160   6.950   2.922
 4703SOL    HW115008   1.222   6.893   2.869
 4703SOL    HW215009   1.075   6.899   2.940
 4704SOL     OW15010   6.612   5.915   6.146
 4704SOL    HW115011   6.647   6.008   6.131
 4704SOL    HW215012   6.660   5.874   6.223
 4705SOL     OW15013   4.417   2.598   1.131
 4705SOL    HW115014   4.435   2.606   1.229
 4705SOL    HW215015   4.503   2.584   1.082
 4706SOL     OW15016   1.737   0.374   0.502
 4706SOL    HW115017   1.803   0.338   0.436
 4706SOL    HW215018   1.697   0.298   0.554
 4707SOL     OW15019   0.940   6.587   1.708
 4707SOL    HW115020   1.017   6.584   1.644
 4707SOL    HW215021   0.972   6.617   1.797
 4708SOL     OW15022   1.356   1.949   5.671
 4708SOL    HW115023   1.382   1.999   5.588
 4708SOL    HW215024   1.428   1.884   5.694
 4709SOL     OW15025   4.833   5.473   5.152
 4709SOL    HW115026   4.849   5.407   5.079
 4709SOL    HW215027   4.800   5.426   5.233
 4710SOL     OW15028   5.344   0.160   6.103
 4710SOL    HW115029   5.367   0.155   6.006
 4710SOL    HW215030   5.406   0.102   6.156
 4711SOL     OW15031   6.490   1.717   1.436
 4711SOL    HW115032   6.527   1.720   1.343
 4711SOL    HW215033   6.391   1.726   1.433
 4712SOL     OW15034   3.183   4.839   6.735
 4712SOL    HW115035   3.122   4.761   6.717
 4712SOL    HW215036   3.142   4.923   6.699
 4713SOL     OW15037   3.823   4.667   1.005
 4713SOL    HW115038   3.784   4.737   1.064
 4713SOL    HW215039   3.858   4.709   0.921
 4714SOL     OW15040   0.625   1.359   6.158
 4714SOL    HW115041   0.720   1.372   6.131
 4714SOL    HW215042   0.567   1.421   6.104
 4715SOL     OW15043   6.101   3.173   1.374
 4715SOL    HW115044   6.120   3.089   1.323
 4715SOL    HW215045   6.003   3.191   1.374
 4716SOL     OW15046   4.358   6.444   5.552
 4716SOL    HW115047   4.428   6.407   5.613
 4716SOL    HW215048   4.317   6.369   5.499
 4717SOL     OW15049   0.983   5.987   4.876
 4717SOL    HW115050   1.018   5.897   4.900
 4717SOL    HW215051   1.011   6.054   4.945
 4718SOL     OW15052   5.436   1.732   1.092
 4718SOL    HW115053   5.390   1.794   1.155
 4718SOL    HW215054   5.535   1.739   1.105
 4719SOL     OW15055   4.892   3.793   2.216
 4719SOL    HW115056   4.824   3.719   2.220
 4719SOL    HW215057   4.969   3.764   2.160
 4720SOL     OW15058   2.033   5.312   6.038
 4720SOL    HW115059   2.059   5.233   5.982
 4720SOL    HW215060   1.956   5.359   5.996
 4721SOL     OW15061   6.484   1.878   1.760
 4721SOL    HW115062   6.502   1.886   1.661
 4721SOL    HW215063   6.491   1.969   1.801
 4722SOL     OW15064   1.118   6.165   6.882
 4722SOL    HW115065   1.040   6.126   6.931
 4722SOL    HW215066   1.108   6.147   6.784
 4723SOL     OW15067   2.755   3.469   5.506
 4723SOL    HW115068   2.746   3.539   5.577
 4723SOL    HW215069   2.818   3.398   5.538
 4724SOL     OW15070   6.944   6.735   4.039
 4724SOL    HW115071   6.981   6.816   3.992
 4724SOL    HW215072   7.017   6.667   4.049
 4725SOL     OW15073   6.431   4.964   0.287
 4725SOL    HW115074   6.455   4.876   0.246
 4725SOL    HW215075   6.502   5.031   0.266
 4726SOL     OW15076   1.481   3.036   6.208
 4726SOL    HW115077   1.482   3.135   6.219
 4726SOL    HW215078   1.482   3.013   6.111
 4727SOL     OW15079   0.704   6.307   1.240
 4727SOL    HW115080   0.667   6.247   1.311
 4727SOL    HW215081   0.674   6.275   1.150
 4728SOL     OW15082   6.245   0.804   2.835
 4728SOL    HW115083   6.270   0.820   2.740
 4728SOL    HW215084   6.247   0.706   2.855
 4729SOL     OW15085   4.923   1.002   0.592
 4729SOL    HW115086   5.010   0.962   0.620
 4729SOL    HW215087   4.865   0.931   0.553
 4730SOL     OW15088   3.278   6.007   5.208
 4730SOL    HW115089   3.344   6.078   5.230
 4730SOL    HW215090   3.265   5.947   5.287
 4731SOL     OW15091   2.831   1.133   0.675
 4731SOL    HW115092   2.854   1.211   0.618
 4731SOL    HW215093   2.735   1.109   0.662
 4732SOL     OW15094   0.886   3.456   5.351
 4732SOL    HW115095   0.944   3.395   5.404
 4732SOL    HW215096   0.884   3.547   5.393
 4733SOL     OW15097   1.537   3.770   3.820
 4733SOL    HW115098   1.598   3.695   3.847
 4733SOL    HW215099   1.581   3.825   3.749
 4734SOL     OW15100   4.340   3.387   0.279
 4734SOL    HW115101   4.366   3.366   0.373
 4734SOL    HW215102   4.292   3.310   0.240
 4735SOL     OW15103   6.826   5.847   4.093
 4735SOL    HW115104   6.737   5.801   4.087
 4735SOL    HW215105   6.815   5.944   4.075
 4736SOL     OW15106   5.464   1.713   6.037
 4736SOL    HW115107   5.376   1.735   5.994
 4736SOL    HW215108   5.528   1.787   6.022
 4737SOL     OW15109   2.769   4.357   0.957
 4737SOL    HW115110   2.721   4.377   0.872
 4737SOL    HW215111   2.708   4.373   1.035
 4738SOL     OW15112   2.484   6.618   3.338
 4738SOL    HW115113   2.452   6.530   3.373
 4738SOL    HW215114   2.518   6.606   3.244
 4739SOL     OW15115   5.469   1.658   2.967
 4739SOL    HW115116   5.513   1.570   2.985
 4739SOL    HW215117   5.539   1.729   2.955
 4740SOL     OW15118   0.123   0.552   0.978
 4740SOL    HW115119   0.047   0.614   0.997
 4740SOL    HW215120   0.207   0.589   1.018
 4741SOL     OW15121   4.371   3.307   1.412
 4741SOL    HW115122   4.396   3.390   1.463
 4741SOL    HW215123   4.453   3.255   1.389
 4742SOL     OW15124   2.704   6.545   1.521
 4742SOL    HW115125   2.639   6.479   1.484
 4742SOL    HW215126   2.768   6.574   1.450
 4743SOL     OW15127   1.634   2.911   5.144
 4743SOL    HW115128   1.545   2.950   5.121
 4743SOL    HW215129   1.681   2.883   5.061
 4744SOL     OW15130   2.478   3.898   6.016
 4744SOL    HW115131   2.458   3.829   6.086
 4744SOL    HW215132   2.408   3.895   5.945
 4745SOL     OW15133   2.648   5.188   5.568
 4745SOL    HW115134   2.651   5.106   5.510
 4745SOL    HW215135   2.607   5.264   5.517
 4746SOL     OW15136   5.826   6.385   2.555
 4746SOL    HW115137   5.741   6.334   2.545
 4746SOL    HW215138   5.904   6.323   2.545
 4747SOL     OW15139   1.324   3.882   0.219
 4747SOL    HW115140   1.409   3.878   0.272
 4747SOL    HW215141   1.253   3.829   0.266
 4748SOL     OW15142   1.451   5.183   0.612
 4748SOL    HW115143   1.440   5.231   0.524
 4748SOL    HW215144   1.457   5.250   0.686
 4749SOL     OW15145   2.696   6.184   5.280
 4749SOL    HW115146   2.672   6.280   5.274
 4749SOL    HW215147   2.795   6.175   5.288
 4750SOL     OW15148   0.251   3.506   4.464
 4750SOL    HW115149   0.312   3.581   4.442
 4750SOL    HW215150   0.301   3.436   4.515
 4751SOL     OW15151   2.697   2.819   0.395
 4751SOL    HW115152   2.792   2.848   0.399
 4751SOL    HW215153   2.688   2.742   0.332
 4752SOL     OW15154   2.862   0.219   0.433
 4752SOL    HW115155   2.918   0.144   0.468
 4752SOL    HW215156   2.804   0.254   0.507
 4753SOL     OW15157   5.714   0.146   4.550
 4753SOL    HW115158   5.639   0.080   4.546
 4753SOL    HW215159   5.788   0.116   4.489
 4754SOL     OW15160   5.858   0.513   5.053
 4754SOL    HW115161   5.890   0.585   4.991
 4754SOL    HW215162   5.835   0.553   5.141
 4755SOL     OW15163   3.000   0.740   1.095
 4755SOL    HW115164   2.927   0.741   1.027
 4755SOL    HW215165   2.962   0.720   1.185
 4756SOL     OW15166   6.029   2.911   1.251
 4756SOL    HW115167   6.097   2.840   1.235
 4756SOL    HW215168   5.972   2.886   1.330
 4757SOL     OW15169   1.659   2.366   1.771
 4757SOL    HW115170   1.750   2.404   1.791
 4757SOL    HW215171   1.590   2.418   1.820
 4758SOL     OW15172   2.654   5.900   4.503
 4758SOL    HW115173   2.753   5.890   4.497
 4758SOL    HW215174   2.610   5.837   4.438
 4759SOL     OW15175   5.723   5.395   4.502
 4759SOL    HW115176   5.716   5.455   4.582
 4759SOL    HW215177   5.717   5.300   4.531
 4760SOL     OW15178   3.680   1.982   0.887
 4760SOL    HW115179   3.684   2.005   0.790
 4760SOL    HW215180   3.771   1.955   0.919
 4761SOL     OW15181   0.621   6.594   6.323
 4761SOL    HW115182   0.658   6.501   6.322
 4761SOL    HW215183   0.576   6.613   6.236
 4762SOL     OW15184   2.147   5.277   3.116
 4762SOL    HW115185   2.144   5.377   3.122
 4762SOL    HW215186   2.226   5.249   3.062
 4763SOL     OW15187   6.125   6.445   3.773
 4763SOL    HW115188   6.136   6.450   3.674
 4763SOL    HW215189   6.088   6.355   3.798
 4764SOL     OW15190   4.987   4.144   5.755
 4764SOL    HW115191   4.969   4.224   5.812
 4764SOL    HW215192   4.904   4.089   5.746
 4765SOL     OW15193   5.193   0.524   4.622
 4765SOL    HW115194   5.245   0.501   4.704
 4765SOL    HW215195   5.217   0.461   4.548
 4766SOL     OW15196   4.531   0.174   3.989
 4766SOL    HW115197   4.464   0.239   3.954
 4766SOL    HW215198   4.501   0.139   4.078
 4767SOL     OW15199   3.945   4.944   5.818
 4767SOL    HW115200   3.924   5.019   5.881
 4767SOL    HW215201   3.860   4.900   5.789
 4768SOL     OW15202   4.364   1.766   4.968
 4768SOL    HW115203   4.453   1.731   4.997
 4768SOL    HW215204   4.374   1.822   4.886
 4769SOL     OW15205   4.897   4.708   0.143
 4769SOL    HW115206   4.945   4.742   0.062
 4769SOL    HW215207   4.933   4.752   0.225
 4770SOL     OW15208   0.875   0.758   4.596
 4770SOL    HW115209   0.937   0.680   4.593
 4770SOL    HW215210   0.783   0.727   4.623
 4771SOL     OW15211   3.337   5.330   5.410
 4771SOL    HW115212   3.251   5.318   5.461
 4771SOL    HW215213   3.413   5.334   5.475
 4772SOL     OW15214   3.033   5.065   1.550
 4772SOL    HW115215   3.008   5.161   1.540
 4772SOL    HW215216   3.009   5.033   1.642
 4773SOL     OW15217   6.538   5.485   4.801
 4773SOL    HW115218   6.440   5.505   4.802
 4773SOL    HW215219   6.588   5.562   4.762
 4774SOL     OW15220   1.223   2.356   1.707
 4774SOL    HW115221   1.250   2.353   1.610
 4774SOL    HW215222   1.135   2.402   1.716
 4775SOL     OW15223   5.177   6.625   2.383
 4775SOL    HW115224   5.263   6.640   2.431
 4775SOL    HW215225   5.164   6.528   2.367
 4776SOL     OW15226   0.912   6.347   5.017
 4776SOL    HW115227   0.926   6.408   5.094
 4776SOL    HW215228   0.945   6.255   5.040
 4777SOL     OW15229   2.760   4.463   1.534
 4777SOL    HW115230   2.790   4.383   1.483
 4777SOL    HW215231   2.719   4.435   1.620
 4778SOL     OW15232   6.235   2.811   2.333
 4778SOL    HW115233   6.229   2.773   2.241
 4778SOL    HW215234   6.324   2.790   2.372
 4779SOL     OW15235   6.497   6.461   2.491
 4779SOL    HW115236   6.459   6.487   2.402
 4779SOL    HW215237   6.597   6.474   2.489
 4780SOL     OW15238   6.782   0.639   0.574
 4780SOL    HW115239   6.741   0.595   0.494
 4780SOL    HW215240   6.853   0.703   0.544
 4781SOL     OW15241   2.849   6.395   1.965
 4781SOL    HW115242   2.778   6.415   1.896
 4781SOL    HW215243   2.937   6.385   1.919
 4782SOL     OW15244   4.380   6.158   0.174
 4782SOL    HW115245   4.384   6.124   0.080
 4782SOL    HW215246   4.287   6.149   0.209
 4783SOL     OW15247   4.776   4.788   6.676
 4783SOL    HW115248   4.731   4.699   6.664
 4783SOL    HW215249   4.759   4.821   6.769
 4784SOL     OW15250   6.229   4.294   6.524
 4784SOL    HW115251   6.182   4.367   6.475
 4784SOL    HW215252   6.282   4.239   6.460
 4785SOL     OW15253   5.741   5.513   1.457
 4785SOL    HW115254   5.815   5.577   1.436
 4785SOL    HW215255   5.677   5.508   1.381
 4786SOL     OW15256   2.425   2.182   1.335
 4786SOL    HW115257   2.446   2.116   1.263
 4786SOL    HW215258   2.335   2.221   1.319
 4787SOL     OW15259   3.519   2.070   3.457
 4787SOL    HW115260   3.607   2.101   3.422
 4787SOL    HW215261   3.447   2.092   3.391
 4788SOL     OW15262   1.233   5.021   5.922
 4788SOL    HW115263   1.133   5.016   5.917
 4788SOL    HW215264   1.259   5.081   5.998
 4789SOL     OW15265   5.735   1.073   0.278
 4789SOL    HW115266   5.676   1.093   0.200
 4789SOL    HW215267   5.747   0.974   0.288
 4790SOL     OW15268   0.460   2.934   5.657
 4790SOL    HW115269   0.445   2.909   5.753
 4790SOL    HW215270   0.459   2.851   5.601
 4791SOL     OW15271   6.390   1.781   0.955
 4791SOL    HW115272   6.338   1.863   0.931
 4791SOL    HW215273   6.443   1.751   0.876
 4792SOL     OW15274   2.174   3.068   2.891
 4792SOL    HW115275   2.161   3.160   2.854
 4792SOL    HW215276   2.201   3.006   2.818
 4793SOL     OW15277   1.842   2.690   6.115
 4793SOL    HW115278   1.764   2.658   6.062
 4793SOL    HW215279   1.816   2.696   6.212
 4794SOL     OW15280   4.692   0.333   3.223
 4794SOL    HW115281   4.665   0.410   3.281
 4794SOL    HW215282   4.629   0.257   3.237
 4795SOL     OW15283   6.952   1.421   3.500
 4795SOL    HW115284   6.999   1.474   3.570
 4795SOL    HW215285   6.868   1.382   3.539
 4796SOL     OW15286   5.017   1.769   6.522
 4796SOL    HW115287   5.063   1.852   6.555
 4796SOL    HW215288   4.927   1.762   6.564
 4797SOL     OW15289   1.860   6.341   5.819
 4797SOL    HW115290   1.877   6.409   5.891
 4797SOL    HW215291   1.947   6.306   5.784
 4798SOL     OW15292   0.027   2.928   4.976
 4798SOL    HW115293   6.985   2.903   4.908
 4798SOL    HW215294   0.024   2.862   5.052
 4799SOL     OW15295   4.607   2.430   6.645
 4799SOL    HW115296   4.529   2.459   6.701
 4799SOL    HW215297   4.686   2.489   6.665
 4800SOL     OW15298   2.494   3.369   5.746
 4800SOL    HW115299   2.506   3.318   5.831
 4800SOL    HW215300   2.579   3.417   5.724
 4801SOL     OW15301   2.710   2.255   1.150
 4801SOL    HW115302   2.800   2.276   1.188
 4801SOL    HW215303   2.670   2.338   1.111
 4802SOL     OW15304   0.830   6.356   2.403
 4802SOL    HW115305   0.864   6.277   2.353
 4802SOL    HW215306   0.822   6.334   2.500
 4803SOL     OW15307   1.576   6.255   0.600
 4803SOL    HW115308   1.596   6.312   0.680
 4803SOL    HW215309   1.479   6.262   0.577
 4804SOL     OW15310   4.946   5.683   6.516
 4804SOL    HW115311   5.000   5.613   6.562
 4804SOL    HW215312   4.989   5.708   6.430
 4805SOL     OW15313   5.823   0.490   1.179
 4805SOL    HW115314   5.732   0.460   1.152
 4805SOL    HW215315   5.869   0.532   1.101
 4806SOL     OW15316   1.123   4.870   2.704
 4806SOL    HW115317   1.054   4.797   2.710
 4806SOL    HW215318   1.199   4.848   2.766
 4807SOL     OW15319   0.871   4.950   0.272
 4807SOL    HW115320   0.881   5.020   0.343
 4807SOL    HW215321   0.777   4.915   0.274
 4808SOL     OW15322   6.145   3.682   6.442
 4808SOL    HW115323   6.143   3.700   6.540
 4808SOL    HW215324   6.079   3.611   6.419
 4809SOL     OW15325   3.485   4.329   0.231
 4809SOL    HW115326   3.458   4.391   0.157
 4809SOL    HW215327   3.534   4.251   0.192
 4810SOL     OW15328   0.851   5.219   2.437
 4810SOL    HW115329   0.797   5.298   2.408
 4810SOL    HW215330   0.941   5.223   2.394
 4811SOL     OW15331   1.690   4.700   2.153
 4811SOL    HW115332   1.768   4.706   2.090
 4811SOL    HW215333   1.613   4.658   2.105
 4812SOL     OW15334   6.728   4.959   4.810
 4812SOL    HW115335   6.770   4.996   4.893
 4812SOL    HW215336   6.748   4.861   4.803
 4813SOL     OW15337   5.783   2.051   0.523
 4813SOL    HW115338   5.850   2.107   0.475
 4813SOL    HW215339   5.775   2.082   0.618
 4814SOL     OW15340   5.905   4.041   0.789
 4814SOL    HW115341   5.979   3.975   0.803
 4814SOL    HW215342   5.936   4.115   0.729
 4815SOL     OW15343   5.846   4.263   3.333
 4815SOL    HW115344   5.902   4.316   3.397
 4815SOL    HW215345   5.777   4.212   3.384
 4816SOL     OW15346   0.556   5.182   1.485
 4816SOL    HW115347   0.636   5.223   1.530
 4816SOL    HW215348   0.550   5.216   1.391
 4817SOL     OW15349   1.059   2.382   6.757
 4817SOL    HW115350   0.980   2.324   6.738
 4817SOL    HW215351   1.034   2.478   6.743
 4818SOL     OW15352   1.132   0.601   5.050
 4818SOL    HW115353   1.085   0.542   5.116
 4818SOL    HW215354   1.210   0.552   5.011
 4819SOL     OW15355   1.047   2.457   0.031
 4819SOL    HW115356   1.050   2.460   6.959
 4819SOL    HW215357   1.023   2.365   0.062
 4820SOL     OW15358   6.600   2.544   1.060
 4820SOL    HW115359   6.503   2.536   1.085
 4820SOL    HW215360   6.613   2.628   1.007
 4821SOL     OW15361   1.479   6.279   2.578
 4821SOL    HW115362   1.517   6.277   2.486
 4821SOL    HW215363   1.424   6.197   2.593
 4822SOL     OW15364   1.955   3.052   4.483
 4822SOL    HW115365   1.928   2.986   4.554
 4822SOL    HW215366   2.042   3.093   4.508
 4823SOL     OW15367   1.699   1.208   4.142
 4823SOL    HW115368   1.774   1.144   4.128
 4823SOL    HW215369   1.732   1.302   4.132
 4824SOL     OW15370   4.952   2.911   5.128
 4824SOL    HW115371   5.049   2.890   5.125
 4824SOL    HW215372   4.939   3.010   5.117
 4825SOL     OW15373   1.204   2.759   4.214
 4825SOL    HW115374   1.289   2.739   4.166
 4825SOL    HW215375   1.221   2.760   4.312
 4826SOL     OW15376   5.339   0.547   0.341
 4826SOL    HW115377   5.397   0.469   0.317
 4826SOL    HW215378   5.385   0.632   0.317
 4827SOL     OW15379   6.085   1.662   0.717
 4827SOL    HW115380   5.987   1.648   0.709
 4827SOL    HW215381   6.131   1.573   0.727
 4828SOL     OW15382   4.942   1.616   0.439
 4828SOL    HW115383   4.860   1.671   0.451
 4828SOL    HW215384   4.916   1.520   0.424
 4829SOL     OW15385   3.033   0.256   5.719
 4829SOL    HW115386   3.055   0.230   5.813
 4829SOL    HW215387   3.052   0.353   5.707
 4830SOL     OW15388   3.627   5.725   4.313
 4830SOL    HW115389   3.539   5.712   4.267
 4830SOL    HW215390   3.668   5.636   4.332
 4831SOL     OW15391   1.371   4.699   5.775
 4831SOL    HW115392   1.403   4.772   5.835
 4831SOL    HW215393   1.356   4.616   5.830
 4832SOL     OW15394   3.289   4.139   3.534
 4832SOL    HW115395   3.198   4.173   3.555
 4832SOL    HW215396   3.283   4.066   3.466
 4833SOL     OW15397   6.349   1.428   3.355
 4833SOL    HW115398   6.315   1.450   3.446
 4833SOL    HW215399   6.435   1.377   3.362
 4834SOL     OW15400   2.681   5.488   1.942
 4834SOL    HW115401   2.739   5.524   1.869
 4834SOL    HW215402   2.595   5.454   1.903
 4835SOL     OW15403   5.803   2.814   5.511
 4835SOL    HW115404   5.794   2.718   5.536
 4835SOL    HW215405   5.733   2.838   5.443
 4836SOL     OW15406   5.131   1.754   4.657
 4836SOL    HW115407   5.059   1.802   4.707
 4836SOL    HW215408   5.117   1.765   4.559
 4837SOL     OW15409   0.037   3.467   2.802
 4837SOL    HW115410   6.992   3.434   2.741
 4837SOL    HW215411   0.102   3.392   2.819
 4838SOL     OW15412   2.120   6.055   0.405
 4838SOL    HW115413   2.055   5.986   0.439
 4838SOL    HW215414   2.078   6.145   0.412
 4839SOL     OW15415   0.734   3.505   0.345
 4839SOL    HW115416   0.765   3.411   0.329
 4839SOL    HW215417   0.769   3.537   0.432
 4840SOL     OW15418   6.522   4.623   6.105
 4840SOL    HW115419   6.583   4.666   6.171
 4840SOL    HW215420   6.441   4.680   6.093
 4841SOL     OW15421   2.336   5.234   2.922
 4841SOL    HW115422   2.424   5.188   2.931
 4841SOL    HW215423   2.349   5.320   2.873
 4842SOL     OW15424   2.618   5.179   2.977
 4842SOL    HW115425   2.593   5.143   3.067
 4842SOL    HW215426   2.695   5.242   2.987
 4843SOL     OW15427   6.223   2.477   1.673
 4843SOL    HW115428   6.161   2.399   1.665
 4843SOL    HW215429   6.313   2.445   1.703
 4844SOL     OW15430   0.360   3.932   6.044
 4844SOL    HW115431   0.355   3.914   6.142
 4844SOL    HW215432   0.445   3.894   6.007
 4845SOL     OW15433   4.812   4.964   6.361
 4845SOL    HW115434   4.742   4.966   6.433
 4845SOL    HW215435   4.902   4.974   6.402
 4846SOL     OW15436   0.344   2.617   3.774
 4846SOL    HW115437   0.398   2.552   3.721
 4846SOL    HW215438   0.248   2.608   3.750
 4847SOL     OW15439   2.101   1.404   6.187
 4847SOL    HW115440   2.105   1.353   6.100
 4847SOL    HW215441   2.145   1.493   6.175
 4848SOL     OW15442   2.495   0.936   4.895
 4848SOL    HW115443   2.490   0.890   4.806
 4848SOL    HW215444   2.570   1.003   4.894
 4849SOL     OW15445   1.572   5.601   1.139
 4849SOL    HW115446   1.510   5.661   1.090
 4849SOL    HW215447   1.520   5.533   1.191
 4850SOL     OW15448   4.853   0.844   1.668
 4850SOL    HW115449   4.807   0.784   1.603
 4850SOL    HW215450   4.810   0.934   1.667
 4851SOL     OW15451   2.926   5.430   5.732
 4851SOL    HW115452   2.996   5.448   5.802
 4851SOL    HW215453   2.912   5.331   5.724
 4852SOL     OW15454   2.240   5.577   5.199
 4852SOL    HW115455   2.179   5.518   5.146
 4852SOL    HW215456   2.202   5.670   5.204
 4853SOL     OW15457   4.008   1.486   3.207
 4853SOL    HW115458   3.947   1.516   3.133
 4853SOL    HW215459   4.009   1.386   3.210
 4854SOL     OW15460   5.013   0.174   2.100
 4854SOL    HW115461   4.919   0.200   2.077
 4854SOL    HW215462   5.050   0.237   2.169
 4855SOL     OW15463   6.157   3.448   5.959
 4855SOL    HW115464   6.083   3.510   5.984
 4855SOL    HW215465   6.197   3.476   5.872
 4856SOL     OW15466   1.396   3.050   2.999
 4856SOL    HW115467   1.307   3.074   3.038
 4856SOL    HW215468   1.452   3.132   2.989
 4857SOL     OW15469   2.873   2.173   3.435
 4857SOL    HW115470   2.927   2.200   3.515
 4857SOL    HW215471   2.781   2.213   3.443
 4858SOL     OW15472   6.950   6.411   5.000
 4858SOL    HW115473   6.860   6.383   4.967
 4858SOL    HW215474   7.002   6.449   4.923
 4859SOL     OW15475   0.224   4.677   1.717
 4859SOL    HW115476   0.230   4.580   1.691
 4859SOL    HW215477   0.224   4.685   1.817
 4860SOL     OW15478   4.442   4.233   0.064
 4860SOL    HW115479   4.485   4.190   0.143
 4860SOL    HW215480   4.479   4.193   7.007
 4861SOL     OW15481   5.914   5.784   6.362
 4861SOL    HW115482   5.849   5.846   6.405
 4861SOL    HW215483   5.865   5.705   6.326
 4862SOL     OW15484   2.428   4.779   5.285
 4862SOL    HW115485   2.381   4.792   5.198
 4862SOL    HW215486   2.522   4.747   5.268
 4863SOL     OW15487   5.035   2.846   2.549
 4863SOL    HW115488   5.096   2.777   2.588
 4863SOL    HW215489   5.024   2.829   2.451
 4864SOL     OW15490   3.515   1.426   2.037
 4864SOL    HW115491   3.474   1.514   2.010
 4864SOL    HW215492   3.489   1.356   1.971
 4865SOL     OW15493   2.377   5.651   4.853
 4865SOL    HW115494   2.470   5.687   4.862
 4865SOL    HW215495   2.318   5.720   4.813
 4866SOL     OW15496   5.820   4.576   1.156
 4866SOL    HW115497   5.780   4.617   1.074
 4866SOL    HW215498   5.792   4.481   1.162
 4867SOL     OW15499   4.758   5.840   3.437
 4867SOL    HW115500   4.751   5.844   3.337
 4867SOL    HW215501   4.744   5.746   3.467
 4868SOL     OW15502   6.957   5.412   1.569
 4868SOL    HW115503   6.928   5.493   1.620
 4868SOL    HW215504   0.029   5.414   1.557
 4869SOL     OW15505   0.035   2.480   1.062
 4869SOL    HW115506   0.104   2.488   0.990
 4869SOL    HW215507   0.071   2.517   1.148
 4870SOL     OW15508   5.225   5.385   1.692
 4870SOL    HW115509   5.256   5.475   1.724
 4870SOL    HW215510   5.154   5.398   1.623
 4871SOL     OW15511   0.424   1.188   4.383
 4871SOL    HW115512   0.483   1.269   4.385
 4871SOL    HW215513   0.338   1.207   4.430
 4872SOL     OW15514   0.663   6.093   4.089
 4872SOL    HW115515   0.575   6.090   4.137
 4872SOL    HW215516   0.694   6.188   4.082
 4873SOL     OW15517   0.028   4.877   4.180
 4873SOL    HW115518   0.086   4.958   4.191
 4873SOL    HW215519   6.989   4.874   4.255
 4874SOL     OW15520   5.909   3.724   2.449
 4874SOL    HW115521   5.954   3.773   2.374
 4874SOL    HW215522   5.813   3.750   2.453
 4875SOL     OW15523   5.369   2.200   1.243
 4875SOL    HW115524   5.305   2.275   1.227
 4875SOL    HW215525   5.320   2.113   1.243
 4876SOL     OW15526   6.207   0.641   4.579
 4876SOL    HW115527   6.223   0.551   4.619
 4876SOL    HW215528   6.275   0.659   4.508
 4877SOL     OW15529   6.883   1.541   0.741
 4877SOL    HW115530   6.936   1.496   0.669
 4877SOL    HW215531   6.803   1.484   0.763
 4878SOL     OW15532   6.126   1.884   2.251
 4878SOL    HW115533   6.095   1.908   2.343
 4878SOL    HW215534   6.198   1.814   2.258
 4879SOL     OW15535   4.430   5.546   3.322
 4879SOL    HW115536   4.401   5.633   3.283
 4879SOL    HW215537   4.425   5.550   3.422
 4880SOL     OW15538   5.058   3.006   6.477
 4880SOL    HW115539   5.115   3.082   6.510
 4880SOL    HW215540   5.049   2.938   6.549
 4881SOL     OW15541   2.252   6.094   0.189
 4881SOL    HW115542   2.186   6.073   0.261
 4881SOL    HW215543   2.231   6.041   0.107
 4882SOL     OW15544   5.949   1.153   4.411
 4882SOL    HW115545   6.000   1.071   4.384
 4882SOL    HW215546   5.935   1.153   4.510
 4883SOL     OW15547   5.408   4.695   2.586
 4883SOL    HW115548   5.488   4.738   2.628
 4883SOL    HW215549   5.437   4.638   2.510
 4884SOL     OW15550   4.324   0.218   0.631
 4884SOL    HW115551   4.415   0.257   0.623
 4884SOL    HW215552   4.261   0.287   0.666
 4885SOL     OW15553   2.751   6.282   2.516
 4885SOL    HW115554   2.848   6.261   2.527
 4885SOL    HW215555   2.696   6.205   2.548
 4886SOL     OW15556   0.121   5.763   6.255
 4886SOL    HW115557   0.061   5.843   6.260
 4886SOL    HW215558   0.151   5.749   6.161
 4887SOL     OW15559   0.268   1.580   2.648
 4887SOL    HW115560   0.348   1.612   2.596
 4887SOL    HW215561   0.188   1.577   2.588
 4888SOL     OW15562   1.806   6.572   4.312
 4888SOL    HW115563   1.753   6.654   4.296
 4888SOL    HW215564   1.792   6.541   4.406
 4889SOL     OW15565   0.245   1.399   6.800
 4889SOL    HW115566   0.278   1.322   6.746
 4889SOL    HW215567   0.321   1.463   6.815
 4890SOL     OW15568   0.404   2.452   5.245
 4890SOL    HW115569   0.348   2.531   5.217
 4890SOL    HW215570   0.490   2.484   5.283
 4891SOL     OW15571   1.315   5.955   0.339
 4891SOL    HW115572   1.380   6.031   0.338
 4891SOL    HW215573   1.236   5.977   0.282
 4892SOL     OW15574   2.502   6.033   2.192
 4892SOL    HW115575   2.510   5.934   2.189
 4892SOL    HW215576   2.586   6.075   2.157
 4893SOL     OW15577   6.099   4.666   6.803
 4893SOL    HW115578   6.043   4.677   6.884
 4893SOL    HW215579   6.041   4.647   6.724
 4894SOL     OW15580   2.480   0.878   2.041
 4894SOL    HW115581   2.383   0.869   2.016
 4894SOL    HW215582   2.520   0.956   1.993
 4895SOL     OW15583   0.103   4.722   1.225
 4895SOL    HW115584   0.088   4.731   1.324
 4895SOL    HW215585   0.026   4.761   1.176
 4896SOL     OW15586   2.293   5.340   2.492
 4896SOL    HW115587   2.196   5.330   2.514
 4896SOL    HW215588   2.306   5.332   2.393
 4897SOL     OW15589   2.869   5.406   6.265
 4897SOL    HW115590   2.918   5.449   6.342
 4897SOL    HW215591   2.771   5.407   6.284
 4898SOL     OW15592   6.008   1.601   5.406
 4898SOL    HW115593   5.910   1.585   5.418
 4898SOL    HW215594   6.025   1.635   5.314
 4899SOL     OW15595   6.132   4.451   2.982
 4899SOL    HW115596   6.163   4.533   3.031
 4899SOL    HW215597   6.091   4.387   3.047
 4900SOL     OW15598   1.975   6.234   5.175
 4900SOL    HW115599   1.878   6.233   5.202
 4900SOL    HW215600   2.025   6.299   5.231
 4901SOL     OW15601   2.365   6.747   5.330
 4901SOL    HW115602   2.279   6.798   5.323
 4901SOL    HW215603   2.404   6.761   5.421
 4902SOL     OW15604   2.147   2.419   4.578
 4902SOL    HW115605   2.139   2.498   4.518
 4902SOL    HW215606   2.059   2.371   4.583
 4903SOL     OW15607   3.312   6.855   0.054
 4903SOL    HW115608   3.220   6.892   0.039
 4903SOL    HW215609   3.352   6.831   6.993
 4904SOL     OW15610   1.917   0.081   3.750
 4904SOL    HW115611   1.842   0.141   3.776
 4904SOL    HW215612   2.004   0.122   3.780
 4905SOL     OW15613   4.146   2.259   2.566
 4905SOL    HW115614   4.226   2.297   2.519
 4905SOL    HW215615   4.176   2.185   2.626
 4906SOL     OW15616   3.341   1.111   6.563
 4906SOL    HW115617   3.253   1.122   6.518
 4906SOL    HW215618   3.343   1.024   6.613
 4907SOL     OW15619   4.248   6.061   2.340
 4907SOL    HW115620   4.191   6.071   2.421
 4907SOL    HW215621   4.339   6.030   2.367
 4908SOL     OW15622   4.080   5.071   6.797
 4908SOL    HW115623   4.002   5.080   6.736
 4908SOL    HW215624   4.084   4.978   6.834
 4909SOL     OW15625   6.091   6.965   6.267
 4909SOL    HW115626   6.094   0.036   6.252
 4909SOL    HW215627   6.181   6.926   6.249
 4910SOL     OW15628   5.824   6.948   4.874
 4910SOL    HW115629   5.735   6.908   4.851
 4910SOL    HW215630   5.809   0.005   4.926
 4911SOL     OW15631   6.825   2.610   5.809
 4911SOL    HW115632   6.910   2.660   5.792
 4911SOL    HW215633   6.748   2.674   5.805
 4912SOL     OW15634   5.179   1.584   1.254
 4912SOL    HW115635   5.249   1.513   1.268
 4912SOL    HW215636   5.224   1.671   1.232
 4913SOL     OW15637   3.673   3.343   3.649
 4913SOL    HW115638   3.721   3.427   3.624
 4913SOL    HW215639   3.576   3.351   3.624
 4914SOL     OW15640   3.852   1.023   4.892
 4914SOL    HW115641   3.755   1.006   4.911
 4914SOL    HW215642   3.863   1.050   4.796
 4915SOL     OW15643   4.738   0.864   4.972
 4915SOL    HW115644   4.787   0.849   4.886
 4915SOL    HW215645   4.801   0.852   5.048
 4916SOL     OW15646   1.841   1.369   3.146
 4916SOL    HW115647   1.839   1.270   3.156
 4916SOL    HW215648   1.891   1.393   3.063
 4917SOL     OW15649   1.927   3.981   0.425
 4917SOL    HW115650   2.009   4.007   0.476
 4917SOL    HW215651   1.878   3.909   0.475
 4918SOL     OW15652   3.053   0.154   2.744
 4918SOL    HW115653   3.131   0.104   2.782
 4918SOL    HW215654   3.071   0.252   2.747
 4919SOL     OW15655   2.692   2.000   1.389
 4919SOL    HW115656   2.620   2.055   1.345
 4919SOL    HW215657   2.689   1.907   1.353
 4920SOL     OW15658   3.954   0.545   6.971
 4920SOL    HW115659   3.940   0.558   6.873
 4920SOL    HW215660   4.046   0.509   6.987
 4921SOL     OW15661   1.893   3.926   1.503
 4921SOL    HW115662   1.865   3.943   1.408
 4921SOL    HW215663   1.817   3.948   1.564
 4922SOL     OW15664   1.266   3.222   4.946
 4922SOL    HW115665   1.179   3.193   4.906
 4922SOL    HW215666   1.340   3.201   4.882
 4923SOL     OW15667   4.357   0.637   1.272
 4923SOL    HW115668   4.347   0.713   1.208
 4923SOL    HW215669   4.379   0.673   1.363
 4924SOL     OW15670   2.021   2.893   6.069
 4924SOL    HW115671   1.976   2.983   6.065
 4924SOL    HW215672   1.954   2.823   6.091
 4925SOL     OW15673   6.416   6.489   0.529
 4925SOL    HW115674   6.495   6.474   0.589
 4925SOL    HW215675   6.430   6.438   0.444
 4926SOL     OW15676   5.438   3.017   1.458
 4926SOL    HW115677   5.392   3.039   1.544
 4926SOL    HW215678   5.371   3.014   1.384
 4927SOL     OW15679   4.016   3.252   3.864
 4927SOL    HW115680   3.940   3.279   3.922
 4927SOL    HW215681   4.068   3.179   3.908
 4928SOL     OW15682   0.565   6.659   6.955
 4928SOL    HW115683   0.549   6.571   6.998
 4928SOL    HW215684   0.616   6.645   6.869
 4929SOL     OW15685   1.121   4.222   5.457
 4929SOL    HW115686   1.186   4.274   5.511
 4929SOL    HW215687   1.049   4.283   5.424
 4930SOL     OW15688   6.832   0.172   1.394
 4930SOL    HW115689   6.853   0.108   1.321
 4930SOL    HW215690   6.916   0.212   1.430
 4931SOL     OW15691   0.613   6.618   0.689
 4931SOL    HW115692   0.698   6.664   0.716
 4931SOL    HW215693   0.635   6.528   0.651
 4932SOL     OW15694   2.313   3.287   1.668
 4932SOL    HW115695   2.336   3.375   1.709
 4932SOL    HW215696   2.214   3.283   1.650
 4933SOL     OW15697   2.455   0.258   4.242
 4933SOL    HW115698   2.419   0.346   4.273
 4933SOL    HW215699   2.554   0.256   4.258
 4934SOL     OW15700   1.206   5.273   3.788
 4934SOL    HW115701   1.304   5.287   3.770
 4934SOL    HW215702   1.191   5.270   3.887
 4935SOL     OW15703   0.991   0.997   6.986
 4935SOL    HW115704   1.000   0.976   6.888
 4935SOL    HW215705   0.940   1.082   6.998
 4936SOL     OW15706   2.121   5.185   1.996
 4936SOL    HW115707   2.075   5.146   1.916
 4936SOL    HW215708   2.139   5.113   2.063
 4937SOL     OW15709   0.731   3.801   6.013
 4937SOL    HW115710   0.647   3.760   5.979
 4937SOL    HW215711   0.709   3.872   6.080
 4938SOL     OW15712   3.732   5.227   1.585
 4938SOL    HW115713   3.680   5.304   1.622
 4938SOL    HW215714   3.747   5.160   1.658
 4939SOL     OW15715   1.432   1.999   3.457
 4939SOL    HW115716   1.513   1.991   3.517
 4939SOL    HW215717   1.442   2.078   3.397
 4940SOL     OW15718   0.044   1.416   5.746
 4940SOL    HW115719   6.981   1.374   5.751
 4940SOL    HW215720   0.064   1.439   5.651
 4941SOL     OW15721   4.219   2.704   5.411
 4941SOL    HW115722   4.151   2.775   5.396
 4941SOL    HW215723   4.215   2.638   5.335
 4942SOL     OW15724   5.242   3.098   4.338
 4942SOL    HW115725   5.299   3.017   4.329
 4942SOL    HW215726   5.292   3.169   4.388
 4943SOL     OW15727   4.867   3.946   6.067
 4943SOL    HW115728   4.827   3.919   6.154
 4943SOL    HW215729   4.829   3.890   5.993
 4944SOL     OW15730   2.230   4.555   1.927
 4944SOL    HW115731   2.298   4.488   1.954
 4944SOL    HW215732   2.217   4.552   1.827
 4945SOL     OW15733   1.075   0.347   4.893
 4945SOL    HW115734   1.113   0.349   4.985
 4945SOL    HW215735   0.978   0.323   4.898
 4946SOL     OW15736   1.091   5.410   0.088
 4946SOL    HW115737   1.021   5.346   0.055
 4946SOL    HW215738   1.168   5.359   0.126
 4947SOL     OW15739   2.401   1.417   1.391
 4947SOL    HW115740   2.402   1.431   1.292
 4947SOL    HW215741   2.309   1.433   1.426
 4948SOL     OW15742   1.979   2.752   2.909
 4948SOL    HW115743   2.025   2.817   2.970
 4948SOL    HW215744   1.914   2.802   2.850
 4949SOL     OW15745   0.355   3.936   5.113
 4949SOL    HW115746   0.301   3.880   5.051
 4949SOL    HW215747   0.298   4.008   5.151
 4950SOL     OW15748   2.418   4.070   5.671
 4950SOL    HW115749   2.503   4.085   5.621
 4950SOL    HW215750   2.355   4.145   5.654
 4951SOL     OW15751   6.395   6.797   4.590
 4951SOL    HW115752   6.453   6.741   4.532
 4951SOL    HW215753   6.306   6.752   4.602
 4952SOL     OW15754   0.448   6.827   6.132
 4952SOL    HW115755   0.399   6.889   6.193
 4952SOL    HW215756   0.407   6.830   6.041
 4953SOL     OW15757   1.552   0.178   3.017
 4953SOL    HW115758   1.475   0.128   3.056
 4953SOL    HW215759   1.597   0.122   2.948
 4954SOL     OW15760   3.165   3.664   6.564
 4954SOL    HW115761   3.137   3.693   6.656
 4954SOL    HW215762   3.149   3.738   6.499
 4955SOL     OW15763   3.228   6.435   0.247
 4955SOL    HW115764   3.252   6.369   0.176
 4955SOL    HW215765   3.129   6.440   0.255
 4956SOL     OW15766   2.713   0.271   5.163
 4956SOL    HW115767   2.798   0.225   5.137
 4956SOL    HW215768   2.726   0.370   5.163
 4957SOL     OW15769   5.257   3.322   0.382
 4957SOL    HW115770   5.170   3.275   0.396
 4957SOL    HW215771   5.326   3.256   0.354
 4958SOL     OW15772   1.596   5.655   6.124
 4958SOL    HW115773   1.517   5.674   6.183
 4958SOL    HW215774   1.567   5.599   6.047
 4959SOL     OW15775   6.217   1.115   1.266
 4959SOL    HW115776   6.268   1.139   1.184
 4959SOL    HW215777   6.119   1.112   1.244
 4960SOL     OW15778   4.208   4.781   4.127
 4960SOL    HW115779   4.232   4.684   4.127
 4960SOL    HW215780   4.181   4.808   4.220
 4961SOL     OW15781   3.028   0.371   6.267
 4961SOL    HW115782   3.109   0.377   6.208
 4961SOL    HW215783   2.966   0.301   6.232
 4962SOL     OW15784   5.706   2.593   0.859
 4962SOL    HW115785   5.694   2.618   0.763
 4962SOL    HW215786   5.768   2.658   0.903
 4963SOL     OW15787   1.095   5.262   0.483
 4963SOL    HW115788   1.105   5.165   0.501
 4963SOL    HW215789   1.144   5.286   0.399
 4964SOL     OW15790   2.624   0.002   4.255
 4964SOL    HW115791   2.629   0.097   4.286
 4964SOL    HW215792   2.557   6.979   4.309
 4965SOL     OW15793   1.238   6.512   2.548
 4965SOL    HW115794   1.304   6.482   2.617
 4965SOL    HW215795   1.257   6.466   2.461
 4966SOL     OW15796   3.066   6.670   5.007
 4966SOL    HW115797   3.028   6.646   4.918
 4966SOL    HW215798   3.044   6.598   5.073
 4967SOL     OW15799   2.896   5.155   5.683
 4967SOL    HW115800   2.809   5.173   5.636
 4967SOL    HW215801   2.928   5.064   5.658
 4968SOL     OW15802   0.576   1.428   3.590
 4968SOL    HW115803   0.641   1.412   3.664
 4968SOL    HW215804   0.590   1.519   3.552
 4969SOL     OW15805   1.332   6.071   2.658
 4969SOL    HW115806   1.307   6.100   2.751
 4969SOL    HW215807   1.301   5.977   2.643
 4970SOL     OW15808   2.445   1.732   1.156
 4970SOL    HW115809   2.394   1.771   1.233
 4970SOL    HW215810   2.426   1.634   1.150
 4971SOL     OW15811   6.396   5.749   3.200
 4971SOL    HW115812   6.481   5.800   3.191
 4971SOL    HW215813   6.333   5.801   3.258
 4972SOL     OW15814   0.568   4.089   0.820
 4972SOL    HW115815   0.580   4.183   0.851
 4972SOL    HW215816   0.558   4.087   0.721
 4973SOL     OW15817   0.738   0.237   1.883
 4973SOL    HW115818   0.677   0.293   1.827
 4973SOL    HW215819   0.723   0.140   1.861
 4974SOL     OW15820   6.163   5.109   0.632
 4974SOL    HW115821   6.171   5.114   0.532
 4974SOL    HW215822   6.177   5.200   0.671
 4975SOL     OW15823   5.438   4.073   6.912
 4975SOL    HW115824   5.523   4.039   6.870
 4975SOL    HW215825   5.384   4.120   6.842
 4976SOL     OW15826   1.167   1.214   4.343
 4976SOL    HW115827   1.235   1.168   4.286
 4976SOL    HW215828   1.079   1.215   4.295
 4977SOL     OW15829   4.460   5.208   7.002
 4977SOL    HW115830   4.477   5.270   0.052
 4977SOL    HW215831   4.363   5.186   6.999
 4978SOL     OW15832   5.560   4.855   4.222
 4978SOL    HW115833   5.509   4.932   4.183
 4978SOL    HW215834   5.568   4.783   4.153
 4979SOL     OW15835   6.746   6.632   5.937
 4979SOL    HW115836   6.787   6.604   5.851
 4979SOL    HW215837   6.764   6.563   6.007
 4980SOL     OW15838   5.302   5.161   3.239
 4980SOL    HW115839   5.203   5.165   3.251
 4980SOL    HW215840   5.347   5.167   3.328
 4981SOL     OW15841   3.716   5.128   2.419
 4981SOL    HW115842   3.811   5.159   2.409
 4981SOL    HW215843   3.715   5.030   2.435
 4982SOL     OW15844   3.138   2.163   5.742
 4982SOL    HW115845   3.047   2.202   5.754
 4982SOL    HW215846   3.187   2.212   5.670
 4983SOL     OW15847   5.931   3.719   4.953
 4983SOL    HW115848   5.944   3.668   5.038
 4983SOL    HW215849   5.977   3.807   4.959
 4984SOL     OW15850   4.932   3.514   2.813
 4984SOL    HW115851   4.981   3.489   2.896
 4984SOL    HW215852   4.894   3.432   2.770
 4985SOL     OW15853   5.741   6.850   3.216
 4985SOL    HW115854   5.650   6.831   3.253
 4985SOL    HW215855   5.777   6.768   3.171
 4986SOL     OW15856   6.412   5.287   0.520
 4986SOL    HW115857   6.498   5.288   0.571
 4986SOL    HW215858   6.341   5.334   0.573
 4987SOL     OW15859   1.087   6.722   2.291
 4987SOL    HW115860   1.127   6.631   2.284
 4987SOL    HW215861   1.023   6.724   2.368
 4988SOL     OW15862   6.185   0.961   2.353
 4988SOL    HW115863   6.145   1.053   2.347
 4988SOL    HW215864   6.164   0.910   2.269
 4989SOL     OW15865   5.502   6.641   1.226
 4989SOL    HW115866   5.594   6.667   1.195
 4989SOL    HW215867   5.440   6.718   1.213
 4990SOL     OW15868   2.689   2.080   6.101
 4990SOL    HW115869   2.727   2.040   6.018
 4990SOL    HW215870   2.763   2.113   6.160
 4991SOL     OW15871   6.382   5.269   4.109
 4991SOL    HW115872   6.444   5.249   4.033
 4991SOL    HW215873   6.305   5.324   4.076
 4992SOL     OW15874   5.273   0.502   2.057
 4992SOL    HW115875   5.370   0.507   2.082
 4992SOL    HW215876   5.224   0.444   2.122
 4993SOL     OW15877   3.613   6.447   4.942
 4993SOL    HW115878   3.702   6.492   4.940
 4993SOL    HW215879   3.541   6.515   4.926
 4994SOL     OW15880   2.436   6.929   4.409
 4994SOL    HW115881   2.345   6.941   4.371
 4994SOL    HW215882   2.438   6.962   4.504
 4995SOL     OW15883   0.772   1.979   5.739
 4995SOL    HW115884   0.713   2.026   5.673
 4995SOL    HW215885   0.797   1.889   5.703
 4996SOL     OW15886   0.091   0.844   3.031
 4996SOL    HW115887   0.164   0.776   3.040
 4996SOL    HW215888   0.003   0.797   3.023
 4997SOL     OW15889   4.332   2.258   2.203
 4997SOL    HW115890   4.379   2.171   2.223
 4997SOL    HW215891   4.400   2.331   2.198
 4998SOL     OW15892   1.717   3.818   4.676
 4998SOL    HW115893   1.713   3.737   4.617
 4998SOL    HW215894   1.634   3.873   4.664
 4999SOL     OW15895   6.839   3.269   4.935
 4999SOL    HW115896   6.842   3.220   4.848
 4999SOL    HW215897   6.744   3.286   4.961
 5000SOL     OW15898   2.947   0.323   3.513
 5000SOL    HW115899   2.996   0.238   3.533
 5000SOL    HW215900   2.892   0.312   3.431
 5001SOL     OW15901   0.899   5.208   1.999
 5001SOL    HW115902   0.925   5.301   2.023
 5001SOL    HW215903   0.838   5.171   2.069
 5002SOL     OW15904   0.586   3.706   2.062
 5002SOL    HW115905   0.496   3.666   2.076
 5002SOL    HW215906   0.649   3.671   2.131
 5003SOL     OW15907   2.937   6.090   3.342
 5003SOL    HW115908   2.982   6.060   3.258
 5003SOL    HW215909   2.915   6.010   3.399
 5004SOL     OW15910   2.486   4.769   5.619
 5004SOL    HW115911   2.551   4.776   5.543
 5004SOL    HW215912   2.490   4.677   5.657
 5005SOL     OW15913   3.557   3.197   0.030
 5005SOL    HW115914   3.530   3.190   6.961
 5005SOL    HW215915   3.633   3.261   0.039
 5006SOL     OW15916   5.471   0.696   1.832
 5006SOL    HW115917   5.527   0.740   1.763
 5006SOL    HW215918   5.504   0.602   1.848
 5007SOL     OW15919   0.250   6.763   1.517
 5007SOL    HW115920   0.210   6.809   1.438
 5007SOL    HW215921   0.317   6.696   1.485
 5008SOL     OW15922   5.914   5.968   2.156
 5008SOL    HW115923   5.861   5.969   2.071
 5008SOL    HW215924   5.875   5.901   2.219
 5009SOL     OW15925   0.215   2.136   0.146
 5009SOL    HW115926   0.234   2.113   0.050
 5009SOL    HW215927   0.301   2.156   0.192
 5010SOL     OW15928   4.166   2.921   1.110
 5010SOL    HW115929   4.200   2.841   1.060
 5010SOL    HW215930   4.226   2.940   1.188
 5011SOL     OW15931   1.284   4.824   1.562
 5011SOL    HW115932   1.317   4.774   1.643
 5011SOL    HW215933   1.269   4.920   1.586
 5012SOL     OW15934   5.901   2.997   5.049
 5012SOL    HW115935   5.998   2.999   5.022
 5012SOL    HW215936   5.895   3.012   5.148
 5013SOL     OW15937   5.149   1.558   6.362
 5013SOL    HW115938   5.246   1.579   6.380
 5013SOL    HW215939   5.092   1.615   6.420
 5014SOL     OW15940   5.695   4.327   1.154
 5014SOL    HW115941   5.656   4.265   1.086
 5014SOL    HW215942   5.746   4.275   1.222
 5015SOL     OW15943   5.213   1.591   5.031
 5015SOL    HW115944   5.206   1.547   4.941
 5015SOL    HW215945   5.305   1.629   5.043
 5016SOL     OW15946   2.017   3.055   5.245
 5016SOL    HW115947   1.963   3.072   5.327
 5016SOL    HW215948   2.110   3.030   5.271
 5017SOL     OW15949   2.366   2.623   1.181
 5017SOL    HW115950   2.321   2.534   1.171
 5017SOL    HW215951   2.416   2.625   1.268
 5018SOL     OW15952   1.092   4.847   2.398
 5018SOL    HW115953   1.122   4.752   2.384
 5018SOL    HW215954   1.100   4.871   2.495
 5019SOL     OW15955   1.488   5.794   5.646
 5019SOL    HW115956   1.466   5.698   5.627
 5019SOL    HW215957   1.461   5.816   5.740
 5020SOL     OW15958   5.665   0.044   6.111
 5020SOL    HW115959   5.710   7.017   6.040
 5020SOL    HW215960   5.675   7.026   6.199
 5021SOL     OW15961   0.920   1.289   0.283
 5021SOL    HW115962   0.986   1.325   0.348
 5021SOL    HW215963   0.844   1.247   0.333
 5022SOL     OW15964   2.618   2.647   0.993
 5022SOL    HW115965   2.557   2.721   1.019
 5022SOL    HW215966   2.571   2.559   1.003
 5023SOL     OW15967   0.297   3.296   1.682
 5023SOL    HW115968   0.280   3.304   1.584
 5023SOL    HW215969   0.246   3.218   1.718
 5024SOL     OW15970   5.940   5.776   1.291
 5024SOL    HW115971   6.019   5.779   1.230
 5024SOL    HW215972   5.971   5.770   1.386
 5025SOL     OW15973   4.327   2.071   3.631
 5025SOL    HW115974   4.396   2.008   3.596
 5025SOL    HW215975   4.236   2.043   3.598
 5026SOL     OW15976   6.704   6.332   5.344
 5026SOL    HW115977   6.625   6.310   5.286
 5026SOL    HW215978   6.704   6.271   5.424
 5027SOL     OW15979   6.475   6.640   1.477
 5027SOL    HW115980   6.422   6.579   1.536
 5027SOL    HW215981   6.572   6.616   1.481
 5028SOL     OW15982   0.609   1.963   2.812
 5028SOL    HW115983   0.579   2.002   2.725
 5028SOL    HW215984   0.665   1.882   2.794
 5029SOL     OW15985   6.330   2.400   2.503
 5029SOL    HW115986   6.315   2.435   2.410
 5029SOL    HW215987   6.246   2.411   2.556
 5030SOL     OW15988   0.459   6.199   6.425
 5030SOL    HW115989   0.386   6.212   6.492
 5030SOL    HW215990   0.482   6.102   6.420
 5031SOL     OW15991   6.511   0.872   6.309
 5031SOL    HW115992   6.598   0.911   6.340
 5031SOL    HW215993   6.528   0.809   6.233
 5032SOL     OW15994   2.297   2.547   5.916
 5032SOL    HW115995   2.227   2.512   5.853
 5032SOL    HW215996   2.387   2.533   5.875
 5033SOL     OW15997   2.258   6.755   6.015
 5033SOL    HW115998   2.323   6.774   6.088
 5033SOL    HW215999   2.186   6.825   6.016
 5034SOL     OW16000   5.969   6.913   3.353
 5034SOL    HW116001   5.883   6.886   3.312
 5034SOL    HW216002   6.012   6.834   3.396
 5035SOL     OW16003   0.298   4.217   6.281
 5035SOL    HW116004   0.339   4.128   6.300
 5035SOL    HW216005   0.361   4.289   6.311
 5036SOL     OW16006   0.342   5.118   6.747
 5036SOL    HW116007   0.345   5.195   6.811
 5036SOL    HW216008   0.273   5.135   6.677
 5037SOL     OW16009   5.002   4.417   1.779
 5037SOL    HW116010   5.075   4.466   1.827
 5037SOL    HW216011   4.923   4.407   1.840
 5038SOL     OW16012   3.018   3.676   5.597
 5038SOL    HW116013   2.937   3.730   5.616
 5038SOL    HW216014   3.096   3.737   5.581
 5039SOL     OW16015   2.400   4.485   6.015
 5039SOL    HW116016   2.414   4.387   6.001
 5039SOL    HW216017   2.303   4.506   6.006
 5040SOL     OW16018   1.283   6.914   6.218
 5040SOL    HW116019   1.299   6.900   6.315
 5040SOL    HW216020   1.294   6.827   6.170
 5041SOL     OW16021   1.153   1.754   2.403
 5041SOL    HW116022   1.207   1.776   2.484
 5041SOL    HW216023   1.128   1.657   2.405
 5042SOL     OW16024   6.384   3.528   7.013
 5042SOL    HW116025   6.305   3.511   0.044
 5042SOL    HW216026   6.463   3.479   0.022
 5043SOL     OW16027   3.406   6.942   6.546
 5043SOL    HW116028   3.454   6.907   6.465
 5043SOL    HW216029   3.472   6.964   6.617
 5044SOL     OW16030   0.797   6.466   0.506
 5044SOL    HW116031   0.876   6.420   0.547
 5044SOL    HW216032   0.811   6.475   0.408
 5045SOL     OW16033   5.768   6.979   6.374
 5045SOL    HW116034   5.845   6.915   6.372
 5045SOL    HW216035   5.699   6.946   6.438
 5046SOL     OW16036   3.420   4.104   2.687
 5046SOL    HW116037   3.392   4.135   2.778
 5046SOL    HW216038   3.345   4.053   2.645
 5047SOL     OW16039   0.924   4.360   2.314
 5047SOL    HW116040   0.984   4.286   2.284
 5047SOL    HW216041   0.950   4.445   2.268
 5048SOL     OW16042   1.051   1.497   2.443
 5048SOL    HW116043   1.076   1.431   2.514
 5048SOL    HW216044   1.115   1.491   2.367
 5049SOL     OW16045   5.125   2.089   6.859
 5049SOL    HW116046   5.041   2.036   6.867
 5049SOL    HW216047   5.153   2.091   6.763
 5050SOL     OW16048   2.054   0.723   1.300
 5050SOL    HW116049   2.008   0.738   1.387
 5050SOL    HW216050   2.003   0.768   1.226
 5051SOL     OW16051   4.062   4.348   0.856
 5051SOL    HW116052   4.140   4.410   0.870
 5051SOL    HW216053   3.994   4.393   0.798
 5052SOL     OW16054   2.385   0.669   6.160
 5052SOL    HW116055   2.386   0.730   6.240
 5052SOL    HW216056   2.478   0.661   6.124
 5053SOL     OW16057   1.925   3.817   3.865
 5053SOL    HW116058   1.873   3.902   3.864
 5053SOL    HW216059   1.863   3.741   3.885
 5054SOL     OW16060   3.573   4.985   4.180
 5054SOL    HW116061   3.509   4.959   4.107
 5054SOL    HW216062   3.522   5.029   4.254
 5055SOL     OW16063   1.499   2.599   5.319
 5055SOL    HW116064   1.500   2.698   5.304
 5055SOL    HW216065   1.431   2.557   5.259
 5056SOL     OW16066   5.328   4.282   6.698
 5056SOL    HW116067   5.372   4.299   6.610
 5056SOL    HW216068   5.237   4.243   6.682
 5057SOL     OW16069   6.758   6.181   3.719
 5057SOL    HW116070   6.840   6.184   3.662
 5057SOL    HW216071   6.679   6.153   3.664
 5058SOL     OW16072   3.304   4.231   5.659
 5058SOL    HW116073   3.294   4.321   5.615
 5058SOL    HW216074   3.313   4.161   5.588
 5059SOL     OW16075   6.832   1.295   2.999
 5059SOL    HW116076   6.772   1.311   2.920
 5059SOL    HW216077   6.904   1.230   2.973
 5060SOL     OW16078   0.509   2.358   6.003
 5060SOL    HW116079   0.590   2.301   5.997
 5060SOL    HW216080   0.435   2.318   5.949
 5061SOL     OW16081   4.947   2.802   1.069
 5061SOL    HW116082   4.892   2.868   1.019
 5061SOL    HW216083   5.042   2.836   1.074
 5062SOL     OW16084   6.059   0.316   2.956
 5062SOL    HW116085   6.026   0.385   3.021
 5062SOL    HW216086   6.069   0.228   3.004
 5063SOL     OW16087   0.764   7.003   2.481
 5063SOL    HW116088   0.851   6.976   2.523
 5063SOL    HW216089   0.780   0.051   2.417
 5064SOL     OW16090   5.308   3.436   1.009
 5064SOL    HW116091   5.332   3.403   1.100
 5064SOL    HW216092   5.211   3.422   0.993
 5065SOL     OW16093   2.208   0.995   4.340
 5065SOL    HW116094   2.129   0.944   4.306
 5065SOL    HW216095   2.253   0.942   4.413
 5066SOL     OW16096   5.115   4.736   2.476
 5066SOL    HW116097   5.209   4.706   2.488
 5066SOL    HW216098   5.057   4.692   2.545
 5067SOL     OW16099   4.522   0.842   1.524
 5067SOL    HW116100   4.575   0.917   1.486
 5067SOL    HW216101   4.579   0.791   1.590
 5068SOL     OW16102   2.406   3.895   0.914
 5068SOL    HW116103   2.439   3.845   0.834
 5068SOL    HW216104   2.478   3.901   0.982
 5069SOL     OW16105   1.860   3.641   5.794
 5069SOL    HW116106   1.822   3.732   5.809
 5069SOL    HW216107   1.945   3.649   5.741
 5070SOL     OW16108   5.120   4.078   4.286
 5070SOL    HW116109   5.171   4.021   4.351
 5070SOL    HW216110   5.034   4.032   4.262
 5071SOL     OW16111   4.691   2.590   4.413
 5071SOL    HW116112   4.691   2.689   4.401
 5071SOL    HW216113   4.776   2.552   4.376
 5072SOL     OW16114   1.102   0.019   1.089
 5072SOL    HW116115   1.105   6.993   1.173
 5072SOL    HW216116   1.186   0.074   1.081
 5073SOL     OW16117   7.000   5.955   2.613
 5073SOL    HW116118   0.015   5.881   2.561
 5073SOL    HW216119   0.041   6.026   2.633
 5074SOL     OW16120   3.164   2.989   0.796
 5074SOL    HW116121   3.131   2.952   0.882
 5074SOL    HW216122   3.209   3.077   0.813
 5075SOL     OW16123   1.613   1.929   6.928
 5075SOL    HW116124   1.561   1.995   6.874
 5075SOL    HW216125   1.571   1.839   6.919
 5076SOL     OW16126   3.759   1.040   0.378
 5076SOL    HW116127   3.767   1.017   0.475
 5076SOL    HW216128   3.819   1.117   0.357
 5077SOL     OW16129   0.821   3.851   5.607
 5077SOL    HW116130   0.816   3.949   5.624
 5077SOL    HW216131   0.904   3.814   5.648
 5078SOL     OW16132   1.672   1.739   3.887
 5078SOL    HW116133   1.707   1.757   3.979
 5078SOL    HW216134   1.748   1.722   3.824
 5079SOL     OW16135   2.098   3.641   5.641
 5079SOL    HW116136   2.055   3.559   5.603
 5079SOL    HW216137   2.198   3.629   5.640
 5080SOL     OW16138   6.134   6.492   6.119
 5080SOL    HW116139   6.115   6.530   6.209
 5080SOL    HW216140   6.222   6.527   6.086
 5081SOL     OW16141   3.508   2.889   3.961
 5081SOL    HW116142   3.452   2.935   3.893
 5081SOL    HW216143   3.605   2.901   3.939
 5082SOL     OW16144   5.064   6.140   6.370
 5082SOL    HW116145   5.044   6.048   6.336
 5082SOL    HW216146   4.986   6.174   6.423
 5083SOL     OW16147   2.851   0.238   3.038
 5083SOL    HW116148   2.883   0.316   2.984
 5083SOL    HW216149   2.928   0.176   3.056
 5084SOL     OW16150   0.696   4.548   4.232
 5084SOL    HW116151   0.611   4.587   4.195
 5084SOL    HW216152   0.680   4.518   4.326
 5085SOL     OW16153   4.423   3.498   6.190
 5085SOL    HW116154   4.328   3.518   6.165
 5085SOL    HW216155   4.477   3.582   6.181
 5086SOL     OW16156   0.022   5.676   3.220
 5086SOL    HW116157   6.999   5.592   3.202
 5086SOL    HW216158   0.059   5.713   3.135
 5087SOL     OW16159   0.330   4.754   2.927
 5087SOL    HW116160   0.281   4.727   3.011
 5087SOL    HW216161   0.267   4.750   2.849
 5088SOL     OW16162   6.122   1.717   4.733
 5088SOL    HW116163   6.105   1.619   4.726
 5088SOL    HW216164   6.064   1.766   4.668
 5089SOL     OW16165   5.264   3.196   3.501
 5089SOL    HW116166   5.187   3.257   3.520
 5089SOL    HW216167   5.278   3.135   3.578
 5090SOL     OW16168   1.711   3.518   2.824
 5090SOL    HW116169   1.626   3.521   2.772
 5090SOL    HW216170   1.764   3.601   2.806
 5091SOL     OW16171   1.589   6.593   2.294
 5091SOL    HW116172   1.667   6.533   2.277
 5091SOL    HW216173   1.505   6.547   2.268
 5092SOL     OW16174   3.679   2.969   1.396
 5092SOL    HW116175   3.693   2.889   1.337
 5092SOL    HW216176   3.768   3.006   1.423
 5093SOL     OW16177   3.011   1.468   1.065
 5093SOL    HW116178   3.076   1.543   1.050
 5093SOL    HW216179   3.052   1.382   1.035
 5094SOL     OW16180   1.686   6.241   5.283
 5094SOL    HW116181   1.684   6.240   5.383
 5094SOL    HW216182   1.667   6.334   5.251
 5095SOL     OW16183   0.259   2.773   4.796
 5095SOL    HW116184   0.259   2.823   4.882
 5095SOL    HW216185   0.166   2.738   4.778
 5096SOL     OW16186   4.490   3.517   0.678
 5096SOL    HW116187   4.422   3.450   0.650
 5096SOL    HW216188   4.455   3.570   0.756
 5097SOL     OW16189   1.491   0.555   0.007
 5097SOL    HW116190   1.447   0.484   0.062
 5097SOL    HW216191   1.492   0.526   6.939
 5098SOL     OW16192   1.514   0.769   1.259
 5098SOL    HW116193   1.565   0.781   1.174
 5098SOL    HW216194   1.528   0.848   1.318
 5099SOL     OW16195   0.830   6.328   6.665
 5099SOL    HW116196   0.777   6.314   6.749
 5099SOL    HW216197   0.912   6.381   6.686
 5100SOL     OW16198   4.345   6.325   5.216
 5100SOL    HW116199   4.416   6.257   5.197
 5100SOL    HW216200   4.385   6.416   5.214
 5101SOL     OW16201   4.001   6.658   0.328
 5101SOL    HW116202   4.081   6.598   0.322
 5101SOL    HW216203   4.027   6.743   0.375
 5102SOL     OW16204   6.293   0.501   4.995
 5102SOL    HW116205   6.261   0.579   5.049
 5102SOL    HW216206   6.259   0.416   5.035
 5103SOL     OW16207   0.516   0.612   4.083
 5103SOL    HW116208   0.489   0.573   3.996
 5103SOL    HW216209   0.467   0.698   4.099
 5104SOL     OW16210   1.953   6.670   2.567
 5104SOL    HW116211   2.017   6.625   2.629
 5104SOL    HW216212   1.984   6.657   2.473
 5105SOL     OW16213   3.775   2.586   6.976
 5105SOL    HW116214   3.816   2.538   6.898
 5105SOL    HW216215   3.786   2.684   6.964
 5106SOL     OW16216   3.463   0.782   1.398
 5106SOL    HW116217   3.547   0.807   1.350
 5106SOL    HW216218   3.386   0.788   1.334
 5107SOL     OW16219   4.367   0.858   1.098
 5107SOL    HW116220   4.305   0.922   1.053
 5107SOL    HW216221   4.388   0.782   1.037
 5108SOL     OW16222   2.936   3.753   3.943
 5108SOL    HW116223   2.965   3.668   3.987
 5108SOL    HW216224   2.919   3.823   4.012
 5109SOL     OW16225   1.240   0.816   0.676
 5109SOL    HW116226   1.252   0.747   0.748
 5109SOL    HW216227   1.143   0.827   0.656
 5110SOL     OW16228   0.847   0.133   6.274
 5110SOL    HW116229   0.798   0.199   6.217
 5110SOL    HW216230   0.810   0.136   6.367
 5111SOL     OW16231   1.878   0.990   5.542
 5111SOL    HW116232   1.865   0.897   5.578
 5111SOL    HW216233   1.806   1.050   5.576
 5112SOL     OW16234   1.021   6.940   2.550
 5112SOL    HW116235   1.084   6.963   2.475
 5112SOL    HW216236   1.052   6.984   2.634
 5113SOL     OW16237   2.363   0.049   2.229
 5113SOL    HW116238   2.418   0.118   2.182
 5113SOL    HW216239   2.279   0.032   2.178
 5114SOL     OW16240   3.512   2.487   6.870
 5114SOL    HW116241   3.465   2.485   6.958
 5114SOL    HW216242   3.597   2.539   6.878
 5115SOL     OW16243   2.161   4.984   4.820
 5115SOL    HW116244   2.147   4.986   4.919
 5115SOL    HW216245   2.077   5.012   4.773
 5116SOL     OW16246   5.363   6.486   6.759
 5116SOL    HW116247   5.274   6.443   6.746
 5116SOL    HW216248   5.355   6.585   6.747
 5117SOL     OW16249   1.970   4.444   4.487
 5117SOL    HW116250   1.952   4.542   4.494
 5117SOL    HW216251   2.056   4.422   4.532
 5118SOL     OW16252   4.337   6.919   0.315
 5118SOL    HW116253   4.382   6.832   0.335
 5118SOL    HW216254   4.242   6.915   0.345
 5119SOL     OW16255   5.183   0.968   1.977
 5119SOL    HW116256   5.114   0.895   1.978
 5119SOL    HW216257   5.228   0.968   1.888
 5120SOL     OW16258   4.522   1.197   3.552
 5120SOL    HW116259   4.463   1.206   3.633
 5120SOL    HW216260   4.617   1.214   3.579
 5121SOL     OW16261   2.299   2.379   0.041
 5121SOL    HW116262   2.261   2.364   0.132
 5121SOL    HW216263   2.243   2.333   7.000
 5122SOL     OW16264   3.567   0.598   4.002
 5122SOL    HW116265   3.486   0.655   4.014
 5122SOL    HW216266   3.541   0.502   4.002
 5123SOL     OW16267   5.842   2.421   4.747
 5123SOL    HW116268   5.930   2.434   4.792
 5123SOL    HW216269   5.852   2.435   4.649
 5124SOL     OW16270   2.748   5.183   5.221
 5124SOL    HW116271   2.730   5.102   5.166
 5124SOL    HW216272   2.663   5.214   5.263
 5125SOL     OW16273   6.392   3.148   4.392
 5125SOL    HW116274   6.308   3.164   4.444
 5125SOL    HW216275   6.384   3.192   4.302
 5126SOL     OW16276   6.243   5.244   6.352
 5126SOL    HW116277   6.205   5.332   6.379
 5126SOL    HW216278   6.236   5.235   6.252
 5127SOL     OW16279   6.704   3.839   0.281
 5127SOL    HW116280   6.618   3.800   0.314
 5127SOL    HW216281   6.689   3.933   0.251
 5128SOL     OW16282   0.147   6.626   6.849
 5128SOL    HW116283   0.059   6.658   6.814
 5128SOL    HW216284   0.162   6.662   6.941
 5129SOL     OW16285   4.993   0.255   2.997
 5129SOL    HW116286   5.006   0.296   3.087
 5129SOL    HW216287   5.046   0.305   2.929
 5130SOL     OW16288   1.658   6.163   3.961
 5130SOL    HW116289   1.728   6.223   4.001
 5130SOL    HW216290   1.568   6.195   3.990
 5131SOL     OW16291   2.831   4.720   3.593
 5131SOL    HW116292   2.805   4.713   3.497
 5131SOL    HW216293   2.772   4.660   3.648
 5132SOL     OW16294   3.434   1.500   6.064
 5132SOL    HW116295   3.460   1.596   6.054
 5132SOL    HW216296   3.437   1.455   5.975
 5133SOL     OW16297   2.779   5.817   6.581
 5133SOL    HW116298   2.800   5.880   6.506
 5133SOL    HW216299   2.698   5.850   6.631
 5134SOL     OW16300   6.936   0.062   2.850
 5134SOL    HW116301   7.017   0.011   2.822
 5134SOL    HW216302   6.927   0.144   2.793
 5135SOL     OW16303   5.546   3.773   3.852
 5135SOL    HW116304   5.636   3.753   3.891
 5135SOL    HW216305   5.518   3.699   3.791
 5136SOL     OW16306   5.612   0.605   5.961
 5136SOL    HW116307   5.624   0.589   5.863
 5136SOL    HW216308   5.516   0.590   5.986
 5137SOL     OW16309   5.505   3.352   5.175
 5137SOL    HW116310   5.544   3.444   5.171
 5137SOL    HW216311   5.574   3.285   5.147
 5138SOL     OW16312   3.868   4.062   4.370
 5138SOL    HW116313   3.789   4.123   4.361
 5138SOL    HW216314   3.897   4.031   4.279
 5139SOL     OW16315   0.988   7.024   4.586
 5139SOL    HW116316   0.889   7.020   4.569
 5139SOL    HW216317   1.015   6.946   4.642
 5140SOL     OW16318   3.733   1.663   5.306
 5140SOL    HW116319   3.832   1.666   5.288
 5140SOL    HW216320   3.716   1.696   5.399
 5141SOL     OW16321   6.405   3.461   1.018
 5141SOL    HW116322   6.419   3.462   1.117
 5141SOL    HW216323   6.490   3.485   0.972
 5142SOL     OW16324   5.456   6.823   5.348
 5142SOL    HW116325   5.445   6.835   5.250
 5142SOL    HW216326   5.422   6.905   5.396
 5143SOL     OW16327   1.121   4.166   4.959
 5143SOL    HW116328   1.037   4.141   4.911
 5143SOL    HW216329   1.138   4.264   4.948
 5144SOL     OW16330   1.912   3.906   6.115
 5144SOL    HW116331   1.862   3.925   6.030
 5144SOL    HW216332   1.984   3.839   6.097
 5145SOL     OW16333   4.053   6.438   6.255
 5145SOL    HW116334   4.074   6.384   6.173
 5145SOL    HW216335   4.004   6.381   6.321
 5146SOL     OW16336   3.832   4.060   5.112
 5146SOL    HW116337   3.733   4.044   5.108
 5146SOL    HW216338   3.869   4.060   5.019
 5147SOL     OW16339   6.129   4.704   3.487
 5147SOL    HW116340   6.036   4.740   3.480
 5147SOL    HW216341   6.133   4.637   3.561
 5148SOL     OW16342   0.253   1.327   2.144
 5148SOL    HW116343   0.276   1.230   2.150
 5148SOL    HW216344   0.335   1.381   2.162
 5149SOL     OW16345   5.877   5.725   4.840
 5149SOL    HW116346   5.922   5.751   4.925
 5149SOL    HW216347   5.927   5.763   4.762
 5150SOL     OW16348   2.076   4.183   3.990
 5150SOL    HW116349   2.022   4.216   3.913
 5150SOL    HW216350   2.105   4.089   3.973
 5151SOL     OW16351   6.768   3.862   1.993
 5151SOL    HW116352   6.775   3.945   2.048
 5151SOL    HW216353   6.819   3.875   1.907
 5152SOL     OW16354   1.974   5.717   6.680
 5152SOL    HW116355   1.975   5.796   6.743
 5152SOL    HW216356   2.021   5.640   6.723
 5153SOL     OW16357   0.443   2.384   0.859
 5153SOL    HW116358   0.479   2.432   0.779
 5153SOL    HW216359   0.407   2.295   0.830
 5154SOL     OW16360   1.124   2.624   6.081
 5154SOL    HW116361   1.136   2.615   6.180
 5154SOL    HW216362   1.157   2.713   6.051
 5155SOL     OW16363   4.090   0.895   1.270
 5155SOL    HW116364   4.043   0.983   1.282
 5155SOL    HW216365   4.177   0.896   1.320
 5156SOL     OW16366   5.916   4.672   4.855
 5156SOL    HW116367   5.966   4.758   4.864
 5156SOL    HW216368   5.852   4.678   4.778
 5157SOL     OW16369   3.059   2.046   2.303
 5157SOL    HW116370   3.090   2.118   2.365
 5157SOL    HW216371   3.128   1.974   2.298
 5158SOL     OW16372   3.722   2.521   0.987
 5158SOL    HW116373   3.740   2.515   1.085
 5158SOL    HW216374   3.666   2.443   0.959
 5159SOL     OW16375   5.757   3.719   6.341
 5159SOL    HW116376   5.759   3.800   6.400
 5159SOL    HW216377   5.678   3.724   6.280
 5160SOL     OW16378   0.108   5.239   3.161
 5160SOL    HW116379   0.062   5.151   3.170
 5160SOL    HW216380   0.181   5.245   3.229
 5161SOL     OW16381   1.114   3.590   0.413
 5161SOL    HW116382   1.201   3.552   0.383
 5161SOL    HW216383   1.065   3.628   0.334
 5162SOL     OW16384   1.063   5.619   2.664
 5162SOL    HW116385   1.041   5.522   2.666
 5162SOL    HW216386   1.012   5.664   2.590
 5163SOL     OW16387   3.579   6.548   0.915
 5163SOL    HW116388   3.659   6.545   0.856
 5163SOL    HW216389   3.543   6.455   0.927
 5164SOL     OW16390   3.434   3.141   6.637
 5164SOL    HW116391   3.348   3.187   6.613
 5164SOL    HW216392   3.425   3.098   6.727
 5165SOL     OW16393   0.923   4.210   6.597
 5165SOL    HW116394   0.970   4.129   6.560
 5165SOL    HW216395   0.976   4.292   6.574
 5166SOL     OW16396   1.715   5.113   2.652
 5166SOL    HW116397   1.767   5.110   2.738
 5166SOL    HW216398   1.652   5.191   2.654
 5167SOL     OW16399   6.550   4.104   4.659
 5167SOL    HW116400   6.513   4.014   4.639
 5167SOL    HW216401   6.638   4.115   4.612
 5168SOL     OW16402   5.214   2.612   2.659
 5168SOL    HW116403   5.133   2.557   2.642
 5168SOL    HW216404   5.206   2.656   2.748
 5169SOL     OW16405   4.683   2.092   3.381
 5169SOL    HW116406   4.657   2.052   3.293
 5169SOL    HW216407   4.685   2.020   3.451
 5170SOL     OW16408   1.388   3.463   5.453
 5170SOL    HW116409   1.472   3.466   5.399
 5170SOL    HW216410   1.339   3.377   5.434
 5171SOL     OW16411   6.654   4.615   5.865
 5171SOL    HW116412   6.671   4.524   5.827
 5171SOL    HW216413   6.578   4.610   5.931
 5172SOL     OW16414   1.659   4.413   3.088
 5172SOL    HW116415   1.702   4.324   3.077
 5172SOL    HW216416   1.652   4.434   3.186
 5173SOL     OW16417   4.635   5.057   5.586
 5173SOL    HW116418   4.551   5.103   5.555
 5173SOL    HW216419   4.697   5.124   5.625
 5174SOL     OW16420   2.228   5.057   3.613
 5174SOL    HW116421   2.136   5.084   3.640
 5174SOL    HW216422   2.290   5.064   3.692
 5175SOL     OW16423   2.735   3.944   0.184
 5175SOL    HW116424   2.694   3.945   0.275
 5175SOL    HW216425   2.801   3.869   0.177
 5176SOL     OW16426   5.049   4.800   6.250
 5176SOL    HW116427   4.959   4.757   6.258
 5176SOL    HW216428   5.100   4.755   6.176
 5177SOL     OW16429   4.431   6.773   0.786
 5177SOL    HW116430   4.479   6.851   0.827
 5177SOL    HW216431   4.332   6.790   0.789
 5178SOL     OW16432   1.414   4.420   2.093
 5178SOL    HW116433   1.361   4.362   2.032
 5178SOL    HW216434   1.412   4.514   2.059
 5179SOL     OW16435   4.776   4.118   4.129
 5179SOL    HW116436   4.821   4.053   4.191
 5179SOL    HW216437   4.735   4.191   4.182
 5180SOL     OW16438   3.699   0.908   1.294
 5180SOL    HW116439   3.650   0.933   1.211
 5180SOL    HW216440   3.741   0.989   1.334
 5181SOL     OW16441   6.363   0.053   1.611
 5181SOL    HW116442   6.373   0.104   1.526
 5181SOL    HW216443   6.376   0.114   1.689
 5182SOL     OW16444   4.525   4.550   2.025
 5182SOL    HW116445   4.558   4.593   1.941
 5182SOL    HW216446   4.532   4.450   2.017
 5183SOL     OW16447   4.056   1.931   2.522
 5183SOL    HW116448   4.011   2.020   2.530
 5183SOL    HW216449   4.010   1.864   2.580
 5184SOL     OW16450   2.494   1.835   3.346
 5184SOL    HW116451   2.430   1.780   3.399
 5184SOL    HW216452   2.582   1.788   3.341
 5185SOL     OW16453   5.378   0.551   2.522
 5185SOL    HW116454   5.428   0.588   2.443
 5185SOL    HW216455   5.387   0.613   2.599
 5186SOL     OW16456   6.283   2.615   6.287
 5186SOL    HW116457   6.319   2.522   6.293
 5186SOL    HW216458   6.335   2.666   6.218
 5187SOL     OW16459   1.115   5.538   5.759
 5187SOL    HW116460   1.032   5.507   5.805
 5187SOL    HW216461   1.091   5.579   5.671
 5188SOL     OW16462   5.784   5.930   1.693
 5188SOL    HW116463   5.737   5.842   1.685
 5188SOL    HW216464   5.761   5.972   1.781
 5189SOL     OW16465   5.150   5.865   0.361
 5189SOL    HW116466   5.148   5.836   0.266
 5189SOL    HW216467   5.111   5.957   0.369
 5190SOL     OW16468   0.922   3.888   3.686
 5190SOL    HW116469   0.923   3.794   3.722
 5190SOL    HW216470   0.995   3.941   3.730
 5191SOL     OW16471   3.452   5.691   2.227
 5191SOL    HW116472   3.401   5.738   2.299
 5191SOL    HW216473   3.518   5.628   2.268
 5192SOL     OW16474   1.141   5.951   1.162
 5192SOL    HW116475   1.215   6.018   1.153
 5192SOL    HW216476   1.139   5.892   1.081
 5193SOL     OW16477   4.649   5.572   5.523
 5193SOL    HW116478   4.624   5.662   5.488
 5193SOL    HW216479   4.572   5.534   5.575
 5194SOL     OW16480   3.628   2.211   6.898
 5194SOL    HW116481   3.673   2.202   6.809
 5194SOL    HW216482   3.549   2.272   6.889
 5195SOL     OW16483   0.347   0.856   4.576
 5195SOL    HW116484   0.406   0.778   4.554
 5195SOL    HW216485   0.306   0.892   4.492
 5196SOL     OW16486   4.586   0.176   2.345
 5196SOL    HW116487   4.684   0.167   2.359
 5196SOL    HW216488   4.554   0.263   2.384
 5197SOL     OW16489   1.531   3.665   6.782
 5197SOL    HW116490   1.631   3.662   6.793
 5197SOL    HW216491   1.493   3.575   6.802
 5198SOL     OW16492   4.489   5.469   3.059
 5198SOL    HW116493   4.480   5.500   3.154
 5198SOL    HW216494   4.520   5.374   3.058
 5199SOL     OW16495   0.896   5.389   0.628
 5199SOL    HW116496   0.898   5.487   0.652
 5199SOL    HW216497   0.973   5.367   0.569
 5200SOL     OW16498   6.845   3.759   5.072
 5200SOL    HW116499   6.809   3.812   4.996
 5200SOL    HW216500   6.940   3.733   5.053
 5201SOL     OW16501   1.335   0.062   3.094
 5201SOL    HW116502   1.311   0.024   3.183
 5201SOL    HW216503   1.289   0.010   3.022
 5202SOL     OW16504   5.280   3.265   6.618
 5202SOL    HW116505   5.229   3.298   6.698
 5202SOL    HW216506   5.345   3.195   6.648
 5203SOL     OW16507   2.117   1.690   6.774
 5203SOL    HW116508   2.149   1.608   6.819
 5203SOL    HW216509   2.017   1.695   6.781
 5204SOL     OW16510   3.916   4.765   0.382
 5204SOL    HW116511   3.835   4.821   0.400
 5204SOL    HW216512   3.954   4.788   0.293
 5205SOL     OW16513   1.969   6.800   0.804
 5205SOL    HW116514   2.040   6.856   0.848
 5205SOL    HW216515   1.985   6.704   0.825
 5206SOL     OW16516   0.523   4.258   5.295
 5206SOL    HW116517   0.479   4.230   5.381
 5206SOL    HW216518   0.524   4.181   5.232
 5207SOL     OW16519   1.083   5.713   4.108
 5207SOL    HW116520   1.011   5.655   4.147
 5207SOL    HW216521   1.115   5.777   4.178
 5208SOL     OW16522   4.024   2.185   6.801
 5208SOL    HW116523   3.989   2.240   6.725
 5208SOL    HW216524   3.965   2.198   6.880
 5209SOL     OW16525   5.410   5.870   3.807
 5209SOL    HW116526   5.409   5.881   3.708
 5209SOL    HW216527   5.457   5.785   3.831
 5210SOL     OW16528   5.872   2.388   5.225
 5210SOL    HW116529   5.833   2.475   5.194
 5210SOL    HW216530   5.814   2.312   5.194
 5211SOL     OW16531   3.923   3.086   4.767
 5211SOL    HW116532   3.981   3.163   4.741
 5211SOL    HW216533   3.919   3.079   4.866
 5212SOL     OW16534   6.349   1.247   0.457
 5212SOL    HW116535   6.250   1.251   0.473
 5212SOL    HW216536   6.374   1.313   0.386
 5213SOL     OW16537   5.032   4.337   6.494
 5213SOL    HW116538   5.038   4.404   6.420
 5213SOL    HW216539   5.075   4.251   6.465
 5214SOL     OW16540   4.688   1.488   6.184
 5214SOL    HW116541   4.603   1.437   6.172
 5214SOL    HW216542   4.737   1.491   6.096
 5215SOL     OW16543   5.930   5.273   3.784
 5215SOL    HW116544   5.836   5.299   3.807
 5215SOL    HW216545   5.930   5.220   3.699
 5216SOL     OW16546   4.065   5.153   1.693
 5216SOL    HW116547   4.045   5.116   1.784
 5216SOL    HW216548   4.124   5.089   1.644
 5217SOL     OW16549   3.883   5.371   3.725
 5217SOL    HW116550   3.820   5.371   3.803
 5217SOL    HW216551   3.855   5.441   3.660
 5218SOL     OW16552   1.092   0.727   3.705
 5218SOL    HW116553   1.087   0.815   3.658
 5218SOL    HW216554   1.111   0.655   3.638
 5219SOL     OW16555   3.380   0.517   5.871
 5219SOL    HW116556   3.439   0.511   5.951
 5219SOL    HW216557   3.435   0.537   5.790
 5220SOL     OW16558   1.571   5.969   2.578
 5220SOL    HW116559   1.623   5.925   2.651
 5220SOL    HW216560   1.491   6.015   2.616
 5221SOL     OW16561   5.605   2.192   3.867
 5221SOL    HW116562   5.624   2.289   3.877
 5221SOL    HW216563   5.588   2.171   3.771
 5222SOL     OW16564   2.683   0.069   3.382
 5222SOL    HW116565   2.627   0.011   3.323
 5222SOL    HW216566   2.655   0.054   3.477
 5223SOL     OW16567   5.386   0.575   1.046
 5223SOL    HW116568   5.359   0.525   1.129
 5223SOL    HW216569   5.403   0.510   0.972
 5224SOL     OW16570   0.558   2.227   4.141
 5224SOL    HW116571   0.481   2.189   4.194
 5224SOL    HW216572   0.568   2.175   4.057
 5225SOL     OW16573   6.289   0.224   3.237
 5225SOL    HW116574   6.241   0.306   3.270
 5225SOL    HW216575   6.372   0.210   3.290
 5226SOL     OW16576   0.542   5.714   5.137
 5226SOL    HW116577   0.522   5.790   5.075
 5226SOL    HW216578   0.592   5.747   5.216
 5227SOL     OW16579   1.452   5.153   3.724
 5227SOL    HW116580   1.434   5.058   3.696
 5227SOL    HW216581   1.483   5.153   3.819
 5228SOL     OW16582   6.568   2.132   1.011
 5228SOL    HW116583   6.547   2.122   0.914
 5228SOL    HW216584   6.611   2.221   1.027
 5229SOL     OW16585   1.506   3.836   0.403
 5229SOL    HW116586   1.605   3.838   0.416
 5229SOL    HW216587   1.476   3.741   0.392
 5230SOL     OW16588   0.440   6.564   1.363
 5230SOL    HW116589   0.486   6.496   1.418
 5230SOL    HW216590   0.499   6.645   1.353
 5231SOL     OW16591   4.065   3.672   4.828
 5231SOL    HW116592   4.090   3.604   4.760
 5231SOL    HW216593   4.046   3.759   4.783
 5232SOL     OW16594   3.230   2.076   5.987
 5232SOL    HW116595   3.216   2.098   5.890
 5232SOL    HW216596   3.327   2.083   6.009
 5233SOL     OW16597   5.918   0.323   1.742
 5233SOL    HW116598   6.011   0.349   1.769
 5233SOL    HW216599   5.918   0.229   1.709
 5234SOL     OW16600   2.223   0.331   6.697
 5234SOL    HW116601   2.309   0.338   6.749
 5234SOL    HW216602   2.166   0.410   6.718
 5235SOL     OW16603   2.123   2.889   1.292
 5235SOL    HW116604   2.069   2.808   1.268
 5235SOL    HW216605   2.158   2.880   1.385
 5236SOL     OW16606   5.705   3.516   2.285
 5236SOL    HW116607   5.662   3.542   2.371
 5236SOL    HW216608   5.761   3.591   2.250
 5237SOL     OW16609   2.577   0.681   5.953
 5237SOL    HW116610   2.588   0.582   5.942
 5237SOL    HW216611   2.625   0.729   5.880
 5238SOL     OW16612   1.664   4.730   0.586
 5238SOL    HW116613   1.744   4.774   0.627
 5238SOL    HW216614   1.604   4.800   0.546
 5239SOL     OW16615   4.032   3.701   3.953
 5239SOL    HW116616   4.033   3.629   3.884
 5239SOL    HW216617   4.027   3.660   4.044
 5240SOL     OW16618   2.797   1.682   6.126
 5240SOL    HW116619   2.848   1.627   6.192
 5240SOL    HW216620   2.730   1.738   6.175
 5241SOL     OW16621   1.253   5.626   6.652
 5241SOL    HW116622   1.178   5.568   6.682
 5241SOL    HW216623   1.340   5.581   6.673
 5242SOL     OW16624   6.998   6.851   5.633
 5242SOL    HW116625   6.998   6.759   5.595
 5242SOL    HW216626   6.963   6.916   5.565
 5243SOL     OW16627   1.158   5.697   1.576
 5243SOL    HW116628   1.184   5.751   1.495
 5243SOL    HW216629   1.199   5.738   1.657
 5244SOL     OW16630   3.557   4.247   5.794
 5244SOL    HW116631   3.470   4.230   5.749
 5244SOL    HW216632   3.587   4.341   5.773
 5245SOL     OW16633   4.330   4.486   7.017
 5245SOL    HW116634   4.376   4.399   0.008
 5245SOL    HW216635   4.231   4.473   7.020
 5246SOL     OW16636   5.770   4.405   2.734
 5246SOL    HW116637   5.701   4.453   2.789
 5246SOL    HW216638   5.780   4.311   2.767
 5247SOL     OW16639   1.272   6.371   0.661
 5247SOL    HW116640   1.306   6.293   0.714
 5247SOL    HW216641   1.177   6.388   0.684
 5248SOL     OW16642   6.426   0.100   4.493
 5248SOL    HW116643   6.481   0.159   4.552
 5248SOL    HW216644   6.434   0.005   4.524
 5249SOL     OW16645   0.855   5.177   5.031
 5249SOL    HW116646   0.817   5.117   5.101
 5249SOL    HW216647   0.840   5.136   4.941
 5250SOL     OW16648   0.372   1.020   5.961
 5250SOL    HW116649   0.295   0.959   5.979
 5250SOL    HW216650   0.395   1.070   6.044
 5251SOL     OW16651   0.537   2.959   1.185
 5251SOL    HW116652   0.544   3.045   1.236
 5251SOL    HW216653   0.505   2.887   1.246
 5252SOL     OW16654   1.881   5.497   0.856
 5252SOL    HW116655   1.796   5.445   0.844
 5252SOL    HW216656   1.886   5.532   0.949
 5253SOL     OW16657   6.195   4.042   5.491
 5253SOL    HW116658   6.175   4.002   5.581
 5253SOL    HW216659   6.289   4.075   5.490
 5254SOL     OW16660   5.766   1.214   3.623
 5254SOL    HW116661   5.711   1.140   3.585
 5254SOL    HW216662   5.706   1.285   3.659
 5255SOL     OW16663   4.558   0.233   5.610
 5255SOL    HW116664   4.635   0.172   5.625
 5255SOL    HW216665   4.588   0.313   5.558
 5256SOL     OW16666   4.636   0.574   3.336
 5256SOL    HW116667   4.654   0.602   3.242
 5256SOL    HW216668   4.632   0.654   3.395
 5257SOL     OW16669   4.309   0.271   2.017
 5257SOL    HW116670   4.260   0.220   1.946
 5257SOL    HW216671   4.313   0.367   1.993
 5258SOL     OW16672   5.114   3.609   1.235
 5258SOL    HW116673   5.175   3.575   1.307
 5258SOL    HW216674   5.117   3.709   1.233
 5259SOL     OW16675   4.285   6.071   1.133
 5259SOL    HW116676   4.329   5.983   1.117
 5259SOL    HW216677   4.254   6.076   1.228
 5260SOL     OW16678   5.595   3.836   1.416
 5260SOL    HW116679   5.681   3.839   1.366
 5260SOL    HW216680   5.603   3.890   1.500
 5261SOL     OW16681   1.720   3.015   6.425
 5261SOL    HW116682   1.753   3.103   6.458
 5261SOL    HW216683   1.631   3.026   6.381
 5262SOL     OW16684   2.873   0.767   2.871
 5262SOL    HW116685   2.861   0.682   2.820
 5262SOL    HW216686   2.791   0.823   2.863
 5263SOL     OW16687   1.096   1.382   5.278
 5263SOL    HW116688   1.032   1.307   5.262
 5263SOL    HW216689   1.119   1.386   5.375
 5264SOL     OW16690   6.619   0.404   2.617
 5264SOL    HW116691   6.539   0.441   2.569
 5264SOL    HW216692   6.597   0.312   2.650
 5265SOL     OW16693   4.891   4.457   2.954
 5265SOL    HW116694   4.943   4.426   2.874
 5265SOL    HW216695   4.804   4.497   2.924
 5266SOL     OW16696   2.783   0.822   2.264
 5266SOL    HW116697   2.690   0.785   2.275
 5266SOL    HW216698   2.806   0.877   2.345
 5267SOL     OW16699   4.925   4.633   5.935
 5267SOL    HW116700   4.867   4.574   5.879
 5267SOL    HW216701   4.880   4.654   6.021
 5268SOL     OW16702   5.967   6.027   5.681
 5268SOL    HW116703   6.006   5.934   5.681
 5268SOL    HW216704   6.020   6.085   5.744
 5269SOL     OW16705   2.219   6.500   4.395
 5269SOL    HW116706   2.158   6.482   4.472
 5269SOL    HW216707   2.304   6.540   4.429
 5270SOL     OW16708   5.157   1.258   1.918
 5270SOL    HW116709   5.077   1.199   1.913
 5270SOL    HW216710   5.228   1.223   1.857
 5271SOL     OW16711   4.650   4.996   4.826
 5271SOL    HW116712   4.651   5.031   4.919
 5271SOL    HW216713   4.611   5.064   4.765
 5272SOL     OW16714   2.108   6.170   2.859
 5272SOL    HW116715   2.189   6.129   2.902
 5272SOL    HW216716   2.134   6.212   2.772
 5273SOL     OW16717   0.274   3.254   3.518
 5273SOL    HW116718   0.362   3.230   3.557
 5273SOL    HW216719   0.282   3.342   3.470
 5274SOL     OW16720   6.033   5.572   2.292
 5274SOL    HW116721   6.028   5.607   2.386
 5274SOL    HW216722   5.959   5.507   2.276
 5275SOL     OW16723   3.910   1.217   6.241
 5275SOL    HW116724   3.998   1.231   6.194
 5275SOL    HW216725   3.841   1.277   6.201
 5276SOL     OW16726   0.909   6.823   1.285
 5276SOL    HW116727   1.001   6.826   1.245
 5276SOL    HW216728   0.886   6.728   1.307
 5277SOL     OW16729   1.541   2.812   3.124
 5277SOL    HW116730   1.629   2.856   3.142
 5277SOL    HW216731   1.482   2.875   3.075
 5278SOL     OW16732   4.946   0.109   4.030
 5278SOL    HW116733   5.027   0.058   4.000
 5278SOL    HW216734   4.873   0.098   3.963
 5279SOL     OW16735   1.501   5.479   6.660
 5279SOL    HW116736   1.584   5.460   6.608
 5279SOL    HW216737   1.501   5.425   6.744
 5280SOL     OW16738   2.592   5.756   5.934
 5280SOL    HW116739   2.569   5.840   5.983
 5280SOL    HW216740   2.511   5.697   5.929
 5281SOL     OW16741   1.022   1.407   3.571
 5281SOL    HW116742   1.068   1.494   3.553
 5281SOL    HW216743   1.010   1.357   3.485
 5282SOL     OW16744   1.653   1.280   2.682
 5282SOL    HW116745   1.591   1.224   2.736
 5282SOL    HW216746   1.739   1.293   2.732
 5283SOL     OW16747   2.777   0.470   2.577
 5283SOL    HW116748   2.718   0.415   2.637
 5283SOL    HW216749   2.765   0.440   2.482
 5284SOL     OW16750   4.731   2.681   2.473
 5284SOL    HW116751   4.672   2.694   2.393
 5284SOL    HW216752   4.825   2.701   2.448
 5285SOL     OW16753   1.489   4.042   4.432
 5285SOL    HW116754   1.507   4.028   4.529
 5285SOL    HW216755   1.436   3.965   4.396
 5286SOL     OW16756   6.743   4.035   1.290
 5286SOL    HW116757   6.685   4.055   1.369
 5286SOL    HW216758   6.834   4.071   1.307
 5287SOL     OW16759   1.882   6.031   1.418
 5287SOL    HW116760   1.916   6.092   1.490
 5287SOL    HW216761   1.862   5.941   1.457
 5288SOL     OW16762   3.519   1.043   2.406
 5288SOL    HW116763   3.476   1.125   2.369
 5288SOL    HW216764   3.612   1.035   2.370
 5289SOL     OW16765   1.633   5.282   6.313
 5289SOL    HW116766   1.592   5.196   6.344
 5289SOL    HW216767   1.668   5.332   6.391
 5290SOL     OW16768   1.071   4.451   5.718
 5290SOL    HW116769   1.027   4.477   5.803
 5290SOL    HW216770   1.115   4.362   5.728
 5291SOL     OW16771   2.967   4.920   6.318
 5291SOL    HW116772   2.870   4.899   6.310
 5291SOL    HW216773   3.009   4.917   6.227
 5292SOL     OW16774   5.918   4.585   6.585
 5292SOL    HW116775   5.900   4.579   6.487
 5292SOL    HW216776   5.831   4.582   6.634
 5293SOL     OW16777   1.250   0.229   4.308
 5293SOL    HW116778   1.180   0.218   4.379
 5293SOL    HW216779   1.338   0.250   4.350
 5294SOL     OW16780   5.742   2.810   4.916
 5294SOL    HW116781   5.798   2.773   4.843
 5294SOL    HW216782   5.788   2.889   4.957
 5295SOL     OW16783   4.001   1.266   2.910
 5295SOL    HW116784   3.908   1.302   2.905
 5295SOL    HW216785   4.030   1.262   3.006
 5296SOL     OW16786   3.157   5.318   0.079
 5296SOL    HW116787   3.082   5.365   0.126
 5296SOL    HW216788   3.240   5.373   0.087
 5297SOL     OW16789   1.902   2.543   0.790
 5297SOL    HW116790   1.991   2.534   0.745
 5297SOL    HW216791   1.895   2.634   0.831
 5298SOL     OW16792   1.068   6.020   0.203
 5298SOL    HW116793   1.021   5.956   0.264
 5298SOL    HW216794   1.006   6.048   0.130
 5299SOL     OW16795   2.424   3.234   0.442
 5299SOL    HW116796   2.447   3.143   0.410
 5299SOL    HW216797   2.401   3.230   0.539
 5300SOL     OW16798   0.714   5.796   1.371
 5300SOL    HW116799   0.689   5.739   1.449
 5300SOL    HW216800   0.800   5.842   1.390
 5301SOL     OW16801   3.465   2.230   6.614
 5301SOL    HW116802   3.413   2.315   6.619
 5301SOL    HW216803   3.475   2.203   6.518
 5302SOL     OW16804   6.044   5.679   4.032
 5302SOL    HW116805   6.065   5.652   3.938
 5302SOL    HW216806   6.090   5.617   4.096
 5303SOL     OW16807   6.743   5.711   3.546
 5303SOL    HW116808   6.805   5.745   3.475
 5303SOL    HW216809   6.653   5.753   3.536
 5304SOL     OW16810   5.249   0.959   0.408
 5304SOL    HW116811   5.273   1.031   0.473
 5304SOL    HW216812   5.247   0.871   0.455
 5305SOL     OW16813   0.764   5.048   2.637
 5305SOL    HW116814   0.791   5.108   2.562
 5305SOL    HW216815   0.668   5.065   2.659
 5306SOL     OW16816   1.248   4.409   4.969
 5306SOL    HW116817   1.236   4.449   5.060
 5306SOL    HW216818   1.341   4.375   4.960
 5307SOL     OW16819   4.353   2.004   0.412
 5307SOL    HW116820   4.312   1.927   0.459
 5307SOL    HW216821   4.281   2.069   0.385
 5308SOL     OW16822   0.776   5.556   3.679
 5308SOL    HW116823   0.785   5.476   3.738
 5308SOL    HW216824   0.687   5.599   3.693
 5309SOL     OW16825   4.252   4.620   1.338
 5309SOL    HW116826   4.233   4.605   1.435
 5309SOL    HW216827   4.180   4.575   1.284
 5310SOL     OW16828   6.538   3.778   2.167
 5310SOL    HW116829   6.616   3.777   2.105
 5310SOL    HW216830   6.483   3.695   2.154
 5311SOL     OW16831   6.432   6.079   6.574
 5311SOL    HW116832   6.495   6.006   6.603
 5311SOL    HW216833   6.449   6.161   6.629
 5312SOL     OW16834   6.752   5.392   1.862
 5312SOL    HW116835   6.708   5.310   1.824
 5312SOL    HW216836   6.683   5.450   1.904
 5313SOL     OW16837   1.290   3.809   6.069
 5313SOL    HW116838   1.263   3.879   6.136
 5313SOL    HW216839   1.388   3.791   6.077
 5314SOL     OW16840   3.354   6.366   0.856
 5314SOL    HW116841   3.345   6.389   0.759
 5314SOL    HW216842   3.264   6.355   0.897
 5315SOL     OW16843   5.004   3.592   1.584
 5315SOL    HW116844   5.059   3.666   1.623
 5315SOL    HW216845   5.062   3.533   1.529
 5316SOL     OW16846   0.910   4.030   4.849
 5316SOL    HW116847   0.925   3.931   4.853
 5316SOL    HW216848   0.853   4.052   4.770
 5317SOL     OW16849   6.718   6.865   4.086
 5317SOL    HW116850   6.644   6.864   4.019
 5317SOL    HW216851   6.786   6.797   4.062
 5318SOL     OW16852   0.503   2.961   6.435
 5318SOL    HW116853   0.595   2.986   6.465
 5318SOL    HW216854   0.476   3.019   6.358
 5319SOL     OW16855   3.330   6.695   0.271
 5319SOL    HW116856   3.296   6.605   0.243
 5319SOL    HW216857   3.327   6.757   0.192
 5320SOL     OW16858   5.588   5.389   0.291
 5320SOL    HW116859   5.610   5.326   0.216
 5320SOL    HW216860   5.491   5.412   0.287
 5321SOL     OW16861   1.139   4.912   4.303
 5321SOL    HW116862   1.114   4.976   4.376
 5321SOL    HW216863   1.186   4.833   4.342
 5322SOL     OW16864   5.137   6.380   6.229
 5322SOL    HW116865   5.116   6.288   6.261
 5322SOL    HW216866   5.220   6.413   6.273
 5323SOL     OW16867   3.922   1.843   6.779
 5323SOL    HW116868   3.901   1.901   6.701
 5323SOL    HW216869   3.984   1.892   6.841
 5324SOL     OW16870   4.032   2.667   0.730
 5324SOL    HW116871   4.077   2.659   0.819
 5324SOL    HW216872   3.963   2.595   0.721
 5325SOL     OW16873   4.806   0.962   4.633
 5325SOL    HW116874   4.873   0.931   4.700
 5325SOL    HW216875   4.804   0.899   4.556
 5326SOL     OW16876   0.142   4.639   3.405
 5326SOL    HW116877   0.207   4.576   3.447
 5326SOL    HW216878   0.050   4.599   3.407
 5327SOL     OW16879   5.736   3.213   5.455
 5327SOL    HW116880   5.664   3.177   5.396
 5327SOL    HW216881   5.703   3.294   5.503
 5328SOL     OW16882   4.695   3.013   5.339
 5328SOL    HW116883   4.662   2.961   5.260
 5328SOL    HW216884   4.770   3.073   5.311
 5329SOL     OW16885   6.980   4.928   0.214
 5329SOL    HW116886   6.932   4.870   0.148
 5329SOL    HW216887   0.016   4.988   0.167
 5330SOL     OW16888   3.608   4.499   5.688
 5330SOL    HW116889   3.660   4.576   5.725
 5330SOL    HW216890   3.593   4.513   5.590
 5331SOL     OW16891   5.307   1.272   0.966
 5331SOL    HW116892   5.373   1.331   0.920
 5331SOL    HW216893   5.218   1.282   0.922
 5332SOL     OW16894   0.689   3.871   1.507
 5332SOL    HW116895   0.722   3.936   1.439
 5332SOL    HW216896   0.619   3.813   1.466
 5333SOL     OW16897   1.079   0.550   3.483
 5333SOL    HW116898   1.016   0.582   3.412
 5333SOL    HW216899   1.163   0.517   3.440
 5334SOL     OW16900   4.071   0.314   4.580
 5334SOL    HW116901   4.147   0.326   4.644
 5334SOL    HW216902   4.106   0.314   4.486
 5335SOL     OW16903   5.827   5.950   2.583
 5335SOL    HW116904   5.874   5.862   2.582
 5335SOL    HW216905   5.856   6.005   2.504
 5336SOL     OW16906   2.938   1.914   3.420
 5336SOL    HW116907   2.883   1.996   3.433
 5336SOL    HW216908   3.016   1.936   3.360
 5337SOL     OW16909   5.340   3.838   1.467
 5337SOL    HW116910   5.290   3.882   1.392
 5337SOL    HW216911   5.436   3.827   1.440
 5338SOL     OW16912   5.525   1.852   6.332
 5338SOL    HW116913   5.577   1.845   6.248
 5338SOL    HW216914   5.581   1.896   6.402
 5339SOL     OW16915   6.736   2.360   4.269
 5339SOL    HW116916   6.764   2.403   4.183
 5339SOL    HW216917   6.636   2.355   4.272
 5340SOL     OW16918   5.608   2.882   0.999
 5340SOL    HW116919   5.585   2.892   0.902
 5340SOL    HW216920   5.690   2.826   1.008
 5341SOL     OW16921   3.286   4.070   6.434
 5341SOL    HW116922   3.330   4.080   6.523
 5341SOL    HW216923   3.354   4.085   6.362
 5342SOL     OW16924   3.211   6.914   3.673
 5342SOL    HW116925   3.285   6.915   3.741
 5342SOL    HW216926   3.132   6.865   3.711
 5343SOL     OW16927   3.760   3.478   4.688
 5343SOL    HW116928   3.699   3.547   4.651
 5343SOL    HW216929   3.754   3.478   4.788
 5344SOL     OW16930   2.499   2.200   2.057
 5344SOL    HW116931   2.564   2.232   1.987
 5344SOL    HW216932   2.483   2.102   2.045
 5345SOL     OW16933   3.482   6.963   1.665
 5345SOL    HW116934   3.495   6.991   1.570
 5345SOL    HW216935   3.429   6.879   1.668
 5346SOL     OW16936   3.393   5.415   4.393
 5346SOL    HW116937   3.301   5.386   4.365
 5346SOL    HW216938   3.440   5.458   4.316
 5347SOL     OW16939   0.129   2.393   1.391
 5347SOL    HW116940   0.152   2.478   1.343
 5347SOL    HW216941   0.172   2.395   1.482
 5348SOL     OW16942   6.948   1.677   0.962
 5348SOL    HW116943   6.934   1.621   0.880
 5348SOL    HW216944   0.018   1.689   0.979
 5349SOL     OW16945   1.863   2.148   0.158
 5349SOL    HW116946   1.918   2.231   0.173
 5349SOL    HW216947   1.916   2.084   0.102
 5350SOL     OW16948   1.903   0.089   5.441
 5350SOL    HW116949   1.982   0.128   5.487
 5350SOL    HW216950   1.869   0.154   5.373
 5351SOL     OW16951   6.848   4.978   2.619
 5351SOL    HW116952   6.754   4.953   2.597
 5351SOL    HW216953   6.904   4.973   2.536
 5352SOL     OW16954   2.479   4.788   3.287
 5352SOL    HW116955   2.428   4.861   3.332
 5352SOL    HW216956   2.475   4.801   3.188
 5353SOL     OW16957   4.190   5.128   3.839
 5353SOL    HW116958   4.275   5.113   3.889
 5353SOL    HW216959   4.152   5.041   3.809
 5354SOL     OW16960   2.427   5.361   1.869
 5354SOL    HW116961   2.368   5.322   1.798
 5354SOL    HW216962   2.462   5.287   1.927
 5355SOL     OW16963   0.077   4.218   4.151
 5355SOL    HW116964   0.103   4.186   4.060
 5355SOL    HW216965   0.013   4.152   4.192
 5356SOL     OW16966   5.796   4.693   2.021
 5356SOL    HW116967   5.806   4.605   2.068
 5356SOL    HW216968   5.882   4.743   2.025
 5357SOL     OW16969   3.206   5.748   0.629
 5357SOL    HW116970   3.297   5.741   0.670
 5357SOL    HW216971   3.182   5.845   0.618
 5358SOL     OW16972   4.522   1.063   0.254
 5358SOL    HW116973   4.535   1.141   0.192
 5358SOL    HW216974   4.564   1.083   0.342
 5359SOL     OW16975   1.399   1.614   5.588
 5359SOL    HW116976   1.410   1.592   5.491
 5359SOL    HW216977   1.453   1.695   5.611
 5360SOL     OW16978   3.837   6.806   4.779
 5360SOL    HW116979   3.760   6.803   4.715
 5360SOL    HW216980   3.854   6.901   4.806
 5361SOL     OW16981   2.327   1.030   5.552
 5361SOL    HW116982   2.276   1.105   5.595
 5361SOL    HW216983   2.262   0.965   5.512
 5362SOL     OW16984   6.789   5.954   3.391
 5362SOL    HW116985   6.785   6.044   3.347
 5362SOL    HW216986   6.860   5.956   3.462
 5363SOL     OW16987   0.284   0.574   6.508
 5363SOL    HW116988   0.286   0.503   6.437
 5363SOL    HW216989   0.374   0.583   6.549
 5364SOL     OW16990   6.960   6.517   1.993
 5364SOL    HW116991   6.985   6.458   1.916
 5364SOL    HW216992   6.931   6.606   1.957
 5365SOL     OW16993   3.789   3.408   6.969
 5365SOL    HW116994   3.763   3.377   6.877
 5365SOL    HW216995   3.881   3.374   6.990
 5366SOL     OW16996   5.176   5.731   1.790
 5366SOL    HW116997   5.253   5.726   1.853
 5366SOL    HW216998   5.209   5.733   1.696
 5367SOL     OW16999   0.740   6.598   1.086
 5367SOL    HW117000   0.645   6.624   1.070
 5367SOL    HW217001   0.753   6.578   1.183
 5368SOL     OW17002   5.401   0.207   2.715
 5368SOL    HW117003   5.493   0.178   2.691
 5368SOL    HW217004   5.403   0.299   2.753
 5369SOL     OW17005   2.728   0.113   1.930
 5369SOL    HW117006   2.670   0.064   1.996
 5369SOL    HW217007   2.729   0.063   1.843
 5370SOL     OW17008   4.725   2.773   1.675
 5370SOL    HW117009   4.697   2.688   1.719
 5370SOL    HW217010   4.657   2.845   1.695
 5371SOL     OW17011   0.947   3.733   5.347
 5371SOL    HW117012   0.952   3.796   5.269
 5371SOL    HW217013   0.947   3.785   5.432
 5372SOL     OW17014   1.967   6.443   3.918
 5372SOL    HW117015   2.063   6.418   3.932
 5372SOL    HW217016   1.917   6.429   4.003
 5373SOL     OW17017   3.699   6.594   4.394
 5373SOL    HW117018   3.713   6.598   4.295
 5373SOL    HW217019   3.787   6.602   4.441
 5374SOL     OW17020   1.620   3.755   0.122
 5374SOL    HW117021   1.692   3.690   0.145
 5374SOL    HW217022   1.535   3.706   0.102
 5375SOL     OW17023   0.914   5.591   5.083
 5375SOL    HW117024   0.885   5.667   5.025
 5375SOL    HW217025   0.995   5.548   5.044
 5376SOL     OW17026   1.911   2.401   1.035
 5376SOL    HW117027   1.892   2.446   0.947
 5376SOL    HW217028   1.841   2.426   1.101
 5377SOL     OW17029   7.014   6.831   2.479
 5377SOL    HW117030   6.958   6.821   2.396
 5377SOL    HW217031   0.044   6.912   2.471
 5378SOL     OW17032   6.456   0.221   1.863
 5378SOL    HW117033   6.535   0.204   1.804
 5378SOL    HW217034   6.487   0.237   1.957
 5379SOL     OW17035   1.463   4.590   4.983
 5379SOL    HW117036   1.427   4.588   5.076
 5379SOL    HW217037   1.551   4.542   4.981
 5380SOL     OW17038   2.479   1.191   3.094
 5380SOL    HW117039   2.415   1.153   3.027
 5380SOL    HW217040   2.501   1.285   3.069
 5381SOL     OW17041   6.352   4.997   2.018
 5381SOL    HW117042   6.298   5.077   2.042
 5381SOL    HW217043   6.441   5.001   2.063
 5382SOL     OW17044   2.794   1.251   2.037
 5382SOL    HW117045   2.838   1.161   2.039
 5382SOL    HW217046   2.842   1.310   1.973
 5383SOL     OW17047   2.592   2.416   5.475
 5383SOL    HW117048   2.566   2.482   5.545
 5383SOL    HW217049   2.541   2.433   5.391
 5384SOL     OW17050   6.080   6.807   5.424
 5384SOL    HW117051   6.090   6.745   5.501
 5384SOL    HW217052   5.983   6.828   5.410
 5385SOL     OW17053   3.395   3.208   4.031
 5385SOL    HW117054   3.383   3.140   4.103
 5385SOL    HW217055   3.415   3.297   4.073
 5386SOL     OW17056   4.982   1.459   4.574
 5386SOL    HW117057   5.033   1.407   4.505
 5386SOL    HW217058   4.980   1.407   4.659
 5387SOL     OW17059   2.372   0.276   3.206
 5387SOL    HW117060   2.402   0.321   3.290
 5387SOL    HW217061   2.299   0.210   3.227
 5388SOL     OW17062   0.053   1.404   3.799
 5388SOL    HW117063   0.100   1.343   3.863
 5388SOL    HW217064   0.110   1.486   3.784
 5389SOL     OW17065   4.776   1.492   3.145
 5389SOL    HW117066   4.841   1.522   3.214
 5389SOL    HW217067   4.809   1.517   3.054
 5390SOL     OW17068   4.827   3.863   3.256
 5390SOL    HW117069   4.772   3.796   3.306
 5390SOL    HW217070   4.917   3.824   3.235
 5391SOL     OW17071   2.344   1.973   0.751
 5391SOL    HW117072   2.376   1.891   0.799
 5391SOL    HW217073   2.309   1.948   0.661
 5392SOL     OW17074   5.495   3.469   0.526
 5392SOL    HW117075   5.467   3.542   0.463
 5392SOL    HW217076   5.420   3.403   0.536
 5393SOL     OW17077   4.642   6.789   5.938
 5393SOL    HW117078   4.613   6.846   6.015
 5393SOL    HW217079   4.679   6.847   5.866
 5394SOL     OW17080   0.100   5.145   0.111
 5394SOL    HW117081   0.062   5.191   0.191
 5394SOL    HW217082   0.199   5.159   0.108
 5395SOL     OW17083   5.112   0.937   1.686
 5395SOL    HW117084   5.026   0.886   1.682
 5395SOL    HW217085   5.166   0.917   1.604
 5396SOL     OW17086   4.519   4.398   1.679
 5396SOL    HW117087   4.497   4.324   1.743
 5396SOL    HW217088   4.570   4.361   1.602
 5397SOL     OW17089   0.150   2.660   1.257
 5397SOL    HW117090   0.106   2.745   1.228
 5397SOL    HW217091   0.242   2.680   1.289
 5398SOL     OW17092   3.448   1.873   3.743
 5398SOL    HW117093   3.482   1.964   3.765
 5398SOL    HW217094   3.388   1.878   3.664
 5399SOL     OW17095   2.831   5.445   0.923
 5399SOL    HW117096   2.921   5.406   0.906
 5399SOL    HW217097   2.841   5.539   0.957
 5400SOL     OW17098   2.793   3.963   6.879
 5400SOL    HW117099   2.732   4.013   6.939
 5400SOL    HW217100   2.797   4.008   6.790
 5401SOL     OW17101   6.209   3.932   1.391
 5401SOL    HW117102   6.143   3.941   1.316
 5401SOL    HW217103   6.169   3.873   1.462
 5402SOL     OW17104   2.737   5.202   1.736
 5402SOL    HW117105   2.799   5.127   1.759
 5402SOL    HW217106   2.643   5.172   1.747
 5403SOL     OW17107   5.197   2.640   6.022
 5403SOL    HW117108   5.198   2.651   5.922
 5403SOL    HW217109   5.203   2.730   6.065
 5404SOL     OW17110   0.961   0.436   2.193
 5404SOL    HW117111   1.055   0.466   2.204
 5404SOL    HW217112   0.899   0.512   2.216
 5405SOL     OW17113   5.840   6.135   0.273
 5405SOL    HW117114   5.884   6.050   0.244
 5405SOL    HW217115   5.897   6.181   0.341
 5406SOL     OW17116   2.510   0.023   6.413
 5406SOL    HW117117   2.447   6.990   6.460
 5406SOL    HW217118   2.493   0.118   6.440
 5407SOL     OW17119   4.214   2.177   1.407
 5407SOL    HW117120   4.294   2.232   1.432
 5407SOL    HW217121   4.215   2.091   1.459
 5408SOL     OW17122   3.762   1.120   5.999
 5408SOL    HW117123   3.665   1.143   6.005
 5408SOL    HW217124   3.785   1.051   6.068
 5409SOL     OW17125   6.565   2.342   3.995
 5409SOL    HW117126   6.615   2.256   3.984
 5409SOL    HW217127   6.598   2.408   3.928
 5410SOL     OW17128   1.062   3.367   0.135
 5410SOL    HW117129   1.121   3.447   0.127
 5410SOL    HW217130   1.113   3.292   0.178
 5411SOL     OW17131   6.244   5.029   5.318
 5411SOL    HW117132   6.306   5.062   5.247
 5411SOL    HW217133   6.241   5.095   5.393
 5412SOL     OW17134   4.188   0.430   7.013
 5412SOL    HW117135   4.187   0.346   0.038
 5412SOL    HW217136   4.280   0.447   6.977
 5413SOL     OW17137   0.382   0.439   1.352
 5413SOL    HW117138   0.324   0.362   1.326
 5413SOL    HW217139   0.444   0.410   1.425
 5414SOL     OW17140   6.564   3.002   5.332
 5414SOL    HW117141   6.535   3.097   5.321
 5414SOL    HW217142   6.655   2.990   5.293
 5415SOL     OW17143   1.391   6.265   1.399
 5415SOL    HW117144   1.468   6.329   1.408
 5415SOL    HW217145   1.346   6.254   1.487
 5416SOL     OW17146   3.631   4.945   6.296
 5416SOL    HW117147   3.584   4.880   6.236
 5416SOL    HW217148   3.665   4.898   6.377
 5417SOL     OW17149   4.452   0.052   4.502
 5417SOL    HW117150   4.437   0.114   4.579
 5417SOL    HW217151   4.444   6.985   4.534
 5418SOL     OW17152   4.955   0.506   4.754
 5418SOL    HW117153   5.042   0.498   4.704
 5418SOL    HW217154   4.888   0.443   4.714
 5419SOL     OW17155   3.196   5.421   0.442
 5419SOL    HW117156   3.123   5.404   0.508
 5419SOL    HW217157   3.168   5.493   0.378
 5420SOL     OW17158   1.708   2.778   2.259
 5420SOL    HW117159   1.777   2.707   2.243
 5420SOL    HW217160   1.629   2.761   2.201
 5421SOL     OW17161   2.141   4.327   3.090
 5421SOL    HW117162   2.219   4.340   3.028
 5421SOL    HW217163   2.056   4.331   3.038
 5422SOL     OW17164   1.072   5.969   5.690
 5422SOL    HW117165   1.135   6.010   5.624
 5422SOL    HW217166   1.036   5.884   5.653
 5423SOL     OW17167   5.542   3.537   0.136
 5423SOL    HW117168   5.481   3.483   0.078
 5423SOL    HW217169   5.559   3.487   0.222
 5424SOL     OW17170   6.130   3.664   4.040
 5424SOL    HW117171   6.230   3.670   4.043
 5424SOL    HW217172   6.102   3.573   4.072
 5425SOL     OW17173   5.617   1.396   3.746
 5425SOL    HW117174   5.629   1.468   3.814
 5425SOL    HW217175   5.525   1.357   3.756
 5426SOL     OW17176   7.026   5.189   3.903
 5426SOL    HW117177   6.995   5.192   3.998
 5426SOL    HW217178   0.077   5.127   3.895
 5427SOL     OW17179   5.551   4.918   1.331
 5427SOL    HW117180   5.496   4.835   1.335
 5427SOL    HW217181   5.540   4.970   1.416
 5428SOL     OW17182   6.902   0.557   1.988
 5428SOL    HW117183   6.806   0.585   1.993
 5428SOL    HW217184   6.915   0.496   1.910
 5429SOL     OW17185   1.219   0.997   5.006
 5429SOL    HW117186   1.209   0.931   4.932
 5429SOL    HW217187   1.186   0.957   5.091
 5430SOL     OW17188   1.648   2.926   5.418
 5430SOL    HW117189   1.734   2.957   5.458
 5430SOL    HW217190   1.657   2.922   5.318
 5431SOL     OW17191   3.833   5.235   6.353
 5431SOL    HW117192   3.821   5.156   6.414
 5431SOL    HW217193   3.854   5.316   6.407
 5432SOL     OW17194   4.077   6.298   5.941
 5432SOL    HW117195   4.058   6.209   5.982
 5432SOL    HW217196   4.169   6.296   5.901
 5433SOL     OW17197   0.354   1.657   3.716
 5433SOL    HW117198   0.326   1.692   3.626
 5433SOL    HW217199   0.384   1.562   3.706
 5434SOL     OW17200   4.000   0.817   4.992
 5434SOL    HW117201   3.949   0.884   4.938
 5434SOL    HW217202   3.937   0.746   5.025
 5435SOL     OW17203   6.006   1.706   1.147
 5435SOL    HW117204   5.964   1.635   1.091
 5435SOL    HW217205   6.039   1.780   1.089
 5436SOL     OW17206   5.701   4.052   4.615
 5436SOL    HW117207   5.751   4.107   4.682
 5436SOL    HW217208   5.604   4.077   4.617
 5437SOL     OW17209   2.507   5.024   5.741
 5437SOL    HW117210   2.500   4.940   5.686
 5437SOL    HW217211   2.555   5.094   5.689
 5438SOL     OW17212   5.767   4.155   2.550
 5438SOL    HW117213   5.834   4.165   2.623
 5438SOL    HW217214   5.682   4.119   2.587
 5439SOL     OW17215   7.022   2.305   0.074
 5439SOL    HW117216   0.087   2.274   0.095
 5439SOL    HW217217   6.979   2.342   0.157
 5440SOL     OW17218   0.499   0.022   2.560
 5440SOL    HW117219   0.523   0.092   2.627
 5440SOL    HW217220   0.583   7.004   2.528
 5441SOL     OW17221   4.832   3.037   3.442
 5441SOL    HW117222   4.807   3.036   3.345
 5441SOL    HW217223   4.775   2.972   3.492
 5442SOL     OW17224   3.047   6.920   3.324
 5442SOL    HW117225   3.144   6.903   3.340
 5442SOL    HW217226   3.000   6.934   3.411
 5443SOL     OW17227   2.575   6.013   3.842
 5443SOL    HW117228   2.557   5.924   3.799
 5443SOL    HW217229   2.663   6.048   3.809
 5444SOL     OW17230   0.617   0.744   3.284
 5444SOL    HW117231   0.661   0.656   3.265
 5444SOL    HW217232   0.638   0.808   3.211
 5445SOL     OW17233   6.367   4.571   4.132
 5445SOL    HW117234   6.329   4.663   4.122
 5445SOL    HW217235   6.381   4.531   4.042
 5446SOL     OW17236   5.366   4.870   4.740
 5446SOL    HW117237   5.276   4.889   4.779
 5446SOL    HW217238   5.436   4.885   4.809
 5447SOL     OW17239   1.465   1.786   0.751
 5447SOL    HW117240   1.395   1.727   0.790
 5447SOL    HW217241   1.476   1.867   0.807
 5448SOL     OW17242   6.060   3.988   4.970
 5448SOL    HW117243   6.148   4.024   5.001
 5448SOL    HW217244   6.020   4.052   4.903
 5449SOL     OW17245   1.579   1.615   0.173
 5449SOL    HW117246   1.656   1.676   0.155
 5449SOL    HW217247   1.601   1.556   0.251
 5450SOL     OW17248   2.389   0.313   1.811
 5450SOL    HW117249   2.292   0.332   1.798
 5450SOL    HW217250   2.442   0.369   1.747
 5451SOL     OW17251   1.871   5.536   3.345
 5451SOL    HW117252   1.824   5.607   3.397
 5451SOL    HW217253   1.886   5.457   3.403
 5452SOL     OW17254   2.347   3.672   0.480
 5452SOL    HW117255   2.264   3.649   0.532
 5452SOL    HW217256   2.342   3.767   0.450
 5453SOL     OW17257   5.051   4.370   1.202
 5453SOL    HW117258   5.150   4.364   1.189
 5453SOL    HW217259   5.032   4.425   1.283
 5454SOL     OW17260   6.295   4.396   5.661
 5454SOL    HW117261   6.334   4.304   5.666
 5454SOL    HW217262   6.338   4.447   5.587
 5455SOL     OW17263   6.710   2.540   2.112
 5455SOL    HW117264   6.808   2.556   2.117
 5455SOL    HW217265   6.684   2.516   2.019
 5456SOL     OW17266   2.766   0.069   0.692
 5456SOL    HW117267   2.674   0.048   0.659
 5456SOL    HW217268   2.833   0.009   0.647
 5457SOL     OW17269   0.240   2.574   0.911
 5457SOL    HW117270   0.292   2.488   0.907
 5457SOL    HW217271   0.299   2.648   0.943
 5458SOL     OW17272   0.334   4.702   0.614
 5458SOL    HW117273   0.283   4.616   0.621
 5458SOL    HW217274   0.270   4.778   0.602
 5459SOL     OW17275   2.883   3.822   6.560
 5459SOL    HW117276   2.915   3.776   6.642
 5459SOL    HW217277   2.960   3.841   6.500
 5460SOL     OW17278   4.192   0.059   3.065
 5460SOL    HW117279   4.254   0.101   2.998
 5460SOL    HW217280   4.119   0.124   3.087
 5461SOL     OW17281   0.419   0.507   6.097
 5461SOL    HW117282   0.378   0.571   6.162
 5461SOL    HW217283   0.435   0.553   6.010
 5462SOL     OW17284   6.423   6.629   1.179
 5462SOL    HW117285   6.325   6.614   1.170
 5462SOL    HW217286   6.448   6.629   1.276
 5463SOL     OW17287   0.041   1.317   0.622
 5463SOL    HW117288   0.074   1.240   0.678
 5463SOL    HW217289   0.107   1.392   0.627
 5464SOL     OW17290   6.743   0.719   4.579
 5464SOL    HW117291   6.812   0.697   4.648
 5464SOL    HW217292   6.701   0.808   4.602
 5465SOL     OW17293   4.848   0.706   4.478
 5465SOL    HW117294   4.792   0.729   4.399
 5465SOL    HW217295   4.790   0.670   4.551
 5466SOL     OW17296   5.423   2.950   4.744
 5466SOL    HW117297   5.461   2.925   4.833
 5466SOL    HW217298   5.421   2.869   4.685
 5467SOL     OW17299   4.847   4.094   3.495
 5467SOL    HW117300   4.795   4.077   3.411
 5467SOL    HW217301   4.873   4.006   3.536
 5468SOL     OW17302   6.821   2.972   3.651
 5468SOL    HW117303   6.920   2.972   3.655
 5468SOL    HW217304   6.789   2.882   3.621
 5469SOL     OW17305   2.832   5.710   5.836
 5469SOL    HW117306   2.737   5.714   5.864
 5469SOL    HW217307   2.850   5.625   5.787
 5470SOL     OW17308   3.511   5.263   3.428
 5470SOL    HW117309   3.602   5.242   3.462
 5470SOL    HW217310   3.454   5.181   3.431
 5471SOL     OW17311   5.488   6.686   3.006
 5471SOL    HW117312   5.509   6.599   2.962
 5471SOL    HW217313   5.544   6.758   2.966
 5472SOL     OW17314   2.905   4.327   6.686
 5472SOL    HW117315   3.004   4.317   6.672
 5472SOL    HW217316   2.858   4.247   6.648
 5473SOL     OW17317   0.650   3.296   2.558
 5473SOL    HW117318   0.636   3.244   2.474
 5473SOL    HW217319   0.698   3.381   2.537
 5474SOL     OW17320   1.136   4.839   3.858
 5474SOL    HW117321   1.066   4.777   3.823
 5474SOL    HW217322   1.094   4.902   3.923
 5475SOL     OW17323   2.180   2.875   0.863
 5475SOL    HW117324   2.224   2.871   0.774
 5475SOL    HW217325   2.236   2.827   0.930
 5476SOL     OW17326   2.472   4.488   5.705
 5476SOL    HW117327   2.425   4.414   5.657
 5476SOL    HW217328   2.432   4.499   5.796
 5477SOL     OW17329   1.937   4.510   2.606
 5477SOL    HW117330   1.984   4.585   2.651
 5477SOL    HW217331   1.969   4.423   2.644
 5478SOL     OW17332   2.919   5.851   4.520
 5478SOL    HW117333   2.996   5.908   4.492
 5478SOL    HW217334   2.952   5.778   4.581
 5479SOL     OW17335   5.391   1.630   6.388
 5479SOL    HW117336   5.451   1.597   6.462
 5479SOL    HW217337   5.431   1.712   6.347
 5480SOL     OW17338   5.804   4.758   3.801
 5480SOL    HW117339   5.895   4.759   3.761
 5480SOL    HW217340   5.736   4.748   3.727
 5481SOL     OW17341   4.248   1.578   4.351
 5481SOL    HW117342   4.231   1.551   4.256
 5481SOL    HW217343   4.291   1.502   4.400
 5482SOL     OW17344   3.579   4.334   1.716
 5482SOL    HW117345   3.574   4.422   1.763
 5482SOL    HW217346   3.540   4.263   1.774
 5483SOL     OW17347   0.247   1.730   5.545
 5483SOL    HW117348   0.259   1.776   5.457
 5483SOL    HW217349   0.186   1.651   5.533
 5484SOL     OW17350   4.087   1.220   4.675
 5484SOL    HW117351   4.129   1.249   4.761
 5484SOL    HW217352   4.147   1.246   4.598
 5485SOL     OW17353   3.895   0.538   4.635
 5485SOL    HW117354   3.809   0.552   4.586
 5485SOL    HW217355   3.942   0.458   4.598
 5486SOL     OW17356   2.311   6.267   5.290
 5486SOL    HW117357   2.260   6.208   5.227
 5486SOL    HW217358   2.373   6.326   5.238
 5487SOL     OW17359   5.003   2.438   6.801
 5487SOL    HW117360   4.931   2.445   6.869
 5487SOL    HW217361   5.080   2.386   6.839
 5488SOL     OW17362   6.196   0.612   0.966
 5488SOL    HW117363   6.219   0.516   0.957
 5488SOL    HW217364   6.199   0.639   1.062
 5489SOL     OW17365   0.213   4.146   1.635
 5489SOL    HW117366   0.140   4.109   1.693
 5489SOL    HW217367   0.301   4.130   1.678
 5490SOL     OW17368   3.096   0.410   2.347
 5490SOL    HW117369   3.033   0.337   2.371
 5490SOL    HW217370   3.169   0.416   2.415
 5491SOL     OW17371   0.869   3.263   0.333
 5491SOL    HW117372   0.884   3.166   0.352
 5491SOL    HW217373   0.933   3.293   0.262
 5492SOL     OW17374   0.661   3.867   6.489
 5492SOL    HW117375   0.576   3.906   6.525
 5492SOL    HW217376   0.706   3.933   6.429
 5493SOL     OW17377   3.188   4.110   4.302
 5493SOL    HW117378   3.235   4.199   4.310
 5493SOL    HW217379   3.256   4.037   4.302
 5494SOL     OW17380   0.686   3.609   6.409
 5494SOL    HW117381   0.601   3.565   6.382
 5494SOL    HW217382   0.666   3.694   6.458
 5495SOL     OW17383   5.242   0.982   1.064
 5495SOL    HW117384   5.327   0.995   1.115
 5495SOL    HW217385   5.194   1.069   1.056
 5496SOL     OW17386   4.209   0.745   3.441
 5496SOL    HW117387   4.235   0.713   3.350
 5496SOL    HW217388   4.121   0.704   3.467
 5497SOL     OW17389   6.841   1.221   5.009
 5497SOL    HW117390   6.915   1.256   5.067
 5497SOL    HW217391   6.876   1.147   4.951
 5498SOL     OW17392   6.950   5.714   1.344
 5498SOL    HW117393   6.990   5.803   1.323
 5498SOL    HW217394   6.941   5.703   1.443
 5499SOL     OW17395   0.303   0.456   4.695
 5499SOL    HW117396   0.268   0.382   4.636
 5499SOL    HW217397   0.377   0.504   4.648
 5500SOL     OW17398   0.851   0.340   0.163
 5500SOL    HW117399   0.908   0.268   0.122
 5500SOL    HW217400   0.910   0.414   0.194
 5501SOL     OW17401   3.529   1.777   6.739
 5501SOL    HW117402   3.594   1.800   6.811
 5501SOL    HW217403   3.578   1.751   6.656
 5502SOL     OW17404   4.799   3.871   0.401
 5502SOL    HW117405   4.871   3.936   0.378
 5502SOL    HW217406   4.831   3.778   0.380
 5503SOL     OW17407   6.651   4.179   1.508
 5503SOL    HW117408   6.597   4.253   1.548
 5503SOL    HW217409   6.747   4.193   1.531
 5504SOL     OW17410   4.751   1.608   5.386
 5504SOL    HW117411   4.725   1.704   5.379
 5504SOL    HW217412   4.843   1.596   5.350
 5505SOL     OW17413   1.957   5.102   3.645
 5505SOL    HW117414   1.932   5.185   3.595
 5505SOL    HW217415   1.927   5.022   3.593
 5506SOL     OW17416   0.380   3.701   0.697
 5506SOL    HW117417   0.287   3.714   0.731
 5506SOL    HW217418   0.446   3.717   0.771
 5507SOL     OW17419   4.303   1.037   4.654
 5507SOL    HW117420   4.377   1.006   4.595
 5507SOL    HW217421   4.260   1.118   4.615
 5508SOL     OW17422   1.308   0.977   0.273
 5508SOL    HW117423   1.359   0.903   0.316
 5508SOL    HW217424   1.218   0.944   0.246
 5509SOL     OW17425   0.444   6.169   6.146
 5509SOL    HW117426   0.460   6.196   6.241
 5509SOL    HW217427   0.532   6.161   6.099
 5510SOL     OW17428   4.768   5.269   0.298
 5510SOL    HW117429   4.707   5.338   0.338
 5510SOL    HW217430   4.863   5.297   0.311
 5511SOL     OW17431   0.937   0.254   3.853
 5511SOL    HW117432   0.998   0.175   3.864
 5511SOL    HW217433   0.888   0.247   3.766
 5512SOL     OW17434   5.268   2.292   0.675
 5512SOL    HW117435   5.292   2.281   0.772
 5512SOL    HW217436   5.203   2.221   0.649
 5513SOL     OW17437   3.668   4.967   5.945
 5513SOL    HW117438   3.741   4.992   6.008
 5513SOL    HW217439   3.585   4.945   5.997
 5514SOL     OW17440   3.458   0.443   4.666
 5514SOL    HW117441   3.509   0.382   4.606
 5514SOL    HW217442   3.453   0.534   4.625
 5515SOL     OW17443   0.798   5.833   2.138
 5515SOL    HW117444   0.896   5.847   2.151
 5515SOL    HW217445   0.781   5.800   2.045
 5516SOL     OW17446   1.933   3.176   6.049
 5516SOL    HW117447   1.906   3.258   6.098
 5516SOL    HW217448   1.852   3.133   6.008
 5517SOL     OW17449   2.103   3.355   2.201
 5517SOL    HW117450   2.068   3.270   2.161
 5517SOL    HW217451   2.147   3.409   2.129
 5518SOL     OW17452   5.675   6.063   6.656
 5518SOL    HW117453   5.585   6.089   6.690
 5518SOL    HW217454   5.666   6.018   6.567
 5519SOL     OW17455   5.227   3.053   2.944
 5519SOL    HW117456   5.260   3.084   2.855
 5519SOL    HW217457   5.139   3.007   2.932
 5520SOL     OW17458   6.531   6.818   2.528
 5520SOL    HW117459   6.455   6.772   2.573
 5520SOL    HW217460   6.501   6.907   2.492
 5521SOL     OW17461   4.947   6.507   2.139
 5521SOL    HW117462   4.860   6.556   2.151
 5521SOL    HW217463   4.931   6.425   2.084
 5522SOL     OW17464   6.294   4.673   0.482
 5522SOL    HW117465   6.225   4.730   0.438
 5522SOL    HW217466   6.295   4.692   0.580
 5523SOL     OW17467   4.074   1.637   1.630
 5523SOL    HW117468   4.106   1.547   1.660
 5523SOL    HW217469   4.081   1.702   1.705
 5524SOL     OW17470   4.459   0.351   4.654
 5524SOL    HW117471   4.548   0.311   4.679
 5524SOL    HW217472   4.462   0.379   4.559
 5525SOL     OW17473   0.471   2.135   0.275
 5525SOL    HW117474   0.534   2.093   0.210
 5525SOL    HW217475   0.467   2.080   0.359
 5526SOL     OW17476   4.780   4.843   2.932
 5526SOL    HW117477   4.708   4.822   2.998
 5526SOL    HW217478   4.846   4.906   2.973
 5527SOL     OW17479   4.914   3.658   4.141
 5527SOL    HW117480   4.999   3.633   4.095
 5527SOL    HW217481   4.865   3.575   4.167
 5528SOL     OW17482   1.679   1.001   0.566
 5528SOL    HW117483   1.750   1.063   0.534
 5528SOL    HW217484   1.695   0.909   0.530
 5529SOL     OW17485   3.402   6.953   5.091
 5529SOL    HW117486   3.315   6.938   5.137
 5529SOL    HW217487   3.454   6.868   5.090
 5530SOL     OW17488   5.943   1.945   0.978
 5530SOL    HW117489   5.875   1.980   0.914
 5530SOL    HW217490   6.023   2.006   0.978
 5531SOL     OW17491   3.588   3.665   1.803
 5531SOL    HW117492   3.682   3.641   1.777
 5531SOL    HW217493   3.563   3.616   1.886
 5532SOL     OW17494   1.099   3.351   0.968
 5532SOL    HW117495   1.095   3.368   0.870
 5532SOL    HW217496   1.182   3.298   0.989
 5533SOL     OW17497   4.048   2.080   2.950
 5533SOL    HW117498   4.116   2.100   3.021
 5533SOL    HW217499   4.095   2.069   2.862
 5534SOL     OW17500   1.197   1.596   6.938
 5534SOL    HW117501   1.133   1.652   6.992
 5534SOL    HW217502   1.265   1.556   6.999
 5535SOL     OW17503   1.124   1.625   3.422
 5535SOL    HW117504   1.088   1.653   3.333
 5535SOL    HW217505   1.203   1.566   3.408
 5536SOL     OW17506   3.935   0.876   4.220
 5536SOL    HW117507   4.023   0.868   4.266
 5536SOL    HW217508   3.877   0.942   4.269
 5537SOL     OW17509   2.816   1.283   2.331
 5537SOL    HW117510   2.884   1.240   2.389
 5537SOL    HW217511   2.818   1.243   2.240
 5538SOL     OW17512   3.396   5.563   5.242
 5538SOL    HW117513   3.375   5.474   5.284
 5538SOL    HW217514   3.437   5.623   5.310
 5539SOL     OW17515   0.828   3.932   1.719
 5539SOL    HW117516   0.765   3.907   1.646
 5539SOL    HW217517   0.778   3.982   1.790
 5540SOL     OW17518   4.577   4.372   4.041
 5540SOL    HW117519   4.593   4.292   3.983
 5540SOL    HW217520   4.586   4.346   4.137
 5541SOL     OW17521   4.925   0.498   6.643
 5541SOL    HW117522   4.904   0.584   6.595
 5541SOL    HW217523   4.858   0.429   6.618
 5542SOL     OW17524   4.744   3.545   6.040
 5542SOL    HW117525   4.798   3.513   6.118
 5542SOL    HW217526   4.720   3.467   5.983
 5543SOL     OW17527   4.211   3.968   6.519
 5543SOL    HW117528   4.240   3.890   6.575
 5543SOL    HW217529   4.114   3.958   6.497
 5544SOL     OW17530   5.037   5.342   6.769
 5544SOL    HW117531   4.967   5.291   6.819
 5544SOL    HW217532   5.065   5.421   6.822
 5545SOL     OW17533   4.518   1.096   2.805
 5545SOL    HW117534   4.588   1.099   2.877
 5545SOL    HW217535   4.512   1.186   2.762
 5546SOL     OW17536   0.453   4.623   4.654
 5546SOL    HW117537   0.409   4.705   4.690
 5546SOL    HW217538   0.550   4.642   4.636
 5547SOL     OW17539   2.988   6.785   5.565
 5547SOL    HW117540   2.966   6.816   5.657
 5547SOL    HW217541   2.971   6.859   5.500
 5548SOL     OW17542   6.114   2.313   5.294
 5548SOL    HW117543   6.137   2.370   5.372
 5548SOL    HW217544   6.016   2.319   5.276
 5549SOL     OW17545   4.323   5.099   6.676
 5549SOL    HW117546   4.238   5.074   6.723
 5549SOL    HW217547   4.397   5.040   6.708
 5550SOL     OW17548   2.856   5.340   2.729
 5550SOL    HW117549   2.936   5.281   2.721
 5550SOL    HW217550   2.871   5.407   2.802
 5551SOL     OW17551   2.237   1.159   2.709
 5551SOL    HW117552   2.247   1.176   2.807
 5551SOL    HW217553   2.157   1.102   2.693
 5552SOL     OW17554   0.140   0.849   6.848
 5552SOL    HW117555   0.195   0.925   6.882
 5552SOL    HW217556   0.166   0.765   6.894
 5553SOL     OW17557   3.764   6.523   0.451
 5553SOL    HW117558   3.678   6.572   0.467
 5553SOL    HW217559   3.828   6.584   0.405
 5554SOL     OW17560   3.098   1.623   5.405
 5554SOL    HW117561   3.018   1.577   5.366
 5554SOL    HW217562   3.069   1.679   5.482
 5555SOL     OW17563   0.577   5.085   3.781
 5555SOL    HW117564   0.629   5.000   3.771
 5555SOL    HW217565   0.512   5.093   3.706
 5556SOL     OW17566   0.102   3.000   4.100
 5556SOL    HW117567   0.114   2.997   4.200
 5556SOL    HW217568   0.008   2.974   4.078
 5557SOL     OW17569   3.361   5.036   3.428
 5557SOL    HW117570   3.325   4.999   3.514
 5557SOL    HW217571   3.313   4.992   3.351
 5558SOL     OW17572   5.211   3.470   5.536
 5558SOL    HW117573   5.111   3.458   5.531
 5558SOL    HW217574   5.255   3.414   5.466
 5559SOL     OW17575   2.760   0.077   2.382
 5559SOL    HW117576   2.714   0.070   2.471
 5559SOL    HW217577   2.776   7.013   2.345
 5560SOL     OW17578   0.347   6.860   2.681
 5560SOL    HW117579   0.403   6.852   2.763
 5560SOL    HW217580   0.395   6.917   2.614
 5561SOL     OW17581   2.406   2.222   3.841
 5561SOL    HW117582   2.362   2.214   3.930
 5561SOL    HW217583   2.458   2.138   3.822
 5562SOL     OW17584   1.795   1.956   6.576
 5562SOL    HW117585   1.696   1.947   6.564
 5562SOL    HW217586   1.834   1.999   6.495
 5563SOL     OW17587   4.440   6.541   2.629
 5563SOL    HW117588   4.395   6.456   2.601
 5563SOL    HW217589   4.454   6.599   2.548
 5564SOL     OW17590   5.243   1.832   1.511
 5564SOL    HW117591   5.202   1.865   1.596
 5564SOL    HW217592   5.287   1.744   1.527
 5565SOL     OW17593   4.875   2.090   6.006
 5565SOL    HW117594   4.840   2.183   6.024
 5565SOL    HW217595   4.937   2.093   5.928
 5566SOL     OW17596   1.168   5.373   1.473
 5566SOL    HW117597   1.100   5.416   1.414
 5566SOL    HW217598   1.142   5.387   1.569
 5567SOL     OW17599   0.913   4.893   0.737
 5567SOL    HW117600   0.897   4.919   0.832
 5567SOL    HW217601   0.839   4.928   0.680
 5568SOL     OW17602   4.589   2.207   2.023
 5568SOL    HW117603   4.577   2.293   2.073
 5568SOL    HW217604   4.645   2.224   1.942
 5569SOL     OW17605   4.087   1.812   1.839
 5569SOL    HW117606   4.127   1.856   1.919
 5569SOL    HW217607   3.999   1.855   1.819
 5570SOL     OW17608   6.177   5.029   4.680
 5570SOL    HW117609   6.273   5.031   4.705
 5570SOL    HW217610   6.123   4.995   4.757
 5571SOL     OW17611   0.314   6.444   0.432
 5571SOL    HW117612   0.312   6.402   0.341
 5571SOL    HW217613   0.335   6.374   0.500
 5572SOL     OW17614   2.679   2.559   6.651
 5572SOL    HW117615   2.644   2.537   6.742
 5572SOL    HW217616   2.616   2.527   6.581
 5573SOL     OW17617   1.015   2.923   0.618
 5573SOL    HW117618   0.980   2.963   0.703
 5573SOL    HW217619   1.001   2.824   0.620
 5574SOL     OW17620   6.791   1.381   4.328
 5574SOL    HW117621   6.795   1.412   4.423
 5574SOL    HW217622   6.804   1.282   4.325
 5575SOL     OW17623   1.634   0.873   1.613
 5575SOL    HW117624   1.648   0.952   1.673
 5575SOL    HW217625   1.546   0.830   1.635
 5576SOL     OW17626   6.286   5.212   1.754
 5576SOL    HW117627   6.218   5.271   1.710
 5576SOL    HW217628   6.296   5.238   1.850
 5577SOL     OW17629   2.407   3.315   5.365
 5577SOL    HW117630   2.392   3.279   5.458
 5577SOL    HW217631   2.330   3.288   5.307
 5578SOL     OW17632   3.648   2.698   0.486
 5578SOL    HW117633   3.596   2.777   0.454
 5578SOL    HW217634   3.699   2.723   0.569
 5579SOL     OW17635   6.007   3.663   5.998
 5579SOL    HW117636   6.022   3.669   5.900
 5579SOL    HW217637   5.919   3.705   6.022
 5580SOL     OW17638   4.490   2.200   0.739
 5580SOL    HW117639   4.498   2.292   0.777
 5580SOL    HW217640   4.399   2.164   0.756
 5581SOL     OW17641   2.748   0.338   0.777
 5581SOL    HW117642   2.839   0.373   0.800
 5581SOL    HW217643   2.758   0.251   0.728
 5582SOL     OW17644   3.270   3.499   4.230
 5582SOL    HW117645   3.235   3.585   4.191
 5582SOL    HW217646   3.193   3.439   4.251
 5583SOL     OW17647   4.189   6.829   2.532
 5583SOL    HW117648   4.205   6.885   2.452
 5583SOL    HW217649   4.253   6.855   2.605
 5584SOL     OW17650   5.754   3.924   3.667
 5584SOL    HW117651   5.850   3.928   3.641
 5584SOL    HW217652   5.731   3.831   3.697
 5585SOL     OW17653   5.755   0.357   4.002
 5585SOL    HW117654   5.658   0.335   4.005
 5585SOL    HW217655   5.776   0.401   3.915
 5586SOL     OW17656   1.655   2.374   6.322
 5586SOL    HW117657   1.739   2.422   6.347
 5586SOL    HW217658   1.677   2.293   6.268
 5587SOL     OW17659   3.871   0.065   2.465
 5587SOL    HW117660   3.888   0.050   2.563
 5587SOL    HW217661   3.852   0.162   2.450
 5588SOL     OW17662   1.468   6.764   4.470
 5588SOL    HW117663   1.409   6.845   4.465
 5588SOL    HW217664   1.527   6.761   4.389
 5589SOL     OW17665   5.084   2.846   5.831
 5589SOL    HW117666   5.165   2.803   5.793
 5589SOL    HW217667   5.105   2.886   5.920
 5590SOL     OW17668   6.568   5.522   3.313
 5590SOL    HW117669   6.550   5.619   3.328
 5590SOL    HW217670   6.488   5.479   3.272
 5591SOL     OW17671   5.544   0.653   0.188
 5591SOL    HW117672   5.508   0.662   0.095
 5591SOL    HW217673   5.638   0.686   0.191
 5592SOL     OW17674   2.079   3.482   3.778
 5592SOL    HW117675   2.023   3.399   3.788
 5592SOL    HW217676   2.148   3.484   3.851
 5593SOL     OW17677   0.188   2.476   5.914
 5593SOL    HW117678   0.155   2.476   6.009
 5593SOL    HW217679   0.287   2.480   5.913
 5594SOL     OW17680   2.355   1.147   6.988
 5594SOL    HW117681   2.360   1.246   6.975
 5594SOL    HW217682   2.432   1.117   0.018
 5595SOL     OW17683   6.634   0.712   5.632
 5595SOL    HW117684   6.629   0.811   5.623
 5595SOL    HW217685   6.725   0.681   5.605
 5596SOL     OW17686   6.027   7.025   2.674
 5596SOL    HW117687   6.045   0.090   2.708
 5596SOL    HW217688   5.933   7.020   2.639
 5597SOL     OW17689   5.198   2.503   5.754
 5597SOL    HW117690   5.135   2.473   5.682
 5597SOL    HW217691   5.182   2.448   5.836
 5598SOL     OW17692   5.245   2.363   3.581
 5598SOL    HW117693   5.153   2.385   3.614
 5598SOL    HW217694   5.283   2.288   3.636
 5599SOL     OW17695   5.574   4.068   1.755
 5599SOL    HW117696   5.568   4.167   1.768
 5599SOL    HW217697   5.490   4.025   1.788
 5600SOL     OW17698   2.567   0.174   2.993
 5600SOL    HW117699   2.653   0.204   3.033
 5600SOL    HW217700   2.498   0.166   3.065
 5601SOL     OW17701   5.173   2.845   5.470
 5601SOL    HW117702   5.080   2.873   5.496
 5601SOL    HW217703   5.172   2.750   5.438
 5602SOL     OW17704   0.267   2.069   3.874
 5602SOL    HW117705   0.210   2.092   3.795
 5602SOL    HW217706   0.275   2.149   3.934
 5603SOL     OW17707   4.467   2.656   5.168
 5603SOL    HW117708   4.373   2.679   5.143
 5603SOL    HW217709   4.530   2.719   5.122
 5604SOL     OW17710   0.765   0.901   4.262
 5604SOL    HW117711   0.767   0.824   4.326
 5604SOL    HW217712   0.678   0.902   4.212
 5605SOL     OW17713   0.778   0.277   5.035
 5605SOL    HW117714   0.688   0.237   5.019
 5605SOL    HW217715   0.785   0.364   4.985
 5606SOL     OW17716   4.734   1.521   0.171
 5606SOL    HW117717   4.744   1.512   0.072
 5606SOL    HW217718   4.665   1.590   0.192
 5607SOL     OW17719   6.218   2.357   3.305
 5607SOL    HW117720   6.253   2.269   3.274
 5607SOL    HW217721   6.120   2.362   3.288
 5608SOL     OW17722   6.208   0.554   2.960
 5608SOL    HW117723   6.155   0.478   2.921
 5608SOL    HW217724   6.305   0.541   2.939
 5609SOL     OW17725   4.441   6.342   0.365
 5609SOL    HW117726   4.530   6.342   0.410
 5609SOL    HW217727   4.439   6.272   0.293
 5610SOL     OW17728   5.698   4.045   6.882
 5610SOL    HW117729   5.723   4.023   6.976
 5610SOL    HW217730   5.720   3.968   6.823
 5611SOL     OW17731   0.074   4.403   2.047
 5611SOL    HW117732   0.017   4.441   2.120
 5611SOL    HW217733   0.028   4.415   1.959
 5612SOL     OW17734   3.186   3.059   0.470
 5612SOL    HW117735   3.232   3.143   0.498
 5612SOL    HW217736   3.232   2.980   0.511
 5613SOL     OW17737   6.913   5.202   4.184
 5613SOL    HW117738   7.002   5.176   4.223
 5613SOL    HW217739   6.853   5.235   4.257
 5614SOL     OW17740   6.535   1.772   4.250
 5614SOL    HW117741   6.560   1.798   4.157
 5614SOL    HW217742   6.617   1.756   4.304
 5615SOL     OW17743   0.344   2.270   2.238
 5615SOL    HW117744   0.418   2.321   2.281
 5615SOL    HW217745   0.361   2.172   2.247
 5616SOL     OW17746   2.231   1.619   4.707
 5616SOL    HW117747   2.158   1.675   4.667
 5616SOL    HW217748   2.207   1.522   4.698
 5617SOL     OW17749   1.927   5.090   4.740
 5617SOL    HW117750   1.831   5.100   4.712
 5617SOL    HW217751   1.981   5.165   4.701
 5618SOL     OW17752   6.329   5.367   3.617
 5618SOL    HW117753   6.241   5.409   3.594
 5618SOL    HW217754   6.391   5.437   3.653
 5619SOL     OW17755   2.955   3.248   3.864
 5619SOL    HW117756   2.925   3.227   3.957
 5619SOL    HW217757   2.949   3.166   3.808
 5620SOL     OW17758   4.217   4.157   5.918
 5620SOL    HW117759   4.174   4.149   6.008
 5620SOL    HW217760   4.147   4.149   5.847
 5621SOL     OW17761   1.813   2.758   6.363
 5621SOL    HW117762   1.907   2.774   6.392
 5621SOL    HW217763   1.761   2.843   6.371
 5622SOL     OW17764   4.320   5.868   5.164
 5622SOL    HW117765   4.312   5.772   5.136
 5622SOL    HW217766   4.244   5.920   5.126
 5623SOL     OW17767   4.992   7.010   4.488
 5623SOL    HW117768   4.897   0.006   4.506
 5623SOL    HW217769   4.998   6.947   4.411
 5624SOL     OW17770   0.413   5.316   3.251
 5624SOL    HW117771   0.364   5.318   3.338
 5624SOL    HW217772   0.441   5.408   3.226
 5625SOL     OW17773   1.176   5.835   4.422
 5625SOL    HW117774   1.087   5.873   4.443
 5625SOL    HW217775   1.196   5.760   4.484
 5626SOL     OW17776   1.745   4.776   4.199
 5626SOL    HW117777   1.682   4.698   4.206
 5626SOL    HW217778   1.814   4.757   4.129
 5627SOL     OW17779   0.561   5.814   6.001
 5627SOL    HW117780   0.487   5.874   6.032
 5627SOL    HW217781   0.537   5.777   5.912
 5628SOL     OW17782   2.820   3.281   0.701
 5628SOL    HW117783   2.771   3.272   0.787
 5628SOL    HW217784   2.876   3.199   0.685
 5629SOL     OW17785   3.889   3.230   1.227
 5629SOL    HW117786   3.878   3.164   1.302
 5629SOL    HW217787   3.846   3.317   1.252
 5630SOL     OW17788   1.761   3.738   6.498
 5630SOL    HW117789   1.727   3.832   6.500
 5630SOL    HW217790   1.859   3.738   6.478
 5631SOL     OW17791   4.705   0.979   2.350
 5631SOL    HW117792   4.786   1.032   2.376
 5631SOL    HW217793   4.702   0.895   2.404
 5632SOL     OW17794   5.108   0.866   6.343
 5632SOL    HW117795   5.177   0.938   6.337
 5632SOL    HW217796   5.099   0.821   6.254
 5633SOL     OW17797   0.624   4.878   4.313
 5633SOL    HW117798   0.686   4.824   4.370
 5633SOL    HW217799   0.529   4.853   4.333
 5634SOL     OW17800   2.510   5.323   5.390
 5634SOL    HW117801   2.418   5.295   5.418
 5634SOL    HW217802   2.521   5.312   5.291
 5635SOL     OW17803   3.051   0.168   6.906
 5635SOL    HW117804   3.147   0.192   6.891
 5635SOL    HW217805   3.044   0.111   6.988
 5636SOL     OW17806   5.855   1.526   5.882
 5636SOL    HW117807   5.952   1.526   5.861
 5636SOL    HW217808   5.814   1.439   5.855
 5637SOL     OW17809   5.782   6.974   4.175
 5637SOL    HW117810   5.800   6.908   4.102
 5637SOL    HW217811   5.867   7.017   4.203
 5638SOL     OW17812   5.568   5.957   1.357
 5638SOL    HW117813   5.573   5.870   1.309
 5638SOL    HW217814   5.474   5.974   1.386
 5639SOL     OW17815   1.323   0.856   1.467
 5639SOL    HW117816   1.345   0.798   1.389
 5639SOL    HW217817   1.365   0.817   1.550
 5640SOL     OW17818   2.398   7.018   2.665
 5640SOL    HW117819   2.360   0.082   2.652
 5640SOL    HW217820   2.375   6.961   2.587
 5641SOL     OW17821   0.739   4.347   5.758
 5641SOL    HW117822   0.696   4.342   5.848
 5641SOL    HW217823   0.766   4.442   5.739
 5642SOL     OW17824   0.477   5.135   6.126
 5642SOL    HW117825   0.470   5.045   6.082
 5642SOL    HW217826   0.555   5.135   6.189
 5643SOL     OW17827   3.268   1.074   4.697
 5643SOL    HW117828   3.193   1.049   4.635
 5643SOL    HW217829   3.240   1.056   4.792
 5644SOL     OW17830   5.158   1.316   4.036
 5644SOL    HW117831   5.174   1.343   3.941
 5644SOL    HW217832   5.138   1.218   4.039
 5645SOL     OW17833   6.199   4.419   2.468
 5645SOL    HW117834   6.199   4.319   2.463
 5645SOL    HW217835   6.144   4.448   2.547
 5646SOL     OW17836   1.453   5.492   3.752
 5646SOL    HW117837   1.379   5.506   3.817
 5646SOL    HW217838   1.494   5.580   3.727
 5647SOL     OW17839   6.521   6.304   6.347
 5647SOL    HW117840   6.578   6.355   6.411
 5647SOL    HW217841   6.485   6.222   6.393
 5648SOL     OW17842   1.919   1.086   2.876
 5648SOL    HW117843   1.926   1.169   2.821
 5648SOL    HW217844   1.830   1.043   2.861
 5649SOL     OW17845   1.542   6.902   5.289
 5649SOL    HW117846   1.638   6.890   5.314
 5649SOL    HW217847   1.484   6.849   5.351
 5650SOL     OW17848   0.289   4.983   1.277
 5650SOL    HW117849   0.217   4.971   1.209
 5650SOL    HW217850   0.375   5.005   1.231
 5651SOL     OW17851   0.218   1.456   1.593
 5651SOL    HW117852   0.189   1.431   1.686
 5651SOL    HW217853   0.167   1.401   1.527
 5652SOL     OW17854   4.890   6.277   2.006
 5652SOL    HW117855   4.870   6.208   2.075
 5652SOL    HW217856   4.971   6.250   1.954
 5653SOL     OW17857   0.197   6.221   6.578
 5653SOL    HW117858   0.228   6.310   6.612
 5653SOL    HW217859   0.170   6.163   6.654
 5654SOL     OW17860   0.270   7.010   6.238
 5654SOL    HW117861   0.251   0.049   6.166
 5654SOL    HW217862   0.186   6.990   6.288
 5655SOL     OW17863   0.977   2.972   4.389
 5655SOL    HW117864   1.035   3.006   4.314
 5655SOL    HW217865   0.882   2.999   4.372
 5656SOL     OW17866   3.184   4.988   0.584
 5656SOL    HW117867   3.097   4.981   0.633
 5656SOL    HW217868   3.182   4.926   0.505
 5657SOL     OW17869   4.696   6.732   1.092
 5657SOL    HW117870   4.762   6.802   1.062
 5657SOL    HW217871   4.648   6.696   1.012
 5658SOL     OW17872   2.945   6.564   6.093
 5658SOL    HW117873   2.871   6.622   6.128
 5658SOL    HW217874   3.024   6.622   6.070
 5659SOL     OW17875   2.893   3.662   2.863
 5659SOL    HW117876   2.862   3.707   2.780
 5659SOL    HW217877   2.918   3.732   2.931
 5660SOL     OW17878   5.468   0.622   6.407
 5660SOL    HW117879   5.539   0.684   6.374
 5660SOL    HW217880   5.396   0.676   6.451
 5661SOL     OW17881   0.034   5.302   6.054
 5661SOL    HW117882   0.129   5.324   6.078
 5661SOL    HW217883   0.017   5.205   6.070
 5662SOL     OW17884   2.379   4.787   4.175
 5662SOL    HW117885   2.397   4.765   4.271
 5662SOL    HW217886   2.462   4.774   4.121
 5663SOL     OW17887   1.289   4.090   6.792
 5663SOL    HW117888   1.236   4.061   6.871
 5663SOL    HW217889   1.334   4.177   6.811
 5664SOL     OW17890   0.003   3.875   3.997
 5664SOL    HW117891   7.002   3.793   3.949
 5664SOL    HW217892   7.015   3.955   3.939
 5665SOL     OW17893   1.640   1.184   6.380
 5665SOL    HW117894   1.697   1.226   6.309
 5665SOL    HW217895   1.576   1.252   6.416
 5666SOL     OW17896   5.063   5.937   1.051
 5666SOL    HW117897   5.045   5.849   1.095
 5666SOL    HW217898   5.156   5.938   1.014
 5667SOL     OW17899   0.602   4.798   3.468
 5667SOL    HW117900   0.510   4.806   3.508
 5667SOL    HW217901   0.632   4.887   3.435
 5668SOL     OW17902   5.235   2.305   6.560
 5668SOL    HW117903   5.146   2.314   6.514
 5668SOL    HW217904   5.289   2.234   6.515
 5669SOL     OW17905   0.276   3.592   6.656
 5669SOL    HW117906   0.229   3.596   6.743
 5669SOL    HW217907   0.275   3.498   6.621
 5670SOL     OW17908   0.498   2.954   3.516
 5670SOL    HW117909   0.411   2.904   3.519
 5670SOL    HW217910   0.530   2.960   3.422
 5671SOL     OW17911   0.971   6.938   6.513
 5671SOL    HW117912   0.948   6.933   6.416
 5671SOL    HW217913   1.007   0.001   6.535
 5672SOL     OW17914   4.112   5.039   6.250
 5672SOL    HW117915   4.119   5.104   6.326
 5672SOL    HW217916   4.203   5.009   6.223
 5673SOL     OW17917   1.145   6.868   1.888
 5673SOL    HW117918   1.122   6.783   1.841
 5673SOL    HW217919   1.067   6.901   1.940
 5674SOL     OW17920   6.877   3.526   2.447
 5674SOL    HW117921   6.812   3.602   2.449
 5674SOL    HW217922   6.867   3.471   2.530
 5675SOL     OW17923   4.355   2.457   5.695
 5675SOL    HW117924   4.260   2.483   5.713
 5675SOL    HW217925   4.362   2.358   5.688
 5676SOL     OW17926   2.072   1.757   1.609
 5676SOL    HW117927   1.986   1.731   1.653
 5676SOL    HW217928   2.059   1.843   1.561
 5677SOL     OW17929   0.673   2.170   3.246
 5677SOL    HW117930   0.737   2.247   3.248
 5677SOL    HW217931   0.706   2.096   3.304
 5678SOL     OW17932   2.787   6.836   3.206
 5678SOL    HW117933   2.863   6.899   3.224
 5678SOL    HW217934   2.803   6.787   3.120
 5679SOL     OW17935   1.387   6.926   3.903
 5679SOL    HW117936   1.446   6.992   3.855
 5679SOL    HW217937   1.371   6.958   3.996
 5680SOL     OW17938   1.586   5.370   0.951
 5680SOL    HW117939   1.600   5.455   1.001
 5680SOL    HW217940   1.492   5.338   0.964
 5681SOL     OW17941   1.097   3.747   6.878
 5681SOL    HW117942   1.108   3.724   6.781
 5681SOL    HW217943   1.154   3.826   6.900
 5682SOL     OW17944   2.177   4.694   6.211
 5682SOL    HW117945   2.122   4.654   6.285
 5682SOL    HW217946   2.167   4.638   6.129
 5683SOL     OW17947   4.503   1.859   6.097
 5683SOL    HW117948   4.603   1.851   6.106
 5683SOL    HW217949   4.460   1.821   6.179
 5684SOL     OW17950   4.173   3.570   4.588
 5684SOL    HW117951   4.136   3.662   4.576
 5684SOL    HW217952   4.271   3.571   4.569
 5685SOL     OW17953   0.492   4.636   1.530
 5685SOL    HW117954   0.450   4.547   1.510
 5685SOL    HW217955   0.486   4.653   1.628
 5686SOL     OW17956   2.855   0.742   0.303
 5686SOL    HW117957   2.842   0.671   0.235
 5686SOL    HW217958   2.830   0.707   0.394
 5687SOL     OW17959   6.737   3.884   4.851
 5687SOL    HW117960   6.794   3.965   4.864
 5687SOL    HW217961   6.685   3.894   4.766
 5688SOL     OW17962   6.305   1.215   0.081
 5688SOL    HW117963   6.396   1.252   0.062
 5688SOL    HW217964   6.237   1.287   0.072
 5689SOL     OW17965   3.998   1.030   6.963
 5689SOL    HW117966   3.983   0.961   0.005
 5689SOL    HW217967   4.016   0.986   6.875
 5690SOL     OW17968   2.602   6.315   1.406
 5690SOL    HW117969   2.564   6.226   1.433
 5690SOL    HW217970   2.702   6.308   1.402
 5691SOL     OW17971   3.175   6.347   2.372
 5691SOL    HW117972   3.126   6.387   2.294
 5691SOL    HW217973   3.264   6.313   2.341
 5692SOL     OW17974   0.024   2.758   5.745
 5692SOL    HW117975   0.066   2.808   5.670
 5692SOL    HW217976   0.093   2.703   5.792
 5693SOL     OW17977   5.449   2.942   2.107
 5693SOL    HW117978   5.509   2.876   2.063
 5693SOL    HW217979   5.354   2.910   2.102
 5694SOL     OW17980   0.509   1.070   3.774
 5694SOL    HW117981   0.553   1.019   3.847
 5694SOL    HW217982   0.578   1.106   3.711
 5695SOL     OW17983   0.960   2.587   3.163
 5695SOL    HW117984   0.896   2.634   3.223
 5695SOL    HW217985   0.932   2.492   3.153
 5696SOL     OW17986   1.622   0.448   3.050
 5696SOL    HW117987   1.620   0.349   3.037
 5696SOL    HW217988   1.539   0.478   3.097
 5697SOL     OW17989   6.196   1.886   0.644
 5697SOL    HW117990   6.236   1.931   0.723
 5697SOL    HW217991   6.138   1.810   0.674
 5698SOL     OW17992   0.388   2.574   1.955
 5698SOL    HW117993   0.421   2.666   1.935
 5698SOL    HW217994   0.466   2.512   1.963
 5699SOL     OW17995   6.543   2.321   3.532
 5699SOL    HW117996   6.589   2.372   3.460
 5699SOL    HW217997   6.496   2.242   3.493
 5700SOL     OW17998   6.740   6.386   4.589
 5700SOL    HW117999   6.648   6.361   4.621
 5700SOL    HW218000   6.809   6.334   4.641
 5701SOL     OW18001   0.938   5.869   3.203
 5701SOL    HW118002   1.033   5.900   3.198
 5701SOL    HW218003   0.880   5.929   3.147
 5702SOL     OW18004   1.899   0.113   5.947
 5702SOL    HW118005   1.963   0.189   5.944
 5702SOL    HW218006   1.864   0.096   5.854
 5703SOL     OW18007   5.042   4.779   0.369
 5703SOL    HW118008   5.035   4.763   0.468
 5703SOL    HW218009   5.101   4.858   0.353
 5704SOL     OW18010   3.984   5.180   2.468
 5704SOL    HW118011   3.983   5.247   2.543
 5704SOL    HW218012   4.073   5.135   2.465
 5705SOL     OW18013   6.134   0.911   0.514
 5705SOL    HW118014   6.047   0.861   0.513
 5705SOL    HW218015   6.168   0.921   0.421
 5706SOL     OW18016   1.171   1.647   0.649
 5706SOL    HW118017   1.218   1.620   0.566
 5706SOL    HW218018   1.093   1.586   0.666
 5707SOL     OW18019   0.495   6.653   0.441
 5707SOL    HW118020   0.545   6.657   0.527
 5707SOL    HW218021   0.427   6.580   0.445
 5708SOL     OW18022   5.598   6.457   1.416
 5708SOL    HW118023   5.540   6.512   1.356
 5708SOL    HW218024   5.669   6.412   1.362
 5709SOL     OW18025   1.144   6.720   3.536
 5709SOL    HW118026   1.050   6.688   3.543
 5709SOL    HW218027   1.182   6.733   3.628
 5710SOL     OW18028   2.299   3.231   5.611
 5710SOL    HW118029   2.354   3.293   5.667
 5710SOL    HW218030   2.208   3.270   5.597
 5711SOL     OW18031   5.396   0.750   3.107
 5711SOL    HW118032   5.313   0.804   3.105
 5711SOL    HW218033   5.382   0.665   3.056
 5712SOL     OW18034   0.692   6.226   5.724
 5712SOL    HW118035   0.784   6.256   5.697
 5712SOL    HW218036   0.651   6.174   5.648
 5713SOL     OW18037   1.094   2.037   0.994
 5713SOL    HW118038   1.010   2.014   1.044
 5713SOL    HW218039   1.154   1.957   0.991
 5714SOL     OW18040   1.210   6.359   0.057
 5714SOL    HW118041   1.173   6.301   7.012
 5714SOL    HW218042   1.307   6.377   0.039
 5715SOL     OW18043   1.243   5.946   3.535
 5715SOL    HW118044   1.256   5.929   3.437
 5715SOL    HW218045   1.231   5.859   3.583
 5716SOL     OW18046   1.143   3.784   5.588
 5716SOL    HW118047   1.127   3.699   5.638
 5716SOL    HW218048   1.183   3.852   5.649
 5717SOL     OW18049   1.897   5.362   0.338
 5717SOL    HW118050   1.990   5.394   0.315
 5717SOL    HW218051   1.830   5.421   0.293
 5718SOL     OW18052   1.066   4.313   6.049
 5718SOL    HW118053   1.029   4.402   6.022
 5718SOL    HW218054   1.071   4.308   6.149
 5719SOL     OW18055   2.352   1.206   6.333
 5719SOL    HW118056   2.377   1.249   6.246
 5719SOL    HW218057   2.303   1.121   6.315
 5720SOL     OW18058   1.012   4.746   4.582
 5720SOL    HW118059   1.067   4.821   4.618
 5720SOL    HW218060   1.061   4.703   4.505
 5721SOL     OW18061   0.331   4.012   0.919
 5721SOL    HW118062   0.344   3.951   0.997
 5721SOL    HW218063   0.420   4.037   0.881
 5722SOL     OW18064   5.794   1.621   5.003
 5722SOL    HW118065   5.757   1.681   4.932
 5722SOL    HW218066   5.769   1.657   5.093
 5723SOL     OW18067   4.111   4.000   0.267
 5723SOL    HW118068   4.162   3.952   0.338
 5723SOL    HW218069   4.056   3.934   0.215
 5724SOL     OW18070   3.989   2.397   5.308
 5724SOL    HW118071   4.027   2.371   5.397
 5724SOL    HW218072   4.055   2.455   5.260
 5725SOL     OW18073   5.093   5.961   3.168
 5725SOL    HW118074   5.018   6.023   3.146
 5725SOL    HW218075   5.148   5.944   3.087
 5726SOL     OW18076   6.396   3.436   3.542
 5726SOL    HW118077   6.422   3.411   3.449
 5726SOL    HW218078   6.462   3.399   3.607
 5727SOL     OW18079   0.062   3.140   3.679
 5727SOL    HW118080   0.134   3.190   3.632
 5727SOL    HW218081   0.102   3.073   3.741
 5728SOL     OW18082   4.398   1.425   6.197
 5728SOL    HW118083   4.457   1.356   6.239
 5728SOL    HW218084   4.392   1.505   6.255
 5729SOL     OW18085   0.936   1.186   0.732
 5729SOL    HW118086   1.006   1.127   0.691
 5729SOL    HW218087   0.932   1.169   0.830
 5730SOL     OW18088   4.436   5.487   5.770
 5730SOL    HW118089   4.428   5.495   5.671
 5730SOL    HW218090   4.396   5.569   5.813
 5731SOL     OW18091   2.103   6.720   3.963
 5731SOL    HW118092   2.094   6.711   4.062
 5731SOL    HW218093   2.059   6.643   3.918
 5732SOL     OW18094   6.583   4.221   4.910
 5732SOL    HW118095   6.591   4.141   4.969
 5732SOL    HW218096   6.543   4.193   4.822
 5733SOL     OW18097   3.219   0.544   5.459
 5733SOL    HW118098   3.316   0.527   5.445
 5733SOL    HW218099   3.201   0.559   5.556
 5734SOL     OW18100   1.683   6.661   6.574
 5734SOL    HW118101   1.592   6.635   6.542
 5734SOL    HW218102   1.683   6.758   6.598
 5735SOL     OW18103   3.873   1.563   2.983
 5735SOL    HW118104   3.828   1.536   2.898
 5735SOL    HW218105   3.888   1.662   2.983
 5736SOL     OW18106   5.604   4.784   0.448
 5736SOL    HW118107   5.624   4.710   0.384
 5736SOL    HW218108   5.560   4.745   0.530
 5737SOL     OW18109   5.320   6.169   0.254
 5737SOL    HW118110   5.394   6.224   0.217
 5737SOL    HW218111   5.233   6.198   0.214
 5738SOL     OW18112   3.722   1.721   6.914
 5738SOL    HW118113   3.732   1.622   6.904
 5738SOL    HW218114   3.794   1.767   6.861
 5739SOL     OW18115   1.414   6.721   5.461
 5739SOL    HW118116   1.360   6.702   5.543
 5739SOL    HW218117   1.490   6.655   5.456
 5740SOL     OW18118   4.661   3.497   1.362
 5740SOL    HW118119   4.755   3.463   1.363
 5740SOL    HW218120   4.647   3.557   1.441
 5741SOL     OW18121   0.059   3.759   4.235
 5741SOL    HW118122   7.021   3.686   4.256
 5741SOL    HW218123   0.028   3.809   4.154
 5742SOL     OW18124   4.609   6.163   2.987
 5742SOL    HW118125   4.588   6.167   2.890
 5742SOL    HW218126   4.605   6.255   3.026
 5743SOL     OW18127   3.082   5.651   5.378
 5743SOL    HW118128   3.165   5.706   5.383
 5743SOL    HW218129   3.079   5.603   5.290
 5744SOL     OW18130   5.554   1.008   1.969
 5744SOL    HW118131   5.546   1.065   2.050
 5744SOL    HW218132   5.543   0.912   1.994
 5745SOL     OW18133   2.674   0.861   4.134
 5745SOL    HW118134   2.602   0.822   4.191
 5745SOL    HW218135   2.747   0.794   4.120
 5746SOL     OW18136   4.949   6.622   1.329
 5746SOL    HW118137   4.957   6.586   1.422
 5746SOL    HW218138   4.853   6.643   1.310
 5747SOL     OW18139   0.839   5.284   1.596
 5747SOL    HW118140   0.840   5.190   1.563
 5747SOL    HW218141   0.931   5.310   1.627
 5748SOL     OW18142   1.827   0.026   0.712
 5748SOL    HW118143   1.852   0.119   0.735
 5748SOL    HW218144   1.907   6.994   0.718
 5749SOL     OW18145   1.628   6.749   4.929
 5749SOL    HW118146   1.700   6.815   4.908
 5749SOL    HW218147   1.588   6.714   4.844
 5750SOL     OW18148   6.265   6.205   5.385
 5750SOL    HW118149   6.298   6.117   5.419
 5750SOL    HW218150   6.165   6.205   5.383
 5751SOL     OW18151   2.386   2.682   4.859
 5751SOL    HW118152   2.325   2.654   4.934
 5751SOL    HW218153   2.451   2.750   4.893
 5752SOL     OW18154   5.645   0.234   0.529
 5752SOL    HW118155   5.623   0.310   0.590
 5752SOL    HW218156   5.567   0.216   0.469
 5753SOL     OW18157   3.625   4.187   4.866
 5753SOL    HW118158   3.536   4.174   4.824
 5753SOL    HW218159   3.668   4.270   4.828
 5754SOL     OW18160   0.923   5.612   1.778
 5754SOL    HW118161   1.016   5.630   1.747
 5754SOL    HW218162   0.868   5.582   1.700
 5755SOL     OW18163   1.462   2.087   6.252
 5755SOL    HW118164   1.494   2.088   6.158
 5755SOL    HW218165   1.520   2.026   6.307
 5756SOL     OW18166   0.647   0.463   2.695
 5756SOL    HW118167   0.587   0.512   2.757
 5756SOL    HW218168   0.591   0.406   2.633
 5757SOL     OW18169   0.348   5.491   4.142
 5757SOL    HW118170   0.376   5.570   4.088
 5757SOL    HW218171   0.361   5.408   4.088
 5758SOL     OW18172   2.427   1.499   2.671
 5758SOL    HW118173   2.470   1.416   2.636
 5758SOL    HW218174   2.361   1.534   2.605
 5759SOL     OW18175   4.630   0.780   0.326
 5759SOL    HW118176   4.609   0.876   0.307
 5759SOL    HW218177   4.701   0.774   0.395
 5760SOL     OW18178   6.302   2.075   0.852
 5760SOL    HW118179   6.215   2.112   0.887
 5760SOL    HW218180   6.343   2.142   0.790
 5761SOL     OW18181   6.151   5.025   5.757
 5761SOL    HW118182   6.223   5.032   5.826
 5761SOL    HW218183   6.115   4.932   5.755
 5762SOL     OW18184   4.917   4.477   0.993
 5762SOL    HW118185   4.996   4.443   1.044
 5762SOL    HW218186   4.949   4.542   0.923
 5763SOL     OW18187   5.801   6.159   0.755
 5763SOL    HW118188   5.741   6.156   0.675
 5763SOL    HW218189   5.825   6.254   0.775
 5764SOL     OW18190   4.461   4.668   4.369
 5764SOL    HW118191   4.396   4.732   4.410
 5764SOL    HW218192   4.554   4.707   4.373
 5765SOL     OW18193   6.232   3.423   0.213
 5765SOL    HW118194   6.156   3.359   0.224
 5765SOL    HW218195   6.298   3.410   0.286
 5766SOL     OW18196   1.740   1.972   5.210
 5766SOL    HW118197   1.663   1.909   5.202
 5766SOL    HW218198   1.820   1.932   5.165
 5767SOL     OW18199   2.520   0.025   0.970
 5767SOL    HW118200   2.524   6.953   0.981
 5767SOL    HW218201   2.613   0.062   0.961
 5768SOL     OW18202   0.574   6.911   3.685
 5768SOL    HW118203   0.526   6.980   3.631
 5768SOL    HW218204   0.525   6.824   3.677
 5769SOL     OW18205   2.635   5.041   4.243
 5769SOL    HW118206   2.588   4.986   4.312
 5769SOL    HW218207   2.601   5.135   4.245
 5770SOL     OW18208   6.823   6.417   6.110
 5770SOL    HW118209   6.764   6.445   6.187
 5770SOL    HW218210   6.918   6.437   6.133
 5771SOL     OW18211   0.965   0.017   4.290
 5771SOL    HW118212   0.890   7.007   4.236
 5771SOL    HW218213   0.964   0.117   4.284
 5772SOL     OW18214   5.054   1.288   1.163
 5772SOL    HW118215   5.131   1.346   1.186
 5772SOL    HW218216   4.991   1.338   1.103
 5773SOL     OW18217   4.306   1.169   3.365
 5773SOL    HW118218   4.363   1.088   3.357
 5773SOL    HW218219   4.271   1.177   3.459
 5774SOL     OW18220   3.321   6.939   4.153
 5774SOL    HW118221   3.368   6.948   4.240
 5774SOL    HW218222   3.226   6.911   4.169
 5775SOL     OW18223   1.131   0.206   2.141
 5775SOL    HW118224   1.062   0.269   2.179
 5775SOL    HW218225   1.218   0.221   2.187
 5776SOL     OW18226   0.590   0.097   3.918
 5776SOL    HW118227   0.548   0.023   3.865
 5776SOL    HW218228   0.552   0.097   4.011
 5777SOL     OW18229   6.679   0.341   5.234
 5777SOL    HW118230   6.695   0.415   5.169
 5777SOL    HW218231   6.586   0.349   5.271
 5778SOL     OW18232   1.357   0.364   0.229
 5778SOL    HW118233   1.398   0.273   0.233
 5778SOL    HW218234   1.378   0.414   0.313
 5779SOL     OW18235   4.999   2.292   0.935
 5779SOL    HW118236   5.096   2.312   0.945
 5779SOL    HW218237   4.954   2.366   0.885
 5780SOL     OW18238   6.277   6.116   3.773
 5780SOL    HW118239   6.326   6.151   3.853
 5780SOL    HW218240   6.318   6.030   3.743
 5781SOL     OW18241   0.174   5.129   4.181
 5781SOL    HW118242   0.228   5.196   4.232
 5781SOL    HW218243   0.175   5.151   4.084
 5782SOL     OW18244   1.953   1.830   1.011
 5782SOL    HW118245   1.942   1.917   0.962
 5782SOL    HW218246   2.047   1.798   1.001
 5783SOL     OW18247   0.954   1.038   1.332
 5783SOL    HW118248   1.046   1.044   1.293
 5783SOL    HW218249   0.954   0.971   1.406
 5784SOL     OW18250   0.013   6.124   5.377
 5784SOL    HW118251   0.044   6.151   5.469
 5784SOL    HW218252   7.020   6.206   5.324
 5785SOL     OW18253   2.351   2.092   0.166
 5785SOL    HW118254   2.433   2.114   0.114
 5785SOL    HW218255   2.318   2.175   0.212
 5786SOL     OW18256   0.486   4.346   0.470
 5786SOL    HW118257   0.416   4.391   0.525
 5786SOL    HW218258   0.532   4.413   0.412
 5787SOL     OW18259   2.399   1.622   4.505
 5787SOL    HW118260   2.330   1.625   4.578
 5787SOL    HW218261   2.466   1.551   4.526
 5788SOL     OW18262   3.043   1.571   1.771
 5788SOL    HW118263   3.098   1.558   1.854
 5788SOL    HW218264   3.030   1.669   1.755
 5789SOL     OW18265   3.675   4.899   0.409
 5789SOL    HW118266   3.652   4.844   0.489
 5789SOL    HW218267   3.678   4.996   0.436
 5790SOL     OW18268   1.554   4.249   5.218
 5790SOL    HW118269   1.506   4.177   5.169
 5790SOL    HW218270   1.643   4.264   5.176
 5791SOL     OW18271   3.991   1.266   2.340
 5791SOL    HW118272   4.024   1.263   2.435
 5791SOL    HW218273   3.965   1.360   2.317
 5792SOL     OW18274   5.949   3.354   2.319
 5792SOL    HW118275   5.934   3.282   2.386
 5792SOL    HW218276   5.860   3.383   2.282
 5793SOL     OW18277   5.408   1.233   3.897
 5793SOL    HW118278   5.397   1.253   3.994
 5793SOL    HW218279   5.427   1.135   3.885
 5794SOL     OW18280   2.813   1.562   0.375
 5794SOL    HW118281   2.731   1.615   0.395
 5794SOL    HW218282   2.871   1.613   0.312
 5795SOL     OW18283   6.320   0.034   0.019
 5795SOL    HW118284   6.291   0.129   0.006
 5795SOL    HW218285   6.402   0.017   6.992
 5796SOL     OW18286   4.263   1.579   6.774
 5796SOL    HW118287   4.308   1.662   6.743
 5796SOL    HW218288   4.331   1.513   6.805
 5797SOL     OW18289   4.555   2.754   6.168
 5797SOL    HW118290   4.523   2.670   6.212
 5797SOL    HW218291   4.526   2.833   6.222
 5798SOL     OW18292   0.838   4.616   5.557
 5798SOL    HW118293   0.895   4.689   5.519
 5798SOL    HW218294   0.881   4.527   5.539
 5799SOL     OW18295   0.230   0.566   2.934
 5799SOL    HW118296   0.213   0.611   2.846
 5799SOL    HW218297   0.144   0.531   2.970
 5800SOL     OW18298   6.499   6.573   1.860
 5800SOL    HW118299   6.436   6.596   1.786
 5800SOL    HW218300   6.467   6.490   1.906
 5801SOL     OW18301   2.163   2.112   3.349
 5801SOL    HW118302   2.205   2.048   3.286
 5801SOL    HW218303   2.172   2.205   3.314
 5802SOL     OW18304   0.793   4.518   2.005
 5802SOL    HW118305   0.840   4.564   2.080
 5802SOL    HW218306   0.802   4.573   1.922
 5803SOL     OW18307   2.234   4.339   2.318
 5803SOL    HW118308   2.145   4.380   2.297
 5803SOL    HW218309   2.225   4.278   2.397
 5804SOL     OW18310   0.667   5.347   3.818
 5804SOL    HW118311   0.590   5.391   3.771
 5804SOL    HW218312   0.669   5.250   3.797
 5805SOL     OW18313   3.025   3.289   6.801
 5805SOL    HW118314   3.000   3.385   6.812
 5805SOL    HW218315   3.085   3.279   6.722
 5806SOL     OW18316   0.440   5.727   4.745
 5806SOL    HW118317   0.520   5.668   4.753
 5806SOL    HW218318   0.361   5.673   4.717
 5807SOL     OW18319   0.647   4.020   2.474
 5807SOL    HW118320   0.564   3.976   2.438
 5807SOL    HW218321   0.622   4.108   2.515
 5808SOL     OW18322   5.656   5.591   4.733
 5808SOL    HW118323   5.601   5.570   4.813
 5808SOL    HW218324   5.737   5.642   4.761
 5809SOL     OW18325   5.552   1.509   4.436
 5809SOL    HW118326   5.620   1.447   4.397
 5809SOL    HW218327   5.484   1.457   4.488
 5810SOL     OW18328   3.178   1.706   4.680
 5810SOL    HW118329   3.175   1.765   4.760
 5810SOL    HW218330   3.255   1.731   4.622
 5811SOL     OW18331   2.718   0.829   5.767
 5811SOL    HW118332   2.723   0.811   5.669
 5811SOL    HW218333   2.803   0.799   5.811
 5812SOL     OW18334   6.532   2.741   4.262
 5812SOL    HW118335   6.595   2.696   4.325
 5812SOL    HW218336   6.545   2.840   4.266
 5813SOL     OW18337   2.123   2.221   0.767
 5813SOL    HW118338   2.123   2.240   0.865
 5813SOL    HW218339   2.151   2.126   0.752
 5814SOL     OW18340   6.145   4.921   1.373
 5814SOL    HW118341   6.237   4.953   1.394
 5814SOL    HW218342   6.080   4.995   1.391
 5815SOL     OW18343   4.116   2.259   4.379
 5815SOL    HW118344   4.063   2.343   4.369
 5815SOL    HW218345   4.194   2.261   4.316
 5816SOL     OW18346   4.410   5.499   0.295
 5816SOL    HW118347   4.388   5.413   0.248
 5816SOL    HW218348   4.360   5.574   0.252
 5817SOL     OW18349   5.551   3.700   6.181
 5817SOL    HW118350   5.579   3.605   6.191
 5817SOL    HW218351   5.462   3.705   6.136
 5818SOL     OW18352   6.495   6.325   4.704
 5818SOL    HW118353   6.435   6.359   4.776
 5818SOL    HW218354   6.486   6.226   4.697
 5819SOL     OW18355   4.117   6.979   6.985
 5819SOL    HW118356   4.022   6.961   7.010
 5819SOL    HW218357   4.120   7.027   6.897
 5820SOL     OW18358   3.962   5.697   3.850
 5820SOL    HW118359   4.008   5.679   3.763
 5820SOL    HW218360   3.954   5.612   3.902
 5821SOL     OW18361   0.075   6.888   1.342
 5821SOL    HW118362   7.004   6.875   1.332
 5821SOL    HW218363   0.111   6.935   1.261
 5822SOL     OW18364   1.224   2.308   1.993
 5822SOL    HW118365   1.183   2.307   1.902
 5822SOL    HW218366   1.191   2.387   2.044
 5823SOL     OW18367   1.530   1.354   5.458
 5823SOL    HW118368   1.579   1.312   5.382
 5823SOL    HW218369   1.571   1.327   5.545
 5824SOL     OW18370   6.574   5.260   2.629
 5824SOL    HW118371   6.658   5.291   2.672
 5824SOL    HW218372   6.570   5.292   2.534
 5825SOL     OW18373   1.918   1.571   5.656
 5825SOL    HW118374   1.920   1.575   5.556
 5825SOL    HW218375   2.007   1.598   5.693
 5826SOL     OW18376   0.141   4.796   5.309
 5826SOL    HW118377   0.063   4.798   5.371
 5826SOL    HW218378   0.149   4.705   5.268
 5827SOL     OW18379   1.905   4.478   4.869
 5827SOL    HW118380   1.826   4.476   4.929
 5827SOL    HW218381   1.956   4.392   4.878
 5828SOL     OW18382   6.460   2.025   1.256
 5828SOL    HW118383   6.448   1.927   1.237
 5828SOL    HW218384   6.483   2.073   1.171
 5829SOL     OW18385   1.549   0.762   3.111
 5829SOL    HW118386   1.564   0.781   3.015
 5829SOL    HW218387   1.637   0.747   3.157
 5830SOL     OW18388   5.295   6.546   4.897
 5830SOL    HW118389   5.368   6.478   4.897
 5830SOL    HW218390   5.299   6.600   4.982
 5831SOL     OW18391   0.457   1.026   5.511
 5831SOL    HW118392   0.371   1.032   5.561
 5831SOL    HW218393   0.451   1.080   5.427
 5832SOL     OW18394   3.010   5.000   6.569
 5832SOL    HW118395   3.071   5.079   6.560
 5832SOL    HW218396   2.996   4.958   6.480
 5833SOL     OW18397   3.373   3.671   4.667
 5833SOL    HW118398   3.283   3.705   4.638
 5833SOL    HW218399   3.381   3.677   4.766
 5834SOL     OW18400   0.322   2.854   0.005
 5834SOL    HW118401   0.346   2.762   0.036
 5834SOL    HW218402   0.281   2.905   0.080
 5835SOL     OW18403   5.325   3.098   3.821
 5835SOL    HW118404   5.382   3.105   3.902
 5835SOL    HW218405   5.229   3.106   3.847
 5836SOL     OW18406   2.691   0.046   2.633
 5836SOL    HW118407   2.601   0.016   2.663
 5836SOL    HW218408   2.758   0.029   2.706
 5837SOL     OW18409   3.798   4.289   5.902
 5837SOL    HW118410   3.717   4.236   5.881
 5837SOL    HW218411   3.871   4.267   5.837
 5838SOL     OW18412   3.352   2.469   6.630
 5838SOL    HW118413   3.363   2.535   6.556
 5838SOL    HW218414   3.425   2.483   6.697
 5839SOL     OW18415   0.622   1.924   2.082
 5839SOL    HW118416   0.615   1.896   2.178
 5839SOL    HW218417   0.627   1.842   2.024
 5840SOL     OW18418   0.556   5.291   6.530
 5840SOL    HW118419   0.457   5.285   6.518
 5840SOL    HW218420   0.577   5.353   6.606
 5841SOL     OW18421   5.254   1.835   2.530
 5841SOL    HW118422   5.186   1.762   2.541
 5841SOL    HW218423   5.288   1.836   2.436
 5842SOL     OW18424   4.590   3.113   1.416
 5842SOL    HW118425   4.644   3.029   1.401
 5842SOL    HW218426   4.629   3.163   1.493
 5843SOL     OW18427   1.926   4.324   2.915
 5843SOL    HW118428   1.994   4.333   2.843
 5843SOL    HW218429   1.870   4.242   2.898
 5844SOL     OW18430   1.871   6.366   6.434
 5844SOL    HW118431   1.803   6.417   6.487
 5844SOL    HW218432   1.932   6.430   6.389
 5845SOL     OW18433   0.194   0.823   2.334
 5845SOL    HW118434   0.216   0.904   2.389
 5845SOL    HW218435   0.276   0.793   2.285
 5846SOL     OW18436   0.533   2.741   4.152
 5846SOL    HW118437   0.544   2.832   4.193
 5846SOL    HW218438   0.496   2.678   4.220
 5847SOL     OW18439   2.382   2.273   1.748
 5847SOL    HW118440   2.323   2.206   1.794
 5847SOL    HW218441   2.467   2.228   1.720
 5848SOL     OW18442   2.519   5.383   3.394
 5848SOL    HW118443   2.425   5.353   3.410
 5848SOL    HW218444   2.573   5.369   3.476
 5849SOL     OW18445   0.030   0.163   6.468
 5849SOL    HW118446   6.967   0.207   6.476
 5849SOL    HW218447   0.097   0.231   6.436
 5850SOL     OW18448   6.836   2.876   1.514
 5850SOL    HW118449   6.827   2.825   1.429
 5850SOL    HW218450   6.754   2.863   1.570
 5851SOL     OW18451   5.300   3.806   3.182
 5851SOL    HW118452   5.226   3.764   3.131
 5851SOL    HW218453   5.344   3.738   3.241
 5852SOL     OW18454   6.660   5.848   3.155
 5852SOL    HW118455   6.726   5.855   3.230
 5852SOL    HW218456   6.705   5.807   3.076
 5853SOL     OW18457   3.865   6.117   4.044
 5853SOL    HW118458   3.917   6.199   4.070
 5853SOL    HW218459   3.926   6.038   4.046
 5854SOL     OW18460   5.740   5.015   5.966
 5854SOL    HW118461   5.795   5.038   5.885
 5854SOL    HW218462   5.643   5.029   5.945
 5855SOL     OW18463   0.252   1.492   4.561
 5855SOL    HW118464   0.207   1.581   4.562
 5855SOL    HW218465   0.210   1.433   4.630
 5856SOL     OW18466   1.720   5.913   4.053
 5856SOL    HW118467   1.802   5.951   4.096
 5856SOL    HW218468   1.656   5.987   4.031
 5857SOL     OW18469   6.604   2.135   5.891
 5857SOL    HW118470   6.647   2.225   5.881
 5857SOL    HW218471   6.559   2.110   5.806
 5858SOL     OW18472   2.425   2.550   2.413
 5858SOL    HW118473   2.472   2.467   2.442
 5858SOL    HW218474   2.425   2.555   2.313
 5859SOL     OW18475   5.638   6.233   1.759
 5859SOL    HW118476   5.540   6.241   1.772
 5859SOL    HW218477   5.657   6.211   1.663
 5860SOL     OW18478   0.824   4.411   1.703
 5860SOL    HW118479   0.919   4.379   1.706
 5860SOL    HW218480   0.821   4.510   1.720
 5861SOL     OW18481   4.553   1.325   4.710
 5861SOL    HW118482   4.588   1.237   4.744
 5861SOL    HW218483   4.557   1.392   4.784
 5862SOL     OW18484   5.034   5.164   1.923
 5862SOL    HW118485   4.953   5.212   1.889
 5862SOL    HW218486   5.100   5.154   1.848
 5863SOL     OW18487   3.222   0.974   4.972
 5863SOL    HW118488   3.133   1.000   5.011
 5863SOL    HW218489   3.290   1.043   4.998
 5864SOL     OW18490   3.693   3.925   1.719
 5864SOL    HW118491   3.745   3.929   1.804
 5864SOL    HW218492   3.623   3.853   1.725
 5865SOL     OW18493   5.641   0.830   5.178
 5865SOL    HW118494   5.568   0.898   5.177
 5865SOL    HW218495   5.603   0.740   5.154
 5866SOL     OW18496   4.012   4.524   0.643
 5866SOL    HW118497   4.100   4.495   0.605
 5866SOL    HW218498   3.942   4.520   0.571
 5867SOL     OW18499   1.054   3.901   0.804
 5867SOL    HW118500   1.151   3.923   0.817
 5867SOL    HW218501   1.012   3.970   0.744
 5868SOL     OW18502   0.581   1.246   5.360
 5868SOL    HW118503   0.626   1.271   5.274
 5868SOL    HW218504   0.639   1.273   5.437
 5869SOL     OW18505   2.062   6.639   4.217
 5869SOL    HW118506   1.972   6.623   4.257
 5869SOL    HW218507   2.131   6.585   4.265
 5870SOL     OW18508   5.145   6.125   4.801
 5870SOL    HW118509   5.147   6.103   4.703
 5870SOL    HW218510   5.105   6.216   4.813
 5871SOL     OW18511   3.875   2.999   1.099
 5871SOL    HW118512   3.869   3.093   1.134
 5871SOL    HW218513   3.971   2.973   1.089
 5872SOL     OW18514   3.934   5.785   1.747
 5872SOL    HW118515   3.960   5.879   1.770
 5872SOL    HW218516   3.997   5.750   1.677
 5873SOL     OW18517   3.307   2.037   1.327
 5873SOL    HW118518   3.236   1.995   1.271
 5873SOL    HW218519   3.265   2.084   1.404
 5874SOL     OW18520   3.533   4.535   0.043
 5874SOL    HW118521   3.500   4.559   6.979
 5874SOL    HW218522   3.586   4.611   0.081
 5875SOL     OW18523   4.351   0.907   6.832
 5875SOL    HW118524   4.450   0.920   6.842
 5875SOL    HW218525   4.306   0.997   6.824
 5876SOL     OW18526   3.271   3.286   0.577
 5876SOL    HW118527   3.188   3.330   0.543
 5876SOL    HW218528   3.278   3.299   0.676
 5877SOL     OW18529   0.345   0.168   0.582
 5877SOL    HW118530   0.443   0.147   0.580
 5877SOL    HW218531   0.332   0.267   0.579
 5878SOL     OW18532   5.496   5.411   4.095
 5878SOL    HW118533   5.456   5.345   4.159
 5878SOL    HW218534   5.561   5.469   4.143
 5879SOL     OW18535   1.826   3.475   6.705
 5879SOL    HW118536   1.810   3.561   6.658
 5879SOL    HW218537   1.740   3.426   6.717
 5880SOL     OW18538   5.103   4.473   6.736
 5880SOL    HW118539   5.130   4.566   6.713
 5880SOL    HW218540   5.076   4.424   6.653
 5881SOL     OW18541   1.239   0.210   1.751
 5881SOL    HW118542   1.226   0.141   1.680
 5881SOL    HW218543   1.164   0.204   1.817
 5882SOL     OW18544   0.922   6.539   5.847
 5882SOL    HW118545   0.830   6.515   5.818
 5882SOL    HW218546   0.917   6.605   5.923
 5883SOL     OW18547   1.127   1.210   0.132
 5883SOL    HW118548   1.096   1.126   0.177
 5883SOL    HW218549   1.059   1.282   0.146
 5884SOL     OW18550   4.787   1.430   5.071
 5884SOL    HW118551   4.785   1.381   5.158
 5884SOL    HW218552   4.726   1.509   5.076
 5885SOL     OW18553   0.118   5.522   2.378
 5885SOL    HW118554   0.053   5.533   2.303
 5885SOL    HW218555   0.117   5.427   2.409
 5886SOL     OW18556   1.137   1.996   4.235
 5886SOL    HW118557   1.172   2.022   4.325
 5886SOL    HW218558   1.212   1.962   4.178
 5887SOL     OW18559   2.579   2.083   1.620
 5887SOL    HW118560   2.523   2.002   1.636
 5887SOL    HW218561   2.644   2.064   1.546
 5888SOL     OW18562   2.504   6.955   1.249
 5888SOL    HW118563   2.566   6.908   1.186
 5888SOL    HW218564   2.462   0.005   1.203
 5889SOL     OW18565   5.985   1.673   6.226
 5889SOL    HW118566   5.922   1.596   6.238
 5889SOL    HW218567   6.007   1.712   6.316
 5890SOL     OW18568   2.291   0.189   2.836
 5890SOL    HW118569   2.377   0.214   2.880
 5890SOL    HW218570   2.225   0.160   2.906
 5891SOL     OW18571   2.463   4.140   0.663
 5891SOL    HW118572   2.427   4.086   0.739
 5891SOL    HW218573   2.424   4.232   0.666
 5892SOL     OW18574   0.391   5.166   1.899
 5892SOL    HW118575   0.476   5.210   1.928
 5892SOL    HW218576   0.406   5.116   1.814
 5893SOL     OW18577   2.161   4.704   2.169
 5893SOL    HW118578   2.224   4.637   2.128
 5893SOL    HW218579   2.131   4.671   2.259
 5894SOL     OW18580   0.870   6.037   5.162
 5894SOL    HW118581   0.967   6.014   5.163
 5894SOL    HW218582   0.834   6.035   5.256
 5895SOL     OW18583   6.011   3.829   3.649
 5895SOL    HW118584   6.098   3.871   3.675
 5895SOL    HW218585   6.028   3.748   3.593
 5896SOL     OW18586   4.924   1.668   1.169
 5896SOL    HW118587   5.013   1.626   1.190
 5896SOL    HW218588   4.868   1.669   1.252
 5897SOL     OW18589   4.053   0.776   1.010
 5897SOL    HW118590   4.069   0.677   1.005
 5897SOL    HW218591   4.078   0.810   1.100
 5898SOL     OW18592   2.557   0.817   5.172
 5898SOL    HW118593   2.531   0.864   5.088
 5898SOL    HW218594   2.594   0.727   5.150
 5899SOL     OW18595   5.662   6.348   6.555
 5899SOL    HW118596   5.669   6.265   6.611
 5899SOL    HW218597   5.612   6.419   6.605
 5900SOL     OW18598   6.920   4.381   3.205
 5900SOL    HW118599   6.982   4.402   3.130
 5900SOL    HW218600   6.948   4.431   3.287
 5901SOL     OW18601   3.125   0.811   1.328
 5901SOL    HW118602   3.164   0.796   1.237
 5901SOL    HW218603   3.083   0.901   1.331
 5902SOL     OW18604   5.499   3.231   5.802
 5902SOL    HW118605   5.514   3.208   5.899
 5902SOL    HW218606   5.565   3.182   5.746
 5903SOL     OW18607   4.452   3.868   6.421
 5903SOL    HW118608   4.449   3.843   6.324
 5903SOL    HW218609   4.372   3.923   6.444
 5904SOL     OW18610   0.925   4.405   1.136
 5904SOL    HW118611   0.836   4.449   1.149
 5904SOL    HW218612   0.988   4.468   1.091
 5905SOL     OW18613   6.552   0.538   3.510
 5905SOL    HW118614   6.616   0.604   3.470
 5905SOL    HW218615   6.602   0.457   3.539
 5906SOL     OW18616   4.571   2.280   4.647
 5906SOL    HW118617   4.560   2.379   4.642
 5906SOL    HW218618   4.518   2.245   4.724
 5907SOL     OW18619   1.381   6.717   0.942
 5907SOL    HW118620   1.377   6.682   0.849
 5907SOL    HW218621   1.417   6.810   0.941
 5908SOL     OW18622   6.828   4.116   0.184
 5908SOL    HW118623   6.897   4.178   0.147
 5908SOL    HW218624   6.778   4.074   0.108
 5909SOL     OW18625   6.350   5.091   6.554
 5909SOL    HW118626   6.284   5.137   6.494
 5909SOL    HW218627   6.310   5.082   6.645
 5910SOL     OW18628   0.393   4.398   1.471
 5910SOL    HW118629   0.359   4.428   1.383
 5910SOL    HW218630   0.412   4.300   1.468
 5911SOL     OW18631   6.607   4.920   6.563
 5911SOL    HW118632   6.580   4.824   6.574
 5911SOL    HW218633   6.526   4.978   6.564
 5912SOL     OW18634   5.977   3.298   6.765
 5912SOL    HW118635   6.000   3.381   6.817
 5912SOL    HW218636   6.048   3.229   6.780
 5913SOL     OW18637   3.553   3.341   6.486
 5913SOL    HW118638   3.477   3.386   6.440
 5913SOL    HW218639   3.519   3.262   6.537
 5914SOL     OW18640   3.087   5.793   6.098
 5914SOL    HW118641   3.003   5.752   6.133
 5914SOL    HW218642   3.151   5.806   6.174
 5915SOL     OW18643   5.847   4.080   1.593
 5915SOL    HW118644   5.830   4.131   1.509
 5915SOL    HW218645   5.761   4.065   1.641
 5916SOL     OW18646   4.061   6.123   5.678
 5916SOL    HW118647   4.121   6.162   5.748
 5916SOL    HW218648   4.094   6.151   5.588
 5917SOL     OW18649   3.457   3.480   3.903
 5917SOL    HW118650   3.369   3.432   3.907
 5917SOL    HW218651   3.496   3.487   3.995
 5918SOL     OW18652   2.324   3.769   5.307
 5918SOL    HW118653   2.387   3.702   5.347
 5918SOL    HW218654   2.373   3.854   5.288
 5919SOL     OW18655   3.388   2.290   0.784
 5919SOL    HW118656   3.448   2.246   0.718
 5919SOL    HW218657   3.293   2.277   0.755
 5920SOL     OW18658   3.530   0.017   0.451
 5920SOL    HW118659   3.486   0.010   0.361
 5920SOL    HW218660   3.483   0.086   0.505
 5921SOL     OW18661   3.399   5.200   5.866
 5921SOL    HW118662   3.489   5.224   5.901
 5921SOL    HW218663   3.334   5.194   5.941
 5922SOL     OW18664   6.784   5.434   3.488
 5922SOL    HW118665   6.704   5.449   3.429
 5922SOL    HW218666   6.804   5.518   3.538
 5923SOL     OW18667   5.174   0.216   1.143
 5923SOL    HW118668   5.106   0.280   1.106
 5923SOL    HW218669   5.227   0.177   1.068
 5924SOL     OW18670   6.325   1.949   4.819
 5924SOL    HW118671   6.333   2.044   4.791
 5924SOL    HW218672   6.247   1.907   4.772
 5925SOL     OW18673   4.331   5.753   3.196
 5925SOL    HW118674   4.367   5.846   3.185
 5925SOL    HW218675   4.242   5.757   3.241
 5926SOL     OW18676   4.053   4.891   2.223
 5926SOL    HW118677   4.111   4.945   2.162
 5926SOL    HW218678   3.960   4.889   2.187
 5927SOL     OW18679   1.678   4.434   3.368
 5927SOL    HW118680   1.661   4.446   3.466
 5927SOL    HW218681   1.693   4.338   3.349
 5928SOL     OW18682   3.218   0.643   1.553
 5928SOL    HW118683   3.170   0.682   1.474
 5928SOL    HW218684   3.304   0.603   1.523
 5929SOL     OW18685   0.655   6.483   5.801
 5929SOL    HW118686   0.608   6.528   5.725
 5929SOL    HW218687   0.659   6.384   5.784
 5930SOL     OW18688   0.205   1.688   3.409
 5930SOL    HW118689   0.144   1.737   3.347
 5930SOL    HW218690   0.239   1.605   3.364
 5931SOL     OW18691   5.905   5.395   3.217
 5931SOL    HW118692   5.815   5.433   3.237
 5931SOL    HW218693   5.896   5.298   3.194
 5932SOL     OW18694   2.313   6.395   1.302
 5932SOL    HW118695   2.281   6.326   1.237
 5932SOL    HW218696   2.323   6.354   1.393
 5933SOL     OW18697   0.575   5.937   2.900
 5933SOL    HW118698   0.652   6.000   2.903
 5933SOL    HW218699   0.496   5.982   2.857
 5934SOL     OW18700   3.821   3.612   4.153
 5934SOL    HW118701   3.885   3.580   4.224
 5934SOL    HW218702   3.805   3.710   4.165
 5935SOL     OW18703   4.168   3.167   5.242
 5935SOL    HW118704   4.259   3.171   5.283
 5935SOL    HW218705   4.165   3.225   5.161
 5936SOL     OW18706   3.986   3.756   0.640
 5936SOL    HW118707   4.076   3.744   0.597
 5936SOL    HW218708   3.934   3.671   0.634
 5937SOL     OW18709   0.619   4.825   2.333
 5937SOL    HW118710   0.697   4.826   2.396
 5937SOL    HW218711   0.595   4.730   2.311
 5938SOL     OW18712   1.283   5.544   3.991
 5938SOL    HW118713   1.224   5.474   4.030
 5938SOL    HW218714   1.240   5.634   4.004
 5939SOL     OW18715   3.655   0.110   3.186
 5939SOL    HW118716   3.615   0.022   3.213
 5939SOL    HW218717   3.693   0.155   3.267
 5940SOL     OW18718   4.167   5.548   1.340
 5940SOL    HW118719   4.105   5.471   1.322
 5940SOL    HW218720   4.142   5.590   1.427
 5941SOL     OW18721   6.396   3.206   1.775
 5941SOL    HW118722   6.406   3.194   1.676
 5941SOL    HW218723   6.486   3.208   1.817
 5942SOL     OW18724   4.626   3.001   6.617
 5942SOL    HW118725   4.534   3.027   6.647
 5942SOL    HW218726   4.636   3.019   6.519
 5943SOL     OW18727   3.368   5.353   0.785
 5943SOL    HW118728   3.386   5.259   0.756
 5943SOL    HW218729   3.273   5.360   0.816
 5944SOL     OW18730   5.621   2.230   1.026
 5944SOL    HW118731   5.690   2.281   1.077
 5944SOL    HW218732   5.585   2.157   1.084
 5945SOL     OW18733   6.484   5.332   5.364
 5945SOL    HW118734   6.492   5.286   5.452
 5945SOL    HW218735   6.564   5.390   5.349
 5946SOL     OW18736   3.392   3.186   5.579
 5946SOL    HW118737   3.416   3.279   5.552
 5946SOL    HW218738   3.304   3.161   5.538
 5947SOL     OW18739   4.195   3.310   1.798
 5947SOL    HW118740   4.280   3.360   1.787
 5947SOL    HW218741   4.183   3.285   1.894
 5948SOL     OW18742   3.868   4.872   3.468
 5948SOL    HW118743   3.878   4.841   3.563
 5948SOL    HW218744   3.958   4.882   3.427
 5949SOL     OW18745   3.907   3.097   1.464
 5949SOL    HW118746   3.933   3.008   1.501
 5949SOL    HW218747   3.975   3.166   1.491
 5950SOL     OW18748   5.355   2.777   5.704
 5950SOL    HW118749   5.312   2.814   5.621
 5950SOL    HW218750   5.423   2.709   5.678
 5951SOL     OW18751   0.239   5.538   4.629
 5951SOL    HW118752   0.155   5.589   4.612
 5951SOL    HW218753   0.217   5.451   4.675
 5952SOL     OW18754   5.709   5.517   4.263
 5952SOL    HW118755   5.706   5.470   4.351
 5952SOL    HW218756   5.707   5.616   4.279
 5953SOL     OW18757   6.509   2.754   5.468
 5953SOL    HW118758   6.593   2.702   5.478
 5953SOL    HW218759   6.525   2.832   5.408
 5954SOL     OW18760   0.143   4.592   5.742
 5954SOL    HW118761   0.064   4.557   5.691
 5954SOL    HW218762   0.222   4.599   5.681
 5955SOL     OW18763   4.979   5.667   2.549
 5955SOL    HW118764   5.057   5.610   2.576
 5955SOL    HW218765   4.908   5.663   2.619
 5956SOL     OW18766   3.678   1.740   6.508
 5956SOL    HW118767   3.730   1.655   6.506
 5956SOL    HW218768   3.738   1.816   6.531
 5957SOL     OW18769   4.503   0.511   5.831
 5957SOL    HW118770   4.527   0.469   5.743
 5957SOL    HW218771   4.422   0.569   5.819
 5958SOL     OW18772   6.413   5.820   2.307
 5958SOL    HW118773   6.333   5.848   2.361
 5958SOL    HW218774   6.426   5.721   2.316
 5959SOL     OW18775   3.827   1.990   5.057
 5959SOL    HW118776   3.876   1.910   5.092
 5959SOL    HW218777   3.877   2.073   5.084
 5960SOL     OW18778   4.343   6.263   4.826
 5960SOL    HW118779   4.316   6.226   4.737
 5960SOL    HW218780   4.380   6.355   4.813
 5961SOL     OW18781   5.285   1.407   3.738
 5961SOL    HW118782   5.262   1.365   3.650
 5961SOL    HW218783   5.331   1.340   3.796
 5962SOL     OW18784   4.449   5.864   1.026
 5962SOL    HW118785   4.368   5.806   1.036
 5962SOL    HW218786   4.531   5.807   1.027
 5963SOL     OW18787   3.575   2.995   4.430
 5963SOL    HW118788   3.649   2.964   4.491
 5963SOL    HW218789   3.614   3.045   4.353
 5964SOL     OW18790   0.441   5.423   5.376
 5964SOL    HW118791   0.487   5.502   5.337
 5964SOL    HW218792   0.442   5.347   5.311
 5965SOL     OW18793   1.288   2.572   6.691
 5965SOL    HW118794   1.368   2.519   6.662
 5965SOL    HW218795   1.207   2.514   6.690
 5966SOL     OW18796   2.516   5.638   5.210
 5966SOL    HW118797   2.429   5.598   5.178
 5966SOL    HW218798   2.498   5.729   5.248
 5967SOL     OW18799   4.055   6.045   1.016
 5967SOL    HW118800   4.143   6.054   1.063
 5967SOL    HW218801   4.071   6.019   0.920
 5968SOL     OW18802   4.535   1.182   2.345
 5968SOL    HW118803   4.593   1.100   2.348
 5968SOL    HW218804   4.528   1.215   2.251
 5969SOL     OW18805   6.836   0.799   6.230
 5969SOL    HW118806   6.818   0.739   6.151
 5969SOL    HW218807   6.911   0.760   6.284
 5970SOL     OW18808   0.482   4.201   2.620
 5970SOL    HW118809   0.533   4.249   2.691
 5970SOL    HW218810   0.402   4.157   2.660
 5971SOL     OW18811   1.552   1.008   3.259
 5971SOL    HW118812   1.589   0.917   3.242
 5971SOL    HW218813   1.453   1.002   3.273
 5972SOL     OW18814   5.230   6.720   7.012
 5972SOL    HW118815   5.279   6.805   6.994
 5972SOL    HW218816   5.247   6.691   0.079
 5973SOL     OW18817   1.578   4.273   2.303
 5973SOL    HW118818   1.671   4.236   2.291
 5973SOL    HW218819   1.529   4.267   2.216
 5974SOL     OW18820   5.492   4.347   6.458
 5974SOL    HW118821   5.587   4.327   6.483
 5974SOL    HW218822   5.467   4.291   6.379
 5975SOL     OW18823   3.225   1.811   0.737
 5975SOL    HW118824   3.194   1.806   0.642
 5975SOL    HW218825   3.146   1.810   0.798
 5976SOL     OW18826   3.297   3.416   4.909
 5976SOL    HW118827   3.323   3.507   4.941
 5976SOL    HW218828   3.260   3.424   4.816
 5977SOL     OW18829   1.772   4.400   1.314
 5977SOL    HW118830   1.865   4.372   1.287
 5977SOL    HW218831   1.759   4.496   1.293
 5978SOL     OW18832   4.942   6.008   3.530
 5978SOL    HW118833   5.020   5.948   3.510
 5978SOL    HW218834   4.857   5.960   3.507
 5979SOL     OW18835   6.559   6.917   2.795
 5979SOL    HW118836   6.583   6.836   2.848
 5979SOL    HW218837   6.548   6.892   2.699
 5980SOL     OW18838   3.856   3.618   0.328
 5980SOL    HW118839   3.830   3.713   0.345
 5980SOL    HW218840   3.956   3.612   0.322
 5981SOL     OW18841   6.416   0.755   2.391
 5981SOL    HW118842   6.351   0.831   2.385
 5981SOL    HW218843   6.467   0.748   2.305
 5982SOL     OW18844   6.546   2.829   0.485
 5982SOL    HW118845   6.557   2.856   0.581
 5982SOL    HW218846   6.617   2.763   0.461
 5983SOL     OW18847   1.526   0.662   4.548
 5983SOL    HW118848   1.474   0.741   4.581
 5983SOL    HW218849   1.602   0.644   4.610
 5984SOL     OW18850   6.640   6.576   5.082
 5984SOL    HW118851   6.640   6.582   4.982
 5984SOL    HW218852   6.729   6.603   5.117
 5985SOL     OW18853   6.534   3.290   3.914
 5985SOL    HW118854   6.553   3.345   3.996
 5985SOL    HW218855   6.435   3.276   3.906
 5986SOL     OW18856   3.351   3.880   4.286
 5986SOL    HW118857   3.447   3.854   4.276
 5986SOL    HW218858   3.293   3.810   4.244
 5987SOL     OW18859   4.378   0.669   5.207
 5987SOL    HW118860   4.390   0.740   5.138
 5987SOL    HW218861   4.373   0.579   5.163
 5988SOL     OW18862   4.685   6.886   5.131
 5988SOL    HW118863   4.593   6.882   5.092
 5988SOL    HW218864   4.683   6.941   5.214
 5989SOL     OW18865   2.996   5.525   0.210
 5989SOL    HW118866   3.053   5.596   0.167
 5989SOL    HW218867   2.912   5.567   0.244
 5990SOL     OW18868   4.238   4.502   0.474
 5990SOL    HW118869   4.188   4.455   0.401
 5990SOL    HW218870   4.335   4.478   0.468
 5991SOL     OW18871   4.081   5.396   5.701
 5991SOL    HW118872   4.076   5.443   5.612
 5991SOL    HW218873   4.161   5.336   5.702
 5992SOL     OW18874   3.501   0.344   3.988
 5992SOL    HW118875   3.489   0.282   4.066
 5992SOL    HW218876   3.590   0.328   3.946
 5993SOL     OW18877   3.190   6.213   5.476
 5993SOL    HW118878   3.195   6.302   5.520
 5993SOL    HW218879   3.266   6.203   5.411
 5994SOL     OW18880   6.466   2.344   1.702
 5994SOL    HW118881   6.492   2.347   1.606
 5994SOL    HW218882   6.442   2.250   1.727
 5995SOL     OW18883   5.849   4.907   2.943
 5995SOL    HW118884   5.947   4.909   2.959
 5995SOL    HW218885   5.814   5.000   2.935
 5996SOL     OW18886   0.890   6.010   0.981
 5996SOL    HW118887   0.953   6.084   1.006
 5996SOL    HW218888   0.941   5.938   0.933
 5997SOL     OW18889   1.223   6.178   2.889
 5997SOL    HW118890   1.205   6.109   2.960
 5997SOL    HW218891   1.152   6.248   2.892
 5998SOL     OW18892   6.218   1.744   1.377
 5998SOL    HW118893   6.165   1.755   1.292
 5998SOL    HW218894   6.219   1.830   1.427
 5999SOL     OW18895   1.649   1.968   2.793
 5999SOL    HW118896   1.742   1.999   2.775
 5999SOL    HW218897   1.612   2.018   2.871
 6000SOL     OW18898   3.798   6.900   1.989
 6000SOL    HW118899   3.868   6.946   1.934
 6000SOL    HW218900   3.708   6.939   1.970
 6001SOL     OW18901   0.650   4.260   6.638
 6001SOL    HW118902   0.745   4.229   6.628
 6001SOL    HW218903   0.589   4.181   6.636
 6002SOL     OW18904   6.750   0.233   0.987
 6002SOL    HW118905   6.783   0.300   1.053
 6002SOL    HW218906   6.795   0.248   0.898
 6003SOL     OW18907   0.064   2.197   4.254
 6003SOL    HW118908   0.076   2.112   4.305
 6003SOL    HW218909   6.994   2.220   4.249
 6004SOL     OW18910   0.301   4.300   3.031
 6004SOL    HW118911   0.219   4.358   3.031
 6004SOL    HW218912   0.286   4.222   3.092
 6005SOL     OW18913   4.884   5.287   4.692
 6005SOL    HW118914   4.978   5.318   4.677
 6005SOL    HW218915   4.856   5.227   4.618
 6006SOL     OW18916   3.327   0.206   6.970
 6006SOL    HW118917   3.366   0.233   6.882
 6006SOL    HW218918   3.293   0.287   7.018
 6007SOL     OW18919   4.916   3.605   4.699
 6007SOL    HW118920   4.883   3.601   4.794
 6007SOL    HW218921   4.899   3.517   4.654
 6008SOL     OW18922   2.309   5.665   5.907
 6008SOL    HW118923   2.343   5.576   5.939
 6008SOL    HW218924   2.285   5.658   5.810
 6009SOL     OW18925   4.246   0.882   4.872
 6009SOL    HW118926   4.258   0.935   4.788
 6009SOL    HW218927   4.150   0.886   4.900
 6010SOL     OW18928   1.367   4.139   3.044
 6010SOL    HW118929   1.426   4.121   2.966
 6010SOL    HW218930   1.381   4.069   3.114
 6011SOL     OW18931   4.572   2.591   2.916
 6011SOL    HW118932   4.487   2.601   2.864
 6011SOL    HW218933   4.552   2.580   3.013
 6012SOL     OW18934   6.320   1.537   7.000
 6012SOL    HW118935   6.315   1.625   0.019
 6012SOL    HW218936   6.231   1.491   7.005
 6013SOL     OW18937   5.785   2.075   2.852
 6013SOL    HW118938   5.708   2.114   2.801
 6013SOL    HW218939   5.860   2.141   2.854
 6014SOL     OW18940   4.282   2.800   0.730
 6014SOL    HW118941   4.340   2.724   0.701
 6014SOL    HW218942   4.186   2.772   0.725
 6015SOL     OW18943   5.421   2.006   5.082
 6015SOL    HW118944   5.361   2.060   5.140
 6015SOL    HW218945   5.484   1.953   5.139
 6016SOL     OW18946   0.315   1.433   6.355
 6016SOL    HW118947   0.257   1.476   6.425
 6016SOL    HW218948   0.395   1.392   6.399
 6017SOL     OW18949   6.562   4.478   2.861
 6017SOL    HW118950   6.530   4.427   2.781
 6017SOL    HW218951   6.601   4.414   2.927
 6018SOL     OW18952   3.501   1.552   6.984
 6018SOL    HW118953   3.521   1.650   6.983
 6018SOL    HW218954   3.581   1.501   6.952
 6019SOL     OW18955   6.523   1.460   4.289
 6019SOL    HW118956   6.548   1.555   4.267
 6019SOL    HW218957   6.605   1.407   4.307
 6020SOL     OW18958   2.204   5.326   1.677
 6020SOL    HW118959   2.189   5.228   1.669
 6020SOL    HW218960   2.142   5.363   1.747
 6021SOL     OW18961   3.688   0.697   2.468
 6021SOL    HW118962   3.709   0.700   2.371
 6021SOL    HW218963   3.691   0.790   2.506
 6022SOL     OW18964   4.628   1.652   5.052
 6022SOL    HW118965   4.656   1.721   5.119
 6022SOL    HW218966   4.649   1.684   4.960
 6023SOL     OW18967   6.086   1.497   2.330
 6023SOL    HW118968   6.170   1.531   2.288
 6023SOL    HW218969   6.007   1.527   2.276
 6024SOL     OW18970   0.778   4.350   3.518
 6024SOL    HW118971   0.827   4.343   3.431
 6024SOL    HW218972   0.680   4.353   3.502
 6025SOL     OW18973   3.437   1.670   1.976
 6025SOL    HW118974   3.452   1.682   1.878
 6025SOL    HW218975   3.427   1.759   2.020
 6026SOL     OW18976   0.079   4.468   4.370
 6026SOL    HW118977   0.163   4.421   4.343
 6026SOL    HW218978   0.034   4.506   4.289
 6027SOL     OW18979   1.258   3.957   5.845
 6027SOL    HW118980   1.168   4.000   5.841
 6027SOL    HW218981   1.261   3.893   5.921
 6028SOL     OW18982   0.877   3.960   0.341
 6028SOL    HW118983   0.885   3.870   0.298
 6028SOL    HW218984   0.848   4.027   0.272
 6029SOL     OW18985   2.079   6.578   4.836
 6029SOL    HW118986   2.009   6.525   4.788
 6029SOL    HW218987   2.056   6.584   4.933
 6030SOL     OW18988   3.708   6.482   3.227
 6030SOL    HW118989   3.726   6.553   3.158
 6030SOL    HW218990   3.681   6.526   3.313
 6031SOL     OW18991   3.543   5.198   3.767
 6031SOL    HW118992   3.610   5.195   3.693
 6031SOL    HW218993   3.464   5.252   3.737
 6032SOL     OW18994   2.124   3.404   3.242
 6032SOL    HW118995   2.157   3.312   3.261
 6032SOL    HW218996   2.170   3.469   3.302
 6033SOL     OW18997   3.209   1.825   2.253
 6033SOL    HW118998   3.268   1.785   2.323
 6033SOL    HW218999   3.264   1.851   2.173
 6034SOL     OW19000   1.663   5.661   4.942
 6034SOL    HW119001   1.738   5.600   4.914
 6034SOL    HW219002   1.699   5.750   4.966
 6035SOL     OW19003   0.414   0.429   3.218
 6035SOL    HW119004   0.480   0.488   3.264
 6035SOL    HW219005   0.458   0.344   3.190
 6036SOL     OW19006   6.487   6.431   4.289
 6036SOL    HW119007   6.403   6.462   4.244
 6036SOL    HW219008   6.497   6.332   4.279
 6037SOL     OW19009   4.302   4.420   5.551
 6037SOL    HW119010   4.311   4.511   5.593
 6037SOL    HW219011   4.341   4.351   5.611
 6038SOL     OW19012   1.338   2.849   6.340
 6038SOL    HW119013   1.406   2.786   6.377
 6038SOL    HW219014   1.384   2.932   6.308
 6039SOL     OW19015   3.579   2.946   2.251
 6039SOL    HW119016   3.586   2.890   2.168
 6039SOL    HW219017   3.666   2.945   2.299
 6040SOL     OW19018   0.444   2.317   6.488
 6040SOL    HW119019   0.361   2.369   6.510
 6040SOL    HW219020   0.436   2.279   6.396
 6041SOL     OW19021   1.920   0.455   4.890
 6041SOL    HW119022   1.990   0.513   4.929
 6041SOL    HW219023   1.963   0.382   4.836
 6042SOL     OW19024   5.220   5.975   2.105
 6042SOL    HW119025   5.239   6.016   2.194
 6042SOL    HW219026   5.261   5.884   2.102
 6043SOL     OW19027   0.908   4.120   5.676
 6043SOL    HW119028   0.960   4.154   5.597
 6043SOL    HW219029   0.844   4.190   5.706
 6044SOL     OW19030   1.703   2.702   1.615
 6044SOL    HW119031   1.780   2.752   1.654
 6044SOL    HW219032   1.686   2.733   1.522
 6045SOL     OW19033   6.106   5.516   1.216
 6045SOL    HW119034   6.006   5.514   1.216
 6045SOL    HW219035   6.138   5.594   1.161
 6046SOL     OW19036   3.051   1.841   6.999
 6046SOL    HW119037   3.035   1.902   6.921
 6046SOL    HW219038   3.147   1.849   0.000
 6047SOL     OW19039   6.201   2.222   2.029
 6047SOL    HW119040   6.112   2.237   2.071
 6047SOL    HW219041   6.190   2.180   1.939
 6048SOL     OW19042   4.327   6.424   3.699
 6048SOL    HW119043   4.336   6.489   3.624
 6048SOL    HW219044   4.417   6.386   3.722
 6049SOL     OW19045   5.997   3.748   5.738
 6049SOL    HW119046   5.932   3.823   5.729
 6049SOL    HW219047   5.957   3.664   5.700
 6050SOL     OW19048   3.261   4.702   5.252
 6050SOL    HW119049   3.317   4.775   5.211
 6050SOL    HW219050   3.165   4.727   5.244
 6051SOL     OW19051   1.892   1.658   4.313
 6051SOL    HW119052   1.880   1.610   4.400
 6051SOL    HW219053   1.962   1.729   4.324
 6052SOL     OW19054   6.417   6.343   0.275
 6052SOL    HW119055   6.374   6.253   0.266
 6052SOL    HW219056   6.453   6.372   0.186
 6053SOL     OW19057   3.084   0.759   6.348
 6053SOL    HW119058   3.073   0.858   6.359
 6053SOL    HW219059   3.002   0.722   6.303
 6054SOL     OW19060   2.825   4.203   0.444
 6054SOL    HW119061   2.909   4.160   0.479
 6054SOL    HW219062   2.758   4.131   0.423
 6055SOL     OW19063   5.291   1.545   5.746
 6055SOL    HW119064   5.368   1.515   5.802
 6055SOL    HW219065   5.242   1.618   5.794
 6056SOL     OW19066   5.290   3.297   4.750
 6056SOL    HW119067   5.377   3.251   4.771
 6056SOL    HW219068   5.263   3.354   4.827
 6057SOL     OW19069   5.417   2.874   4.319
 6057SOL    HW119070   5.454   2.848   4.230
 6057SOL    HW219071   5.432   2.800   4.385
 6058SOL     OW19072   5.187   2.869   2.144
 6058SOL    HW119073   5.111   2.809   2.171
 6058SOL    HW219074   5.152   2.961   2.128
 6059SOL     OW19075   4.514   5.750   5.306
 6059SOL    HW119076   4.480   5.817   5.240
 6059SOL    HW219077   4.577   5.687   5.261
 6060SOL     OW19078   3.052   4.190   6.316
 6060SOL    HW119079   3.142   4.177   6.358
 6060SOL    HW219080   3.022   4.284   6.332
 6061SOL     OW19081   4.188   1.904   1.023
 6061SOL    HW119082   4.256   1.832   1.014
 6061SOL    HW219083   4.124   1.883   1.097
 6062SOL     OW19084   1.385   1.382   4.721
 6062SOL    HW119085   1.384   1.327   4.805
 6062SOL    HW219086   1.376   1.322   4.642
 6063SOL     OW19087   3.456   1.393   6.490
 6063SOL    HW119088   3.415   1.449   6.562
 6063SOL    HW219089   3.414   1.302   6.491
 6064SOL     OW19090   2.715   6.128   2.012
 6064SOL    HW119091   2.654   6.204   1.990
 6064SOL    HW219092   2.738   6.079   1.929
 6065SOL     OW19093   5.733   6.908   1.865
 6065SOL    HW119094   5.700   6.838   1.801
 6065SOL    HW219095   5.680   6.991   1.855
 6066SOL     OW19096   4.172   1.475   0.023
 6066SOL    HW119097   4.178   1.541   0.097
 6066SOL    HW219098   4.153   1.522   6.964
 6067SOL     OW19099   5.433   2.134   6.436
 6067SOL    HW119100   5.508   2.163   6.376
 6067SOL    HW219101   5.459   2.147   6.531
 6068SOL     OW19102   5.630   3.010   4.504
 6068SOL    HW119103   5.553   2.995   4.566
 6068SOL    HW219104   5.639   2.932   4.443
 6069SOL     OW19105   7.015   3.358   5.143
 6069SOL    HW119106   6.948   3.349   5.069
 6069SOL    HW219107   6.969   3.390   5.226
 6070SOL     OW19108   2.396   1.335   6.574
 6070SOL    HW119109   2.370   1.282   6.494
 6070SOL    HW219110   2.477   1.390   6.553
 6071SOL     OW19111   5.323   5.008   4.183
 6071SOL    HW119112   5.351   5.059   4.264
 6071SOL    HW219113   5.246   4.948   4.205
 6072SOL     OW19114   6.851   0.493   2.777
 6072SOL    HW119115   6.770   0.487   2.719
 6072SOL    HW219116   6.823   0.497   2.873
 6073SOL     OW19117   6.573   4.163   0.296
 6073SOL    HW119118   6.672   4.172   0.285
 6073SOL    HW219119   6.541   4.229   0.363
 6074SOL     OW19120   0.876   6.641   4.325
 6074SOL    HW119121   0.867   6.600   4.415
 6074SOL    HW219122   0.936   6.585   4.268
 6075SOL     OW19123   6.980   2.148   6.819
 6075SOL    HW119124   7.022   2.233   6.788
 6075SOL    HW219125   6.885   2.165   6.846
 6076SOL     OW19126   2.687   5.951   4.797
 6076SOL    HW119127   2.662   5.884   4.867
 6076SOL    HW219128   2.650   5.923   4.709
 6077SOL     OW19129   4.138   5.977   2.084
 6077SOL    HW119130   4.177   6.043   2.149
 6077SOL    HW219131   4.049   5.947   2.117
 6078SOL     OW19132   3.959   4.709   1.777
 6078SOL    HW119133   4.027   4.682   1.846
 6078SOL    HW219134   3.868   4.702   1.816
 6079SOL     OW19135   3.233   3.268   6.237
 6079SOL    HW119136   3.190   3.186   6.199
 6079SOL    HW219137   3.163   3.328   6.275
 6080SOL     OW19138   6.687   1.295   1.957
 6080SOL    HW119139   6.681   1.231   2.033
 6080SOL    HW219140   6.670   1.247   1.871
 6081SOL     OW19141   6.182   3.033   4.965
 6081SOL    HW119142   6.234   3.022   5.050
 6081SOL    HW219143   6.171   3.130   4.945
 6082SOL     OW19144   3.027   1.678   3.228
 6082SOL    HW119145   3.083   1.650   3.306
 6082SOL    HW219146   3.024   1.605   3.160
 6083SOL     OW19147   0.735   5.477   6.123
 6083SOL    HW119148   0.700   5.498   6.214
 6083SOL    HW219149   0.659   5.460   6.061
 6084SOL     OW19150   0.280   5.733   3.813
 6084SOL    HW119151   0.197   5.700   3.860
 6084SOL    HW219152   0.257   5.760   3.720
 6085SOL     OW19153   0.317   4.256   0.217
 6085SOL    HW119154   0.351   4.203   0.294
 6085SOL    HW219155   0.333   4.207   0.132
 6086SOL     OW19156   2.981   1.101   5.021
 6086SOL    HW119157   2.982   1.142   5.112
 6086SOL    HW219158   2.984   1.174   4.952
 6087SOL     OW19159   4.247   5.681   0.183
 6087SOL    HW119160   4.334   5.718   0.150
 6087SOL    HW219161   4.188   5.659   0.105
 6088SOL     OW19162   6.188   6.643   4.559
 6088SOL    HW119163   6.109   6.591   4.592
 6088SOL    HW219164   6.171   6.673   4.465
 6089SOL     OW19165   0.262   3.281   1.424
 6089SOL    HW119166   0.218   3.201   1.384
 6089SOL    HW219167   0.308   3.333   1.353
 6090SOL     OW19168   1.916   6.205   6.183
 6090SOL    HW119169   1.977   6.250   6.118
 6090SOL    HW219170   1.840   6.266   6.205
 6091SOL     OW19171   1.965   1.853   2.322
 6091SOL    HW119172   1.907   1.825   2.245
 6091SOL    HW219173   2.029   1.780   2.344
 6092SOL     OW19174   2.759   0.592   3.410
 6092SOL    HW119175   2.819   0.634   3.342
 6092SOL    HW219176   2.772   0.492   3.408
 6093SOL     OW19177   1.147   2.767   2.863
 6093SOL    HW119178   1.225   2.822   2.831
 6093SOL    HW219179   1.083   2.753   2.788
 6094SOL     OW19180   3.843   0.610   0.801
 6094SOL    HW119181   3.753   0.620   0.843
 6094SOL    HW219182   3.913   0.617   0.872
 6095SOL     OW19183   4.463   3.473   6.699
 6095SOL    HW119184   4.508   3.540   6.641
 6095SOL    HW219185   4.448   3.389   6.647
 6096SOL     OW19186   5.889   0.354   3.466
 6096SOL    HW119187   5.989   0.362   3.463
 6096SOL    HW219188   5.855   0.325   3.377
 6097SOL     OW19189   1.653   6.865   1.872
 6097SOL    HW119190   1.669   6.939   1.937
 6097SOL    HW219191   1.562   6.827   1.886
 6098SOL     OW19192   1.294   2.213   6.458
 6098SOL    HW119193   1.211   2.240   6.409
 6098SOL    HW219194   1.362   2.180   6.392
 6099SOL     OW19195   0.066   5.997   0.138
 6099SOL    HW119196   0.079   6.059   0.060
 6099SOL    HW219197   0.041   6.050   0.219
 6100SOL     OW19198   4.631   3.460   6.931
 6100SOL    HW119199   4.579   3.503   7.005
 6100SOL    HW219200   4.568   3.429   6.860
 6101SOL     OW19201   6.514   2.079   5.243
 6101SOL    HW119202   6.415   2.069   5.251
 6101SOL    HW219203   6.537   2.122   5.156
 6102SOL     OW19204   3.818   0.619   4.052
 6102SOL    HW119205   3.720   0.615   4.035
 6102SOL    HW219206   3.835   0.663   4.140
 6103SOL     OW19207   0.619   2.230   2.888
 6103SOL    HW119208   0.621   2.131   2.881
 6103SOL    HW219209   0.525   2.263   2.874
 6104SOL     OW19210   6.192   2.539   5.787
 6104SOL    HW119211   6.263   2.606   5.807
 6104SOL    HW219212   6.184   2.475   5.863
 6105SOL     OW19213   2.286   0.315   5.727
 6105SOL    HW119214   2.211   0.376   5.753
 6105SOL    HW219215   2.309   0.255   5.804
 6106SOL     OW19216   1.488   4.084   5.463
 6106SOL    HW119217   1.426   4.005   5.464
 6106SOL    HW219218   1.481   4.129   5.374
 6107SOL     OW19219   2.434   4.414   4.518
 6107SOL    HW119220   2.484   4.370   4.592
 6107SOL    HW219221   2.359   4.355   4.489
 6108SOL     OW19222   0.479   2.730   2.488
 6108SOL    HW119223   0.452   2.643   2.449
 6108SOL    HW219224   0.414   2.755   2.560
 6109SOL     OW19225   4.916   2.894   6.290
 6109SOL    HW119226   4.850   2.957   6.249
 6109SOL    HW219227   4.974   2.944   6.354
 6110SOL     OW19228   4.042   2.714   6.922
 6110SOL    HW119229   4.096   2.660   6.858
 6110SOL    HW219230   4.044   2.670   7.012
 6111SOL     OW19231   1.514   4.466   2.479
 6111SOL    HW119232   1.543   4.399   2.411
 6111SOL    HW219233   1.421   4.444   2.509
 6112SOL     OW19234   3.762   0.643   3.768
 6112SOL    HW119235   3.795   0.647   3.863
 6112SOL    HW219236   3.770   0.549   3.734
 6113SOL     OW19237   0.844   1.142   5.781
 6113SOL    HW119238   0.881   1.108   5.867
 6113SOL    HW219239   0.760   1.193   5.799
 6114SOL     OW19240   5.213   4.725   0.825
 6114SOL    HW119241   5.269   4.792   0.875
 6114SOL    HW219242   5.229   4.634   0.862
 6115SOL     OW19243   5.625   6.165   3.273
 6115SOL    HW119244   5.720   6.134   3.264
 6115SOL    HW219245   5.620   6.262   3.249
 6116SOL     OW19246   2.890   1.367   0.554
 6116SOL    HW119247   2.967   1.403   0.606
 6116SOL    HW219248   2.859   1.436   0.489
 6117SOL     OW19249   6.081   0.575   5.998
 6117SOL    HW119250   6.147   0.511   6.038
 6117SOL    HW219251   5.999   0.579   6.055
 6118SOL     OW19252   0.056   0.306   1.481
 6118SOL    HW119253   0.029   0.403   1.489
 6118SOL    HW219254   0.038   0.260   1.567
 6119SOL     OW19255   0.734   3.679   4.490
 6119SOL    HW119256   0.797   3.654   4.417
 6119SOL    HW219257   0.751   3.773   4.519
 6120SOL     OW19258   4.438   6.852   3.496
 6120SOL    HW119259   4.531   6.878   3.519
 6120SOL    HW219260   4.407   6.906   3.417
 6121SOL     OW19261   0.081   3.233   4.597
 6121SOL    HW119262   0.170   3.239   4.552
 6121SOL    HW219263   0.092   3.241   4.696
 6122SOL     OW19264   3.764   6.897   1.685
 6122SOL    HW119265   3.741   6.882   1.781
 6122SOL    HW219266   3.683   6.924   1.634
 6123SOL     OW19267   6.508   0.326   6.556
 6123SOL    HW119268   6.494   0.309   6.654
 6123SOL    HW219269   6.516   0.425   6.541
 6124SOL     OW19270   2.615   0.512   6.252
 6124SOL    HW119271   2.667   0.427   6.262
 6124SOL    HW219272   2.525   0.501   6.294
 6125SOL     OW19273   3.736   5.441   0.418
 6125SOL    HW119274   3.642   5.435   0.450
 6125SOL    HW219275   3.755   5.534   0.387
 6126SOL     OW19276   6.576   6.813   3.581
 6126SOL    HW119277   6.631   6.730   3.570
 6126SOL    HW219278   6.558   6.829   3.678
 6127SOL     OW19279   2.710   0.483   2.923
 6127SOL    HW119280   2.671   0.415   2.860
 6127SOL    HW219281   2.666   0.475   3.012
 6128SOL     OW19282   6.641   3.814   0.644
 6128SOL    HW119283   6.625   3.911   0.628
 6128SOL    HW219284   6.629   3.764   0.558
 6129SOL     OW19285   6.097   4.486   3.306
 6129SOL    HW119286   6.123   4.559   3.368
 6129SOL    HW219287   6.170   4.418   3.300
 6130SOL     OW19288   6.155   1.789   4.067
 6130SOL    HW119289   6.192   1.768   4.158
 6130SOL    HW219290   6.162   1.707   4.009
 6131SOL     OW19291   6.273   1.396   5.181
 6131SOL    HW119292   6.225   1.308   5.182
 6131SOL    HW219293   6.254   1.444   5.095
 6132SOL     OW19294   5.204   1.443   0.524
 6132SOL    HW119295   5.271   1.495   0.577
 6132SOL    HW219296   5.139   1.400   0.587
 6133SOL     OW19297   1.144   2.282   2.821
 6133SOL    HW119298   1.216   2.229   2.774
 6133SOL    HW219299   1.184   2.329   2.900
 6134SOL     OW19300   3.799   4.491   6.978
 6134SOL    HW119301   3.722   4.457   0.004
 6134SOL    HW219302   3.774   4.495   6.881
 6135SOL     OW19303   0.521   6.862   1.597
 6135SOL    HW119304   0.588   6.934   1.616
 6135SOL    HW219305   0.432   6.891   1.631
 6136SOL     OW19306   0.820   2.734   1.966
 6136SOL    HW119307   0.904   2.686   1.941
 6136SOL    HW219308   0.800   2.718   2.063
 6137SOL     OW19309   5.690   1.812   4.506
 6137SOL    HW119310   5.611   1.787   4.450
 6137SOL    HW219311   5.751   1.872   4.453
 6138SOL     OW19312   3.941   6.152   2.493
 6138SOL    HW119313   3.906   6.187   2.406
 6138SOL    HW219314   3.991   6.224   2.541
 6139SOL     OW19315   1.788   2.631   4.958
 6139SOL    HW119316   1.845   2.707   4.991
 6139SOL    HW219317   1.804   2.617   4.861
 6140SOL     OW19318   0.139   6.107   1.948
 6140SOL    HW119319   0.133   6.010   1.926
 6140SOL    HW219320   0.108   6.122   2.042
 6141SOL     OW19321   5.600   5.742   5.450
 6141SOL    HW119322   5.535   5.808   5.410
 6141SOL    HW219323   5.565   5.712   5.539
 6142SOL     OW19324   6.640   5.327   0.649
 6142SOL    HW119325   6.640   5.336   0.749
 6142SOL    HW219326   6.706   5.257   0.622
 6143SOL     OW19327   6.173   5.053   0.361
 6143SOL    HW119328   6.271   5.062   0.343
 6143SOL    HW219329   6.123   5.118   0.305
 6144SOL     OW19330   5.972   4.840   2.377
 6144SOL    HW119331   5.875   4.816   2.386
 6144SOL    HW219332   5.991   4.920   2.432
 6145SOL     OW19333   4.861   5.939   4.199
 6145SOL    HW119334   4.762   5.957   4.204
 6145SOL    HW219335   4.910   6.013   4.243
 6146SOL     OW19336   3.847   1.394   3.562
 6146SOL    HW119337   3.931   1.410   3.613
 6146SOL    HW219338   3.856   1.309   3.509
 6147SOL     OW19339   1.313   3.782   4.082
 6147SOL    HW119340   1.366   3.849   4.030
 6147SOL    HW219341   1.216   3.801   4.071
 6148SOL     OW19342   6.884   0.292   4.792
 6148SOL    HW119343   6.860   0.326   4.701
 6148SOL    HW219344   6.977   0.322   4.815
 6149SOL     OW19345   3.505   4.972   2.719
 6149SOL    HW119346   3.531   4.913   2.643
 6149SOL    HW219347   3.581   4.977   2.784
 6150SOL     OW19348   3.733   4.956   6.728
 6150SOL    HW119349   3.658   4.960   6.794
 6150SOL    HW219350   3.778   5.045   6.722
 6151SOL     OW19351   6.241   3.810   4.822
 6151SOL    HW119352   6.230   3.841   4.728
 6151SOL    HW219353   6.158   3.831   4.874
 6152SOL     OW19354   5.742   5.233   5.617
 6152SOL    HW119355   5.769   5.137   5.608
 6152SOL    HW219356   5.817   5.291   5.585
 6153SOL     OW19357   4.824   3.502   1.900
 6153SOL    HW119358   4.764   3.544   1.832
 6153SOL    HW219359   4.772   3.439   1.957
 6154SOL     OW19360   6.234   1.411   3.075
 6154SOL    HW119361   6.239   1.506   3.043
 6154SOL    HW219362   6.266   1.406   3.169
 6155SOL     OW19363   1.872   1.923   4.807
 6155SOL    HW119364   1.913   1.968   4.886
 6155SOL    HW219365   1.815   1.989   4.758
 6156SOL     OW19366   4.746   4.663   2.491
 6156SOL    HW119367   4.777   4.618   2.408
 6156SOL    HW219368   4.653   4.633   2.513
 6157SOL     OW19369   1.234   1.506   4.429
 6157SOL    HW119370   1.303   1.536   4.363
 6157SOL    HW219371   1.212   1.410   4.413
 6158SOL     OW19372   4.582   0.731   5.400
 6158SOL    HW119373   4.547   0.808   5.454
 6158SOL    HW219374   4.516   0.709   5.328
 6159SOL     OW19375   4.700   2.548   1.103
 6159SOL    HW119376   4.773   2.583   1.161
 6159SOL    HW219377   4.671   2.458   1.135
 6160SOL     OW19378   4.835   6.566   6.964
 6160SOL    HW119379   4.866   6.630   6.893
 6160SOL    HW219380   4.895   6.574   0.016
 6161SOL     OW19381   6.056   1.880   5.435
 6161SOL    HW119382   6.009   1.920   5.357
 6161SOL    HW219383   6.044   1.781   5.433
 6162SOL     OW19384   0.987   5.895   3.934
 6162SOL    HW119385   0.958   5.874   3.840
 6162SOL    HW219386   1.012   5.811   3.981
 6163SOL     OW19387   5.444   6.220   1.529
 6163SOL    HW119388   5.533   6.227   1.484
 6163SOL    HW219389   5.379   6.174   1.469
 6164SOL     OW19390   2.642   3.106   1.575
 6164SOL    HW119391   2.578   3.086   1.501
 6164SOL    HW219392   2.620   3.194   1.616
 6165SOL     OW19393   4.315   6.966   6.209
 6165SOL    HW119394   4.269   7.008   6.131
 6165SOL    HW219395   4.250   6.959   6.285
 6166SOL     OW19396   3.810   0.827   6.127
 6166SOL    HW119397   3.784   0.831   6.031
 6166SOL    HW219398   3.729   0.843   6.184
 6167SOL     OW19399   0.828   4.779   2.518
 6167SOL    HW119400   0.905   4.763   2.457
 6167SOL    HW219401   0.839   4.868   2.563
 6168SOL     OW19402   0.635   3.282   0.865
 6168SOL    HW119403   0.566   3.338   0.818
 6168SOL    HW219404   0.697   3.242   0.798
 6169SOL     OW19405   1.174   3.317   1.841
 6169SOL    HW119406   1.230   3.265   1.777
 6169SOL    HW219407   1.088   3.342   1.797
 6170SOL     OW19408   0.675   3.624   5.650
 6170SOL    HW119409   0.580   3.645   5.624
 6170SOL    HW219410   0.728   3.709   5.655
 6171SOL     OW19411   0.918   1.717   0.275
 6171SOL    HW119412   0.883   1.811   0.271
 6171SOL    HW219413   1.010   1.718   0.315
 6172SOL     OW19414   1.144   3.300   2.744
 6172SOL    HW119415   1.220   3.327   2.685
 6172SOL    HW219416   1.065   3.277   2.688
 6173SOL     OW19417   6.656   5.035   3.146
 6173SOL    HW119418   6.580   5.020   3.083
 6173SOL    HW219419   6.666   5.134   3.163
 6174SOL     OW19420   5.071   5.526   4.081
 6174SOL    HW119421   5.079   5.443   4.136
 6174SOL    HW219422   5.066   5.606   4.142
 6175SOL     OW19423   3.957   0.428   4.172
 6175SOL    HW119424   3.890   0.473   4.113
 6175SOL    HW219425   3.922   0.423   4.265
 6176SOL     OW19426   5.282   3.947   5.828
 6176SOL    HW119427   5.280   4.045   5.850
 6176SOL    HW219428   5.189   3.916   5.808
 6177SOL     OW19429   5.831   1.733   1.886
 6177SOL    HW119430   5.852   1.736   1.788
 6177SOL    HW219431   5.887   1.801   1.934
 6178SOL     OW19432   5.067   4.331   2.441
 6178SOL    HW119433   5.117   4.388   2.377
 6178SOL    HW219434   5.123   4.250   2.464
 6179SOL     OW19435   6.427   4.737   2.385
 6179SOL    HW119436   6.341   4.697   2.351
 6179SOL    HW219437   6.407   4.821   2.436
 6180SOL     OW19438   2.669   4.680   1.358
 6180SOL    HW119439   2.731   4.758   1.365
 6180SOL    HW219440   2.701   4.607   1.418
 6181SOL     OW19441   4.880   6.511   6.276
 6181SOL    HW119442   4.914   6.603   6.259
 6181SOL    HW219443   4.947   6.444   6.243
 6182SOL     OW19444   4.395   3.724   5.908
 6182SOL    HW119445   4.390   3.625   5.899
 6182SOL    HW219446   4.434   3.763   5.824
 6183SOL     OW19447   1.667   2.082   2.203
 6183SOL    HW119448   1.749   2.114   2.249
 6183SOL    HW219449   1.631   2.002   2.251
 6184SOL     OW19450   3.016   6.900   6.195
 6184SOL    HW119451   3.070   6.949   6.263
 6184SOL    HW219452   3.075   6.837   6.145
 6185SOL     OW19453   1.334   4.599   6.375
 6185SOL    HW119454   1.351   4.585   6.277
 6185SOL    HW219455   1.355   4.516   6.425
 6186SOL     OW19456   5.917   0.814   1.222
 6186SOL    HW119457   5.868   0.802   1.135
 6186SOL    HW219458   5.920   0.727   1.270
 6187SOL     OW19459   4.786   2.968   4.314
 6187SOL    HW119460   4.752   2.981   4.221
 6187SOL    HW219461   4.849   3.042   4.337
 6188SOL     OW19462   1.521   1.758   5.784
 6188SOL    HW119463   1.620   1.752   5.794
 6188SOL    HW219464   1.479   1.672   5.813
 6189SOL     OW19465   3.781   4.885   3.140
 6189SOL    HW119466   3.845   4.813   3.167
 6189SOL    HW219467   3.723   4.910   3.218
 6190SOL     OW19468   0.241   3.538   5.313
 6190SOL    HW119469   0.324   3.593   5.315
 6190SOL    HW219470   0.185   3.564   5.234
 6191SOL     OW19471   2.972   3.305   6.416
 6191SOL    HW119472   2.920   3.364   6.478
 6191SOL    HW219473   2.941   3.320   6.322
 6192SOL     OW19474   2.564   1.694   6.572
 6192SOL    HW119475   2.633   1.767   6.578
 6192SOL    HW219476   2.487   1.715   6.632
 6193SOL     OW19477   4.406   5.737   1.430
 6193SOL    HW119478   4.347   5.745   1.350
 6193SOL    HW219479   4.482   5.676   1.410
 6194SOL     OW19480   6.219   0.552   6.326
 6194SOL    HW119481   6.309   0.563   6.369
 6194SOL    HW219482   6.230   0.531   6.229
 6195SOL     OW19483   5.403   6.114   4.364
 6195SOL    HW119484   5.338   6.163   4.306
 6195SOL    HW219485   5.496   6.135   4.334
 6196SOL     OW19486   4.846   4.088   2.726
 6196SOL    HW119487   4.786   4.151   2.776
 6196SOL    HW219488   4.809   4.073   2.634
 6197SOL     OW19489   2.657   5.510   2.209
 6197SOL    HW119490   2.684   5.428   2.260
 6197SOL    HW219491   2.681   5.498   2.113
 6198SOL     OW19492   4.077   6.503   1.183
 6198SOL    HW119493   4.098   6.461   1.095
 6198SOL    HW219494   3.987   6.472   1.214
 6199SOL     OW19495   0.788   1.275   0.521
 6199SOL    HW119496   0.762   1.372   0.524
 6199SOL    HW219497   0.841   1.253   0.603
 6200SOL     OW19498   1.039   2.099   4.686
 6200SOL    HW119499   1.001   2.012   4.720
 6200SOL    HW219500   0.966   2.167   4.679
 6201SOL     OW19501   1.050   3.399   4.653
 6201SOL    HW119502   1.124   3.448   4.607
 6201SOL    HW219503   1.059   3.301   4.635
 6202SOL     OW19504   5.725   1.167   1.832
 6202SOL    HW119505   5.659   1.093   1.847
 6202SOL    HW219506   5.806   1.151   1.889
 6203SOL     OW19507   5.446   5.692   1.916
 6203SOL    HW119508   5.506   5.694   1.836
 6203SOL    HW219509   5.446   5.601   1.957
 6204SOL     OW19510   1.122   6.084   5.090
 6204SOL    HW119511   1.146   6.143   5.167
 6204SOL    HW219512   1.206   6.050   5.046
 6205SOL     OW19513   6.068   4.519   1.010
 6205SOL    HW119514   5.988   4.531   1.069
 6205SOL    HW219515   6.150   4.543   1.061
 6206SOL     OW19516   5.361   1.366   2.582
 6206SOL    HW119517   5.446   1.369   2.636
 6206SOL    HW219518   5.284   1.386   2.642
 6207SOL     OW19519   1.612   6.522   5.386
 6207SOL    HW119520   1.672   6.536   5.464
 6207SOL    HW219521   1.655   6.560   5.304
 6208SOL     OW19522   3.647   2.180   5.549
 6208SOL    HW119523   3.708   2.133   5.486
 6208SOL    HW219524   3.568   2.215   5.499
 6209SOL     OW19525   3.593   5.305   0.188
 6209SOL    HW119526   3.506   5.256   0.185
 6209SOL    HW219527   3.616   5.325   0.284
 6210SOL     OW19528   5.166   3.657   2.935
 6210SOL    HW119529   5.123   3.652   2.844
 6210SOL    HW219530   5.256   3.613   2.932
 6211SOL     OW19531   3.243   6.733   5.490
 6211SOL    HW119532   3.145   6.740   5.511
 6211SOL    HW219533   3.255   6.732   5.390
 6212SOL     OW19534   2.400   4.386   3.889
 6212SOL    HW119535   2.382   4.327   3.967
 6212SOL    HW219536   2.355   4.474   3.902
 6213SOL     OW19537   4.299   6.905   6.704
 6213SOL    HW119538   4.231   6.846   6.748
 6213SOL    HW219539   4.315   6.873   6.611
 6214SOL     OW19540   5.883   5.809   5.320
 6214SOL    HW119541   5.946   5.788   5.394
 6214SOL    HW219542   5.803   5.749   5.325
 6215SOL     OW19543   3.593   2.747   6.755
 6215SOL    HW119544   3.515   2.718   6.700
 6215SOL    HW219545   3.666   2.680   6.748
 6216SOL     OW19546   6.096   2.123   2.444
 6216SOL    HW119547   6.196   2.125   2.434
 6216SOL    HW219548   6.065   2.211   2.480
 6217SOL     OW19549   0.841   4.357   2.583
 6217SOL    HW119550   0.842   4.345   2.484
 6217SOL    HW219551   0.905   4.293   2.625
 6218SOL     OW19552   3.771   6.687   0.184
 6218SOL    HW119553   3.854   6.695   0.240
 6218SOL    HW219554   3.692   6.675   0.244
 6219SOL     OW19555   1.306   0.527   4.864
 6219SOL    HW119556   1.228   0.479   4.824
 6219SOL    HW219557   1.391   0.491   4.823
 6220SOL     OW19558   3.705   1.414   6.197
 6220SOL    HW119559   3.730   1.461   6.282
 6220SOL    HW219560   3.626   1.460   6.156
 6221SOL     OW19561   6.455   6.396   6.666
 6221SOL    HW119562   6.364   6.434   6.654
 6221SOL    HW219563   6.524   6.467   6.650
 6222SOL     OW19564   6.955   0.263   2.672
 6222SOL    HW119565   6.895   0.252   2.593
 6222SOL    HW219566   6.925   0.341   2.726
 6223SOL     OW19567   1.497   5.613   3.294
 6223SOL    HW119568   1.407   5.635   3.331
 6223SOL    HW219569   1.568   5.644   3.358
 6224SOL     OW19570   3.852   1.818   5.842
 6224SOL    HW119571   3.811   1.909   5.853
 6224SOL    HW219572   3.843   1.788   5.748
 6225SOL     OW19573   4.102   2.340   6.225
 6225SOL    HW119574   4.011   2.308   6.253
 6225SOL    HW219575   4.168   2.317   6.296
 6226SOL     OW19576   1.232   1.319   3.745
 6226SOL    HW119577   1.284   1.379   3.806
 6226SOL    HW219578   1.147   1.365   3.718
 6227SOL     OW19579   3.206   4.973   5.407
 6227SOL    HW119580   3.120   4.957   5.357
 6227SOL    HW219581   3.190   5.040   5.480
 6228SOL     OW19582   0.573   2.535   3.297
 6228SOL    HW119583   0.512   2.471   3.343
 6228SOL    HW219584   0.594   2.501   3.205
 6229SOL     OW19585   0.414   2.850   5.022
 6229SOL    HW119586   0.497   2.805   5.054
 6229SOL    HW219587   0.436   2.941   4.988
 6230SOL     OW19588   1.116   2.315   3.261
 6230SOL    HW119589   1.040   2.310   3.196
 6230SOL    HW219590   1.191   2.367   3.221
 6231SOL     OW19591   5.366   5.504   0.807
 6231SOL    HW119592   5.461   5.497   0.837
 6231SOL    HW219593   5.357   5.464   0.716
 6232SOL     OW19594   6.418   1.457   0.257
 6232SOL    HW119595   6.398   1.487   0.164
 6232SOL    HW219596   6.370   1.516   0.322
 6233SOL     OW19597   0.045   3.033   1.584
 6233SOL    HW119598   0.003   2.947   1.555
 6233SOL    HW219599   0.000   3.109   1.536
 6234SOL     OW19600   6.901   0.038   5.409
 6234SOL    HW119601   6.933   0.040   5.314
 6234SOL    HW219602   6.817   7.011   5.414
 6235SOL     OW19603   0.446   0.644   1.881
 6235SOL    HW119604   0.545   0.659   1.880
 6235SOL    HW219605   0.427   0.548   1.903
 6236SOL     OW19606   6.817   4.737   0.367
 6236SOL    HW119607   6.871   4.797   0.309
 6236SOL    HW219608   6.775   4.665   0.311
 6237SOL     OW19609   3.396   0.040   0.228
 6237SOL    HW119610   3.322   0.106   0.240
 6237SOL    HW219611   3.362   6.988   0.178
 6238SOL     OW19612   4.638   6.599   3.335
 6238SOL    HW119613   4.675   6.685   3.371
 6238SOL    HW219614   4.564   6.568   3.393
 6239SOL     OW19615   3.707   0.632   1.237
 6239SOL    HW119616   3.794   0.592   1.267
 6239SOL    HW219617   3.714   0.732   1.240
 6240SOL     OW19618   2.978   3.739   5.178
 6240SOL    HW119619   3.073   3.756   5.206
 6240SOL    HW219620   2.946   3.653   5.217
 6241SOL     OW19621   4.161   0.153   3.888
 6241SOL    HW119622   4.242   0.206   3.861
 6241SOL    HW219623   4.082   0.214   3.893
 6242SOL     OW19624   3.150   0.702   3.512
 6242SOL    HW119625   3.171   0.632   3.445
 6242SOL    HW219626   3.108   0.780   3.466
 6243SOL     OW19627   6.525   0.500   5.997
 6243SOL    HW119628   6.490   0.592   6.013
 6243SOL    HW219629   6.547   0.489   5.900
 6244SOL     OW19630   5.012   3.691   3.163
 6244SOL    HW119631   5.022   3.682   3.064
 6244SOL    HW219632   5.064   3.618   3.208
 6245SOL     OW19633   0.523   4.601   1.822
 6245SOL    HW119634   0.524   4.502   1.836
 6245SOL    HW219635   0.447   4.641   1.873
 6246SOL     OW19636   0.563   0.995   4.688
 6246SOL    HW119637   0.613   1.020   4.605
 6246SOL    HW219638   0.471   0.965   4.663
 6247SOL     OW19639   1.454   6.543   3.217
 6247SOL    HW119640   1.551   6.553   3.195
 6247SOL    HW219641   1.443   6.469   3.283
 6248SOL     OW19642   3.624   4.129   0.071
 6248SOL    HW119643   3.634   4.057   0.140
 6248SOL    HW219644   3.673   4.102   7.015
 6249SOL     OW19645   6.997   2.972   0.852
 6249SOL    HW119646   0.048   2.933   0.805
 6249SOL    HW219647   6.983   3.066   0.824
 6250SOL     OW19648   6.875   6.533   0.692
 6250SOL    HW119649   6.871   6.436   0.668
 6250SOL    HW219650   6.785   6.563   0.723
 6251SOL     OW19651   3.655   5.589   4.860
 6251SOL    HW119652   3.675   5.594   4.762
 6251SOL    HW219653   3.577   5.529   4.876
 6252SOL     OW19654   2.804   4.975   0.234
 6252SOL    HW119655   2.881   5.037   0.248
 6252SOL    HW219656   2.837   4.881   0.226
 6253SOL     OW19657   2.385   5.113   4.715
 6253SOL    HW119658   2.451   5.057   4.766
 6253SOL    HW219659   2.293   5.098   4.752
 6254SOL     OW19660   0.279   6.797   1.177
 6254SOL    HW119661   0.356   6.799   1.241
 6254SOL    HW219662   0.263   6.889   1.141
 6255SOL     OW19663   2.153   2.497   0.661
 6255SOL    HW119664   2.241   2.527   0.624
 6255SOL    HW219665   2.150   2.397   0.660
 6256SOL     OW19666   4.203   4.977   2.441
 6256SOL    HW119667   4.145   4.951   2.364
 6256SOL    HW219668   4.283   4.918   2.444
 6257SOL     OW19669   4.017   2.667   0.168
 6257SOL    HW119670   4.070   2.704   0.245
 6257SOL    HW219671   3.930   2.632   0.201
 6258SOL     OW19672   3.005   0.411   5.334
 6258SOL    HW119673   3.028   0.414   5.236
 6258SOL    HW219674   3.084   0.442   5.387
 6259SOL     OW19675   1.873   0.628   6.069
 6259SOL    HW119676   1.866   0.528   6.072
 6259SOL    HW219677   1.884   0.658   5.975
 6260SOL     OW19678   2.314   0.597   0.686
 6260SOL    HW119679   2.368   0.531   0.738
 6260SOL    HW219680   2.225   0.556   0.663
 6261SOL     OW19681   4.049   6.399   0.926
 6261SOL    HW119682   4.036   6.496   0.906
 6261SOL    HW219683   3.965   6.349   0.905
 6262SOL     OW19684   1.478   5.924   2.339
 6262SOL    HW119685   1.517   5.933   2.431
 6262SOL    HW219686   1.418   5.844   2.336
 6263SOL     OW19687   0.451   6.136   5.258
 6263SOL    HW119688   0.530   6.180   5.214
 6263SOL    HW219689   0.367   6.185   5.233
 6264SOL     OW19690   1.392   0.005   1.331
 6264SOL    HW119691   1.372   0.001   1.429
 6264SOL    HW219692   1.475   6.981   1.312
 6265SOL     OW19693   3.892   2.979   0.788
 6265SOL    HW119694   3.821   3.010   0.851
 6265SOL    HW219695   3.895   2.879   0.788
 6266SOL     OW19696   3.998   6.921   3.136
 6266SOL    HW119697   3.928   6.946   3.069
 6266SOL    HW219698   4.086   6.959   3.106
 6267SOL     OW19699   1.472   0.035   4.818
 6267SOL    HW119700   1.424   7.004   4.884
 6267SOL    HW219701   1.557   0.069   4.859
 6268SOL     OW19702   2.847   0.979   2.066
 6268SOL    HW119703   2.811   0.915   2.134
 6268SOL    HW219704   2.828   0.944   1.974
 6269SOL     OW19705   5.843   6.712   1.424
 6269SOL    HW119706   5.755   6.722   1.471
 6269SOL    HW219707   5.909   6.776   1.462
 6270SOL     OW19708   0.778   6.785   0.417
 6270SOL    HW119709   0.828   6.813   0.498
 6270SOL    HW219710   0.700   6.728   0.444
 6271SOL     OW19711   6.052   2.733   6.409
 6271SOL    HW119712   5.999   2.799   6.355
 6271SOL    HW219713   6.144   2.727   6.372
 6272SOL     OW19714   0.971   0.844   0.688
 6272SOL    HW119715   0.917   0.905   0.630
 6272SOL    HW219716   0.956   0.750   0.660
 6273SOL     OW19717   0.170   5.307   2.910
 6273SOL    HW119718   0.244   5.375   2.914
 6273SOL    HW219719   0.149   5.276   3.003
 6274SOL     OW19720   3.117   7.015   4.917
 6274SOL    HW119721   3.187   0.059   4.911
 6274SOL    HW219722   3.088   7.006   5.012
 6275SOL     OW19723   2.181   5.930   0.706
 6275SOL    HW119724   2.111   5.866   0.675
 6275SOL    HW219725   2.231   5.966   0.627
 6276SOL     OW19726   3.554   5.781   3.593
 6276SOL    HW119727   3.584   5.822   3.507
 6276SOL    HW219728   3.603   5.824   3.669
 6277SOL     OW19729   5.266   2.288   0.959
 6277SOL    HW119730   5.284   2.190   0.959
 6277SOL    HW219731   5.346   2.337   0.992
 6278SOL     OW19732   3.493   0.631   5.656
 6278SOL    HW119733   3.473   0.566   5.582
 6278SOL    HW219734   3.473   0.724   5.624
 6279SOL     OW19735   4.278   5.663   0.797
 6279SOL    HW119736   4.185   5.678   0.761
 6279SOL    HW219737   4.342   5.658   0.721
 6280SOL     OW19738   0.218   1.033   6.442
 6280SOL    HW119739   0.241   1.031   6.345
 6280SOL    HW219740   0.197   0.940   6.473
 6281SOL     OW19741   6.128   4.782   3.842
 6281SOL    HW119742   6.217   4.823   3.860
 6281SOL    HW219743   6.064   4.806   3.915
 6282SOL     OW19744   6.231   3.200   5.300
 6282SOL    HW119745   6.222   3.198   5.399
 6282SOL    HW219746   6.235   3.295   5.268
 6283SOL     OW19747   0.765   4.286   4.082
 6283SOL    HW119748   0.754   4.384   4.100
 6283SOL    HW219749   0.842   4.250   4.134
 6284SOL     OW19750   1.236   5.838   6.906
 6284SOL    HW119751   1.290   5.920   6.926
 6284SOL    HW219752   1.259   5.805   6.814
 6285SOL     OW19753   1.442   3.414   3.611
 6285SOL    HW119754   1.417   3.409   3.708
 6285SOL    HW219755   1.372   3.368   3.557
 6286SOL     OW19756   6.407   3.611   4.077
 6286SOL    HW119757   6.410   3.522   4.122
 6286SOL    HW219758   6.441   3.681   4.140
 6287SOL     OW19759   4.085   5.127   5.122
 6287SOL    HW119760   4.122   5.039   5.153
 6287SOL    HW219761   4.044   5.175   5.199
 6288SOL     OW19762   4.780   4.499   1.358
 6288SOL    HW119763   4.702   4.506   1.295
 6288SOL    HW219764   4.853   4.560   1.327
 6289SOL     OW19765   2.730   4.763   6.647
 6289SOL    HW119766   2.708   4.782   6.551
 6289SOL    HW219767   2.829   4.752   6.658
 6290SOL     OW19768   5.810   5.531   6.277
 6290SOL    HW119769   5.744   5.478   6.330
 6290SOL    HW219770   5.807   5.501   6.181
 6291SOL     OW19771   3.968   3.246   3.395
 6291SOL    HW119772   3.934   3.214   3.484
 6291SOL    HW219773   4.000   3.167   3.342
 6292SOL     OW19774   2.276   2.038   4.534
 6292SOL    HW119775   2.293   2.088   4.619
 6292SOL    HW219776   2.211   2.089   4.478
 6293SOL     OW19777   4.560   1.770   0.686
 6293SOL    HW119778   4.603   1.775   0.597
 6293SOL    HW219779   4.595   1.691   0.736
 6294SOL     OW19780   4.421   0.340   3.132
 6294SOL    HW119781   4.446   0.384   3.218
 6294SOL    HW219782   4.322   0.331   3.126
 6295SOL     OW19783   5.162   4.915   4.967
 6295SOL    HW119784   5.125   4.835   4.920
 6295SOL    HW219785   5.142   4.909   5.065
 6296SOL     OW19786   0.376   4.360   5.823
 6296SOL    HW119787   0.286   4.317   5.825
 6296SOL    HW219788   0.429   4.324   5.747
 6297SOL     OW19789   6.656   0.103   5.596
 6297SOL    HW119790   6.634   0.200   5.586
 6297SOL    HW219791   6.651   0.058   5.507
 6298SOL     OW19792   6.606   4.653   6.576
 6298SOL    HW119793   6.568   4.592   6.646
 6298SOL    HW219794   6.667   4.600   6.517
 6299SOL     OW19795   6.171   2.660   2.107
 6299SOL    HW119796   6.237   2.588   2.131
 6299SOL    HW219797   6.170   2.673   2.008
 6300SOL     OW19798   4.748   0.732   6.939
 6300SOL    HW119799   4.787   0.798   6.875
 6300SOL    HW219800   4.650   0.723   6.922
 6301SOL     OW19801   3.205   0.037   6.393
 6301SOL    HW119802   3.242   7.014   6.471
 6301SOL    HW219803   3.275   0.100   6.359
 6302SOL     OW19804   2.325   1.356   5.905
 6302SOL    HW119805   2.328   1.354   5.805
 6302SOL    HW219806   2.407   1.402   5.940
 6303SOL     OW19807   0.343   6.316   5.801
 6303SOL    HW119808   0.309   6.364   5.882
 6303SOL    HW219809   0.442   6.328   5.794
 6304SOL     OW19810   3.904   1.747   3.713
 6304SOL    HW119811   3.858   1.691   3.782
 6304SOL    HW219812   3.835   1.794   3.657
 6305SOL     OW19813   5.942   5.862   0.077
 6305SOL    HW119814   5.906   5.944   0.034
 6305SOL    HW219815   5.922   5.783   0.019
 6306SOL     OW19816   0.208   3.457   4.153
 6306SOL    HW119817   0.220   3.432   4.249
 6306SOL    HW219818   0.111   3.471   4.134
 6307SOL     OW19819   3.395   3.000   4.189
 6307SOL    HW119820   3.449   2.971   4.110
 6307SOL    HW219821   3.456   3.034   4.260
 6308SOL     OW19822   0.713   2.230   5.892
 6308SOL    HW119823   0.722   2.322   5.854
 6308SOL    HW219824   0.746   2.163   5.826
 6309SOL     OW19825   0.317   0.202   4.152
 6309SOL    HW119826   0.272   0.247   4.075
 6309SOL    HW219827   0.347   0.271   4.218
 6310SOL     OW19828   2.061   6.493   2.898
 6310SOL    HW119829   2.135   6.493   2.830
 6310SOL    HW219830   2.071   6.413   2.957
 6311SOL     OW19831   4.856   1.320   6.627
 6311SOL    HW119832   4.849   1.241   6.688
 6311SOL    HW219833   4.950   1.353   6.626
 6312SOL     OW19834   1.818   6.945   6.415
 6312SOL    HW119835   1.808   6.976   6.321
 6312SOL    HW219836   1.752   6.992   6.473
 6313SOL     OW19837   5.641   6.413   3.145
 6313SOL    HW119838   5.589   6.406   3.059
 6313SOL    HW219839   5.608   6.491   3.198
 6314SOL     OW19840   3.840   0.578   1.916
 6314SOL    HW119841   3.847   0.677   1.929
 6314SOL    HW219842   3.904   0.532   1.977
 6315SOL     OW19843   2.018   1.749   4.637
 6315SOL    HW119844   1.969   1.796   4.711
 6315SOL    HW219845   1.958   1.681   4.595
 6316SOL     OW19846   4.979   1.742   5.677
 6316SOL    HW119847   4.911   1.800   5.721
 6316SOL    HW219848   4.941   1.650   5.665
 6317SOL     OW19849   5.080   3.960   2.626
 6317SOL    HW119850   5.003   4.010   2.666
 6317SOL    HW219851   5.075   3.864   2.654
 6318SOL     OW19852   4.564   6.759   6.767
 6318SOL    HW119853   4.635   6.795   6.828
 6318SOL    HW219854   4.477   6.803   6.787
 6319SOL     OW19855   6.201   2.022   4.548
 6319SOL    HW119856   6.287   2.043   4.499
 6319SOL    HW219857   6.161   1.939   4.510
 6320SOL     OW19858   6.979   6.967   3.920
 6320SOL    HW119859   6.911   7.014   3.976
 6320SOL    HW219860   6.969   6.994   3.824
 6321SOL     OW19861   4.899   3.626   0.183
 6321SOL    HW119862   4.886   3.706   0.124
 6321SOL    HW219863   4.991   3.588   0.168
 6322SOL     OW19864   3.175   1.581   0.327
 6322SOL    HW119865   3.271   1.602   0.304
 6322SOL    HW219866   3.143   1.505   0.272
 6323SOL     OW19867   1.553   1.887   1.410
 6323SOL    HW119868   1.533   1.812   1.473
 6323SOL    HW219869   1.558   1.851   1.317
 6324SOL     OW19870   3.948   1.925   0.878
 6324SOL    HW119871   4.033   1.947   0.927
 6324SOL    HW219872   3.962   1.937   0.780
 6325SOL     OW19873   2.274   2.895   3.091
 6325SOL    HW119874   2.249   2.972   3.032
 6325SOL    HW219875   2.273   2.925   3.187
 6326SOL     OW19876   5.539   5.645   5.724
 6326SOL    HW119877   5.450   5.645   5.768
 6326SOL    HW219878   5.603   5.589   5.776
 6327SOL     OW19879   6.883   1.210   3.927
 6327SOL    HW119880   6.931   1.221   3.839
 6327SOL    HW219881   6.885   1.297   3.977
 6328SOL     OW19882   4.743   3.708   6.846
 6328SOL    HW119883   4.719   3.614   6.870
 6328SOL    HW219884   4.761   3.760   6.929
 6329SOL     OW19885   0.792   2.717   5.116
 6329SOL    HW119886   0.792   2.706   5.017
 6329SOL    HW219887   0.865   2.780   5.143
 6330SOL     OW19888   5.475   6.992   2.131
 6330SOL    HW119889   5.378   7.011   2.144
 6330SOL    HW219890   5.494   6.895   2.150
 6331SOL     OW19891   6.568   2.946   4.938
 6331SOL    HW119892   6.552   2.923   5.035
 6331SOL    HW219893   6.521   3.031   4.916
 6332SOL     OW19894   1.267   2.666   1.439
 6332SOL    HW119895   1.272   2.572   1.405
 6332SOL    HW219896   1.316   2.672   1.526
 6333SOL     OW19897   4.757   6.863   6.365
 6333SOL    HW119898   4.819   6.924   6.316
 6333SOL    HW219899   4.809   6.801   6.424
 6334SOL     OW19900   2.514   1.256   2.049
 6334SOL    HW119901   2.494   1.349   2.081
 6334SOL    HW219902   2.612   1.239   2.056
 6335SOL     OW19903   4.700   1.118   0.433
 6335SOL    HW119904   4.753   1.092   0.513
 6335SOL    HW219905   4.756   1.173   0.372
 6336SOL     OW19906   0.445   4.081   6.609
 6336SOL    HW119907   0.443   4.031   6.696
 6336SOL    HW219908   0.367   4.144   6.606
 6337SOL     OW19909   4.083   5.717   4.830
 6337SOL    HW119910   4.051   5.685   4.740
 6337SOL    HW219911   4.155   5.785   4.817
 6338SOL     OW19912   3.236   1.652   4.325
 6338SOL    HW119913   3.307   1.658   4.395
 6338SOL    HW219914   3.196   1.742   4.310
 6339SOL     OW19915   1.189   4.008   3.692
 6339SOL    HW119916   1.238   3.943   3.634
 6339SOL    HW219917   1.249   4.039   3.766
 6340SOL     OW19918   2.283   3.572   1.251
 6340SOL    HW119919   2.379   3.590   1.228
 6340SOL    HW219920   2.242   3.654   1.290
 6341SOL     OW19921   0.687   3.761   3.569
 6341SOL    HW119922   0.772   3.776   3.519
 6341SOL    HW219923   0.674   3.663   3.584
 6342SOL     OW19924   3.257   1.267   0.477
 6342SOL    HW119925   3.207   1.263   0.391
 6342SOL    HW219926   3.226   1.193   0.537
 6343SOL     OW19927   3.877   6.696   6.579
 6343SOL    HW119928   3.850   6.788   6.551
 6343SOL    HW219929   3.811   6.661   6.646
 6344SOL     OW19930   5.865   2.106   4.134
 6344SOL    HW119931   5.963   2.123   4.128
 6344SOL    HW219932   5.834   2.056   4.052
 6345SOL     OW19933   4.880   2.832   1.917
 6345SOL    HW119934   4.831   2.907   1.961
 6345SOL    HW219935   4.836   2.811   1.829
 6346SOL     OW19936   6.891   4.319   4.773
 6346SOL    HW119937   6.803   4.363   4.756
 6346SOL    HW219938   6.956   4.388   4.807
 6347SOL     OW19939   2.642   1.489   1.493
 6347SOL    HW119940   2.594   1.521   1.575
 6347SOL    HW219941   2.575   1.456   1.426
 6348SOL     OW19942   0.799   2.223   6.172
 6348SOL    HW119943   0.786   2.131   6.134
 6348SOL    HW219944   0.778   2.291   6.102
 6349SOL     OW19945   1.453   0.506   0.467
 6349SOL    HW119946   1.552   0.491   0.465
 6349SOL    HW219947   1.411   0.442   0.531
 6350SOL     OW19948   0.975   5.232   2.882
 6350SOL    HW119949   0.899   5.265   2.938
 6350SOL    HW219950   1.047   5.196   2.942
 6351SOL     OW19951   6.818   4.416   3.833
 6351SOL    HW119952   6.889   4.450   3.894
 6351SOL    HW219953   6.758   4.492   3.806
 6352SOL     OW19954   2.641   0.487   4.068
 6352SOL    HW119955   2.690   0.400   4.066
 6352SOL    HW219956   2.582   0.494   3.988
 6353SOL     OW19957   2.495   5.531   0.173
 6353SOL    HW119958   2.470   5.465   0.244
 6353SOL    HW219959   2.415   5.552   0.116
 6354SOL     OW19960   3.428   6.073   3.255
 6354SOL    HW119961   3.408   6.169   3.240
 6354SOL    HW219962   3.343   6.023   3.271
 6355SOL     OW19963   2.715   5.775   0.546
 6355SOL    HW119964   2.728   5.795   0.449
 6355SOL    HW219965   2.765   5.693   0.571
 6356SOL     OW19966   5.341   5.523   0.329
 6356SOL    HW119967   5.313   5.590   0.398
 6356SOL    HW219968   5.263   5.501   0.271
 6357SOL     OW19969   5.670   2.529   1.826
 6357SOL    HW119970   5.689   2.626   1.813
 6357SOL    HW219971   5.755   2.481   1.851
 6358SOL     OW19972   0.673   2.308   7.008
 6358SOL    HW119973   0.719   2.337   6.925
 6358SOL    HW219974   0.650   2.388   0.036
 6359SOL     OW19975   6.253   6.266   0.624
 6359SOL    HW119976   6.234   6.287   0.720
 6359SOL    HW219977   6.283   6.349   0.578
 6360SOL     OW19978   0.588   3.409   4.171
 6360SOL    HW119979   0.674   3.446   4.134
 6360SOL    HW219980   0.593   3.310   4.175
 6361SOL     OW19981   0.907   0.431   0.854
 6361SOL    HW119982   0.976   0.416   0.783
 6361SOL    HW219983   0.952   0.461   0.938
 6362SOL     OW19984   1.693   6.074   6.781
 6362SOL    HW119985   1.655   6.149   6.835
 6362SOL    HW219986   1.646   5.989   6.805
 6363SOL     OW19987   3.024   4.922   4.310
 6363SOL    HW119988   3.021   4.939   4.212
 6363SOL    HW219989   2.953   4.856   4.335
 6364SOL     OW19990   2.548   2.761   5.558
 6364SOL    HW119991   2.474   2.808   5.607
 6364SOL    HW219992   2.531   2.764   5.460
 6365SOL     OW19993   5.857   6.088   4.837
 6365SOL    HW119994   5.776   6.038   4.866
 6365SOL    HW219995   5.894   6.140   4.914
 6366SOL     OW19996   0.055   6.515   4.770
 6366SOL    HW119997   0.085   6.462   4.691
 6366SOL    HW219998   0.026   6.606   4.741
 6367SOL     OW19999   3.203   2.093   2.788
 6367SOL    HW120000   3.301   2.090   2.808
 6367SOL    HW220001   3.173   2.004   2.755
 6368SOL     OW20002   4.213   4.864   4.411
 6368SOL    HW120003   4.275   4.915   4.471
 6368SOL    HW220004   4.122   4.859   4.452
 6369SOL     OW20005   2.037   0.170   4.367
 6369SOL    HW120006   2.009   0.251   4.418
 6369SOL    HW220007   2.135   0.154   4.380
 6370SOL     OW20008   5.418   4.109   3.438
 6370SOL    HW120009   5.376   4.067   3.518
 6370SOL    HW220010   5.375   4.074   3.355
 6371SOL     OW20011   5.325   3.925   1.876
 6371SOL    HW120012   5.253   3.991   1.895
 6371SOL    HW220013   5.353   3.881   1.962
 6372SOL     OW20014   0.498   1.415   1.695
 6372SOL    HW120015   0.459   1.393   1.605
 6372SOL    HW220016   0.434   1.471   1.747
 6373SOL     OW20017   5.883   4.035   2.327
 6373SOL    HW120018   5.819   4.062   2.399
 6373SOL    HW220019   5.882   4.103   2.254
 6374SOL     OW20020   4.349   3.025   0.533
 6374SOL    HW120021   4.445   3.017   0.507
 6374SOL    HW220022   4.320   2.944   0.584
 6375SOL     OW20023   0.883   2.425   1.411
 6375SOL    HW120024   0.811   2.411   1.479
 6375SOL    HW220025   0.930   2.339   1.394
 6376SOL     OW20026   4.024   1.685   5.385
 6376SOL    HW120027   4.001   1.590   5.408
 6376SOL    HW220028   4.014   1.742   5.467
 6377SOL     OW20029   6.737   1.390   5.382
 6377SOL    HW120030   6.678   1.311   5.399
 6377SOL    HW220031   6.699   1.445   5.308
 6378SOL     OW20032   4.936   5.605   3.358
 6378SOL    HW120033   4.872   5.560   3.420
 6378SOL    HW220034   4.885   5.667   3.297
 6379SOL     OW20035   0.819   5.017   5.673
 6379SOL    HW120036   0.892   4.989   5.611
 6379SOL    HW220037   0.851   5.010   5.767
 6380SOL     OW20038   6.968   3.269   4.313
 6380SOL    HW120039   7.012   3.294   4.399
 6380SOL    HW220040   6.937   3.174   4.318
 6381SOL     OW20041   4.151   3.140   0.356
 6381SOL    HW120042   4.211   3.126   0.435
 6381SOL    HW220043   4.187   3.087   0.278
 6382SOL     OW20044   3.464   1.707   1.204
 6382SOL    HW120045   3.378   1.698   1.253
 6382SOL    HW220046   3.482   1.804   1.185
 6383SOL     OW20047   1.530   2.323   2.190
 6383SOL    HW120048   1.576   2.234   2.193
 6383SOL    HW220049   1.462   2.327   2.263
 6384SOL     OW20050   5.737   2.811   1.889
 6384SOL    HW120051   5.780   2.867   1.959
 6384SOL    HW220052   5.666   2.865   1.842
 6385SOL     OW20053   6.605   3.794   1.641
 6385SOL    HW120054   6.543   3.747   1.579
 6385SOL    HW220055   6.553   3.856   1.700
 6386SOL     OW20056   2.050   3.609   0.362
 6386SOL    HW120057   2.105   3.527   0.349
 6386SOL    HW220058   2.069   3.673   0.287
 6387SOL     OW20059   5.830   1.489   0.570
 6387SOL    HW120060   5.778   1.425   0.514
 6387SOL    HW220061   5.800   1.582   0.553
 6388SOL     OW20062   5.969   4.913   2.094
 6388SOL    HW120063   5.873   4.939   2.091
 6388SOL    HW220064   5.998   4.902   2.190
 6389SOL     OW20065   1.322   6.627   1.349
 6389SOL    HW120066   1.310   6.587   1.258
 6389SOL    HW220067   1.418   6.620   1.376
 6390SOL     OW20068   6.312   0.420   6.099
 6390SOL    HW120069   6.400   0.455   6.066
 6390SOL    HW220070   6.282   0.345   6.040
 6391SOL     OW20071   1.417   1.466   5.815
 6391SOL    HW120072   1.407   1.519   5.731
 6391SOL    HW220073   1.339   1.484   5.876
 6392SOL     OW20074   2.827   6.111   3.828
 6392SOL    HW120075   2.855   6.025   3.787
 6392SOL    HW220076   2.897   6.142   3.893
 6393SOL     OW20077   5.765   6.080   1.479
 6393SOL    HW120078   5.693   6.029   1.431
 6393SOL    HW220079   5.789   6.033   1.564
 6394SOL     OW20080   1.632   4.752   1.151
 6394SOL    HW120081   1.620   4.828   1.087
 6394SOL    HW220082   1.690   4.682   1.109
 6395SOL     OW20083   0.069   3.143   2.258
 6395SOL    HW120084   0.124   3.177   2.335
 6395SOL    HW220085   7.008   3.189   2.257
 6396SOL     OW20086   6.428   3.928   5.938
 6396SOL    HW120087   6.404   3.945   6.033
 6396SOL    HW220088   6.510   3.871   5.933
 6397SOL     OW20089   6.526   1.423   2.290
 6397SOL    HW120090   6.625   1.436   2.292
 6397SOL    HW220091   6.503   1.346   2.231
 6398SOL     OW20092   1.442   6.710   1.657
 6398SOL    HW120093   1.394   6.798   1.648
 6398SOL    HW220094   1.431   6.675   1.750
 6399SOL     OW20095   1.562   7.015   6.903
 6399SOL    HW120096   1.476   6.996   6.951
 6399SOL    HW220097   1.630   6.947   6.929
 6400SOL     OW20098   1.991   5.025   2.804
 6400SOL    HW120099   2.065   5.047   2.741
 6400SOL    HW220100   2.026   4.965   2.877
 6401SOL     OW20101   5.430   4.677   3.193
 6401SOL    HW120102   5.523   4.668   3.157
 6401SOL    HW220103   5.387   4.586   3.198
 6402SOL     OW20104   1.743   3.125   3.789
 6402SOL    HW120105   1.675   3.197   3.802
 6402SOL    HW220106   1.757   3.110   3.691
 6403SOL     OW20107   5.719   6.330   5.940
 6403SOL    HW120108   5.725   6.232   5.957
 6403SOL    HW220109   5.695   6.345   5.844
 6404SOL     OW20110   4.145   1.658   2.623
 6404SOL    HW120111   4.166   1.607   2.706
 6404SOL    HW220112   4.057   1.628   2.586
 6405SOL     OW20113   4.279   1.578   3.508
 6405SOL    HW120114   4.198   1.531   3.543
 6405SOL    HW220115   4.269   1.677   3.524
 6406SOL     OW20116   1.441   3.226   2.172
 6406SOL    HW120117   1.450   3.235   2.072
 6406SOL    HW220118   1.429   3.317   2.213
 6407SOL     OW20119   2.137   0.061   3.045
 6407SOL    HW120120   2.134   0.072   3.144
 6407SOL    HW220121   2.071   0.121   3.002
 6408SOL     OW20122   6.376   0.831   0.656
 6408SOL    HW120123   6.415   0.889   0.584
 6408SOL    HW220124   6.277   0.821   0.641
 6409SOL     OW20125   0.079   4.701   3.138
 6409SOL    HW120126   0.115   4.697   3.231
 6409SOL    HW220127   7.019   4.750   3.137
 6410SOL     OW20128   2.145   0.971   6.915
 6410SOL    HW120129   2.106   0.955   7.006
 6410SOL    HW220130   2.215   1.042   6.920
 6411SOL     OW20131   1.064   3.257   2.460
 6411SOL    HW120132   1.135   3.190   2.482
 6411SOL    HW220133   0.997   3.215   2.399
 6412SOL     OW20134   2.620   0.607   0.123
 6412SOL    HW120135   2.597   0.650   0.211
 6412SOL    HW220136   2.553   0.536   0.103
 6413SOL     OW20137   3.938   4.895   4.781
 6413SOL    HW120138   3.976   4.855   4.865
 6413SOL    HW220139   3.857   4.948   4.805
 6414SOL     OW20140   6.218   6.552   6.709
 6414SOL    HW120141   6.142   6.489   6.694
 6414SOL    HW220142   6.183   6.635   6.753
 6415SOL     OW20143   1.517   3.278   3.864
 6415SOL    HW120144   1.530   3.236   3.953
 6415SOL    HW220145   1.419   3.283   3.844
 6416SOL     OW20146   2.916   0.043   6.499
 6416SOL    HW120147   3.016   0.038   6.486
 6416SOL    HW220148   2.895   0.056   6.595
 6417SOL     OW20149   5.352   2.550   0.726
 6417SOL    HW120150   5.287   2.475   0.710
 6417SOL    HW220151   5.425   2.519   0.787
 6418SOL     OW20152   5.195   4.439   2.863
 6418SOL    HW120153   5.110   4.448   2.810
 6418SOL    HW220154   5.205   4.345   2.894
 6419SOL     OW20155   0.561   5.374   4.767
 6419SOL    HW120156   0.597   5.442   4.703
 6419SOL    HW220157   0.571   5.409   4.860
 6420SOL     OW20158   1.911   1.716   3.712
 6420SOL    HW120159   1.923   1.621   3.742
 6420SOL    HW220160   1.875   1.717   3.619
 6421SOL     OW20161   4.543   0.444   1.351
 6421SOL    HW120162   4.501   0.510   1.290
 6421SOL    HW220163   4.589   0.373   1.296
 6422SOL     OW20164   6.582   1.517   5.173
 6422SOL    HW120165   6.590   1.617   5.170
 6422SOL    HW220166   6.493   1.491   5.209
 6423SOL     OW20167   4.687   5.471   4.792
 6423SOL    HW120168   4.736   5.395   4.747
 6423SOL    HW220169   4.750   5.547   4.807
 6424SOL     OW20170   1.475   3.683   4.935
 6424SOL    HW120171   1.533   3.710   5.011
 6424SOL    HW220172   1.393   3.636   4.970
 6425SOL     OW20173   0.030   5.425   2.706
 6425SOL    HW120174   0.047   5.366   2.627
 6425SOL    HW220175   0.085   5.394   2.783
 6426SOL     OW20176   5.498   5.271   3.776
 6426SOL    HW120177   5.543   5.200   3.722
 6426SOL    HW220178   5.561   5.347   3.790
 6427SOL     OW20179   2.955   3.705   3.225
 6427SOL    HW120180   2.980   3.766   3.300
 6427SOL    HW220181   2.957   3.756   3.139
 6428SOL     OW20182   5.757   3.576   0.567
 6428SOL    HW120183   5.685   3.512   0.594
 6428SOL    HW220184   5.841   3.554   0.616
 6429SOL     OW20185   1.086   0.591   5.504
 6429SOL    HW120186   1.068   0.509   5.558
 6429SOL    HW220187   1.036   0.587   5.418
 6430SOL     OW20188   6.669   0.925   4.906
 6430SOL    HW120189   6.684   0.983   4.986
 6430SOL    HW220190   6.611   0.848   4.932
 6431SOL     OW20191   4.211   5.580   2.669
 6431SOL    HW120192   4.292   5.639   2.674
 6431SOL    HW220193   4.152   5.599   2.748
 6432SOL     OW20194   3.673   4.382   6.282
 6432SOL    HW120195   3.639   4.327   6.205
 6432SOL    HW220196   3.605   4.452   6.305
 6433SOL     OW20197   3.597   4.993   6.969
 6433SOL    HW120198   3.502   4.998   6.998
 6433SOL    HW220199   3.648   5.070   7.006
 6434SOL     OW20200   2.646   6.507   5.749
 6434SOL    HW120201   2.684   6.440   5.686
 6434SOL    HW220202   2.552   6.529   5.722
 6435SOL     OW20203   6.486   6.898   0.779
 6435SOL    HW120204   6.450   6.988   0.804
 6435SOL    HW220205   6.435   6.827   0.827
 6436SOL     OW20206   1.087   3.558   3.457
 6436SOL    HW120207   1.143   3.477   3.473
 6436SOL    HW220208   1.041   3.551   3.369
 6437SOL     OW20209   1.546   2.348   6.038
 6437SOL    HW120210   1.619   2.310   6.095
 6437SOL    HW220211   1.463   2.358   6.093
 6438SOL     OW20212   1.376   4.791   6.554
 6438SOL    HW120213   1.291   4.843   6.557
 6438SOL    HW220214   1.372   4.723   6.482
 6439SOL     OW20215   5.977   0.703   2.910
 6439SOL    HW120216   6.056   0.734   2.858
 6439SOL    HW220217   5.919   0.782   2.932
 6440SOL     OW20218   2.977   0.729   5.860
 6440SOL    HW120219   3.007   0.810   5.910
 6440SOL    HW220220   2.961   0.654   5.924
 6441SOL     OW20221   0.144   0.957   1.928
 6441SOL    HW120222   0.129   0.866   1.968
 6441SOL    HW220223   0.079   1.022   1.968
 6442SOL     OW20224   2.408   1.859   4.965
 6442SOL    HW120225   2.453   1.874   4.876
 6442SOL    HW220226   2.315   1.825   4.950
 6443SOL     OW20227   3.594   2.310   5.878
 6443SOL    HW120228   3.516   2.373   5.877
 6443SOL    HW220229   3.641   2.315   5.790
 6444SOL     OW20230   6.484   2.717   4.811
 6444SOL    HW120231   6.526   2.800   4.847
 6444SOL    HW220232   6.553   2.645   4.802
 6445SOL     OW20233   4.002   3.706   3.187
 6445SOL    HW120234   4.000   3.607   3.194
 6445SOL    HW220235   4.037   3.745   3.272
 6446SOL     OW20236   0.933   2.205   0.323
 6446SOL    HW120237   0.916   2.301   0.346
 6446SOL    HW220238   1.031   2.189   0.316
 6447SOL     OW20239   6.204   4.328   1.756
 6447SOL    HW120240   6.144   4.251   1.733
 6447SOL    HW220241   6.169   4.411   1.713
 6448SOL     OW20242   5.183   4.923   1.368
 6448SOL    HW120243   5.187   4.921   1.268
 6448SOL    HW220244   5.182   4.829   1.403
 6449SOL     OW20245   2.727   5.086   2.145
 6449SOL    HW120246   2.782   5.033   2.079
 6449SOL    HW220247   2.780   5.100   2.228
 6450SOL     OW20248   1.027   3.722   0.179
 6450SOL    HW120249   1.084   3.662   0.122
 6450SOL    HW220250   0.931   3.712   0.151
 6451SOL     OW20251   2.939   1.724   5.892
 6451SOL    HW120252   3.029   1.758   5.919
 6451SOL    HW220253   2.888   1.696   5.973
 6452SOL     OW20254   5.081   3.693   2.658
 6452SOL    HW120255   5.014   3.620   2.648
 6452SOL    HW220256   5.124   3.713   2.570
 6453SOL     OW20257   2.723   6.873   1.442
 6453SOL    HW120258   2.788   6.864   1.366
 6453SOL    HW220259   2.630   6.871   1.406
 6454SOL     OW20260   0.677   1.527   2.307
 6454SOL    HW120261   0.699   1.551   2.401
 6454SOL    HW220262   0.761   1.507   2.256
 6455SOL     OW20263   6.654   3.637   3.625
 6455SOL    HW120264   6.628   3.550   3.668
 6455SOL    HW220265   6.655   3.625   3.525
 6456SOL     OW20266   1.353   0.964   2.678
 6456SOL    HW120267   1.446   0.930   2.663
 6456SOL    HW220268   1.337   0.973   2.777
 6457SOL     OW20269   4.623   6.131   1.365
 6457SOL    HW120270   4.537   6.115   1.316
 6457SOL    HW220271   4.696   6.146   1.298
 6458SOL     OW20272   1.673   5.299   5.105
 6458SOL    HW120273   1.713   5.313   5.195
 6458SOL    HW220274   1.739   5.323   5.034
 6459SOL     OW20275   6.265   2.368   2.827
 6459SOL    HW120276   6.178   2.410   2.853
 6459SOL    HW220277   6.339   2.435   2.838
 6460SOL     OW20278   5.762   6.069   5.943
 6460SOL    HW120279   5.825   5.996   5.968
 6460SOL    HW220280   5.703   6.039   5.868
 6461SOL     OW20281   2.803   4.702   0.222
 6461SOL    HW120282   2.710   4.701   0.186
 6461SOL    HW220283   2.824   4.614   0.263
 6462SOL     OW20284   0.463   3.070   4.834
 6462SOL    HW120285   0.368   3.062   4.804
 6462SOL    HW220286   0.513   3.126   4.768
 6463SOL     OW20287   5.080   6.525   0.630
 6463SOL    HW120288   5.107   6.429   0.628
 6463SOL    HW220289   5.111   6.567   0.715
 6464SOL     OW20290   1.616   5.942   5.368
 6464SOL    HW120291   1.551   6.015   5.346
 6464SOL    HW220292   1.656   5.960   5.458
 6465SOL     OW20293   6.740   2.590   2.468
 6465SOL    HW120294   6.657   2.546   2.502
 6465SOL    HW220295   6.811   2.521   2.453
 6466SOL     OW20296   6.758   1.886   6.733
 6466SOL    HW120297   6.831   1.830   6.771
 6466SOL    HW220298   6.747   1.865   6.636
 6467SOL     OW20299   4.105   0.523   1.000
 6467SOL    HW120300   4.164   0.474   1.064
 6467SOL    HW220301   4.087   0.464   0.921
 6468SOL     OW20302   3.349   6.370   1.806
 6468SOL    HW120303   3.410   6.411   1.874
 6468SOL    HW220304   3.403   6.317   1.740
 6469SOL     OW20305   3.408   2.010   4.150
 6469SOL    HW120306   3.369   2.031   4.240
 6469SOL    HW220307   3.335   1.985   4.087
 6470SOL     OW20308   6.379   2.460   0.131
 6470SOL    HW120309   6.318   2.539   0.131
 6470SOL    HW220310   6.363   2.406   0.214
 6471SOL     OW20311   1.158   6.274   5.280
 6471SOL    HW120312   1.070   6.321   5.272
 6471SOL    HW220313   1.229   6.341   5.299
 6472SOL     OW20314   6.065   5.589   2.824
 6472SOL    HW120315   5.994   5.649   2.860
 6472SOL    HW220316   6.152   5.636   2.824
 6473SOL     OW20317   1.981   1.904   5.081
 6473SOL    HW120318   2.008   1.996   5.053
 6473SOL    HW220319   2.053   1.839   5.053
 6474SOL     OW20320   3.852   5.439   5.851
 6474SOL    HW120321   3.947   5.439   5.818
 6474SOL    HW220322   3.813   5.531   5.841
 6475SOL     OW20323   5.934   5.072   3.499
 6475SOL    HW120324   5.882   4.989   3.480
 6475SOL    HW220325   6.027   5.062   3.463
 6476SOL     OW20326   4.599   3.105   6.342
 6476SOL    HW120327   4.564   3.198   6.355
 6476SOL    HW220328   4.639   3.097   6.251
 6477SOL     OW20329   6.231   5.374   0.682
 6477SOL    HW120330   6.259   5.443   0.749
 6477SOL    HW220331   6.142   5.398   0.644
 6478SOL     OW20332   3.412   6.561   2.573
 6478SOL    HW120333   3.367   6.585   2.487
 6478SOL    HW220334   3.500   6.518   2.552
 6479SOL     OW20335   3.297   4.974   4.259
 6479SOL    HW120336   3.355   5.013   4.331
 6479SOL    HW220337   3.209   4.947   4.299
 6480SOL     OW20338   2.164   1.446   0.353
 6480SOL    HW120339   2.255   1.478   0.326
 6480SOL    HW220340   2.147   1.356   0.313
 6481SOL     OW20341   3.362   2.473   1.736
 6481SOL    HW120342   3.422   2.397   1.760
 6481SOL    HW220343   3.416   2.546   1.692
 6482SOL     OW20344   6.648   2.478   6.069
 6482SOL    HW120345   6.713   2.554   6.077
 6482SOL    HW220346   6.628   2.460   5.973
 6483SOL     OW20347   0.740   6.367   4.169
 6483SOL    HW120348   0.730   6.348   4.267
 6483SOL    HW220349   0.826   6.415   4.153
 6484SOL     OW20350   2.798   1.526   2.698
 6484SOL    HW120351   2.878   1.554   2.645
 6484SOL    HW220352   2.759   1.443   2.658
 6485SOL     OW20353   1.746   5.720   3.875
 6485SOL    HW120354   1.729   5.788   3.946
 6485SOL    HW220355   1.727   5.629   3.911
 6486SOL     OW20356   0.927   5.374   2.647
 6486SOL    HW120357   0.912   5.318   2.566
 6486SOL    HW220358   0.938   5.314   2.727
 6487SOL     OW20359   0.929   6.444   5.277
 6487SOL    HW120360   0.852   6.456   5.340
 6487SOL    HW220361   0.968   6.533   5.253
 6488SOL     OW20362   4.327   5.875   4.777
 6488SOL    HW120363   4.320   5.927   4.863
 6488SOL    HW220364   4.382   5.793   4.793
 6489SOL     OW20365   3.384   3.583   6.194
 6489SOL    HW120366   3.319   3.638   6.140
 6489SOL    HW220367   3.427   3.515   6.135
 6490SOL     OW20368   2.910   1.412   6.268
 6490SOL    HW120369   2.987   1.450   6.217
 6490SOL    HW220370   2.833   1.397   6.206
 6491SOL     OW20371   2.696   1.115   1.774
 6491SOL    HW120372   2.752   1.127   1.692
 6491SOL    HW220373   2.612   1.167   1.766
 6492SOL     OW20374   4.125   3.321   4.992
 6492SOL    HW120375   4.106   3.331   4.895
 6492SOL    HW220376   4.195   3.387   5.020
 6493SOL     OW20377   1.398   4.374   6.508
 6493SOL    HW120378   1.361   4.287   6.474
 6493SOL    HW220379   1.496   4.364   6.526
 6494SOL     OW20380   6.773   6.521   2.488
 6494SOL    HW120381   6.774   6.614   2.453
 6494SOL    HW220382   6.809   6.520   2.581
 6495SOL     OW20383   6.607   0.532   4.437
 6495SOL    HW120384   6.570   0.455   4.490
 6495SOL    HW220385   6.658   0.593   4.498
 6496SOL     OW20386   5.966   0.084   1.523
 6496SOL    HW120387   6.011   0.003   1.486
 6496SOL    HW220388   6.029   0.162   1.522
 6497SOL     OW20389   1.309   0.194   1.119
 6497SOL    HW120390   1.355   0.158   1.200
 6497SOL    HW220391   1.289   0.292   1.133
 6498SOL     OW20392   0.714   4.060   4.642
 6498SOL    HW120393   0.755   4.152   4.645
 6498SOL    HW220394   0.663   4.049   4.557
 6499SOL     OW20395   5.682   3.778   4.605
 6499SOL    HW120396   5.626   3.754   4.684
 6499SOL    HW220397   5.703   3.876   4.608
 6500SOL     OW20398   0.226   4.077   2.380
 6500SOL    HW120399   0.308   4.025   2.359
 6500SOL    HW220400   0.240   4.173   2.353
 6501SOL     OW20401   0.251   1.099   1.591
 6501SOL    HW120402   0.284   1.130   1.680
 6501SOL    HW220403   0.329   1.089   1.529
 6502SOL     OW20404   6.821   3.571   1.494
 6502SOL    HW120405   6.807   3.653   1.438
 6502SOL    HW220406   6.916   3.541   1.486
 6503SOL     OW20407   5.486   1.017   3.582
 6503SOL    HW120408   5.518   1.015   3.676
 6503SOL    HW220409   5.488   0.924   3.544
 6504SOL     OW20410   3.777   6.131   0.297
 6504SOL    HW120411   3.836   6.107   0.219
 6504SOL    HW220412   3.810   6.215   0.338
 6505SOL     OW20413   4.316   6.289   6.141
 6505SOL    HW120414   4.310   6.355   6.216
 6505SOL    HW220415   4.328   6.338   6.055
 6506SOL     OW20416   0.065   2.952   3.445
 6506SOL    HW120417   0.096   3.024   3.507
 6506SOL    HW220418   0.078   2.863   3.488
 6507SOL     OW20419   2.861   5.683   6.166
 6507SOL    HW120420   2.832   5.694   6.071
 6507SOL    HW220421   2.802   5.618   6.212
 6508SOL     OW20422   1.808   0.528   2.405
 6508SOL    HW120423   1.797   0.452   2.341
 6508SOL    HW220424   1.900   0.566   2.394
 6509SOL     OW20425   4.939   1.671   4.931
 6509SOL    HW120426   4.988   1.750   4.967
 6509SOL    HW220427   5.005   1.601   4.904
 6510SOL     OW20428   4.994   5.279   6.513
 6510SOL    HW120429   5.019   5.319   6.601
 6510SOL    HW220430   4.964   5.185   6.526
 6511SOL     OW20431   4.327   1.128   5.053
 6511SOL    HW120432   4.396   1.095   4.988
 6511SOL    HW220433   4.268   1.053   5.081
 6512SOL     OW20434   3.255   6.810   2.665
 6512SOL    HW120435   3.160   6.794   2.691
 6512SOL    HW220436   3.290   6.732   2.612
 6513SOL     OW20437   1.963   6.117   3.812
 6513SOL    HW120438   1.955   6.107   3.911
 6513SOL    HW220439   2.028   6.190   3.790
 6514SOL     OW20440   6.004   0.817   4.492
 6514SOL    HW120441   6.074   0.755   4.526
 6514SOL    HW220442   5.943   0.842   4.567
 6515SOL     OW20443   1.308   3.614   2.567
 6515SOL    HW120444   1.211   3.639   2.571
 6515SOL    HW220445   1.353   3.669   2.497
 6516SOL     OW20446   6.778   3.374   1.288
 6516SOL    HW120447   6.756   3.456   1.340
 6516SOL    HW220448   6.825   3.400   1.204
 6517SOL     OW20449   0.171   1.790   1.061
 6517SOL    HW120450   0.199   1.885   1.068
 6517SOL    HW220451   0.117   1.764   1.141
 6518SOL     OW20452   0.044   0.443   2.174
 6518SOL    HW120453   7.009   0.496   2.117
 6518SOL    HW220454   0.032   0.470   2.270
 6519SOL     OW20455   0.340   1.927   2.962
 6519SOL    HW120456   0.354   1.833   2.931
 6519SOL    HW220457   0.426   1.976   2.960
 6520SOL     OW20458   6.747   5.379   6.949
 6520SOL    HW120459   6.656   5.412   6.925
 6520SOL    HW220460   6.739   5.302   7.012
 6521SOL     OW20461   2.181   2.666   3.868
 6521SOL    HW120462   2.150   2.711   3.951
 6521SOL    HW220463   2.149   2.571   3.868
 6522SOL     OW20464   2.288   4.576   5.400
 6522SOL    HW120465   2.329   4.654   5.354
 6522SOL    HW220466   2.221   4.608   5.468
 6523SOL     OW20467   3.687   0.504   6.803
 6523SOL    HW120468   3.758   0.574   6.810
 6523SOL    HW220469   3.699   0.454   6.717
 6524SOL     OW20470   2.742   2.535   1.460
 6524SOL    HW120471   2.726   2.601   1.387
 6524SOL    HW220472   2.839   2.511   1.463
 6525SOL     OW20473   2.035   5.034   3.225
 6525SOL    HW120474   2.081   5.123   3.216
 6525SOL    HW220475   1.941   5.049   3.255
 6526SOL     OW20476   0.929   0.477   1.293
 6526SOL    HW120477   0.969   0.386   1.280
 6526SOL    HW220478   0.929   0.526   1.206
 6527SOL     OW20479   6.762   2.117   0.438
 6527SOL    HW120480   6.791   2.050   0.506
 6527SOL    HW220481   6.826   2.115   0.361
 6528SOL     OW20482   6.623   1.796   5.262
 6528SOL    HW120483   6.585   1.886   5.243
 6528SOL    HW220484   6.692   1.803   5.334
 6529SOL     OW20485   0.871   0.892   2.527
 6529SOL    HW120486   0.970   0.877   2.530
 6529SOL    HW220487   0.824   0.809   2.558
 6530SOL     OW20488   0.306   1.754   0.685
 6530SOL    HW120489   0.375   1.730   0.753
 6530SOL    HW220490   0.232   1.805   0.728
 6531SOL     OW20491   5.040   3.518   5.140
 6531SOL    HW120492   4.960   3.534   5.083
 6531SOL    HW220493   5.054   3.596   5.201
 6532SOL     OW20494   2.027   1.385   1.156
 6532SOL    HW120495   2.056   1.470   1.199
 6532SOL    HW220496   1.933   1.365   1.182
 6533SOL     OW20497   3.991   5.753   0.578
 6533SOL    HW120498   4.011   5.655   0.587
 6533SOL    HW220499   4.020   5.785   0.488
 6534SOL     OW20500   4.836   5.298   1.810
 6534SOL    HW120501   4.811   5.275   1.716
 6534SOL    HW220502   4.771   5.365   1.846
 6535SOL     OW20503   6.105   4.601   4.501
 6535SOL    HW120504   6.138   4.694   4.495
 6535SOL    HW220505   6.087   4.578   4.597
 6536SOL     OW20506   0.479   1.841   5.196
 6536SOL    HW120507   0.484   1.828   5.097
 6536SOL    HW220508   0.561   1.887   5.229
 6537SOL     OW20509   6.629   4.498   4.915
 6537SOL    HW120510   6.626   4.398   4.917
 6537SOL    HW220511   6.580   4.535   4.993
 6538SOL     OW20512   1.100   3.565   5.727
 6538SOL    HW120513   1.071   3.633   5.795
 6538SOL    HW220514   1.185   3.522   5.758
 6539SOL     OW20515   4.489   0.693   6.963
 6539SOL    HW120516   4.411   0.756   6.960
 6539SOL    HW220517   4.465   0.609   6.913
 6540SOL     OW20518   3.490   2.522   6.266
 6540SOL    HW120519   3.558   2.589   6.234
 6540SOL    HW220520   3.398   2.554   6.242
 6541SOL     OW20521   5.541   2.164   5.948
 6541SOL    HW120522   5.498   2.241   5.995
 6541SOL    HW220523   5.571   2.192   5.857
 6542SOL     OW20524   1.118   3.164   4.196
 6542SOL    HW120525   1.140   3.260   4.178
 6542SOL    HW220526   1.203   3.113   4.213
 6543SOL     OW20527   4.045   2.568   5.595
 6543SOL    HW120528   4.118   2.586   5.529
 6543SOL    HW220529   3.965   2.623   5.571
 6544SOL     OW20530   1.026   6.372   2.845
 6544SOL    HW120531   0.931   6.371   2.877
 6544SOL    HW220532   1.039   6.448   2.782
 6545SOL     OW20533   3.680   0.382   0.390
 6545SOL    HW120534   3.716   0.391   0.297
 6545SOL    HW220535   3.706   0.293   0.428
 6546SOL     OW20536   3.814   4.022   6.272
 6546SOL    HW120537   3.726   3.976   6.287
 6546SOL    HW220538   3.822   4.099   6.334
 6547SOL     OW20539   4.942   0.775   6.525
 6547SOL    HW120540   4.992   0.815   6.449
 6547SOL    HW220541   4.844   0.780   6.506
 6548SOL     OW20542   1.628   2.942   0.433
 6548SOL    HW120543   1.557   2.973   0.497
 6548SOL    HW220544   1.591   2.870   0.374
 6549SOL     OW20545   4.483   0.432   2.455
 6549SOL    HW120546   4.522   0.408   2.544
 6549SOL    HW220547   4.384   0.432   2.460
 6550SOL     OW20548   0.464   6.542   4.047
 6550SOL    HW120549   0.534   6.473   4.065
 6550SOL    HW220550   0.504   6.617   3.993
 6551SOL     OW20551   2.311   3.656   1.664
 6551SOL    HW120552   2.227   3.704   1.689
 6551SOL    HW220553   2.327   3.581   1.728
 6552SOL     OW20554   2.344   6.750   0.734
 6552SOL    HW120555   2.370   6.670   0.788
 6552SOL    HW220556   2.296   6.816   0.793
 6553SOL     OW20557   0.902   2.341   3.076
 6553SOL    HW120558   0.822   2.397   3.055
 6553SOL    HW220559   0.908   2.264   3.012
 6554SOL     OW20560   2.224   0.564   4.561
 6554SOL    HW120561   2.145   0.625   4.551
 6554SOL    HW220562   2.192   0.469   4.569
 6555SOL     OW20563   6.015   2.232   3.717
 6555SOL    HW120564   6.107   2.201   3.739
 6555SOL    HW220565   6.009   2.331   3.733
 6556SOL     OW20566   6.158   3.348   2.980
 6556SOL    HW120567   6.104   3.405   2.918
 6556SOL    HW220568   6.240   3.317   2.932
 6557SOL     OW20569   2.592   0.788   3.496
 6557SOL    HW120570   2.644   0.708   3.466
 6557SOL    HW220571   2.501   0.786   3.455
 6558SOL     OW20572   6.058   5.839   0.330
 6558SOL    HW120573   6.005   5.778   0.389
 6558SOL    HW220574   6.005   5.860   0.248
 6559SOL     OW20575   0.197   4.277   6.565
 6559SOL    HW120576   0.254   4.276   6.483
 6559SOL    HW220577   0.117   4.218   6.551
 6560SOL     OW20578   3.517   4.572   1.245
 6560SOL    HW120579   3.486   4.588   1.338
 6560SOL    HW220580   3.606   4.615   1.231
 6561SOL     OW20581   3.189   4.332   1.090
 6561SOL    HW120582   3.276   4.315   1.137
 6561SOL    HW220583   3.156   4.247   1.050
 6562SOL     OW20584   5.703   2.154   0.770
 6562SOL    HW120585   5.638   2.202   0.710
 6562SOL    HW220586   5.674   2.163   0.865
 6563SOL     OW20587   5.137   6.301   5.717
 6563SOL    HW120588   5.150   6.322   5.814
 6563SOL    HW220589   5.201   6.354   5.662
 6564SOL     OW20590   6.575   3.439   1.594
 6564SOL    HW120591   6.669   3.471   1.582
 6564SOL    HW220592   6.571   3.341   1.578
 6565SOL     OW20593   6.115   6.720   3.043
 6565SOL    HW120594   6.185   6.739   3.111
 6565SOL    HW220595   6.119   6.788   2.970
 6566SOL     OW20596   3.467   6.194   2.874
 6566SOL    HW120597   3.429   6.108   2.908
 6566SOL    HW220598   3.401   6.268   2.889
 6567SOL     OW20599   5.029   1.040   2.203
 6567SOL    HW120600   5.113   1.032   2.150
 6567SOL    HW220601   5.021   0.960   2.263
 6568SOL     OW20602   3.709   1.900   3.604
 6568SOL    HW120603   3.610   1.904   3.591
 6568SOL    HW220604   3.744   1.992   3.623
 6569SOL     OW20605   2.258   2.470   6.741
 6569SOL    HW120606   2.252   2.376   6.775
 6569SOL    HW220607   2.170   2.497   6.704
 6570SOL     OW20608   3.057   1.081   2.346
 6570SOL    HW120609   3.129   1.025   2.386
 6570SOL    HW220610   3.096   1.140   2.275
 6571SOL     OW20611   2.882   4.921   2.573
 6571SOL    HW120612   2.981   4.902   2.574
 6571SOL    HW220613   2.865   5.005   2.521
 6572SOL     OW20614   0.301   4.334   4.297
 6572SOL    HW120615   0.343   4.386   4.222
 6572SOL    HW220616   0.239   4.266   4.260
 6573SOL     OW20617   0.610   1.735   3.027
 6573SOL    HW120618   0.543   1.683   2.974
 6573SOL    HW220619   0.626   1.823   2.982
 6574SOL     OW20620   2.628   5.691   2.800
 6574SOL    HW120621   2.533   5.659   2.802
 6574SOL    HW220622   2.688   5.614   2.777
 6575SOL     OW20623   0.203   6.663   3.354
 6575SOL    HW120624   0.254   6.619   3.280
 6575SOL    HW220625   0.172   6.753   3.324
 6576SOL     OW20626   3.194   6.071   0.985
 6576SOL    HW120627   3.228   6.165   0.981
 6576SOL    HW220628   3.165   6.050   1.078
 6577SOL     OW20629   1.519   1.765   3.339
 6577SOL    HW120630   1.457   1.843   3.351
 6577SOL    HW220631   1.503   1.724   3.250
 6578SOL     OW20632   0.922   6.384   2.031
 6578SOL    HW120633   0.902   6.357   1.937
 6578SOL    HW220634   0.838   6.382   2.085
 6579SOL     OW20635   6.716   3.068   3.900
 6579SOL    HW120636   6.758   3.047   3.812
 6579SOL    HW220637   6.671   3.157   3.894
 6580SOL     OW20638   0.832   1.963   0.256
 6580SOL    HW120639   0.852   2.054   0.293
 6580SOL    HW220640   0.765   1.971   0.182
 6581SOL     OW20641   2.216   0.742   0.919
 6581SOL    HW120642   2.285   0.699   0.862
 6581SOL    HW220643   2.259   0.787   0.997
 6582SOL     OW20644   0.018   1.126   2.941
 6582SOL    HW120645   7.020   1.097   2.849
 6582SOL    HW220646   0.026   1.046   3.001
 6583SOL     OW20647   4.501   6.089   5.157
 6583SOL    HW120648   4.421   6.030   5.169
 6583SOL    HW220649   4.583   6.033   5.155
 6584SOL     OW20650   4.253   1.832   0.025
 6584SOL    HW120651   4.256   1.760   0.095
 6584SOL    HW220652   4.161   1.871   0.023
 6585SOL     OW20653   6.041   6.168   6.876
 6585SOL    HW120654   5.958   6.112   6.869
 6585SOL    HW220655   6.032   6.248   6.818
 6586SOL     OW20656   6.227   1.887   5.663
 6586SOL    HW120657   6.321   1.921   5.655
 6586SOL    HW220658   6.164   1.953   5.624
 6587SOL     OW20659   1.469   4.671   6.781
 6587SOL    HW120660   1.522   4.605   6.730
 6587SOL    HW220661   1.428   4.737   6.718
 6588SOL     OW20662   0.681   2.622   1.766
 6588SOL    HW120663   0.742   2.682   1.818
 6588SOL    HW220664   0.614   2.677   1.716
 6589SOL     OW20665   4.715   0.902   2.066
 6589SOL    HW120666   4.725   0.931   2.161
 6589SOL    HW220667   4.641   0.954   2.022
 6590SOL     OW20668   0.996   0.879   6.438
 6590SOL    HW120669   1.033   0.806   6.379
 6590SOL    HW220670   0.896   0.871   6.442
 6591SOL     OW20671   5.257   6.083   3.924
 6591SOL    HW120672   5.164   6.054   3.945
 6591SOL    HW220673   5.310   6.005   3.891
 6592SOL     OW20674   5.233   6.032   2.927
 6592SOL    HW120675   5.221   6.124   2.964
 6592SOL    HW220676   5.146   6.000   2.889
 6593SOL     OW20677   2.406   2.481   2.092
 6593SOL    HW120678   2.438   2.387   2.101
 6593SOL    HW220679   2.451   2.525   2.015
 6594SOL     OW20680   3.624   1.291   5.752
 6594SOL    HW120681   3.601   1.387   5.733
 6594SOL    HW220682   3.562   1.255   5.821
 6595SOL     OW20683   1.055   4.064   6.352
 6595SOL    HW120684   1.078   4.086   6.257
 6595SOL    HW220685   1.105   3.982   6.380
 6596SOL     OW20686   3.658   6.935   4.227
 6596SOL    HW120687   3.606   7.020   4.216
 6596SOL    HW220688   3.659   6.885   4.140
 6597SOL     OW20689   1.955   4.989   1.825
 6597SOL    HW120690   1.983   4.930   1.901
 6597SOL    HW220691   1.873   4.951   1.782
 6598SOL     OW20692   1.958   4.814   3.419
 6598SOL    HW120693   1.879   4.844   3.472
 6598SOL    HW220694   1.980   4.883   3.350
 6599SOL     OW20695   4.544   6.182   6.609
 6599SOL    HW120696   4.487   6.100   6.623
 6599SOL    HW220697   4.553   6.198   6.511
 6600SOL     OW20698   3.929   6.404   4.616
 6600SOL    HW120699   3.924   6.501   4.593
 6600SOL    HW220700   3.978   6.393   4.703
 6601SOL     OW20701   1.013   2.079   4.001
 6601SOL    HW120702   1.067   2.065   4.084
 6601SOL    HW220703   0.935   2.016   4.002
 6602SOL     OW20704   1.641   0.442   1.091
 6602SOL    HW120705   1.643   0.447   1.190
 6602SOL    HW220706   1.731   0.464   1.054
 6603SOL     OW20707   0.795   3.140   3.553
 6603SOL    HW120708   0.805   3.235   3.582
 6603SOL    HW220709   0.698   3.114   3.555
 6604SOL     OW20710   1.994   6.222   1.591
 6604SOL    HW120711   2.092   6.232   1.579
 6604SOL    HW220712   1.954   6.310   1.618
 6605SOL     OW20713   5.493   5.088   2.244
 6605SOL    HW120714   5.409   5.141   2.254
 6605SOL    HW220715   5.520   5.050   2.332
 6606SOL     OW20716   6.688   5.152   2.360
 6606SOL    HW120717   6.664   5.102   2.444
 6606SOL    HW220718   6.782   5.185   2.367
 6607SOL     OW20719   0.727   4.679   3.231
 6607SOL    HW120720   0.817   4.716   3.208
 6607SOL    HW220721   0.697   4.716   3.320
 6608SOL     OW20722   0.094   6.351   6.909
 6608SOL    HW120723   0.139   6.433   6.873
 6608SOL    HW220724   0.007   6.377   6.953
 6609SOL     OW20725   5.617   1.458   0.036
 6609SOL    HW120726   5.638   1.521   0.111
 6609SOL    HW220727   5.636   1.502   6.976
 6610SOL     OW20728   2.637   6.736   0.306
 6610SOL    HW120729   2.734   6.725   0.285
 6610SOL    HW220730   2.624   6.737   0.405
 6611SOL     OW20731   4.759   2.905   3.177
 6611SOL    HW120732   4.744   2.897   3.079
 6611SOL    HW220733   4.713   2.829   3.224
 6612SOL     OW20734   6.876   2.078   6.418
 6612SOL    HW120735   6.842   2.027   6.339
 6612SOL    HW220736   6.830   2.167   6.421
 6613SOL     OW20737   6.290   6.544   5.446
 6613SOL    HW120738   6.381   6.570   5.416
 6613SOL    HW220739   6.284   6.444   5.452
 6614SOL     OW20740   4.477   6.439   6.963
 6614SOL    HW120741   4.401   6.460   6.902
 6614SOL    HW220742   4.480   6.506   0.010
 6615SOL     OW20743   1.325   5.284   1.769
 6615SOL    HW120744   1.316   5.356   1.838
 6615SOL    HW220745   1.409   5.232   1.786
 6616SOL     OW20746   4.572   0.227   6.393
 6616SOL    HW120747   4.621   0.220   6.307
 6616SOL    HW220748   4.537   0.137   6.419
 6617SOL     OW20749   4.279   6.128   3.423
 6617SOL    HW120750   4.236   6.150   3.510
 6617SOL    HW220751   4.375   6.103   3.438
 6618SOL     OW20752   1.637   1.692   2.734
 6618SOL    HW120753   1.634   1.792   2.748
 6618SOL    HW220754   1.729   1.659   2.751
 6619SOL     OW20755   5.223   0.302   3.977
 6619SOL    HW120756   5.269   0.218   3.949
 6619SOL    HW220757   5.170   0.285   4.060
 6620SOL     OW20758   2.184   3.292   5.208
 6620SOL    HW120759   2.176   3.339   5.120
 6620SOL    HW220760   2.156   3.197   5.198
 6621SOL     OW20761   3.775   2.973   5.431
 6621SOL    HW120762   3.744   2.991   5.524
 6621SOL    HW220763   3.714   3.020   5.366
 6622SOL     OW20764   5.916   6.147   2.356
 6622SOL    HW120765   5.917   6.104   2.266
 6622SOL    HW220766   6.006   6.186   2.376
 6623SOL     OW20767   3.926   3.371   5.359
 6623SOL    HW120768   3.909   3.450   5.300
 6623SOL    HW220769   3.959   3.295   5.303
 6624SOL     OW20770   0.785   4.233   5.377
 6624SOL    HW120771   0.710   4.276   5.328
 6624SOL    HW220772   0.755   4.145   5.413
 6625SOL     OW20773   5.190   1.523   4.770
 6625SOL    HW120774   5.149   1.601   4.723
 6625SOL    HW220775   5.229   1.460   4.704
 6626SOL     OW20776   2.951   6.956   5.811
 6626SOL    HW120777   2.934   0.008   5.869
 6626SOL    HW220778   3.050   6.938   5.808
 6627SOL     OW20779   1.776   6.580   3.717
 6627SOL    HW120780   1.736   6.666   3.749
 6627SOL    HW220781   1.855   6.557   3.774
 6628SOL     OW20782   5.753   4.833   4.434
 6628SOL    HW120783   5.671   4.861   4.385
 6628SOL    HW220784   5.834   4.850   4.377
 6629SOL     OW20785   4.942   5.930   6.229
 6629SOL    HW120786   4.999   5.848   6.238
 6629SOL    HW220787   4.928   5.950   6.132
 6630SOL     OW20788   3.701   2.246   1.430
 6630SOL    HW120789   3.798   2.245   1.455
 6630SOL    HW220790   3.676   2.157   1.390
 6631SOL     OW20791   2.251   5.909   4.123
 6631SOL    HW120792   2.285   5.818   4.148
 6631SOL    HW220793   2.210   5.906   4.032
 6632SOL     OW20794   0.644   0.631   1.060
 6632SOL    HW120795   0.658   0.676   1.148
 6632SOL    HW220796   0.651   0.532   1.072
 6633SOL     OW20797   2.044   5.591   6.344
 6633SOL    HW120798   1.983   5.651   6.291
 6633SOL    HW220799   2.099   5.537   6.281
 6634SOL     OW20800   5.519   1.740   5.026
 6634SOL    HW120801   5.472   1.825   5.002
 6634SOL    HW220802   5.606   1.761   5.069
 6635SOL     OW20803   4.833   4.555   4.028
 6635SOL    HW120804   4.818   4.625   3.958
 6635SOL    HW220805   4.745   4.522   4.062
 6636SOL     OW20806   4.545   1.745   0.242
 6636SOL    HW120807   4.514   1.838   0.223
 6636SOL    HW220808   4.468   1.690   0.276
 6637SOL     OW20809   1.730   6.795   6.945
 6637SOL    HW120810   1.799   6.735   6.904
 6637SOL    HW220811   1.656   6.739   6.983
 6638SOL     OW20812   2.962   3.473   3.073
 6638SOL    HW120813   2.906   3.503   2.996
 6638SOL    HW220814   2.980   3.551   3.133
 6639SOL     OW20815   4.174   4.200   0.103
 6639SOL    HW120816   4.155   4.129   0.172
 6639SOL    HW220817   4.272   4.217   0.100
 6640SOL     OW20818   0.237   1.848   5.307
 6640SOL    HW120819   0.171   1.778   5.279
 6640SOL    HW220820   0.324   1.833   5.261
 6641SOL     OW20821   3.329   1.851   0.080
 6641SOL    HW120822   3.371   1.779   0.135
 6641SOL    HW220823   3.380   1.937   0.093
 6642SOL     OW20824   3.060   5.932   6.535
 6642SOL    HW120825   3.115   5.918   6.453
 6642SOL    HW220826   2.975   5.979   6.511
 6643SOL     OW20827   5.804   6.478   0.150
 6643SOL    HW120828   5.732   6.481   0.218
 6643SOL    HW220829   5.788   6.548   0.080
 6644SOL     OW20830   2.149   5.846   2.322
 6644SOL    HW120831   2.181   5.839   2.416
 6644SOL    HW220832   2.224   5.821   2.260
 6645SOL     OW20833   5.237   3.664   0.864
 6645SOL    HW120834   5.268   3.588   0.921
 6645SOL    HW220835   5.226   3.632   0.770
 6646SOL     OW20836   5.003   1.547   5.250
 6646SOL    HW120837   5.096   1.546   5.211
 6646SOL    HW220838   4.941   1.501   5.187
 6647SOL     OW20839   4.630   6.976   7.001
 6647SOL    HW120840   4.538   6.956   0.007
 6647SOL    HW220841   4.684   7.017   0.047
 6648SOL     OW20842   3.199   6.773   4.762
 6648SOL    HW120843   3.123   6.713   4.786
 6648SOL    HW220844   3.186   6.862   4.808
 6649SOL     OW20845   5.967   1.823   5.789
 6649SOL    HW120846   6.061   1.855   5.776
 6649SOL    HW220847   5.933   1.783   5.704
 6650SOL     OW20848   3.486   1.767   4.918
 6650SOL    HW120849   3.554   1.840   4.911
 6650SOL    HW220850   3.394   1.806   4.923
 6651SOL     OW20851   1.602   1.275   5.711
 6651SOL    HW120852   1.582   1.181   5.736
 6651SOL    HW220853   1.542   1.337   5.761
 6652SOL     OW20854   0.251   4.818   6.738
 6652SOL    HW120855   0.300   4.884   6.680
 6652SOL    HW220856   0.216   4.744   6.680
 6653SOL     OW20857   4.417   2.976   1.233
 6653SOL    HW120858   4.488   2.955   1.166
 6653SOL    HW220859   4.458   3.022   1.311
 6654SOL     OW20860   1.667   5.426   1.977
 6654SOL    HW120861   1.701   5.354   2.037
 6654SOL    HW220862   1.703   5.514   2.008
 6655SOL     OW20863   6.564   6.273   2.803
 6655SOL    HW120864   6.591   6.194   2.858
 6655SOL    HW220865   6.504   6.243   2.729
 6656SOL     OW20866   6.275   1.938   3.092
 6656SOL    HW120867   6.240   1.845   3.079
 6656SOL    HW220868   6.284   1.983   3.004
 6657SOL     OW20869   6.242   3.547   4.922
 6657SOL    HW120870   6.339   3.560   4.943
 6657SOL    HW220871   6.214   3.614   4.853
 6658SOL     OW20872   5.323   0.184   5.582
 6658SOL    HW120873   5.294   0.266   5.533
 6658SOL    HW220874   5.249   0.117   5.581
 6659SOL     OW20875   1.890   2.730   1.288
 6659SOL    HW120876   1.791   2.729   1.301
 6659SOL    HW220877   1.934   2.693   1.370
 6660SOL     OW20878   1.203   5.034   1.728
 6660SOL    HW120879   1.106   5.060   1.733
 6660SOL    HW220880   1.255   5.108   1.685
 6661SOL     OW20881   2.343   0.122   5.359
 6661SOL    HW120882   2.340   0.221   5.349
 6661SOL    HW220883   2.436   0.093   5.382
 6662SOL     OW20884   1.451   1.144   0.439
 6662SOL    HW120885   1.535   1.094   0.462
 6662SOL    HW220886   1.410   1.103   0.357
 6663SOL     OW20887   6.653   6.571   4.812
 6663SOL    HW120888   6.597   6.615   4.742
 6663SOL    HW220889   6.717   6.508   4.768
 6664SOL     OW20890   2.218   6.918   0.919
 6664SOL    HW120891   2.170   7.001   0.948
 6664SOL    HW220892   2.235   6.860   0.998
 6665SOL     OW20893   1.839   6.915   4.860
 6665SOL    HW120894   1.846   6.952   4.767
 6665SOL    HW220895   1.923   6.864   4.881
 6666SOL     OW20896   6.339   5.913   5.492
 6666SOL    HW120897   6.368   5.857   5.415
 6666SOL    HW220898   6.411   5.914   5.562
 6667SOL     OW20899   6.909   6.620   5.492
 6667SOL    HW120900   6.835   6.568   5.536
 6667SOL    HW220901   6.992   6.564   5.491
 6668SOL     OW20902   6.441   6.382   0.957
 6668SOL    HW120903   6.445   6.345   1.050
 6668SOL    HW220904   6.409   6.476   0.960
 6669SOL     OW20905   2.998   2.081   2.025
 6669SOL    HW120906   3.018   2.061   2.121
 6669SOL    HW220907   2.981   2.179   2.015
 6670SOL     OW20908   3.036   1.117   5.862
 6670SOL    HW120909   3.047   1.214   5.883
 6670SOL    HW220910   3.088   1.063   5.929
 6671SOL     OW20911   5.119   6.984   0.169
 6671SOL    HW120912   5.177   6.908   0.199
 6671SOL    HW220913   5.172   0.041   0.168
 6672SOL     OW20914   6.490   1.729   0.478
 6672SOL    HW120915   6.554   1.704   0.551
 6672SOL    HW220916   6.404   1.679   0.491
 6673SOL     OW20917   4.684   4.261   3.650
 6673SOL    HW120918   4.649   4.249   3.743
 6673SOL    HW220919   4.704   4.171   3.611
 6674SOL     OW20920   6.793   4.295   0.494
 6674SOL    HW120921   6.829   4.328   0.582
 6674SOL    HW220922   6.867   4.293   0.427
 6675SOL     OW20923   6.378   2.934   0.096
 6675SOL    HW120924   6.279   2.939   0.108
 6675SOL    HW220925   6.422   2.916   0.184
 6676SOL     OW20926   0.555   3.597   5.041
 6676SOL    HW120927   0.612   3.516   5.059
 6676SOL    HW220928   0.550   3.653   5.124
 6677SOL     OW20929   0.500   1.495   6.734
 6677SOL    HW120930   0.519   1.459   6.643
 6677SOL    HW220931   0.586   1.524   6.777
 6678SOL     OW20932   3.050   4.085   0.493
 6678SOL    HW120933   3.093   4.034   0.567
 6678SOL    HW220934   3.113   4.156   0.461
 6679SOL     OW20935   3.938   0.284   3.938
 6679SOL    HW120936   3.893   0.335   3.866
 6679SOL    HW220937   3.972   0.347   4.008
 6680SOL     OW20938   4.438   6.571   6.387
 6680SOL    HW120939   4.455   6.535   6.479
 6680SOL    HW220940   4.371   6.645   6.392
 6681SOL     OW20941   4.888   5.902   0.535
 6681SOL    HW120942   4.847   5.988   0.563
 6681SOL    HW220943   4.982   5.918   0.504
 6682SOL     OW20944   2.022   5.057   0.126
 6682SOL    HW120945   2.063   5.098   0.207
 6682SOL    HW220946   2.087   5.059   0.050
 6683SOL     OW20947   5.933   3.105   5.290
 6683SOL    HW120948   6.015   3.162   5.290
 6683SOL    HW220949   5.862   3.149   5.345
 6684SOL     OW20950   3.740   6.604   2.544
 6684SOL    HW120951   3.737   6.612   2.643
 6684SOL    HW220952   3.701   6.516   2.516
 6685SOL     OW20953   4.368   2.948   6.366
 6685SOL    HW120954   4.308   2.998   6.303
 6685SOL    HW220955   4.449   3.003   6.386
 6686SOL     OW20956   5.490   5.587   3.885
 6686SOL    HW120957   5.393   5.569   3.871
 6686SOL    HW220958   5.526   5.523   3.953
 6687SOL     OW20959   0.916   3.152   2.233
 6687SOL    HW120960   1.002   3.191   2.198
 6687SOL    HW220961   0.882   3.084   2.167
 6688SOL     OW20962   3.820   4.845   1.270
 6688SOL    HW120963   3.835   4.820   1.365
 6688SOL    HW220964   3.890   4.909   1.240
 6689SOL     OW20965   4.959   4.218   6.086
 6689SOL    HW120966   4.931   4.124   6.104
 6689SOL    HW220967   4.884   4.280   6.107
 6690SOL     OW20968   0.639   6.955   0.783
 6690SOL    HW120969   0.550   6.988   0.813
 6690SOL    HW220970   0.696   6.935   0.863
 6691SOL     OW20971   2.101   0.531   2.438
 6691SOL    HW120972   2.194   0.514   2.472
 6691SOL    HW220973   2.081   0.468   2.364
 6692SOL     OW20974   4.034   3.776   3.479
 6692SOL    HW120975   3.959   3.732   3.529
 6692SOL    HW220976   4.071   3.851   3.534
 6693SOL     OW20977   4.310   2.189   5.074
 6693SOL    HW120978   4.357   2.134   5.005
 6693SOL    HW220979   4.226   2.225   5.035
 6694SOL     OW20980   4.187   6.122   1.754
 6694SOL    HW120981   4.197   6.207   1.703
 6694SOL    HW220982   4.099   6.122   1.801
 6695SOL     OW20983   2.915   2.392   6.299
 6695SOL    HW120984   2.893   2.315   6.240
 6695SOL    HW220985   2.835   2.451   6.309
 6696SOL     OW20986   3.934   2.996   4.046
 6696SOL    HW120987   3.857   2.979   3.985
 6696SOL    HW220988   3.979   2.910   4.069
 6697SOL     OW20989   4.949   1.943   3.073
 6697SOL    HW120990   4.985   2.032   3.045
 6697SOL    HW220991   5.018   1.894   3.126
 6698SOL     OW20992   3.091   2.860   1.050
 6698SOL    HW120993   3.066   2.884   1.144
 6698SOL    HW220994   3.038   2.780   1.021
 6699SOL     OW20995   2.062   6.601   5.602
 6699SOL    HW120996   2.115   6.572   5.681
 6699SOL    HW220997   2.094   6.691   5.571
 6700SOL     OW20998   6.903   1.565   1.226
 6700SOL    HW120999   6.933   1.633   1.160
 6700SOL    HW221000   6.959   1.573   1.309
 6701SOL     OW21001   5.263   5.217   1.252
 6701SOL    HW121002   5.343   5.256   1.208
 6701SOL    HW221003   5.280   5.121   1.275
 6702SOL     OW21004   2.220   2.384   1.367
 6702SOL    HW121005   2.172   2.466   1.399
 6702SOL    HW221006   2.275   2.347   1.442
 6703SOL     OW21007   6.469   0.204   0.866
 6703SOL    HW121008   6.546   0.243   0.916
 6703SOL    HW221009   6.493   0.190   0.770
 6704SOL     OW21010   4.032   2.203   3.454
 6704SOL    HW121011   4.047   2.110   3.488
 6704SOL    HW221012   4.084   2.215   3.369
 6705SOL     OW21013   5.791   2.878   0.270
 6705SOL    HW121014   5.825   2.937   0.196
 6705SOL    HW221015   5.862   2.865   0.338
 6706SOL     OW21016   0.764   5.769   1.093
 6706SOL    HW121017   0.770   5.862   1.057
 6706SOL    HW221018   0.750   5.772   1.192
 6707SOL     OW21019   5.592   6.577   3.357
 6707SOL    HW121020   5.637   6.587   3.445
 6707SOL    HW221021   5.538   6.659   3.337
 6708SOL     OW21022   5.623   5.320   1.280
 6708SOL    HW121023   5.539   5.347   1.326
 6708SOL    HW221024   5.610   5.231   1.236
 6709SOL     OW21025   1.341   5.835   3.017
 6709SOL    HW121026   1.420   5.896   3.010
 6709SOL    HW221027   1.267   5.869   2.959
 6710SOL     OW21028   3.577   0.897   6.248
 6710SOL    HW121029   3.513   0.905   6.172
 6710SOL    HW221030   3.584   0.984   6.295
 6711SOL     OW21031   5.083   6.621   5.533
 6711SOL    HW121032   5.122   6.637   5.624
 6711SOL    HW221033   5.040   6.531   5.531
 6712SOL     OW21034   5.390   3.343   1.257
 6712SOL    HW121035   5.364   3.362   1.352
 6712SOL    HW221036   5.489   3.331   1.252
 6713SOL     OW21037   1.119   0.976   3.589
 6713SOL    HW121038   1.031   0.996   3.545
 6713SOL    HW221039   1.180   1.054   3.576
 6714SOL     OW21040   7.011   1.584   6.291
 6714SOL    HW121041   6.920   1.574   6.251
 6714SOL    HW221042   7.004   1.590   6.390
 6715SOL     OW21043   1.883   0.475   0.993
 6715SOL    HW121044   1.886   0.567   0.954
 6715SOL    HW221045   1.966   0.458   1.047
 6716SOL     OW21046   0.139   5.567   1.810
 6716SOL    HW121047   0.153   5.514   1.726
 6716SOL    HW221048   0.196   5.529   1.883
 6717SOL     OW21049   3.204   3.283   6.575
 6717SOL    HW121050   3.125   3.273   6.514
 6717SOL    HW221051   3.261   3.359   6.543
 6718SOL     OW21052   4.491   0.031   0.854
 6718SOL    HW121053   4.442   0.089   0.789
 6718SOL    HW221054   4.444   0.034   0.942
 6719SOL     OW21055   2.604   0.006   0.334
 6719SOL    HW121056   2.634   6.954   0.281
 6719SOL    HW221057   2.684   0.055   0.369
 6720SOL     OW21058   1.933   0.819   3.541
 6720SOL    HW121059   1.950   0.833   3.444
 6720SOL    HW221060   1.888   0.731   3.554
 6721SOL     OW21061   0.061   6.325   0.430
 6721SOL    HW121062   0.086   6.231   0.410
 6721SOL    HW221063   0.144   6.378   0.451
 6722SOL     OW21064   6.581   2.492   0.566
 6722SOL    HW121065   6.629   2.552   0.502
 6722SOL    HW221066   6.508   2.443   0.518
 6723SOL     OW21067   1.260   0.194   4.739
 6723SOL    HW121068   1.215   0.211   4.827
 6723SOL    HW221069   1.343   0.141   4.753
 6724SOL     OW21070   2.092   3.028   6.486
 6724SOL    HW121071   2.012   3.051   6.430
 6724SOL    HW221072   2.064   2.966   6.559
 6725SOL     OW21073   6.393   2.217   1.444
 6725SOL    HW121074   6.404   2.162   1.362
 6725SOL    HW221075   6.439   2.305   1.432
 6726SOL     OW21076   0.792   2.673   3.783
 6726SOL    HW121077   0.715   2.718   3.828
 6726SOL    HW221078   0.871   2.673   3.845
 6727SOL     OW21079   0.323   4.975   5.417
 6727SOL    HW121080   0.259   4.919   5.364
 6727SOL    HW221081   0.273   5.023   5.489
 6728SOL     OW21082   3.807   2.130   2.829
 6728SOL    HW121083   3.820   2.183   2.746
 6728SOL    HW221084   3.890   2.133   2.884
 6729SOL     OW21085   0.177   1.010   0.676
 6729SOL    HW121086   0.214   0.997   0.767
 6729SOL    HW221087   0.250   1.035   0.613
 6730SOL     OW21088   1.876   6.726   1.383
 6730SOL    HW121089   1.919   6.809   1.348
 6730SOL    HW221090   1.912   6.646   1.335
 6731SOL     OW21091   1.301   6.515   1.091
 6731SOL    HW121092   1.316   6.605   1.049
 6731SOL    HW221093   1.372   6.451   1.060
 6732SOL     OW21094   5.949   4.276   4.505
 6732SOL    HW121095   6.038   4.313   4.479
 6732SOL    HW221096   5.912   4.221   4.430
 6733SOL     OW21097   3.775   5.886   6.685
 6733SOL    HW121098   3.682   5.899   6.721
 6733SOL    HW221099   3.777   5.911   6.588
 6734SOL     OW21100   5.754   2.647   5.148
 6734SOL    HW121101   5.744   2.713   5.074
 6734SOL    HW221102   5.844   2.657   5.191
 6735SOL     OW21103   6.357   3.507   4.392
 6735SOL    HW121104   6.274   3.540   4.437
 6735SOL    HW221105   6.433   3.512   4.456
 6736SOL     OW21106   2.657   3.366   6.784
 6736SOL    HW121107   2.624   3.274   6.762
 6736SOL    HW221108   2.711   3.363   6.868
 6737SOL     OW21109   1.824   3.336   1.186
 6737SOL    HW121110   1.897   3.283   1.229
 6737SOL    HW221111   1.850   3.433   1.183
 6738SOL     OW21112   1.719   5.749   3.442
 6738SOL    HW121113   1.708   5.804   3.360
 6738SOL    HW221114   1.752   5.807   3.517
 6739SOL     OW21115   5.062   6.474   4.193
 6739SOL    HW121116   5.116   6.557   4.179
 6739SOL    HW221117   5.051   6.459   4.291
 6740SOL     OW21118   6.960   0.192   5.629
 6740SOL    HW121119   6.974   0.132   5.550
 6740SOL    HW221120   6.865   0.223   5.631
 6741SOL     OW21121   3.358   2.900   5.422
 6741SOL    HW121122   3.307   2.816   5.404
 6741SOL    HW221123   3.361   2.916   5.521
 6742SOL     OW21124   5.767   5.619   3.061
 6742SOL    HW121125   5.713   5.598   3.142
 6742SOL    HW221126   5.843   5.679   3.086
 6743SOL     OW21127   3.515   4.604   6.411
 6743SOL    HW121128   3.585   4.662   6.451
 6743SOL    HW221129   3.488   4.640   6.322
 6744SOL     OW21130   6.808   5.226   5.479
 6744SOL    HW121131   6.871   5.191   5.549
 6744SOL    HW221132   6.835   5.191   5.390
 6745SOL     OW21133   6.948   6.382   3.509
 6745SOL    HW121134   6.915   6.465   3.554
 6745SOL    HW221135   6.885   6.357   3.435
 6746SOL     OW21136   0.397   0.294   3.811
 6746SOL    HW121137   0.377   0.328   3.719
 6746SOL    HW221138   0.491   0.260   3.815
 6747SOL     OW21139   5.823   1.482   6.326
 6747SOL    HW121140   5.851   1.388   6.347
 6747SOL    HW221141   5.766   1.482   6.243
 6748SOL     OW21142   3.843   1.865   3.352
 6748SOL    HW121143   3.768   1.837   3.291
 6748SOL    HW221144   3.816   1.850   3.447
 6749SOL     OW21145   3.706   4.223   0.632
 6749SOL    HW121146   3.717   4.129   0.663
 6749SOL    HW221147   3.746   4.285   0.701
 6750SOL     OW21148   3.694   2.124   4.311
 6750SOL    HW121149   3.697   2.099   4.215
 6750SOL    HW221150   3.602   2.110   4.347
 6751SOL     OW21151   5.226   0.257   3.270
 6751SOL    HW121152   5.265   0.298   3.188
 6751SOL    HW221153   5.145   0.308   3.298
 6752SOL     OW21154   1.872   6.822   2.778
 6752SOL    HW121155   1.822   6.785   2.700
 6752SOL    HW221156   1.970   6.822   2.758
 6753SOL     OW21157   3.339   1.256   6.211
 6753SOL    HW121158   3.251   1.258   6.258
 6753SOL    HW221159   3.361   1.348   6.178
 6754SOL     OW21160   7.012   0.711   0.337
 6754SOL    HW121161   6.992   0.795   0.387
 6754SOL    HW221162   0.083   0.694   0.338
 6755SOL     OW21163   4.364   2.185   1.695
 6755SOL    HW121164   4.412   2.230   1.619
 6755SOL    HW221165   4.275   2.154   1.664
 6756SOL     OW21166   3.857   6.576   4.945
 6756SOL    HW121167   3.951   6.565   4.976
 6756SOL    HW221168   3.848   6.661   4.893
 6757SOL     OW21169   3.080   2.127   0.170
 6757SOL    HW121170   3.096   2.217   0.212
 6757SOL    HW221171   3.059   2.139   0.073
 6758SOL     OW21172   6.132   2.100   1.787
 6758SOL    HW121173   6.095   2.168   1.723
 6758SOL    HW221174   6.129   2.009   1.745
 6759SOL     OW21175   1.255   3.882   2.719
 6759SOL    HW121176   1.237   3.917   2.627
 6759SOL    HW221177   1.190   3.809   2.740
 6760SOL     OW21178   0.099   3.441   2.237
 6760SOL    HW121179   0.060   3.527   2.206
 6760SOL    HW221180   0.123   3.448   2.334
 6761SOL     OW21181   6.483   2.459   5.050
 6761SOL    HW121182   6.487   2.543   4.996
 6761SOL    HW221183   6.387   2.435   5.067
 6762SOL     OW21184   0.871   4.557   5.054
 6762SOL    HW121185   0.937   4.570   4.979
 6762SOL    HW221186   0.840   4.646   5.087
 6763SOL     OW21187   6.427   5.754   3.841
 6763SOL    HW121188   6.506   5.813   3.823
 6763SOL    HW221189   6.381   5.784   3.925
 6764SOL     OW21190   2.122   5.511   1.470
 6764SOL    HW121191   2.143   5.603   1.502
 6764SOL    HW221192   2.156   5.444   1.536
 6765SOL     OW21193   5.639   4.991   3.904
 6765SOL    HW121194   5.644   5.030   3.996
 6765SOL    HW221195   5.701   4.913   3.897
 6766SOL     OW21196   4.856   6.793   5.470
 6766SOL    HW121197   4.874   6.811   5.374
 6766SOL    HW221198   4.924   6.727   5.505
 6767SOL     OW21199   2.083   1.101   1.103
 6767SOL    HW121200   2.060   1.199   1.102
 6767SOL    HW221201   2.009   1.050   1.147
 6768SOL     OW21202   1.710   0.243   4.746
 6768SOL    HW121203   1.804   0.249   4.712
 6768SOL    HW221204   1.709   0.198   4.835
 6769SOL     OW21205   2.868   0.823   6.780
 6769SOL    HW121206   2.901   0.733   6.749
 6769SOL    HW221207   2.855   0.882   6.701
 6770SOL     OW21208   6.969   0.986   2.591
 6770SOL    HW121209   6.961   0.955   2.496
 6770SOL    HW221210   7.026   1.068   2.594
 6771SOL     OW21211   5.111   1.814   3.276
 6771SOL    HW121212   5.206   1.794   3.300
 6771SOL    HW221213   5.070   1.871   3.347
 6772SOL     OW21214   3.869   2.223   2.586
 6772SOL    HW121215   3.956   2.271   2.575
 6772SOL    HW221216   3.863   2.151   2.516
 6773SOL     OW21217   6.165   5.197   2.355
 6773SOL    HW121218   6.089   5.157   2.405
 6773SOL    HW221219   6.180   5.292   2.385
 6774SOL     OW21220   1.100   3.253   5.239
 6774SOL    HW121221   1.128   3.243   5.144
 6774SOL    HW221222   1.063   3.345   5.254
 6775SOL     OW21223   2.525   2.515   1.846
 6775SOL    HW121224   2.619   2.548   1.841
 6775SOL    HW221225   2.522   2.418   1.821
 6776SOL     OW21226   5.058   4.302   6.930
 6776SOL    HW121227   5.092   4.384   6.882
 6776SOL    HW221228   5.047   4.228   6.864
 6777SOL     OW21229   4.702   4.576   0.527
 6777SOL    HW121230   4.685   4.670   0.559
 6777SOL    HW221231   4.615   4.532   0.505
 6778SOL     OW21232   5.922   5.544   1.758
 6778SOL    HW121233   5.945   5.448   1.742
 6778SOL    HW221234   5.979   5.580   1.832
 6779SOL     OW21235   5.447   5.664   6.867
 6779SOL    HW121236   5.507   5.587   6.886
 6779SOL    HW221237   5.352   5.636   6.879
 6780SOL     OW21238   1.191   2.567   2.082
 6780SOL    HW121239   1.262   2.637   2.096
 6780SOL    HW221240   1.147   2.546   2.169
 6781SOL     OW21241   6.833   1.760   4.122
 6781SOL    HW121242   6.911   1.710   4.083
 6781SOL    HW221243   6.831   1.747   4.221
 6782SOL     OW21244   0.366   0.736   3.116
 6782SOL    HW121245   0.439   0.758   3.181
 6782SOL    HW221246   0.360   0.637   3.105
 6783SOL     OW21247   6.256   1.499   5.438
 6783SOL    HW121248   6.172   1.552   5.446
 6783SOL    HW221249   6.272   1.476   5.342
 6784SOL     OW21250   1.730   3.143   0.289
 6784SOL    HW121251   1.718   3.059   0.342
 6784SOL    HW221252   1.827   3.164   0.282
 6785SOL     OW21253   5.967   5.604   4.401
 6785SOL    HW121254   6.009   5.543   4.469
 6785SOL    HW221255   5.886   5.560   4.363
 6786SOL     OW21256   1.539   2.422   0.170
 6786SOL    HW121257   1.601   2.477   0.225
 6786SOL    HW221258   1.569   2.327   0.170
 6787SOL     OW21259   2.073   2.604   0.403
 6787SOL    HW121260   2.008   2.668   0.445
 6787SOL    HW221261   2.091   2.529   0.468
 6788SOL     OW21262   1.018   4.220   1.363
 6788SOL    HW121263   1.001   4.259   1.454
 6788SOL    HW221264   1.011   4.292   1.294
 6789SOL     OW21265   0.425   5.418   2.703
 6789SOL    HW121266   0.373   5.454   2.780
 6789SOL    HW221267   0.517   5.458   2.703
 6790SOL     OW21268   0.274   3.555   0.943
 6790SOL    HW121269   0.372   3.535   0.937
 6790SOL    HW221270   0.253   3.586   1.036
 6791SOL     OW21271   4.108   2.187   2.078
 6791SOL    HW121272   4.096   2.247   1.999
 6791SOL    HW221273   4.181   2.223   2.136
 6792SOL     OW21274   6.442   6.423   5.004
 6792SOL    HW121275   6.524   6.470   5.034
 6792SOL    HW221276   6.385   6.485   4.949
 6793SOL     OW21277   1.755   1.953   0.404
 6793SOL    HW121278   1.776   2.051   0.400
 6793SOL    HW221279   1.657   1.941   0.422
 6794SOL     OW21280   4.581   1.155   5.983
 6794SOL    HW121281   4.540   1.234   5.937
 6794SOL    HW221282   4.613   1.183   6.073
 6795SOL     OW21283   2.424   6.583   1.124
 6795SOL    HW121284   2.418   6.506   1.187
 6795SOL    HW221285   2.383   6.558   1.037
 6796SOL     OW21286   6.953   0.202   2.348
 6796SOL    HW121287   6.864   0.177   2.387
 6796SOL    HW221288   6.940   0.272   2.278
 6797SOL     OW21289   6.627   1.929   1.526
 6797SOL    HW121290   6.609   1.843   1.480
 6797SOL    HW221291   6.558   1.997   1.500
 6798SOL     OW21292   5.194   6.954   2.345
 6798SOL    HW121293   5.107   6.934   2.389
 6798SOL    HW221294   5.177   6.983   2.251
 6799SOL     OW21295   6.994   6.714   1.789
 6799SOL    HW121296   6.900   6.728   1.821
 6799SOL    HW221297   7.025   6.795   1.739
 6800SOL     OW21298   2.104   3.749   2.065
 6800SOL    HW121299   2.134   3.657   2.041
 6800SOL    HW221300   2.171   3.815   2.032
 6801SOL     OW21301   1.162   0.104   2.698
 6801SOL    HW121302   1.247   0.152   2.674
 6801SOL    HW221303   1.171   0.065   2.790
 6802SOL     OW21304   3.017   5.982   1.189
 6802SOL    HW121305   2.953   5.995   1.265
 6802SOL    HW221306   2.968   5.992   1.102
 6803SOL     OW21307   4.693   3.261   5.556
 6803SOL    HW121308   4.692   3.274   5.457
 6803SOL    HW221309   4.678   3.164   5.577
 6804SOL     OW21310   3.213   5.235   3.733
 6804SOL    HW121311   3.116   5.216   3.752
 6804SOL    HW221312   3.222   5.277   3.643
 6805SOL     OW21313   0.308   5.332   6.155
 6805SOL    HW121314   0.365   5.251   6.138
 6805SOL    HW221315   0.364   5.415   6.147
 6806SOL     OW21316   5.769   0.897   3.538
 6806SOL    HW121317   5.681   0.898   3.585
 6806SOL    HW221318   5.821   0.817   3.567
 6807SOL     OW21319   3.366   3.507   1.189
 6807SOL    HW121320   3.341   3.411   1.175
 6807SOL    HW221321   3.361   3.529   1.287
 6808SOL     OW21322   6.726   2.430   5.227
 6808SOL    HW121323   6.679   2.453   5.142
 6808SOL    HW221324   6.785   2.506   5.255
 6809SOL     OW21325   0.901   2.973   1.389
 6809SOL    HW121326   0.982   3.004   1.339
 6809SOL    HW221327   0.929   2.929   1.475
 6810SOL     OW21328   1.235   1.175   2.524
 6810SOL    HW121329   1.285   1.103   2.573
 6810SOL    HW221330   1.263   1.265   2.559
 6811SOL     OW21331   5.680   3.454   1.272
 6811SOL    HW121332   5.645   3.546   1.291
 6811SOL    HW221333   5.706   3.448   1.175
 6812SOL     OW21334   2.956   3.671   4.295
 6812SOL    HW121335   2.934   3.616   4.376
 6812SOL    HW221336   2.962   3.612   4.215
 6813SOL     OW21337   5.329   2.668   2.297
 6813SOL    HW121338   5.320   2.746   2.235
 6813SOL    HW221339   5.354   2.700   2.388
 6814SOL     OW21340   3.685   1.875   6.171
 6814SOL    HW121341   3.645   1.806   6.231
 6814SOL    HW221342   3.783   1.882   6.188
 6815SOL     OW21343   3.357   6.618   1.168
 6815SOL    HW121344   3.388   6.523   1.160
 6815SOL    HW221345   3.426   6.679   1.129
 6816SOL     OW21346   6.478   6.996   6.330
 6816SOL    HW121347   6.429   0.054   6.312
 6816SOL    HW221348   6.432   6.920   6.284
 6817SOL     OW21349   2.398   2.652   2.986
 6817SOL    HW121350   2.403   2.751   2.972
 6817SOL    HW221351   2.490   2.613   2.982
 6818SOL     OW21352   2.512   6.337   2.049
 6818SOL    HW121353   2.509   6.372   1.956
 6818SOL    HW221354   2.556   6.404   2.109
 6819SOL     OW21355   5.416   1.741   3.240
 6819SOL    HW121356   5.468   1.668   3.286
 6819SOL    HW221357   5.388   1.710   3.149
 6820SOL     OW21358   2.392   5.386   2.205
 6820SOL    HW121359   2.478   5.434   2.223
 6820SOL    HW221360   2.410   5.300   2.158
 6821SOL     OW21361   3.565   2.074   4.924
 6821SOL    HW121362   3.645   2.072   4.865
 6821SOL    HW221363   3.588   2.122   5.009
 6822SOL     OW21364   5.137   2.618   6.328
 6822SOL    HW121365   5.039   2.603   6.312
 6822SOL    HW221366   5.183   2.633   6.241
 6823SOL     OW21367   4.600   3.460   5.711
 6823SOL    HW121368   4.500   3.460   5.719
 6823SOL    HW221369   4.629   3.383   5.655
 6824SOL     OW21370   0.918   2.193   0.014
 6824SOL    HW121371   0.822   2.185   0.041
 6824SOL    HW221372   0.976   2.161   0.089
 6825SOL     OW21373   5.252   6.101   1.362
 6825SOL    HW121374   5.249   6.009   1.323
 6825SOL    HW221375   5.182   6.109   1.432
 6826SOL     OW21376   1.842   3.405   3.417
 6826SOL    HW121377   1.934   3.367   3.429
 6826SOL    HW221378   1.788   3.344   3.360
 6827SOL     OW21379   4.676   5.860   6.062
 6827SOL    HW121380   4.670   5.863   5.962
 6827SOL    HW221381   4.586   5.841   6.101
 6828SOL     OW21382   2.981   1.846   1.752
 6828SOL    HW121383   3.023   1.922   1.802
 6828SOL    HW221384   2.962   1.876   1.658
 6829SOL     OW21385   4.710   6.454   5.120
 6829SOL    HW121386   4.686   6.375   5.065
 6829SOL    HW221387   4.805   6.446   5.150
 6830SOL     OW21388   5.005   1.126   3.513
 6830SOL    HW121389   4.935   1.162   3.575
 6830SOL    HW221390   4.968   1.118   3.421
 6831SOL     OW21391   1.230   0.453   6.712
 6831SOL    HW121392   1.201   0.543   6.743
 6831SOL    HW221393   1.205   0.441   6.616
 6832SOL     OW21394   2.596   4.107   1.027
 6832SOL    HW121395   2.648   4.021   1.024
 6832SOL    HW221396   2.532   4.105   1.103
 6833SOL     OW21397   3.185   4.756   6.429
 6833SOL    HW121398   3.102   4.777   6.378
 6833SOL    HW221399   3.220   4.839   6.472
 6834SOL     OW21400   4.632   6.365   1.107
 6834SOL    HW121401   4.541   6.362   1.065
 6834SOL    HW221402   4.627   6.413   1.195
 6835SOL     OW21403   4.024   0.762   4.578
 6835SOL    HW121404   3.990   0.669   4.566
 6835SOL    HW221405   3.979   0.805   4.656
 6836SOL     OW21406   2.638   4.910   0.469
 6836SOL    HW121407   2.642   4.894   0.371
 6836SOL    HW221408   2.553   4.874   0.506
 6837SOL     OW21409   0.359   1.938   1.984
 6837SOL    HW121410   0.447   1.953   2.029
 6837SOL    HW221411   0.374   1.930   1.885
 6838SOL     OW21412   3.567   6.330   0.134
 6838SOL    HW121413   3.474   6.295   0.148
 6838SOL    HW221414   3.618   6.321   0.220
 6839SOL     OW21415   5.400   1.235   6.715
 6839SOL    HW121416   5.422   1.237   6.812
 6839SOL    HW221417   5.402   1.141   6.682
 6840SOL     OW21418   3.422   0.841   4.727
 6840SOL    HW121419   3.367   0.924   4.712
 6840SOL    HW221420   3.402   0.805   4.818
 6841SOL     OW21421   4.120   4.632   6.633
 6841SOL    HW121422   4.106   4.694   6.711
 6841SOL    HW221423   4.195   4.569   6.653
 6842SOL     OW21424   2.406   4.295   0.980
 6842SOL    HW121425   2.476   4.223   0.981
 6842SOL    HW221426   2.450   4.383   0.965
 6843SOL     OW21427   6.343   6.859   1.424
 6843SOL    HW121428   6.362   6.928   1.493
 6843SOL    HW221429   6.386   6.773   1.450
 6844SOL     OW21430   5.461   0.713   3.861
 6844SOL    HW121431   5.385   0.696   3.924
 6844SOL    HW221432   5.548   0.692   3.906
 6845SOL     OW21433   6.235   3.737   2.870
 6845SOL    HW121434   6.201   3.719   2.778
 6845SOL    HW221435   6.159   3.732   2.935
 6846SOL     OW21436   3.814   2.872   6.981
 6846SOL    HW121437   3.888   2.809   6.960
 6846SOL    HW221438   3.785   2.919   6.897
 6847SOL     OW21439   0.393   3.345   4.635
 6847SOL    HW121440   0.425   3.366   4.728
 6847SOL    HW221441   0.381   3.246   4.626
 6848SOL     OW21442   4.926   5.303   3.783
 6848SOL    HW121443   4.841   5.355   3.790
 6848SOL    HW221444   5.003   5.363   3.802
 6849SOL     OW21445   4.364   5.210   5.136
 6849SOL    HW121446   4.412   5.257   5.062
 6849SOL    HW221447   4.266   5.208   5.115
 6850SOL     OW21448   5.607   3.267   2.247
 6850SOL    HW121449   5.613   3.366   2.263
 6850SOL    HW221450   5.671   3.220   2.308
 6851SOL     OW21451   0.347   1.652   2.906
 6851SOL    HW121452   0.300   1.606   2.981
 6851SOL    HW221453   0.298   1.634   2.820
 6852SOL     OW21454   2.658   4.444   1.192
 6852SOL    HW121455   2.676   4.532   1.238
 6852SOL    HW221456   2.572   4.406   1.227
 6853SOL     OW21457   5.845   4.822   0.204
 6853SOL    HW121458   5.765   4.798   0.258
 6853SOL    HW221459   5.927   4.816   0.261
 6854SOL     OW21460   5.098   0.877   5.880
 6854SOL    HW121461   5.005   0.912   5.869
 6854SOL    HW221462   5.162   0.953   5.878
 6855SOL     OW21463   4.151   6.780   4.063
 6855SOL    HW121464   4.182   6.698   4.015
 6855SOL    HW221465   4.101   6.839   4.000
 6856SOL     OW21466   6.786   2.823   5.298
 6856SOL    HW121467   6.810   2.732   5.332
 6856SOL    HW221468   6.870   2.874   5.277
 6857SOL     OW21469   2.600   2.198   6.654
 6857SOL    HW121470   2.564   2.226   6.744
 6857SOL    HW221471   2.697   2.221   6.649
 6858SOL     OW21472   4.098   3.593   2.593
 6858SOL    HW121473   4.136   3.500   2.587
 6858SOL    HW221474   4.064   3.609   2.686
 6859SOL     OW21475   1.180   1.429   1.034
 6859SOL    HW121476   1.237   1.428   0.952
 6859SOL    HW221477   1.229   1.385   1.109
 6860SOL     OW21478   6.650   5.148   1.019
 6860SOL    HW121479   6.699   5.232   1.041
 6860SOL    HW221480   6.558   5.152   1.057
 6861SOL     OW21481   4.116   4.709   6.900
 6861SOL    HW121482   4.122   4.618   6.941
 6861SOL    HW221483   4.023   4.744   6.913
 6862SOL     OW21484   1.335   5.146   6.119
 6862SOL    HW121485   1.380   5.082   6.181
 6862SOL    HW221486   1.273   5.205   6.171
 6863SOL     OW21487   5.324   6.930   5.932
 6863SOL    HW121488   5.339   7.022   5.897
 6863SOL    HW221489   5.322   6.931   6.032
 6864SOL     OW21490   2.405   4.523   4.833
 6864SOL    HW121491   2.371   4.448   4.890
 6864SOL    HW221492   2.347   4.533   4.752
 6865SOL     OW21493   1.032   6.280   4.535
 6865SOL    HW121494   1.082   6.364   4.515
 6865SOL    HW221495   1.081   6.227   4.604
 6866SOL     OW21496   5.622   5.448   3.229
 6866SOL    HW121497   5.547   5.444   3.294
 6866SOL    HW221498   5.612   5.375   3.161
 6867SOL     OW21499   2.127   3.986   2.258
 6867SOL    HW121500   2.095   3.998   2.164
 6867SOL    HW221501   2.112   3.891   2.286
 6868SOL     OW21502   1.732   6.000   6.521
 6868SOL    HW121503   1.701   5.906   6.510
 6868SOL    HW221504   1.738   6.021   6.619
 6869SOL     OW21505   5.089   1.295   6.395
 6869SOL    HW121506   5.107   1.296   6.493
 6869SOL    HW221507   5.085   1.389   6.360
 6870SOL     OW21508   6.811   4.777   1.468
 6870SOL    HW121509   6.839   4.858   1.520
 6870SOL    HW221510   6.888   4.714   1.461
 6871SOL     OW21511   6.287   4.195   3.294
 6871SOL    HW121512   6.275   4.162   3.201
 6871SOL    HW221513   6.239   4.135   3.358
 6872SOL     OW21514   0.479   2.357   1.211
 6872SOL    HW121515   0.445   2.391   1.124
 6872SOL    HW221516   0.515   2.434   1.265
 6873SOL     OW21517   6.619   3.927   3.651
 6873SOL    HW121518   6.661   3.844   3.615
 6873SOL    HW221519   6.615   3.996   3.579
 6874SOL     OW21520   6.788   5.395   2.760
 6874SOL    HW121521   6.724   5.467   2.736
 6874SOL    HW221522   6.881   5.425   2.741
 6875SOL     OW21523   2.210   2.916   2.638
 6875SOL    HW121524   2.233   2.821   2.615
 6875SOL    HW221525   2.181   2.964   2.555
 6876SOL     OW21526   4.185   0.547   4.051
 6876SOL    HW121527   4.104   0.507   4.094
 6876SOL    HW221528   4.244   0.587   4.122
 6877SOL     OW21529   2.769   4.124   0.710
 6877SOL    HW121530   2.783   4.202   0.649
 6877SOL    HW221531   2.688   4.139   0.766
 6878SOL     OW21532   4.063   0.952   3.983
 6878SOL    HW121533   4.030   0.917   4.071
 6878SOL    HW221534   4.009   0.910   3.909
 6879SOL     OW21535   1.192   2.946   1.053
 6879SOL    HW121536   1.201   2.875   0.984
 6879SOL    HW221537   1.107   2.997   1.039
 6880SOL     OW21538   2.266   5.565   5.655
 6880SOL    HW121539   2.359   5.542   5.624
 6880SOL    HW221540   2.199   5.520   5.596
 6881SOL     OW21541   1.974   4.061   1.219
 6881SOL    HW121542   1.892   4.103   1.181
 6881SOL    HW221543   2.037   4.038   1.144
 6882SOL     OW21544   2.978   0.994   0.190
 6882SOL    HW121545   3.029   0.968   0.109
 6882SOL    HW221546   2.954   0.912   0.242
 6883SOL     OW21547   5.022   1.723   6.851
 6883SOL    HW121548   5.049   1.716   6.947
 6883SOL    HW221549   5.098   1.694   6.793
 6884SOL     OW21550   1.167   4.477   3.616
 6884SOL    HW121551   1.122   4.389   3.629
 6884SOL    HW221552   1.129   4.523   3.535
 6885SOL     OW21553   4.383   4.561   4.127
 6885SOL    HW121554   4.442   4.480   4.124
 6885SOL    HW221555   4.401   4.612   4.212
 6886SOL     OW21556   6.756   1.130   4.358
 6886SOL    HW121557   6.660   1.106   4.370
 6886SOL    HW221558   6.812   1.074   4.419
 6887SOL     OW21559   5.350   5.370   5.860
 6887SOL    HW121560   5.309   5.360   5.950
 6887SOL    HW221561   5.318   5.455   5.818
 6888SOL     OW21562   5.389   5.415   6.239
 6888SOL    HW121563   5.468   5.455   6.192
 6888SOL    HW221564   5.397   5.315   6.238
 6889SOL     OW21565   1.410   2.878   5.985
 6889SOL    HW121566   1.491   2.841   6.030
 6889SOL    HW221567   1.405   2.843   5.891
 6890SOL     OW21568   3.594   6.381   2.461
 6890SOL    HW121569   3.559   6.303   2.514
 6890SOL    HW221570   3.597   6.357   2.364
 6891SOL     OW21571   2.164   3.809   2.784
 6891SOL    HW121572   2.175   3.901   2.823
 6891SOL    HW221573   2.175   3.741   2.856
 6892SOL     OW21574   3.818   2.143   3.622
 6892SOL    HW121575   3.844   2.151   3.718
 6892SOL    HW221576   3.887   2.190   3.566
 6893SOL     OW21577   4.355   4.522   6.750
 6893SOL    HW121578   4.347   4.526   6.849
 6893SOL    HW221579   4.449   4.497   6.725
 6894SOL     OW21580   5.971   5.202   0.223
 6894SOL    HW121581   5.925   5.214   0.311
 6894SOL    HW221582   5.919   5.137   0.167
 6895SOL     OW21583   2.562   4.810   1.134
 6895SOL    HW121584   2.535   4.743   1.065
 6895SOL    HW221585   2.607   4.763   1.210
 6896SOL     OW21586   2.609   1.126   4.064
 6896SOL    HW121587   2.635   1.030   4.077
 6896SOL    HW221588   2.641   1.157   3.974
 6897SOL     OW21589   4.942   3.848   4.987
 6897SOL    HW121590   4.895   3.759   4.988
 6897SOL    HW221591   5.041   3.833   4.988
 6898SOL     OW21592   3.982   1.513   1.254
 6898SOL    HW121593   3.950   1.569   1.177
 6898SOL    HW221594   3.939   1.544   1.338
 6899SOL     OW21595   4.772   6.221   1.762
 6899SOL    HW121596   4.784   6.272   1.847
 6899SOL    HW221597   4.789   6.281   1.684
 6900SOL     OW21598   6.038   5.824   5.100
 6900SOL    HW121599   6.090   5.909   5.095
 6900SOL    HW221600   5.994   5.817   5.190
 6901SOL     OW21601   6.290   6.080   6.012
 6901SOL    HW121602   6.247   6.073   6.102
 6901SOL    HW221603   6.311   5.988   5.978
 6902SOL     OW21604   6.782   6.120   6.612
 6902SOL    HW121605   6.789   6.128   6.512
 6902SOL    HW221606   6.801   6.025   6.639
 6903SOL     OW21607   3.199   5.141   5.637
 6903SOL    HW121608   3.108   5.157   5.675
 6903SOL    HW221609   3.266   5.136   5.711
 6904SOL     OW21610   6.041   0.541   5.322
 6904SOL    HW121611   6.043   0.442   5.336
 6904SOL    HW221612   5.946   0.572   5.314
 6905SOL     OW21613   5.794   6.011   6.893
 6905SOL    HW121614   5.744   5.950   6.955
 6905SOL    HW221615   5.733   6.039   6.818
 6906SOL     OW21616   3.837   1.464   4.453
 6906SOL    HW121617   3.907   1.470   4.524
 6906SOL    HW221618   3.748   1.448   4.495
 6907SOL     OW21619   5.517   2.217   1.568
 6907SOL    HW121620   5.525   2.117   1.566
 6907SOL    HW221621   5.584   2.253   1.633
 6908SOL     OW21622   1.538   5.527   0.037
 6908SOL    HW121623   1.488   5.446   0.006
 6908SOL    HW221624   1.488   5.572   0.111
 6909SOL     OW21625   4.803   4.061   1.437
 6909SOL    HW121626   4.778   4.019   1.524
 6909SOL    HW221627   4.791   4.160   1.442
 6910SOL     OW21628   0.920   2.959   3.394
 6910SOL    HW121629   0.964   2.887   3.446
 6910SOL    HW221630   0.888   3.031   3.456
 6911SOL     OW21631   4.131   6.744   4.347
 6911SOL    HW121632   4.032   6.732   4.333
 6911SOL    HW221633   4.177   6.749   4.259
 6912SOL     OW21634   3.214   3.742   6.014
 6912SOL    HW121635   3.220   3.834   5.976
 6912SOL    HW221636   3.119   3.711   6.012
 6913SOL     OW21637   5.601   6.334   3.719
 6913SOL    HW121638   5.613   6.422   3.673
 6913SOL    HW221639   5.503   6.313   3.725
 6914SOL     OW21640   6.160   4.514   3.689
 6914SOL    HW121641   6.159   4.592   3.753
 6914SOL    HW221642   6.073   4.465   3.695
 6915SOL     OW21643   6.048   2.286   1.611
 6915SOL    HW121644   6.067   2.329   1.523
 6915SOL    HW221645   5.983   2.211   1.599
 6916SOL     OW21646   5.340   1.884   0.042
 6916SOL    HW121647   5.315   1.945   6.993
 6916SOL    HW221648   5.265   1.821   0.059
 6917SOL     OW21649   3.294   6.605   1.454
 6917SOL    HW121650   3.293   6.610   1.354
 6917SOL    HW221651   3.381   6.565   1.484
 6918SOL     OW21652   0.916   2.523   4.579
 6918SOL    HW121653   0.840   2.515   4.514
 6918SOL    HW221654   0.940   2.619   4.591
 6919SOL     OW21655   5.615   5.822   4.075
 6919SOL    HW121656   5.628   5.761   3.997
 6919SOL    HW221657   5.518   5.841   4.088
 6920SOL     OW21658   4.344   6.468   5.916
 6920SOL    HW121659   4.301   6.522   5.989
 6920SOL    HW221660   4.443   6.479   5.922
 6921SOL     OW21661   4.623   6.067   4.246
 6921SOL    HW121662   4.680   6.127   4.301
 6921SOL    HW221663   4.527   6.094   4.254
 6922SOL     OW21664   1.445   6.652   4.721
 6922SOL    HW121665   1.450   6.552   4.716
 6922SOL    HW221666   1.467   6.691   4.632
 6923SOL     OW21667   4.982   5.663   2.921
 6923SOL    HW121668   5.039   5.593   2.878
 6923SOL    HW221669   4.892   5.625   2.941
 6924SOL     OW21670   2.055   4.373   6.647
 6924SOL    HW121671   2.066   4.313   6.726
 6924SOL    HW221672   2.010   4.323   6.573
 6925SOL     OW21673   5.013   6.038   3.988
 6925SOL    HW121674   4.969   5.980   4.057
 6925SOL    HW221675   4.960   6.123   3.977
 6926SOL     OW21676   2.986   2.468   0.691
 6926SOL    HW121677   3.068   2.524   0.684
 6926SOL    HW221678   3.010   2.372   0.678
 6927SOL     OW21679   3.714   3.044   5.697
 6927SOL    HW121680   3.633   3.078   5.744
 6927SOL    HW221681   3.793   3.100   5.722
 6928SOL     OW21682   5.563   5.882   0.748
 6928SOL    HW121683   5.643   5.941   0.748
 6928SOL    HW221684   5.486   5.928   0.704
 6929SOL     OW21685   4.904   5.695   1.616
 6929SOL    HW121686   4.847   5.777   1.611
 6929SOL    HW221687   4.856   5.619   1.572
 6930SOL     OW21688   1.169   1.060   1.616
 6930SOL    HW121689   1.199   1.121   1.543
 6930SOL    HW221690   1.208   0.969   1.603
 6931SOL     OW21691   1.874   1.545   2.533
 6931SOL    HW121692   1.916   1.633   2.514
 6931SOL    HW221693   1.784   1.540   2.490
 6932SOL     OW21694   4.395   0.135   6.716
 6932SOL    HW121695   4.429   0.041   6.705
 6932SOL    HW221696   4.296   0.134   6.724
 6933SOL     OW21697   3.556   5.963   5.556
 6933SOL    HW121698   3.642   5.972   5.607
 6933SOL    HW221699   3.543   5.867   5.530
 6934SOL     OW21700   4.175   3.077   6.200
 6934SOL    HW121701   4.161   3.176   6.208
 6934SOL    HW221702   4.087   3.030   6.198
 6935SOL     OW21703   4.596   5.701   2.434
 6935SOL    HW121704   4.558   5.665   2.349
 6935SOL    HW221705   4.542   5.779   2.465
 6936SOL     OW21706   6.288   2.436   3.548
 6936SOL    HW121707   6.379   2.406   3.575
 6936SOL    HW221708   6.281   2.434   3.448
 6937SOL     OW21709   6.081   6.481   0.126
 6937SOL    HW121710   6.123   6.394   0.100
 6937SOL    HW221711   5.985   6.465   0.151
 6938SOL     OW21712   6.454   2.741   5.110
 6938SOL    HW121713   6.467   2.647   5.142
 6938SOL    HW221714   6.373   2.780   5.154
 6939SOL     OW21715   0.577   5.307   2.272
 6939SOL    HW121716   0.555   5.255   2.189
 6939SOL    HW221717   0.503   5.371   2.291
 6940SOL     OW21718   3.529   0.473   6.119
 6940SOL    HW121719   3.626   0.497   6.123
 6940SOL    HW221720   3.494   0.457   6.211
 6941SOL     OW21721   2.950   4.102   1.709
 6941SOL    HW121722   2.873   4.041   1.726
 6941SOL    HW221723   3.023   4.084   1.775
 6942SOL     OW21724   5.858   6.649   2.153
 6942SOL    HW121725   5.881   6.638   2.250
 6942SOL    HW221726   5.766   6.687   2.144
 6943SOL     OW21727   3.577   5.507   0.865
 6943SOL    HW121728   3.501   5.442   0.866
 6943SOL    HW221729   3.663   5.458   0.852
 6944SOL     OW21730   0.644   4.866   6.557
 6944SOL    HW121731   0.604   4.826   6.641
 6944SOL    HW221732   0.571   4.884   6.491
 6945SOL     OW21733   6.709   1.426   0.276
 6945SOL    HW121734   6.739   1.360   0.345
 6945SOL    HW221735   6.611   1.415   0.260
 6946SOL     OW21736   3.995   6.793   1.216
 6946SOL    HW121737   3.990   6.702   1.259
 6946SOL    HW221738   3.905   6.838   1.223
 6947SOL     OW21739   3.550   5.603   6.999
 6947SOL    HW121740   3.544   5.697   6.966
 6947SOL    HW221741   3.474   5.584   0.034
 6948SOL     OW21742   0.862   6.694   0.810
 6948SOL    HW121743   0.856   6.630   0.886
 6948SOL    HW221744   0.866   6.788   0.845
 6949SOL     OW21745   4.039   0.314   3.579
 6949SOL    HW121746   4.054   0.215   3.581
 6949SOL    HW221747   3.993   0.339   3.494
 6950SOL     OW21748   1.208   1.718   4.966
 6950SOL    HW121749   1.253   1.653   5.028
 6950SOL    HW221750   1.224   1.690   4.871
 6951SOL     OW21751   6.493   5.221   5.641
 6951SOL    HW121752   6.465   5.162   5.717
 6951SOL    HW221753   6.585   5.196   5.611
 6952SOL     OW21754   0.804   6.133   3.115
 6952SOL    HW121755   0.744   6.212   3.131
 6952SOL    HW221756   0.892   6.148   3.159
 6953SOL     OW21757   3.916   6.299   1.672
 6953SOL    HW121758   3.982   6.336   1.738
 6953SOL    HW221759   3.835   6.268   1.720
 6954SOL     OW21760   0.287   3.963   2.107
 6954SOL    HW121761   0.193   3.938   2.084
 6954SOL    HW221762   0.309   4.051   2.065
 6955SOL     OW21763   5.499   0.406   1.785
 6955SOL    HW121764   5.432   0.411   1.711
 6955SOL    HW221765   5.470   0.336   1.851
 6956SOL     OW21766   5.382   5.870   3.516
 6956SOL    HW121767   5.395   5.950   3.457
 6956SOL    HW221768   5.302   5.819   3.485
 6957SOL     OW21769   6.218   5.935   0.913
 6957SOL    HW121770   6.175   5.906   0.828
 6957SOL    HW221771   6.205   6.034   0.924
 6958SOL     OW21772   3.688   3.350   4.427
 6958SOL    HW121773   3.588   3.351   4.430
 6958SOL    HW221774   3.724   3.402   4.504
 6959SOL     OW21775   2.202   3.075   3.589
 6959SOL    HW121776   2.206   3.087   3.688
 6959SOL    HW221777   2.109   3.094   3.556
 6960SOL     OW21778   1.328   4.277   1.024
 6960SOL    HW121779   1.244   4.327   1.003
 6960SOL    HW221780   1.312   4.179   1.011
 6961SOL     OW21781   5.981   0.936   4.258
 6961SOL    HW121782   5.990   0.872   4.334
 6961SOL    HW221783   6.069   0.981   4.241
 6962SOL     OW21784   4.632   6.036   1.928
 6962SOL    HW121785   4.535   6.013   1.940
 6962SOL    HW221786   4.639   6.118   1.870
 6963SOL     OW21787   5.148   5.642   1.501
 6963SOL    HW121788   5.142   5.610   1.407
 6963SOL    HW221789   5.057   5.672   1.532
 6964SOL     OW21790   3.956   1.213   5.581
 6964SOL    HW121791   3.986   1.255   5.495
 6964SOL    HW221792   3.923   1.121   5.564
 6965SOL     OW21793   1.767   0.863   6.899
 6965SOL    HW121794   1.701   0.836   6.969
 6965SOL    HW221795   1.792   0.959   6.914
 6966SOL     OW21796   0.970   2.095   2.221
 6966SOL    HW121797   1.048   2.101   2.283
 6966SOL    HW221798   0.963   2.001   2.187
 6967SOL     OW21799   2.708   0.991   6.174
 6967SOL    HW121800   2.642   1.008   6.247
 6967SOL    HW221801   2.674   1.031   6.089
 6968SOL     OW21802   3.853   0.444   3.378
 6968SOL    HW121803   3.888   0.482   3.292
 6968SOL    HW221804   3.865   0.511   3.451
 6969SOL     OW21805   3.003   2.266   1.716
 6969SOL    HW121806   2.984   2.359   1.747
 6969SOL    HW221807   3.055   2.218   1.787
 6970SOL     OW21808   3.826   3.984   5.805
 6970SOL    HW121809   3.914   4.030   5.794
 6970SOL    HW221810   3.817   3.950   5.899
 6971SOL     OW21811   6.369   4.678   0.740
 6971SOL    HW121812   6.320   4.595   0.766
 6971SOL    HW221813   6.465   4.656   0.721
 6972SOL     OW21814   5.509   4.329   3.005
 6972SOL    HW121815   5.518   4.411   2.949
 6972SOL    HW221816   5.560   4.341   3.090
 6973SOL     OW21817   0.772   3.272   3.233
 6973SOL    HW121818   0.693   3.285   3.173
 6973SOL    HW221819   0.821   3.189   3.204
 6974SOL     OW21820   2.938   3.791   2.594
 6974SOL    HW121821   2.954   3.825   2.502
 6974SOL    HW221822   2.982   3.702   2.605
 6975SOL     OW21823   1.536   6.548   5.745
 6975SOL    HW121824   1.505   6.465   5.699
 6975SOL    HW221825   1.500   6.551   5.838
 6976SOL     OW21826   6.268   5.243   6.050
 6976SOL    HW121827   6.291   5.167   5.988
 6976SOL    HW221828   6.301   5.329   6.011
 6977SOL     OW21829   3.738   2.795   1.211
 6977SOL    HW121830   3.737   2.714   1.152
 6977SOL    HW221831   3.802   2.862   1.174
 6978SOL     OW21832   5.973   1.936   2.038
 6978SOL    HW121833   5.969   2.034   2.020
 6978SOL    HW221834   6.056   1.914   2.089
 6979SOL     OW21835   0.819   4.473   1.422
 6979SOL    HW121836   0.912   4.503   1.405
 6979SOL    HW221837   0.810   4.442   1.517
 6980SOL     OW21838   1.281   0.947   3.315
 6980SOL    HW121839   1.217   1.003   3.369
 6980SOL    HW221840   1.318   0.874   3.373
 6981SOL     OW21841   3.776   3.482   5.739
 6981SOL    HW121842   3.729   3.455   5.655
 6981SOL    HW221843   3.778   3.405   5.802
 6982SOL     OW21844   1.066   1.254   4.947
 6982SOL    HW121845   1.108   1.171   4.983
 6982SOL    HW221846   1.011   1.298   5.019
 6983SOL     OW21847   3.887   2.141   3.882
 6983SOL    HW121848   3.810   2.112   3.938
 6983SOL    HW221849   3.953   2.066   3.875
 6984SOL     OW21850   1.966   1.943   3.330
 6984SOL    HW121851   1.963   1.876   3.404
 6984SOL    HW221852   2.047   2.001   3.342
 6985SOL     OW21853   5.943   5.063   1.214
 6985SOL    HW121854   5.868   5.071   1.149
 6985SOL    HW221855   5.939   5.138   1.280
 6986SOL     OW21856   2.756   6.939   6.327
 6986SOL    HW121857   2.839   6.975   6.371
 6986SOL    HW221858   2.675   6.974   6.375
 6987SOL     OW21859   5.952   1.007   6.055
 6987SOL    HW121860   5.981   1.097   6.024
 6987SOL    HW221861   5.987   0.990   6.147
 6988SOL     OW21862   1.020   6.491   6.757
 6988SOL    HW121863   0.969   6.572   6.728
 6988SOL    HW221864   0.991   6.464   6.849
 6989SOL     OW21865   1.235   4.370   2.969
 6989SOL    HW121866   1.276   4.431   2.901
 6989SOL    HW221867   1.291   4.287   2.978
 6990SOL     OW21868   4.718   2.900   1.336
 6990SOL    HW121869   4.713   2.831   1.409
 6990SOL    HW221870   4.811   2.904   1.300
 6991SOL     OW21871   4.631   4.563   3.609
 6991SOL    HW121872   4.590   4.569   3.700
 6991SOL    HW221873   4.656   4.468   3.589
 6992SOL     OW21874   5.273   0.234   6.398
 6992SOL    HW121875   5.238   0.143   6.374
 6992SOL    HW221876   5.199   0.289   6.437
 6993SOL     OW21877   6.223   6.886   2.840
 6993SOL    HW121878   6.149   6.937   2.795
 6993SOL    HW221879   6.308   6.939   2.833
 6994SOL     OW21880   0.317   2.536   4.040
 6994SOL    HW121881   0.337   2.542   3.942
 6994SOL    HW221882   0.401   2.517   4.090
 6995SOL     OW21883   0.665   4.589   6.343
 6995SOL    HW121884   0.731   4.615   6.413
 6995SOL    HW221885   0.588   4.654   6.344
 6996SOL     OW21886   1.593   0.266   6.948
 6996SOL    HW121887   1.582   0.167   6.935
 6996SOL    HW221888   1.564   0.313   6.865
 6997SOL     OW21889   0.439   5.335   5.635
 6997SOL    HW121890   0.449   5.336   5.535
 6997SOL    HW221891   0.525   5.304   5.677
 6998SOL     OW21892   1.758   1.090   1.482
 6998SOL    HW121893   1.736   1.051   1.571
 6998SOL    HW221894   1.855   1.112   1.478
 6999SOL     OW21895   2.427   2.371   6.339
 6999SOL    HW121896   2.456   2.282   6.304
 6999SOL    HW221897   2.392   2.427   6.264
 7000SOL     OW21898   5.628   6.596   1.667
 7000SOL    HW121899   5.611   6.524   1.600
 7000SOL    HW221900   5.547   6.655   1.673
 7001SOL     OW21901   1.729   3.500   6.014
 7001SOL    HW121902   1.637   3.481   5.978
 7001SOL    HW221903   1.780   3.554   5.948
 7002SOL     OW21904   1.516   5.539   4.170
 7002SOL    HW121905   1.431   5.532   4.119
 7002SOL    HW221906   1.584   5.477   4.131
 7003SOL     OW21907   4.611   5.457   1.076
 7003SOL    HW121908   4.649   5.492   0.990
 7003SOL    HW221909   4.517   5.491   1.087
 7004SOL     OW21910   0.461   5.530   1.662
 7004SOL    HW121911   0.543   5.519   1.606
 7004SOL    HW221912   0.488   5.561   1.754
 7005SOL     OW21913   1.109   0.026   0.800
 7005SOL    HW121914   1.194   7.017   0.763
 7005SOL    HW221915   1.106   0.010   0.899
 7006SOL     OW21916   5.023   5.142   3.970
 7006SOL    HW121917   5.116   5.145   3.936
 7006SOL    HW221918   4.964   5.199   3.913
 7007SOL     OW21919   4.474   0.747   4.555
 7007SOL    HW121920   4.553   0.701   4.594
 7007SOL    HW221921   4.393   0.689   4.565
 7008SOL     OW21922   0.491   4.297   4.474
 7008SOL    HW121923   0.418   4.296   4.405
 7008SOL    HW221924   0.456   4.338   4.559
 7009SOL     OW21925   4.318   6.310   2.541
 7009SOL    HW121926   4.353   6.341   2.453
 7009SOL    HW221927   4.229   6.353   2.559
 7010SOL     OW21928   5.889   4.375   3.607
 7010SOL    HW121929   5.948   4.295   3.599
 7010SOL    HW221930   5.855   4.381   3.701
 7011SOL     OW21931   3.208   6.472   6.514
 7011SOL    HW121932   3.132   6.422   6.474
 7011SOL    HW221933   3.273   6.496   6.441
 7012SOL     OW21934   0.887   1.936   1.163
 7012SOL    HW121935   0.868   1.916   1.259
 7012SOL    HW221936   0.821   2.004   1.130
 7013SOL     OW21937   0.889   6.543   0.261
 7013SOL    HW121938   0.900   6.538   0.162
 7013SOL    HW221939   0.929   6.628   0.295
 7014SOL     OW21940   4.750   3.371   0.624
 7014SOL    HW121941   4.725   3.466   0.609
 7014SOL    HW221942   4.668   3.318   0.646
 7015SOL     OW21943   6.100   3.973   1.126
 7015SOL    HW121944   6.068   3.915   1.052
 7015SOL    HW221945   6.114   4.066   1.092
 7016SOL     OW21946   3.571   5.139   1.372
 7016SOL    HW121947   3.611   5.188   1.450
 7016SOL    HW221948   3.584   5.194   1.289
 7017SOL     OW21949   2.740   5.021   3.383
 7017SOL    HW121950   2.762   4.925   3.400
 7017SOL    HW221951   2.666   5.027   3.316
 7018SOL     OW21952   5.457   3.358   4.235
 7018SOL    HW121953   5.391   3.391   4.302
 7018SOL    HW221954   5.531   3.309   4.283
 7019SOL     OW21955   3.820   4.505   0.422
 7019SOL    HW121956   3.879   4.583   0.401
 7019SOL    HW221957   3.729   4.538   0.446
 7020SOL     OW21958   6.652   4.347   5.846
 7020SOL    HW121959   6.615   4.366   5.937
 7020SOL    HW221960   6.749   4.324   5.854
 7021SOL     OW21961   1.782   2.274   4.867
 7021SOL    HW121962   1.767   2.305   4.960
 7021SOL    HW221963   1.708   2.306   4.808
 7022SOL     OW21964   4.441   0.443   6.864
 7022SOL    HW121965   4.445   0.453   6.765
 7022SOL    HW221966   4.491   0.361   6.892
 7023SOL     OW21967   1.538   2.781   2.660
 7023SOL    HW121968   1.598   2.832   2.599
 7023SOL    HW221969   1.594   2.736   2.730
 7024SOL     OW21970   3.000   3.860   4.921
 7024SOL    HW121971   2.949   3.816   4.996
 7024SOL    HW221972   3.021   3.954   4.947
 7025SOL     OW21973   3.590   0.562   0.896
 7025SOL    HW121974   3.523   0.551   0.970
 7025SOL    HW221975   3.543   0.592   0.813
 7026SOL     OW21976   3.521   2.054   2.254
 7026SOL    HW121977   3.568   2.119   2.196
 7026SOL    HW221978   3.494   2.099   2.340
 7027SOL     OW21979   2.172   5.458   4.217
 7027SOL    HW121980   2.095   5.432   4.275
 7027SOL    HW221981   2.141   5.518   4.143
 7028SOL     OW21982   3.760   1.455   2.709
 7028SOL    HW121983   3.772   1.510   2.626
 7028SOL    HW221984   3.728   1.364   2.684
 7029SOL     OW21985   4.364   4.231   5.355
 7029SOL    HW121986   4.356   4.298   5.282
 7029SOL    HW221987   4.363   4.278   5.444
 7030SOL     OW21988   0.487   0.916   5.081
 7030SOL    HW121989   0.554   0.908   5.155
 7030SOL    HW221990   0.518   0.863   5.002
 7031SOL     OW21991   3.680   6.258   6.660
 7031SOL    HW121992   3.640   6.344   6.691
 7031SOL    HW221993   3.680   6.192   6.735
 7032SOL     OW21994   4.387   1.947   3.928
 7032SOL    HW121995   4.438   1.901   4.001
 7032SOL    HW221996   4.450   1.988   3.864
 7033SOL     OW21997   1.482   2.457   3.055
 7033SOL    HW121998   1.405   2.520   3.048
 7033SOL    HW221999   1.522   2.464   3.146
 7034SOL     OW22000   6.771   1.628   2.982
 7034SOL    HW122001   6.854   1.584   3.015
 7034SOL    HW222002   6.700   1.559   2.967
 7035SOL     OW22003   1.588   0.171   0.603
 7035SOL    HW122004   1.561   0.103   0.536
 7035SOL    HW222005   1.654   0.131   0.667
 7036SOL     OW22006   6.970   0.960   2.273
 7036SOL    HW122007   0.027   0.907   2.279
 7036SOL    HW222008   6.984   1.038   2.213
 7037SOL     OW22009   1.464   1.471   6.315
 7037SOL    HW122010   1.409   1.546   6.278
 7037SOL    HW222011   1.495   1.496   6.407
 7038SOL     OW22012   2.117   4.052   5.200
 7038SOL    HW122013   2.068   3.966   5.187
 7038SOL    HW222014   2.205   4.049   5.153
 7039SOL     OW22015   0.563   5.770   2.627
 7039SOL    HW122016   0.607   5.835   2.565
 7039SOL    HW222017   0.566   5.806   2.720
 7040SOL     OW22018   5.758   2.535   5.509
 7040SOL    HW122019   5.664   2.547   5.479
 7040SOL    HW222020   5.807   2.478   5.443
 7041SOL     OW22021   6.474   1.471   1.836
 7041SOL    HW122022   6.479   1.571   1.840
 7041SOL    HW222023   6.548   1.432   1.890
 7042SOL     OW22024   4.151   5.887   4.532
 7042SOL    HW122025   4.215   5.871   4.608
 7042SOL    HW222026   4.095   5.806   4.518
 7043SOL     OW22027   2.138   4.609   3.478
 7043SOL    HW122028   2.087   4.531   3.441
 7043SOL    HW222029   2.097   4.694   3.446
 7044SOL     OW22030   5.861   5.186   5.126
 7044SOL    HW122031   5.806   5.193   5.042
 7044SOL    HW222032   5.908   5.272   5.142
 7045SOL     OW22033   4.996   5.129   2.615
 7045SOL    HW122034   5.076   5.078   2.645
 7045SOL    HW222035   4.931   5.066   2.572
 7046SOL     OW22036   3.252   1.618   3.714
 7046SOL    HW122037   3.248   1.711   3.677
 7046SOL    HW222038   3.188   1.610   3.790
 7047SOL     OW22039   6.447   0.521   2.167
 7047SOL    HW122040   6.507   0.441   2.180
 7047SOL    HW222041   6.370   0.516   2.231
 7048SOL     OW22042   6.250   6.882   3.952
 7048SOL    HW122043   6.279   6.926   4.038
 7048SOL    HW222044   6.188   6.943   3.903
 7049SOL     OW22045   3.761   1.608   0.863
 7049SOL    HW122046   3.827   1.571   0.798
 7049SOL    HW222047   3.672   1.618   0.818
 7050SOL     OW22048   4.206   3.387   1.210
 7050SOL    HW122049   4.117   3.342   1.216
 7050SOL    HW222050   4.258   3.371   1.294
 7051SOL     OW22051   0.015   6.630   1.155
 7051SOL    HW122052   7.023   6.614   1.058
 7051SOL    HW222053   0.094   6.690   1.164
 7052SOL     OW22054   6.938   1.299   3.266
 7052SOL    HW122055   6.888   1.359   3.203
 7052SOL    HW222056   6.944   1.344   3.355
 7053SOL     OW22057   1.814   3.597   5.059
 7053SOL    HW122058   1.761   3.549   4.989
 7053SOL    HW222059   1.779   3.690   5.069
 7054SOL     OW22060   0.027   6.581   0.885
 7054SOL    HW122061   6.976   6.575   0.823
 7054SOL    HW222062   0.098   6.518   0.855
 7055SOL     OW22063   2.882   0.464   0.253
 7055SOL    HW122064   2.904   0.368   0.267
 7055SOL    HW222065   2.802   0.488   0.308
 7056SOL     OW22066   6.719   5.336   1.396
 7056SOL    HW122067   6.770   5.366   1.476
 7056SOL    HW222068   6.679   5.245   1.414
 7057SOL     OW22069   2.781   4.930   3.767
 7057SOL    HW122070   2.763   4.840   3.729
 7057SOL    HW222071   2.779   4.926   3.867
 7058SOL     OW22072   5.579   2.510   5.877
 7058SOL    HW122073   5.567   2.607   5.897
 7058SOL    HW222074   5.675   2.490   5.860
 7059SOL     OW22075   0.713   1.003   3.963
 7059SOL    HW122076   0.737   1.100   3.959
 7059SOL    HW222077   0.796   0.949   3.972
 7060SOL     OW22078   3.723   0.323   1.363
 7060SOL    HW122079   3.786   0.399   1.381
 7060SOL    HW222080   3.754   0.271   1.284
 7061SOL     OW22081   0.517   3.492   3.852
 7061SOL    HW122082   0.550   3.486   3.758
 7061SOL    HW222083   0.490   3.401   3.884
 7062SOL     OW22084   3.382   2.121   5.182
 7062SOL    HW122085   3.338   2.031   5.180
 7062SOL    HW222086   3.315   2.191   5.204
 7063SOL     OW22087   1.709   6.617   1.604
 7063SOL    HW122088   1.732   6.654   1.514
 7063SOL    HW222089   1.628   6.663   1.639
 7064SOL     OW22090   3.863   2.225   0.003
 7064SOL    HW122091   3.847   2.260   0.095
 7064SOL    HW222092   3.780   2.236   6.976
 7065SOL     OW22093   3.543   3.635   5.339
 7065SOL    HW122094   3.538   3.626   5.240
 7065SOL    HW222095   3.532   3.731   5.365
 7066SOL     OW22096   3.586   0.191   5.952
 7066SOL    HW122097   3.523   0.175   5.877
 7066SOL    HW222098   3.549   0.260   6.014
 7067SOL     OW22099   1.287   3.185   5.446
 7067SOL    HW122100   1.237   3.212   5.364
 7067SOL    HW222101   1.279   3.087   5.459
 7068SOL     OW22102   6.290   4.110   5.032
 7068SOL    HW122103   6.335   4.193   5.065
 7068SOL    HW222104   6.359   4.043   5.006
 7069SOL     OW22105   5.438   1.709   4.722
 7069SOL    HW122106   5.342   1.691   4.699
 7069SOL    HW222107   5.471   1.638   4.784
 7070SOL     OW22108   1.052   6.767   4.683
 7070SOL    HW122109   0.987   6.695   4.709
 7070SOL    HW222110   1.133   6.761   4.741
 7071SOL     OW22111   3.686   6.158   6.952
 7071SOL    HW122112   3.654   6.232   7.011
 7071SOL    HW222113   3.684   6.072   7.003
 7072SOL     OW22114   2.124   5.507   0.315
 7072SOL    HW122115   2.087   5.587   0.268
 7072SOL    HW222116   2.183   5.456   0.252
 7073SOL     OW22117   4.738   6.878   3.728
 7073SOL    HW122118   4.699   6.828   3.805
 7073SOL    HW222119   4.727   6.977   3.744
 7074SOL     OW22120   6.061   3.100   1.912
 7074SOL    HW122121   6.118   3.182   1.904
 7074SOL    HW222122   6.054   3.055   1.823
 7075SOL     OW22123   1.720   4.168   4.797
 7075SOL    HW122124   1.805   4.117   4.809
 7075SOL    HW222125   1.722   4.217   4.710
 7076SOL     OW22126   5.340   3.183   0.152
 7076SOL    HW122127   5.338   3.083   0.161
 7076SOL    HW222128   5.250   3.220   0.174
 7077SOL     OW22129   2.081   4.221   3.595
 7077SOL    HW122130   2.108   4.242   3.501
 7077SOL    HW222131   2.084   4.123   3.610
 7078SOL     OW22132   6.469   5.967   1.027
 7078SOL    HW122133   6.514   6.047   0.988
 7078SOL    HW222134   6.385   5.948   0.977
 7079SOL     OW22135   0.924   6.766   3.953
 7079SOL    HW122136   0.923   6.832   3.877
 7079SOL    HW222137   0.854   6.792   4.019
 7080SOL     OW22138   3.214   1.366   4.430
 7080SOL    HW122139   3.198   1.461   4.401
 7080SOL    HW222140   3.228   1.364   4.529
 7081SOL     OW22141   1.472   5.523   0.731
 7081SOL    HW122142   1.520   5.454   0.785
 7081SOL    HW222143   1.384   5.543   0.773
 7082SOL     OW22144   6.670   4.507   0.246
 7082SOL    HW122145   6.632   4.489   0.336
 7082SOL    HW222146   6.676   4.422   0.194
 7083SOL     OW22147   0.578   1.224   1.866
 7083SOL    HW122148   0.492   1.173   1.866
 7083SOL    HW222149   0.563   1.312   1.820
 7084SOL     OW22150   1.232   5.339   5.590
 7084SOL    HW122151   1.162   5.366   5.656
 7084SOL    HW222152   1.262   5.246   5.611
 7085SOL     OW22153   0.214   1.832   2.349
 7085SOL    HW122154   0.160   1.840   2.433
 7085SOL    HW222155   0.171   1.888   2.278
 7086SOL     OW22156   5.314   1.059   5.874
 7086SOL    HW122157   5.345   1.077   5.781
 7086SOL    HW222158   5.307   1.145   5.924
 7087SOL     OW22159   6.060   4.473   2.711
 7087SOL    HW122160   6.079   4.494   2.807
 7087SOL    HW222161   5.973   4.423   2.705
 7088SOL     OW22162   5.029   2.516   5.148
 7088SOL    HW122163   5.020   2.585   5.075
 7088SOL    HW222164   5.057   2.429   5.108
 7089SOL     OW22165   2.335   2.865   4.255
 7089SOL    HW122166   2.274   2.788   4.241
 7089SOL    HW222167   2.408   2.839   4.318
 7090SOL     OW22168   2.534   1.437   0.608
 7090SOL    HW122169   2.434   1.438   0.611
 7090SOL    HW222170   2.565   1.503   0.540
 7091SOL     OW22171   0.593   1.005   0.936
 7091SOL    HW122172   0.635   1.014   1.027
 7091SOL    HW222173   0.615   0.916   0.898
 7092SOL     OW22174   4.373   3.163   5.700
 7092SOL    HW122175   4.428   3.097   5.649
 7092SOL    HW222176   4.311   3.211   5.637
 7093SOL     OW22177   3.447   4.120   1.824
 7093SOL    HW122178   3.422   4.026   1.805
 7093SOL    HW222179   3.484   4.127   1.917
 7094SOL     OW22180   0.457   6.304   5.542
 7094SOL    HW122181   0.380   6.332   5.598
 7094SOL    HW222182   0.436   6.217   5.498
 7095SOL     OW22183   2.817   4.625   5.924
 7095SOL    HW122184   2.849   4.686   5.851
 7095SOL    HW222185   2.778   4.680   5.998
 7096SOL     OW22186   6.347   6.799   2.079
 7096SOL    HW122187   6.346   6.736   2.001
 7096SOL    HW222188   6.258   6.799   2.124
 7097SOL     OW22189   4.569   0.699   2.446
 7097SOL    HW122190   4.573   0.757   2.527
 7097SOL    HW222191   4.586   0.604   2.472
 7098SOL     OW22192   1.810   5.630   5.748
 7098SOL    HW122193   1.907   5.653   5.747
 7098SOL    HW222194   1.760   5.695   5.805
 7099SOL     OW22195   3.743   2.091   4.714
 7099SOL    HW122196   3.815   2.117   4.649
 7099SOL    HW222197   3.709   2.000   4.691
 7100SOL     OW22198   6.428   3.465   0.439
 7100SOL    HW122199   6.415   3.442   0.535
 7100SOL    HW222200   6.522   3.444   0.412
 7101SOL     OW22201   2.771   1.494   5.253
 7101SOL    HW122202   2.800   1.553   5.327
 7101SOL    HW222203   2.725   1.549   5.182
 7102SOL     OW22204   5.534   6.933   0.445
 7102SOL    HW122205   5.620   6.981   0.464
 7102SOL    HW222206   5.537   6.842   0.485
 7103SOL     OW22207   5.457   5.426   1.997
 7103SOL    HW122208   5.439   5.339   1.951
 7103SOL    HW222209   5.471   5.410   2.095
 7104SOL     OW22210   6.635   3.560   2.810
 7104SOL    HW122211   6.547   3.589   2.847
 7104SOL    HW222212   6.697   3.638   2.805
 7105SOL     OW22213   3.129   3.175   4.859
 7105SOL    HW122214   3.168   3.083   4.857
 7105SOL    HW222215   3.167   3.227   4.936
 7106SOL     OW22216   3.558   3.026   1.792
 7106SOL    HW122217   3.474   2.994   1.837
 7106SOL    HW222218   3.534   3.077   1.710
 7107SOL     OW22219   4.820   0.233   0.710
 7107SOL    HW122220   4.790   0.138   0.726
 7107SOL    HW222221   4.867   0.239   0.622
 7108SOL     OW22222   2.894   5.753   2.740
 7108SOL    HW122223   2.961   5.807   2.689
 7108SOL    HW222224   2.816   5.811   2.765
 7109SOL     OW22225   2.092   0.545   6.777
 7109SOL    HW122226   2.009   0.553   6.722
 7109SOL    HW222227   2.150   0.626   6.763
 7110SOL     OW22228   3.199   5.763   4.198
 7110SOL    HW122229   3.121   5.720   4.154
 7110SOL    HW222230   3.168   5.843   4.250
 7111SOL     OW22231   1.309   2.758   4.485
 7111SOL    HW122232   1.354   2.724   4.568
 7111SOL    HW222233   1.346   2.847   4.461
 7112SOL     OW22234   2.187   4.799   4.586
 7112SOL    HW122235   2.199   4.855   4.668
 7112SOL    HW222236   2.275   4.786   4.541
 7113SOL     OW22237   3.567   4.074   5.103
 7113SOL    HW122238   3.591   4.120   5.017
 7113SOL    HW222239   3.473   4.097   5.128
 7114SOL     OW22240   4.941   5.529   0.907
 7114SOL    HW122241   4.853   5.502   0.868
 7114SOL    HW222242   5.004   5.451   0.905
 7115SOL     OW22243   4.360   3.018   0.201
 7115SOL    HW122244   4.425   3.014   0.276
 7115SOL    HW222245   4.378   3.100   0.146
 7116SOL     OW22246   5.323   4.390   3.223
 7116SOL    HW122247   5.233   4.384   3.266
 7116SOL    HW222248   5.332   4.319   3.153
 7117SOL     OW22249   0.008   0.022   4.654
 7117SOL    HW122250   0.073   0.035   4.579
 7117SOL    HW222251   0.038   0.074   4.734
 7118SOL     OW22252   3.520   4.733   6.162
 7118SOL    HW122253   3.476   4.809   6.114
 7118SOL    HW222254   3.576   4.680   6.098
 7119SOL     OW22255   5.201   0.856   4.872
 7119SOL    HW122256   5.189   0.952   4.897
 7119SOL    HW222257   5.296   0.829   4.887
 7120SOL     OW22258   3.882   2.004   1.719
 7120SOL    HW122259   3.921   2.051   1.640
 7120SOL    HW222260   3.836   2.069   1.779
 7121SOL     OW22261   0.614   6.774   3.421
 7121SOL    HW122262   0.613   6.845   3.491
 7121SOL    HW222263   0.555   6.800   3.345
 7122SOL     OW22264   1.658   0.615   5.797
 7122SOL    HW122265   1.620   0.688   5.854
 7122SOL    HW222266   1.736   0.650   5.746
 7123SOL     OW22267   1.106   5.313   4.074
 7123SOL    HW122268   1.134   5.330   4.168
 7123SOL    HW222269   1.010   5.339   4.062
 7124SOL     OW22270   0.674   2.405   1.586
 7124SOL    HW122271   0.700   2.459   1.667
 7124SOL    HW222272   0.591   2.352   1.607
 7125SOL     OW22273   0.984   0.859   0.962
 7125SOL    HW122274   0.971   0.847   0.864
 7125SOL    HW222275   0.944   0.946   0.991
 7126SOL     OW22276   4.027   5.275   0.864
 7126SOL    HW122277   4.115   5.282   0.817
 7126SOL    HW222278   4.024   5.192   0.918
 7127SOL     OW22279   3.214   5.744   6.943
 7127SOL    HW122280   3.190   5.777   0.007
 7127SOL    HW222281   3.157   5.790   6.875
 7128SOL     OW22282   3.413   4.144   6.710
 7128SOL    HW122283   3.502   4.131   6.666
 7128SOL    HW222284   3.404   4.079   6.785
 7129SOL     OW22285   2.202   1.397   0.946
 7129SOL    HW122286   2.195   1.319   0.883
 7129SOL    HW222287   2.141   1.382   1.024
 7130SOL     OW22288   3.519   6.256   4.172
 7130SOL    HW122289   3.541   6.159   4.171
 7130SOL    HW222290   3.492   6.283   4.265
 7131SOL     OW22291   3.479   1.238   1.556
 7131SOL    HW122292   3.432   1.150   1.554
 7131SOL    HW222293   3.444   1.296   1.482
 7132SOL     OW22294   4.313   4.186   0.393
 7132SOL    HW122295   4.275   4.118   0.455
 7132SOL    HW222296   4.285   4.166   0.299
 7133SOL     OW22297   3.930   4.822   5.229
 7133SOL    HW122298   3.924   4.737   5.282
 7133SOL    HW222299   3.844   4.838   5.181
 7134SOL     OW22300   5.044   6.886   1.560
 7134SOL    HW122301   4.947   6.866   1.568
 7134SOL    HW222302   5.058   6.984   1.553
 7135SOL     OW22303   2.288   2.616   3.230
 7135SOL    HW122304   2.289   2.711   3.264
 7135SOL    HW222305   2.330   2.613   3.140
 7136SOL     OW22306   3.464   1.516   0.478
 7136SOL    HW122307   3.517   1.503   0.562
 7136SOL    HW222308   3.383   1.457   0.481
 7137SOL     OW22309   2.899   1.970   0.304
 7137SOL    HW122310   2.962   2.027   0.251
 7137SOL    HW222311   2.841   2.028   0.361
 7138SOL     OW22312   2.192   1.734   0.970
 7138SOL    HW122313   2.179   1.658   1.034
 7138SOL    HW222314   2.286   1.768   0.976
 7139SOL     OW22315   4.886   4.898   2.500
 7139SOL    HW122316   4.969   4.844   2.491
 7139SOL    HW222317   4.807   4.837   2.505
 7140SOL     OW22318   6.353   4.002   0.635
 7140SOL    HW122319   6.450   4.025   0.624
 7140SOL    HW222320   6.307   4.009   0.546
 7141SOL     OW22321   3.756   6.905   1.219
 7141SOL    HW122322   3.794   6.981   1.166
 7141SOL    HW222323   3.678   6.938   1.273
 7142SOL     OW22324   4.053   6.928   3.858
 7142SOL    HW122325   4.100   7.015   3.872
 7142SOL    HW222326   4.098   6.878   3.784
 7143SOL     OW22327   2.512   3.592   6.866
 7143SOL    HW122328   2.572   3.557   6.794
 7143SOL    HW222329   2.465   3.516   6.911
 7144SOL     OW22330   0.972   1.123   3.075
 7144SOL    HW122331   1.007   1.136   3.168
 7144SOL    HW222332   0.982   1.027   3.049
 7145SOL     OW22333   3.942   0.620   6.671
 7145SOL    HW122334   4.009   0.552   6.642
 7145SOL    HW222335   3.913   0.674   6.593
 7146SOL     OW22336   1.636   0.756   6.166
 7146SOL    HW122337   1.726   0.723   6.139
 7146SOL    HW222338   1.591   0.687   6.224
 7147SOL     OW22339   6.664   6.327   3.120
 7147SOL    HW122340   6.690   6.276   3.037
 7147SOL    HW222341   6.666   6.425   3.100
 7148SOL     OW22342   6.003   5.752   1.547
 7148SOL    HW122343   6.031   5.824   1.611
 7148SOL    HW222344   5.985   5.667   1.598
 7149SOL     OW22345   0.387   5.436   3.761
 7149SOL    HW122346   0.307   5.435   3.821
 7149SOL    HW222347   0.360   5.407   3.669
 7150SOL     OW22348   3.456   3.203   0.303
 7150SOL    HW122349   3.494   3.180   0.213
 7150SOL    HW222350   3.360   3.229   0.292
 7151SOL     OW22351   2.891   6.889   1.210
 7151SOL    HW122352   2.963   6.821   1.198
 7151SOL    HW222353   2.901   6.960   1.141
 7152SOL     OW22354   6.594   0.434   5.746
 7152SOL    HW122355   6.535   0.363   5.707
 7152SOL    HW222356   6.597   0.512   5.684
 7153SOL     OW22357   3.645   5.075   2.014
 7153SOL    HW122358   3.695   5.161   2.024
 7153SOL    HW222359   3.647   5.047   1.918
 7154SOL     OW22360   4.358   6.466   2.915
 7154SOL    HW122361   4.335   6.535   2.847
 7154SOL    HW222362   4.293   6.390   2.909
 7155SOL     OW22363   3.171   3.386   1.819
 7155SOL    HW122364   3.268   3.407   1.812
 7155SOL    HW222365   3.151   3.346   1.908
 7156SOL     OW22366   5.379   3.504   2.061
 7156SOL    HW122367   5.313   3.483   1.989
 7156SOL    HW222368   5.349   3.463   2.148
 7157SOL     OW22369   6.604   5.185   1.790
 7157SOL    HW122370   6.510   5.202   1.763
 7157SOL    HW222371   6.606   5.123   1.870
 7158SOL     OW22372   0.920   6.965   3.363
 7158SOL    HW122373   0.882   6.915   3.441
 7158SOL    HW222374   1.019   6.965   3.368
 7159SOL     OW22375   1.359   4.960   4.133
 7159SOL    HW122376   1.399   4.890   4.074
 7159SOL    HW222377   1.264   4.936   4.153
 7160SOL     OW22378   6.199   6.333   3.070
 7160SOL    HW122379   6.194   6.388   2.987
 7160SOL    HW222380   6.243   6.386   3.142
 7161SOL     OW22381   3.243   3.725   2.867
 7161SOL    HW122382   3.298   3.668   2.927
 7161SOL    HW222383   3.215   3.673   2.786
 7162SOL     OW22384   1.119   5.221   6.340
 7162SOL    HW122385   1.062   5.304   6.337
 7162SOL    HW222386   1.200   5.238   6.396
 7163SOL     OW22387   2.925   0.587   2.190
 7163SOL    HW122388   2.894   0.672   2.233
 7163SOL    HW222389   3.007   0.555   2.237
 7164SOL     OW22390   2.529   0.128   5.004
 7164SOL    HW122391   2.574   0.179   5.077
 7164SOL    HW222392   2.573   0.150   4.916
 7165SOL     OW22393   5.805   6.453   1.812
 7165SOL    HW122394   5.772   6.364   1.779
 7165SOL    HW222395   5.765   6.526   1.757
 7166SOL     OW22396   5.354   2.149   0.327
 7166SOL    HW122397   5.280   2.083   0.312
 7166SOL    HW222398   5.321   2.241   0.305
 7167SOL     OW22399   4.888   3.308   4.908
 7167SOL    HW122400   4.923   3.280   4.998
 7167SOL    HW222401   4.881   3.408   4.906
 7168SOL     OW22402   3.023   2.169   3.196
 7168SOL    HW122403   2.961   2.154   3.272
 7168SOL    HW222404   3.041   2.081   3.151
 7169SOL     OW22405   6.892   4.460   5.159
 7169SOL    HW122406   6.887   4.554   5.123
 7169SOL    HW222407   6.863   4.459   5.254
 7170SOL     OW22408   4.979   0.018   2.520
 7170SOL    HW122409   4.949   6.951   2.508
 7170SOL    HW222410   4.996   0.036   2.616
 7171SOL     OW22411   5.980   3.697   0.228
 7171SOL    HW122412   5.995   3.736   0.137
 7171SOL    HW222413   5.884   3.709   0.254
 7172SOL     OW22414   2.023   0.699   5.051
 7172SOL    HW122415   2.093   0.703   4.979
 7172SOL    HW222416   2.065   0.673   5.137
 7173SOL     OW22417   6.034   4.826   6.505
 7173SOL    HW122418   5.986   4.747   6.541
 7173SOL    HW222419   6.133   4.811   6.512
 7174SOL     OW22420   6.865   4.730   0.641
 7174SOL    HW122421   6.885   4.742   0.544
 7174SOL    HW222422   6.947   4.751   0.695
 7175SOL     OW22423   6.622   3.235   5.645
 7175SOL    HW122424   6.710   3.199   5.614
 7175SOL    HW222425   6.636   3.319   5.697
 7176SOL     OW22426   6.919   2.038   4.082
 7176SOL    HW122427   7.018   2.036   4.072
 7176SOL    HW222428   6.891   1.973   4.152
 7177SOL     OW22429   1.442   4.886   5.534
 7177SOL    HW122430   1.405   4.824   5.603
 7177SOL    HW222431   1.388   4.880   5.450
 7178SOL     OW22432   0.446   1.636   6.218
 7178SOL    HW122433   0.413   1.559   6.273
 7178SOL    HW222434   0.450   1.610   6.122
 7179SOL     OW22435   1.120   3.685   4.756
 7179SOL    HW122436   1.026   3.704   4.787
 7179SOL    HW222437   1.163   3.619   4.818
 7180SOL     OW22438   2.324   3.952   0.439
 7180SOL    HW122439   2.390   4.017   0.476
 7180SOL    HW222440   2.310   3.971   0.342
 7181SOL     OW22441   2.426   0.178   0.221
 7181SOL    HW122442   2.339   0.133   0.241
 7181SOL    HW222443   2.501   0.123   0.257
 7182SOL     OW22444   0.436   3.842   3.506
 7182SOL    HW122445   0.366   3.801   3.564
 7182SOL    HW222446   0.527   3.824   3.545
 7183SOL     OW22447   1.983   5.485   1.852
 7183SOL    HW122448   1.942   5.494   1.943
 7183SOL    HW222449   2.065   5.543   1.847
 7184SOL     OW22450   0.091   1.217   3.548
 7184SOL    HW122451   0.025   1.147   3.574
 7184SOL    HW222452   0.042   1.300   3.521
 7185SOL     OW22453   5.758   1.298   5.295
 7185SOL    HW122454   5.775   1.396   5.306
 7185SOL    HW222455   5.686   1.270   5.358
 7186SOL     OW22456   6.568   1.723   1.167
 7186SOL    HW122457   6.496   1.757   1.106
 7186SOL    HW222458   6.643   1.686   1.113
 7187SOL     OW22459   3.024   4.052   5.266
 7187SOL    HW122460   3.065   4.016   5.350
 7187SOL    HW222461   2.929   4.022   5.259
 7188SOL     OW22462   4.542   5.808   0.215
 7188SOL    HW122463   4.484   5.841   0.290
 7188SOL    HW222464   4.529   5.867   0.135
 7189SOL     OW22465   6.411   2.779   6.108
 7189SOL    HW122466   6.502   2.774   6.066
 7189SOL    HW222467   6.343   2.802   6.039
 7190SOL     OW22468   6.348   5.936   1.300
 7190SOL    HW122469   6.334   6.015   1.359
 7190SOL    HW222470   6.413   5.958   1.228
 7191SOL     OW22471   1.031   4.611   2.841
 7191SOL    HW122472   0.987   4.673   2.906
 7191SOL    HW222473   1.109   4.567   2.886
 7192SOL     OW22474   1.676   4.245   6.557
 7192SOL    HW122475   1.721   4.186   6.625
 7192SOL    HW222476   1.738   4.259   6.480
 7193SOL     OW22477   2.320   2.104   2.298
 7193SOL    HW122478   2.251   2.163   2.340
 7193SOL    HW222479   2.374   2.157   2.233
 7194SOL     OW22480   1.764   2.938   6.818
 7194SOL    HW122481   1.796   3.019   6.769
 7194SOL    HW222482   1.700   2.887   6.760
 7195SOL     OW22483   6.981   4.292   0.050
 7195SOL    HW122484   6.971   4.391   0.053
 7195SOL    HW222485   0.037   4.268   0.001
 7196SOL     OW22486   2.560   3.723   1.596
 7196SOL    HW122487   2.464   3.697   1.610
 7196SOL    HW222488   2.618   3.643   1.607
 7197SOL     OW22489   1.418   3.460   6.013
 7197SOL    HW122490   1.455   3.385   6.069
 7197SOL    HW222491   1.338   3.499   6.059
 7198SOL     OW22492   0.394   1.121   0.480
 7198SOL    HW122493   0.395   1.221   0.470
 7198SOL    HW222494   0.368   1.078   0.394
 7199SOL     OW22495   0.919   0.215   2.606
 7199SOL    HW122496   0.931   0.309   2.573
 7199SOL    HW222497   1.005   0.182   2.645
 7200SOL     OW22498   2.461   2.818   6.664
 7200SOL    HW122499   2.467   2.724   6.631
 7200SOL    HW222500   2.509   2.826   6.752
 7201SOL     OW22501   0.957   6.036   4.410
 7201SOL    HW122502   0.928   6.083   4.326
 7201SOL    HW222503   0.984   6.104   4.478
 7202SOL     OW22504   4.496   6.506   6.646
 7202SOL    HW122505   4.569   6.439   6.650
 7202SOL    HW222506   4.523   6.589   6.694
 7203SOL     OW22507   0.017   0.957   1.518
 7203SOL    HW122508   0.042   0.872   1.471
 7203SOL    HW222509   0.098   1.013   1.532
 7204SOL     OW22510   0.292   1.177   6.660
 7204SOL    HW122511   0.390   1.165   6.646
 7204SOL    HW222512   0.242   1.139   6.583
 7205SOL     OW22513   1.618   4.270   5.638
 7205SOL    HW122514   1.577   4.202   5.577
 7205SOL    HW222515   1.639   4.227   5.726
 7206SOL     OW22516   1.139   1.239   2.092
 7206SOL    HW122517   1.192   1.168   2.138
 7206SOL    HW222518   1.156   1.234   1.993
 7207SOL     OW22519   3.755   0.424   4.383
 7207SOL    HW122520   3.735   0.509   4.334
 7207SOL    HW222521   3.678   0.361   4.374
 7208SOL     OW22522   4.597   0.128   3.470
 7208SOL    HW122523   4.636   0.050   3.422
 7208SOL    HW222524   4.667   0.169   3.528
 7209SOL     OW22525   2.404   3.265   1.423
 7209SOL    HW122526   2.360   3.188   1.377
 7209SOL    HW222527   2.369   3.273   1.516
 7210SOL     OW22528   4.077   1.957   3.555
 7210SOL    HW122529   4.045   1.932   3.647
 7210SOL    HW222530   4.075   1.876   3.496
 7211SOL     OW22531   2.190   6.110   5.091
 7211SOL    HW122532   2.229   6.178   5.028
 7211SOL    HW222533   2.101   6.141   5.122
 7212SOL     OW22534   0.414   5.875   5.416
 7212SOL    HW122535   0.482   5.920   5.474
 7212SOL    HW222536   0.372   5.943   5.356
 7213SOL     OW22537   3.452   6.732   6.871
 7213SOL    HW122538   3.507   6.675   6.931
 7213SOL    HW222539   3.386   6.676   6.822
 7214SOL     OW22540   6.398   0.269   5.553
 7214SOL    HW122541   6.443   0.230   5.473
 7214SOL    HW222542   6.378   0.365   5.537
 7215SOL     OW22543   6.285   3.193   4.145
 7215SOL    HW122544   6.239   3.214   4.060
 7215SOL    HW222545   6.263   3.099   4.173
 7216SOL     OW22546   2.885   0.203   2.157
 7216SOL    HW122547   2.838   0.157   2.232
 7216SOL    HW222548   2.836   0.188   2.072
 7217SOL     OW22549   1.770   3.692   3.403
 7217SOL    HW122550   1.818   3.605   3.414
 7217SOL    HW222551   1.834   3.763   3.374
 7218SOL     OW22552   6.497   2.940   4.569
 7218SOL    HW122553   6.424   3.001   4.602
 7218SOL    HW222554   6.482   2.920   4.472
 7219SOL     OW22555   3.295   1.035   2.703
 7219SOL    HW122556   3.252   1.122   2.727
 7219SOL    HW222557   3.278   1.015   2.606
 7220SOL     OW22558   6.645   4.597   3.723
 7220SOL    HW122559   6.627   4.670   3.788
 7220SOL    HW222560   6.587   4.609   3.642
 7221SOL     OW22561   3.870   5.975   5.031
 7221SOL    HW122562   3.843   6.064   5.068
 7221SOL    HW222563   3.788   5.923   5.007
 7222SOL     OW22564   6.417   6.516   3.828
 7222SOL    HW122565   6.510   6.504   3.791
 7222SOL    HW222566   6.371   6.427   3.834
 7223SOL     OW22567   3.328   1.403   0.820
 7223SOL    HW122568   3.370   1.312   0.820
 7223SOL    HW222569   3.233   1.396   0.790
 7224SOL     OW22570   5.094   2.543   4.091
 7224SOL    HW122571   5.047   2.629   4.111
 7224SOL    HW222572   5.036   2.487   4.032
 7225SOL     OW22573   1.370   6.510   0.411
 7225SOL    HW122574   1.328   6.557   0.333
 7225SOL    HW222575   1.299   6.474   0.471
 7226SOL     OW22576   5.594   6.790   0.977
 7226SOL    HW122577   5.510   6.836   1.006
 7226SOL    HW222578   5.664   6.800   1.048
 7227SOL     OW22579   2.526   2.029   1.120
 7227SOL    HW122580   2.606   2.083   1.092
 7227SOL    HW222581   2.548   1.932   1.117
 7228SOL     OW22582   1.240   1.453   2.257
 7228SOL    HW122583   1.331   1.423   2.284
 7228SOL    HW222584   1.203   1.390   2.189
 7229SOL     OW22585   1.409   6.307   5.645
 7229SOL    HW122586   1.423   6.228   5.705
 7229SOL    HW222587   1.322   6.351   5.668
 7230SOL     OW22588   3.396   5.588   4.162
 7230SOL    HW122589   3.329   5.648   4.205
 7230SOL    HW222590   3.359   5.550   4.078
 7231SOL     OW22591   3.754   0.415   6.526
 7231SOL    HW122592   3.735   0.363   6.444
 7231SOL    HW222593   3.792   0.504   6.501
 7232SOL     OW22594   4.715   5.926   2.810
 7232SOL    HW122595   4.642   5.896   2.871
 7232SOL    HW222596   4.752   5.847   2.761
 7233SOL     OW22597   1.504   1.427   3.952
 7233SOL    HW122598   1.555   1.444   3.868
 7233SOL    HW222599   1.560   1.454   4.031
 7234SOL     OW22600   5.878   3.077   2.927
 7234SOL    HW122601   5.909   3.139   2.854
 7234SOL    HW222602   5.801   3.023   2.893
 7235SOL     OW22603   6.730   4.360   2.004
 7235SOL    HW122604   6.727   4.261   2.010
 7235SOL    HW222605   6.742   4.399   2.096
 7236SOL     OW22606   2.684   1.841   2.596
 7236SOL    HW122607   2.638   1.838   2.685
 7236SOL    HW222608   2.634   1.903   2.535
 7237SOL     OW22609   4.034   0.029   5.029
 7237SOL    HW122610   3.973   6.977   5.024
 7237SOL    HW222611   4.089   0.034   4.946
 7238SOL     OW22612   4.579   2.185   6.266
 7238SOL    HW122613   4.599   2.192   6.168
 7238SOL    HW222614   4.618   2.100   6.302
 7239SOL     OW22615   0.923   2.117   1.392
 7239SOL    HW122616   0.985   2.051   1.350
 7239SOL    HW222617   0.858   2.149   1.322
 7240SOL     OW22618   0.190   1.154   5.719
 7240SOL    HW122619   0.152   1.245   5.736
 7240SOL    HW222620   0.243   1.126   5.799
 7241SOL     OW22621   2.678   0.154   1.316
 7241SOL    HW122622   2.663   0.177   1.220
 7241SOL    HW222623   2.672   0.055   1.328
 7242SOL     OW22624   6.155   5.976   6.564
 7242SOL    HW122625   6.088   6.049   6.552
 7242SOL    HW222626   6.244   6.016   6.588
 7243SOL     OW22627   6.250   4.214   6.771
 7243SOL    HW122628   6.240   4.247   6.678
 7243SOL    HW222629   6.346   4.191   6.788
 7244SOL     OW22630   6.878   0.655   1.708
 7244SOL    HW122631   6.782   0.629   1.717
 7244SOL    HW222632   6.892   0.748   1.742
 7245SOL     OW22633   1.577   2.839   4.710
 7245SOL    HW122634   1.644   2.803   4.645
 7245SOL    HW222635   1.515   2.765   4.738
 7246SOL     OW22636   1.320   0.441   3.351
 7246SOL    HW122637   1.320   0.374   3.277
 7246SOL    HW222638   1.383   0.411   3.423
 7247SOL     OW22639   2.524   1.642   5.117
 7247SOL    HW122640   2.426   1.623   5.116
 7247SOL    HW222641   2.547   1.706   5.043
 7248SOL     OW22642   3.117   1.462   2.917
 7248SOL    HW122643   3.106   1.561   2.903
 7248SOL    HW222644   3.200   1.446   2.971
 7249SOL     OW22645   4.830   5.165   2.166
 7249SOL    HW122646   4.868   5.245   2.214
 7249SOL    HW222647   4.736   5.185   2.140
 7250SOL     OW22648   5.512   6.207   5.732
 7250SOL    HW122649   5.570   6.126   5.721
 7250SOL    HW222650   5.566   6.289   5.714
 7251SOL     OW22651   0.246   6.863   5.633
 7251SOL    HW122652   0.150   6.838   5.638
 7251SOL    HW222653   0.257   6.943   5.575
 7252SOL     OW22654   3.596   3.509   2.335
 7252SOL    HW122655   3.632   3.417   2.323
 7252SOL    HW222656   3.496   3.506   2.333
 7253SOL     OW22657   2.006   6.187   7.007
 7253SOL    HW122658   2.018   6.232   0.068
 7253SOL    HW222659   2.095   6.158   6.972
 7254SOL     OW22660   5.470   5.113   4.485
 7254SOL    HW122661   5.438   5.019   4.496
 7254SOL    HW222662   5.569   5.113   4.473
 7255SOL     OW22663   3.882   3.889   0.419
 7255SOL    HW122664   3.930   3.849   0.496
 7255SOL    HW222665   3.929   3.972   0.389
 7256SOL     OW22666   3.290   5.885   4.941
 7256SOL    HW122667   3.343   5.965   4.912
 7256SOL    HW222668   3.271   5.891   5.039
 7257SOL     OW22669   6.688   1.732   3.672
 7257SOL    HW122670   6.722   1.703   3.582
 7257SOL    HW222671   6.747   1.695   3.744
 7258SOL     OW22672   4.886   2.055   2.660
 7258SOL    HW122673   4.829   2.113   2.718
 7258SOL    HW222674   4.974   2.038   2.705
 7259SOL     OW22675   1.907   3.604   1.573
 7259SOL    HW122676   1.810   3.600   1.597
 7259SOL    HW222677   1.916   3.644   1.482
 7260SOL     OW22678   5.105   1.443   1.641
 7260SOL    HW122679   5.095   1.344   1.628
 7260SOL    HW222680   5.202   1.467   1.636
 7261SOL     OW22681   1.251   4.035   1.747
 7261SOL    HW122682   1.251   4.038   1.847
 7261SOL    HW222683   1.287   4.121   1.711
 7262SOL     OW22684   5.367   2.730   6.450
 7262SOL    HW122685   5.325   2.801   6.505
 7262SOL    HW222686   5.296   2.670   6.413
 7263SOL     OW22687   0.688   6.286   6.916
 7263SOL    HW122688   0.622   6.357   6.891
 7263SOL    HW222689   0.640   6.210   6.959
 7264SOL     OW22690   4.779   1.789   6.677
 7264SOL    HW122691   4.850   1.768   6.743
 7264SOL    HW222692   4.766   1.888   6.671
 7265SOL     OW22693   5.454   5.154   6.247
 7265SOL    HW122694   5.545   5.121   6.269
 7265SOL    HW222695   5.392   5.076   6.236
 7266SOL     OW22696   5.548   0.335   2.368
 7266SOL    HW122697   5.493   0.392   2.307
 7266SOL    HW222698   5.490   0.266   2.411
 7267SOL     OW22699   6.221   6.335   5.143
 7267SOL    HW122700   6.254   6.291   5.226
 7267SOL    HW222701   6.299   6.361   5.086
 7268SOL     OW22702   0.026   5.655   3.935
 7268SOL    HW122703   0.016   5.578   3.871
 7268SOL    HW222704   6.963   5.697   3.949
 7269SOL     OW22705   0.922   6.275   6.026
 7269SOL    HW122706   0.916   6.372   5.999
 7269SOL    HW222707   1.012   6.239   6.002
 7270SOL     OW22708   1.135   3.061   4.633
 7270SOL    HW122709   1.089   3.022   4.713
 7270SOL    HW222710   1.109   3.010   4.551
 7271SOL     OW22711   1.277   5.443   4.737
 7271SOL    HW122712   1.218   5.403   4.667
 7271SOL    HW222713   1.280   5.383   4.817
 7272SOL     OW22714   6.096   5.173   2.777
 7272SOL    HW122715   6.059   5.232   2.849
 7272SOL    HW222716   6.195   5.164   2.790
 7273SOL     OW22717   6.352   4.135   1.283
 7273SOL    HW122718   6.347   4.205   1.354
 7273SOL    HW222719   6.324   4.047   1.321
 7274SOL     OW22720   0.253   5.281   6.435
 7274SOL    HW122721   0.260   5.283   6.336
 7274SOL    HW222722   0.240   5.373   6.470
 7275SOL     OW22723   0.707   6.344   2.655
 7275SOL    HW122724   0.723   6.263   2.712
 7275SOL    HW222725   0.613   6.343   2.621
 7276SOL     OW22726   5.210   0.940   3.129
 7276SOL    HW122727   5.115   0.949   3.158
 7276SOL    HW222728   5.269   0.991   3.192
 7277SOL     OW22729   5.092   1.043   4.082
 7277SOL    HW122730   5.156   0.984   4.132
 7277SOL    HW222731   5.013   1.063   4.140
 7278SOL     OW22732   3.999   2.398   1.722
 7278SOL    HW122733   3.988   2.493   1.694
 7278SOL    HW222734   3.921   2.371   1.779
 7279SOL     OW22735   4.030   4.923   5.546
 7279SOL    HW122736   3.995   5.004   5.498
 7279SOL    HW222737   4.025   4.939   5.645
 7280SOL     OW22738   0.226   1.801   3.987
 7280SOL    HW122739   0.232   1.889   3.940
 7280SOL    HW222740   0.317   1.759   3.990
 7281SOL     OW22741   2.635   1.301   6.935
 7281SOL    HW122742   2.682   1.363   6.872
 7281SOL    HW222743   2.702   1.261   6.998
 7282SOL     OW22744   6.131   4.913   2.947
 7282SOL    HW122745   6.140   4.997   3.000
 7282SOL    HW222746   6.093   4.935   2.857
 7283SOL     OW22747   4.904   0.831   2.735
 7283SOL    HW122748   4.934   0.792   2.648
 7283SOL    HW222749   4.980   0.882   2.776
 7284SOL     OW22750   0.053   2.500   6.173
 7284SOL    HW122751   0.135   2.535   6.219
 7284SOL    HW222752   7.021   2.576   6.147
 7285SOL     OW22753   5.480   3.006   2.376
 7285SOL    HW122754   5.474   3.026   2.278
 7285SOL    HW222755   5.456   2.910   2.391
 7286SOL     OW22756   2.558   1.124   0.611
 7286SOL    HW122757   2.496   1.080   0.545
 7286SOL    HW222758   2.585   1.214   0.575
 7287SOL     OW22759   0.467   2.596   5.843
 7287SOL    HW122760   0.429   2.553   5.761
 7287SOL    HW222761   0.552   2.643   5.819
 7288SOL     OW22762   2.143   1.166   0.800
 7288SOL    HW122763   2.127   1.128   0.891
 7288SOL    HW222764   2.157   1.092   0.734
 7289SOL     OW22765   5.266   2.247   4.059
 7289SOL    HW122766   5.305   2.330   4.020
 7289SOL    HW222767   5.321   2.217   4.137
 7290SOL     OW22768   3.598   0.974   4.960
 7290SOL    HW122769   3.545   1.013   4.885
 7290SOL    HW222770   3.536   0.930   5.025
 7291SOL     OW22771   2.010   6.493   0.796
 7291SOL    HW122772   1.995   6.395   0.798
 7291SOL    HW222773   1.986   6.529   0.705
 7292SOL     OW22774   3.470   1.049   4.221
 7292SOL    HW122775   3.525   1.004   4.152
 7292SOL    HW222776   3.438   1.137   4.187
 7293SOL     OW22777   1.184   2.122   4.486
 7293SOL    HW122778   1.250   2.048   4.500
 7293SOL    HW222779   1.116   2.120   4.560
 7294SOL     OW22780   2.766   5.125   6.905
 7294SOL    HW122781   2.865   5.127   6.914
 7294SOL    HW222782   2.741   5.094   6.814
 7295SOL     OW22783   6.219   2.838   1.533
 7295SOL    HW122784   6.152   2.770   1.500
 7295SOL    HW222785   6.171   2.910   1.583
 7296SOL     OW22786   3.275   5.977   2.519
 7296SOL    HW122787   3.274   5.892   2.466
 7296SOL    HW222788   3.209   5.971   2.594
 7297SOL     OW22789   3.878   0.102   1.549
 7297SOL    HW122790   3.822   0.054   1.483
 7297SOL    HW222791   3.868   0.059   1.639
 7298SOL     OW22792   5.304   5.327   5.583
 7298SOL    HW122793   5.207   5.310   5.564
 7298SOL    HW222794   5.318   5.338   5.681
 7299SOL     OW22795   0.986   2.154   0.762
 7299SOL    HW122796   0.894   2.193   0.769
 7299SOL    HW222797   1.018   2.127   0.853
 7300SOL     OW22798   0.881   6.636   3.542
 7300SOL    HW122799   0.893   6.544   3.578
 7300SOL    HW222800   0.785   6.650   3.517
 7301SOL     OW22801   5.957   1.562   4.122
 7301SOL    HW122802   5.983   1.537   4.215
 7301SOL    HW222803   6.039   1.568   4.065
 7302SOL     OW22804   0.852   2.257   5.597
 7302SOL    HW122805   0.853   2.312   5.680
 7302SOL    HW222806   0.760   2.257   5.558
 7303SOL     OW22807   3.772   0.416   0.132
 7303SOL    HW122808   3.696   0.414   0.067
 7303SOL    HW222809   3.840   0.483   0.101
 7304SOL     OW22810   3.209   5.707   1.694
 7304SOL    HW122811   3.135   5.727   1.631
 7304SOL    HW222812   3.171   5.670   1.780
 7305SOL     OW22813   4.356   1.021   0.514
 7305SOL    HW122814   4.453   1.027   0.538
 7305SOL    HW222815   4.341   0.942   0.455
 7306SOL     OW22816   5.066   1.384   0.848
 7306SOL    HW122817   4.987   1.394   0.909
 7306SOL    HW222818   5.036   1.344   0.761
 7307SOL     OW22819   2.563   6.447   2.400
 7307SOL    HW122820   2.644   6.403   2.441
 7307SOL    HW222821   2.588   6.484   2.311
 7308SOL     OW22822   6.905   3.127   5.711
 7308SOL    HW122823   7.002   3.134   5.732
 7308SOL    HW222824   6.889   3.052   5.647
 7309SOL     OW22825   4.228   5.149   1.255
 7309SOL    HW122826   4.207   5.053   1.269
 7309SOL    HW222827   4.147   5.205   1.275
 7310SOL     OW22828   2.206   3.823   1.351
 7310SOL    HW122829   2.228   3.885   1.275
 7310SOL    HW222830   2.225   3.869   1.437
 7311SOL     OW22831   2.332   1.836   1.374
 7311SOL    HW122832   2.352   1.826   1.471
 7311SOL    HW222833   2.291   1.925   1.356
 7312SOL     OW22834   0.886   3.715   4.898
 7312SOL    HW122835   0.825   3.636   4.900
 7312SOL    HW222836   0.873   3.769   4.980
 7313SOL     OW22837   2.222   0.654   0.298
 7313SOL    HW122838   2.153   0.708   0.345
 7313SOL    HW222839   2.267   0.711   0.229
 7314SOL     OW22840   0.161   5.360   5.656
 7314SOL    HW122841   0.125   5.453   5.650
 7314SOL    HW222842   0.261   5.362   5.643
 7315SOL     OW22843   6.099   6.810   2.180
 7315SOL    HW122844   6.087   6.843   2.274
 7315SOL    HW222845   6.015   6.763   2.152
 7316SOL     OW22846   3.253   3.773   6.965
 7316SOL    HW122847   3.306   3.725   6.894
 7316SOL    HW222848   3.308   3.848   7.002
 7317SOL     OW22849   5.290   1.168   2.798
 7317SOL    HW122850   5.233   1.236   2.845
 7317SOL    HW222851   5.329   1.208   2.715
 7318SOL     OW22852   1.701   0.534   2.043
 7318SOL    HW122853   1.608   0.516   2.011
 7318SOL    HW222854   1.706   0.517   2.142
 7319SOL     OW22855   0.266   3.313   6.600
 7319SOL    HW122856   0.259   3.320   6.500
 7319SOL    HW222857   0.175   3.305   6.639
 7320SOL     OW22858   0.511   3.835   2.738
 7320SOL    HW122859   0.493   3.908   2.804
 7320SOL    HW222860   0.604   3.845   2.702
 7321SOL     OW22861   1.933   0.784   5.811
 7321SOL    HW122862   1.971   0.738   5.731
 7321SOL    HW222863   2.002   0.844   5.852
 7322SOL     OW22864   6.592   3.105   3.550
 7322SOL    HW122865   6.590   3.199   3.585
 7322SOL    HW222866   6.672   3.057   3.585
 7323SOL     OW22867   1.557   2.595   2.099
 7323SOL    HW122868   1.571   2.496   2.110
 7323SOL    HW222869   1.494   2.627   2.170
 7324SOL     OW22870   4.381   5.981   1.938
 7324SOL    HW122871   4.363   5.956   1.843
 7324SOL    HW222872   4.295   6.006   1.983
 7325SOL     OW22873   3.168   0.170   0.328
 7325SOL    HW122874   3.130   0.093   0.379
 7325SOL    HW222875   3.193   0.243   0.391
 7326SOL     OW22876   2.523   5.982   6.650
 7326SOL    HW122877   2.504   6.070   6.693
 7326SOL    HW222878   2.437   5.942   6.618
 7327SOL     OW22879   6.380   1.651   6.127
 7327SOL    HW122880   6.430   1.575   6.084
 7327SOL    HW222881   6.372   1.726   6.063
 7328SOL     OW22882   3.087   1.143   5.610
 7328SOL    HW122883   3.058   1.134   5.706
 7328SOL    HW222884   3.029   1.084   5.553
 7329SOL     OW22885   6.256   4.367   1.455
 7329SOL    HW122886   6.217   4.455   1.428
 7329SOL    HW222887   6.334   4.383   1.516
 7330SOL     OW22888   2.423   2.536   6.546
 7330SOL    HW122889   2.358   2.516   6.620
 7330SOL    HW222890   2.404   2.476   6.469
 7331SOL     OW22891   5.026   6.528   1.578
 7331SOL    HW122892   5.057   6.541   1.672
 7331SOL    HW222893   5.104   6.528   1.516
 7332SOL     OW22894   2.753   5.934   0.333
 7332SOL    HW122895   2.835   5.984   0.360
 7332SOL    HW222896   2.687   5.997   0.290
 7333SOL     OW22897   6.826   2.877   2.050
 7333SOL    HW122898   6.824   2.976   2.061
 7333SOL    HW222899   6.888   2.853   1.975
 7334SOL     OW22900   2.769   5.843   6.981
 7334SOL    HW122901   2.729   5.762   7.024
 7334SOL    HW222902   2.852   5.817   6.931
 7335SOL     OW22903   2.125   2.389   3.233
 7335SOL    HW122904   2.104   2.392   3.135
 7335SOL    HW222905   2.180   2.469   3.258
 7336SOL     OW22906   1.794   6.630   2.944
 7336SOL    HW122907   1.850   6.557   2.906
 7336SOL    HW222908   1.807   6.714   2.892
 7337SOL     OW22909   0.666   3.158   1.342
 7337SOL    HW122910   0.757   3.117   1.337
 7337SOL    HW222911   0.632   3.152   1.436
 7338SOL     OW22912   5.603   1.719   1.399
 7338SOL    HW122913   5.627   1.623   1.409
 7338SOL    HW222914   5.687   1.774   1.392
 7339SOL     OW22915   6.061   0.038   3.764
 7339SOL    HW122916   6.015   0.077   3.685
 7339SOL    HW222917   6.040   0.092   3.846
 7340SOL     OW22918   3.421   1.605   0.214
 7340SOL    HW122919   3.486   1.575   0.284
 7340SOL    HW222920   3.454   1.577   0.123
 7341SOL     OW22921   0.805   4.004   6.292
 7341SOL    HW122922   0.903   4.016   6.313
 7341SOL    HW222923   0.777   4.072   6.224
 7342SOL     OW22924   0.508   1.830   0.540
 7342SOL    HW122925   0.422   1.800   0.580
 7342SOL    HW222926   0.501   1.925   0.511
 7343SOL     OW22927   6.016   3.648   1.338
 7343SOL    HW122928   6.084   3.577   1.320
 7343SOL    HW222929   6.025   3.678   1.433
 7344SOL     OW22930   1.342   1.278   6.182
 7344SOL    HW122931   1.395   1.202   6.219
 7344SOL    HW222932   1.385   1.364   6.208
 7345SOL     OW22933   4.186   4.874   5.169
 7345SOL    HW122934   4.093   4.860   5.202
 7345SOL    HW222935   4.247   4.807   5.211
 7346SOL     OW22936   4.244   4.714   2.049
 7346SOL    HW122937   4.337   4.717   2.086
 7346SOL    HW222938   4.182   4.680   2.120
 7347SOL     OW22939   0.490   2.398   0.374
 7347SOL    HW122940   0.478   2.483   0.322
 7347SOL    HW222941   0.539   2.331   0.317
 7348SOL     OW22942   1.729   3.650   4.465
 7348SOL    HW122943   1.759   3.702   4.385
 7348SOL    HW222944   1.780   3.564   4.470
 7349SOL     OW22945   4.794   1.427   1.378
 7349SOL    HW122946   4.873   1.485   1.394
 7349SOL    HW222947   4.795   1.351   1.442
 7350SOL     OW22948   2.384   2.959   5.708
 7350SOL    HW122949   2.325   2.906   5.770
 7350SOL    HW222950   2.341   3.048   5.691
 7351SOL     OW22951   5.629   5.929   4.851
 7351SOL    HW122952   5.621   5.850   4.913
 7351SOL    HW222953   5.607   5.900   4.758
 7352SOL     OW22954   2.142   1.070   3.269
 7352SOL    HW122955   2.183   0.979   3.280
 7352SOL    HW222956   2.152   1.121   3.355
 7353SOL     OW22957   0.623   6.624   6.028
 7353SOL    HW122958   0.558   6.700   6.026
 7353SOL    HW222959   0.622   6.577   5.940
 7354SOL     OW22960   0.818   2.277   5.005
 7354SOL    HW122961   0.816   2.281   4.905
 7354SOL    HW222962   0.896   2.330   5.038
 7355SOL     OW22963   1.339   0.631   1.107
 7355SOL    HW122964   1.381   0.630   1.016
 7355SOL    HW222965   1.369   0.713   1.156
 7356SOL     OW22966   3.874   3.883   6.054
 7356SOL    HW122967   3.849   3.945   6.128
 7356SOL    HW222968   3.850   3.789   6.079
 7357SOL     OW22969   3.549   0.089   1.899
 7357SOL    HW122970   3.563   0.081   1.801
 7357SOL    HW222971   3.572   0.182   1.928
 7358SOL     OW22972   6.294   3.552   2.630
 7358SOL    HW122973   6.223   3.578   2.565
 7358SOL    HW222974   6.381   3.542   2.581
 7359SOL     OW22975   4.007   2.121   5.753
 7359SOL    HW122976   4.051   2.034   5.778
 7359SOL    HW222977   3.935   2.142   5.819
 7360SOL     OW22978   2.965   3.456   5.809
 7360SOL    HW122979   2.924   3.387   5.749
 7360SOL    HW222980   3.006   3.528   5.753
 7361SOL     OW22981   4.315   0.539   1.987
 7361SOL    HW122982   4.285   0.610   1.925
 7361SOL    HW222983   4.357   0.580   2.068
 7362SOL     OW22984   1.673   5.080   6.039
 7362SOL    HW122985   1.663   5.177   6.058
 7362SOL    HW222986   1.684   5.030   6.125
 7363SOL     OW22987   4.448   1.893   1.575
 7363SOL    HW122988   4.542   1.891   1.609
 7363SOL    HW222989   4.411   1.800   1.576
 7364SOL     OW22990   4.650   0.384   1.614
 7364SOL    HW122991   4.628   0.426   1.526
 7364SOL    HW222992   4.618   0.443   1.688
 7365SOL     OW22993   0.150   5.847   1.858
 7365SOL    HW122994   0.173   5.754   1.830
 7365SOL    HW222995   0.071   5.879   1.806
 7366SOL     OW22996   2.862   6.067   0.037
 7366SOL    HW122997   2.776   6.093   0.080
 7366SOL    HW222998   2.850   5.981   7.015
 7367SOL     OW22999   5.393   2.718   1.339
 7367SOL    HW123000   5.423   2.623   1.325
 7367SOL    HW223001   5.395   2.739   1.437
 7368SOL     OW23002   3.790   2.901   2.601
 7368SOL    HW123003   3.825   2.948   2.681
 7368SOL    HW223004   3.741   2.818   2.630
 7369SOL     OW23005   3.644   2.071   0.610
 7369SOL    HW123006   3.720   2.093   0.548
 7369SOL    HW223007   3.562   2.118   0.579
 7370SOL     OW23008   2.390   0.838   4.503
 7370SOL    HW123009   2.453   0.803   4.433
 7370SOL    HW223010   2.326   0.766   4.530
 7371SOL     OW23011   2.536   6.308   3.677
 7371SOL    HW123012   2.624   6.290   3.633
 7371SOL    HW223013   2.548   6.376   3.749
 7372SOL     OW23014   4.923   1.097   4.289
 7372SOL    HW123015   4.971   1.033   4.349
 7372SOL    HW223016   4.935   1.191   4.323
 7373SOL     OW23017   6.358   1.761   3.631
 7373SOL    HW123018   6.259   1.749   3.630
 7373SOL    HW223019   6.383   1.826   3.703
 7374SOL     OW23020   3.003   1.472   5.051
 7374SOL    HW123021   2.928   1.538   5.056
 7374SOL    HW223022   2.998   1.409   5.129
 7375SOL     OW23023   2.632   2.490   3.002
 7375SOL    HW123024   2.656   2.464   2.908
 7375SOL    HW223025   2.704   2.460   3.064
 7376SOL     OW23026   2.082   2.252   0.506
 7376SOL    HW123027   2.091   2.233   0.604
 7376SOL    HW223028   1.986   2.251   0.481
 7377SOL     OW23029   5.475   4.701   0.683
 7377SOL    HW123030   5.398   4.762   0.700
 7377SOL    HW223031   5.495   4.648   0.766
 7378SOL     OW23032   0.452   0.671   5.883
 7378SOL    HW123033   0.489   0.756   5.846
 7378SOL    HW223034   0.400   0.623   5.813
 7379SOL     OW23035   3.118   1.866   2.650
 7379SOL    HW123036   3.037   1.817   2.616
 7379SOL    HW223037   3.194   1.851   2.588
 7380SOL     OW23038   7.019   4.430   3.997
 7380SOL    HW123039   0.009   4.355   4.059
 7380SOL    HW223040   0.074   4.450   3.944
 7381SOL     OW23041   4.077   3.193   0.793
 7381SOL    HW123042   4.019   3.115   0.772
 7381SOL    HW223043   4.157   3.162   0.845
 7382SOL     OW23044   0.848   7.019   5.403
 7382SOL    HW123045   0.910   0.070   5.412
 7382SOL    HW223046   0.834   6.978   5.493
 7383SOL     OW23047   2.567   6.310   1.136
 7383SOL    HW123048   2.480   6.262   1.131
 7383SOL    HW223049   2.594   6.321   1.232
 7384SOL     OW23050   6.122   6.504   2.856
 7384SOL    HW123051   6.141   6.593   2.896
 7384SOL    HW223052   6.024   6.487   2.857
 7385SOL     OW23053   3.432   5.889   2.750
 7385SOL    HW123054   3.333   5.881   2.742
 7385SOL    HW223055   3.457   5.891   2.847
 7386SOL     OW23056   0.299   2.560   0.012
 7386SOL    HW123057   0.263   2.562   0.106
 7386SOL    HW223058   0.223   2.563   6.975
 7387SOL     OW23059   5.998   6.171   5.432
 7387SOL    HW123060   5.912   6.138   5.393
 7387SOL    HW223061   6.004   6.143   5.528
 7388SOL     OW23062   0.948   5.695   2.418
 7388SOL    HW123063   0.858   5.651   2.413
 7388SOL    HW223064   0.937   5.794   2.412
 7389SOL     OW23065   5.876   4.073   5.983
 7389SOL    HW123066   5.847   3.981   5.955
 7389SOL    HW223067   5.918   4.119   5.906
 7390SOL     OW23068   1.714   2.114   1.057
 7390SOL    HW123069   1.732   2.092   0.961
 7390SOL    HW223070   1.622   2.151   1.066
 7391SOL     OW23071   4.075   3.484   3.711
 7391SOL    HW123072   4.049   3.412   3.776
 7391SOL    HW223073   4.168   3.468   3.679
 7392SOL     OW23074   2.896   6.197   6.790
 7392SOL    HW123075   2.871   6.144   6.870
 7392SOL    HW223076   2.814   6.234   6.746
 7393SOL     OW23077   6.134   4.737   2.657
 7393SOL    HW123078   6.062   4.668   2.660
 7393SOL    HW223079   6.214   4.703   2.707
 7394SOL     OW23080   2.237   2.829   5.924
 7394SOL    HW123081   2.157   2.856   5.978
 7394SOL    HW223082   2.273   2.743   5.959
 7395SOL     OW23083   1.596   3.046   1.505
 7395SOL    HW123084   1.523   3.099   1.550
 7395SOL    HW223085   1.683   3.094   1.517
 7396SOL     OW23086   1.649   6.369   1.419
 7396SOL    HW123087   1.671   6.414   1.505
 7396SOL    HW223088   1.733   6.332   1.378
 7397SOL     OW23089   4.376   5.645   4.374
 7397SOL    HW123090   4.441   5.641   4.450
 7397SOL    HW223091   4.373   5.738   4.337
 7398SOL     OW23092   1.409   4.620   3.600
 7398SOL    HW123093   1.384   4.713   3.625
 7398SOL    HW223094   1.328   4.562   3.600
 7399SOL     OW23095   0.718   2.963   4.461
 7399SOL    HW123096   0.675   3.012   4.536
 7399SOL    HW223097   0.718   2.865   4.480
 7400SOL     OW23098   4.386   3.011   5.932
 7400SOL    HW123099   4.383   3.069   6.014
 7400SOL    HW223100   4.383   3.069   5.850
 7401SOL     OW23101   1.262   2.707   3.742
 7401SOL    HW123102   1.351   2.675   3.708
 7401SOL    HW223103   1.193   2.636   3.727
 7402SOL     OW23104   2.927   5.450   6.525
 7402SOL    HW123105   2.976   5.533   6.551
 7402SOL    HW223106   2.897   5.401   6.607
 7403SOL     OW23107   1.842   3.696   2.052
 7403SOL    HW123108   1.935   3.732   2.052
 7403SOL    HW223109   1.844   3.598   2.031
 7404SOL     OW23110   2.285   4.851   1.910
 7404SOL    HW123111   2.230   4.768   1.905
 7404SOL    HW223112   2.340   4.850   1.993
 7405SOL     OW23113   3.667   5.022   4.898
 7405SOL    HW123114   3.693   5.118   4.902
 7405SOL    HW223115   3.577   5.013   4.855
 7406SOL     OW23116   0.234   2.713   3.482
 7406SOL    HW123117   0.289   2.733   3.401
 7406SOL    HW223118   0.213   2.615   3.485
 7407SOL     OW23119   0.929   6.736   5.402
 7407SOL    HW123120   0.860   6.690   5.346
 7407SOL    HW223121   0.930   6.833   5.379
 7408SOL     OW23122   3.402   4.034   6.966
 7408SOL    HW123123   3.486   4.082   6.989
 7408SOL    HW223124   3.337   4.041   0.014
 7409SOL     OW23125   5.088   3.277   0.098
 7409SOL    HW123126   5.072   3.210   0.171
 7409SOL    HW223127   5.073   3.233   0.010
 7410SOL     OW23128   0.253   0.409   0.566
 7410SOL    HW123129   0.159   0.412   0.602
 7410SOL    HW223130   0.261   0.469   0.487
 7411SOL     OW23131   1.875   0.583   6.640
 7411SOL    HW123132   1.780   0.598   6.614
 7411SOL    HW223133   1.935   0.627   6.574
 7412SOL     OW23134   4.715   0.600   1.963
 7412SOL    HW123135   4.708   0.531   2.035
 7412SOL    HW223136   4.716   0.691   2.005
 7413SOL     OW23137   4.729   5.510   3.802
 7413SOL    HW123138   4.748   5.578   3.873
 7413SOL    HW223139   4.657   5.448   3.834
 7414SOL     OW23140   0.980   1.240   3.337
 7414SOL    HW123141   0.916   1.288   3.277
 7414SOL    HW223142   0.947   1.147   3.354
 7415SOL     OW23143   1.513   4.692   4.497
 7415SOL    HW123144   1.555   4.699   4.406
 7415SOL    HW223145   1.583   4.663   4.563
 7416SOL     OW23146   2.090   1.363   2.456
 7416SOL    HW123147   2.119   1.291   2.519
 7416SOL    HW223148   2.002   1.399   2.485
 7417SOL     OW23149   2.142   2.065   1.275
 7417SOL    HW123150   2.188   2.056   1.187
 7417SOL    HW223151   2.053   2.108   1.262
 7418SOL     OW23152   2.293   5.751   0.438
 7418SOL    HW123153   2.194   5.741   0.441
 7418SOL    HW223154   2.336   5.677   0.490
 7419SOL     OW23155   6.984   3.592   4.446
 7419SOL    HW123156   6.960   3.672   4.501
 7419SOL    HW223157   0.048   3.561   4.471
 7420SOL     OW23158   0.467   6.170   1.657
 7420SOL    HW123159   0.449   6.266   1.680
 7420SOL    HW223160   0.426   6.111   1.726
 7421SOL     OW23161   4.092   3.742   1.348
 7421SOL    HW123162   4.047   3.771   1.264
 7421SOL    HW223163   4.190   3.731   1.331
 7422SOL     OW23164   0.257   4.201   1.974
 7422SOL    HW123165   0.182   4.267   1.984
 7422SOL    HW223166   0.310   4.222   1.892
 7423SOL     OW23167   6.399   3.138   5.803
 7423SOL    HW123168   6.403   3.218   5.864
 7423SOL    HW223169   6.471   3.145   5.734
 7424SOL     OW23170   0.005   0.543   5.428
 7424SOL    HW123171   6.975   0.606   5.480
 7424SOL    HW223172   0.072   0.501   5.489
 7425SOL     OW23173   4.215   6.477   0.279
 7425SOL    HW123174   4.292   6.422   0.312
 7425SOL    HW223175   4.237   6.513   0.188
 7426SOL     OW23176   3.397   1.624   5.419
 7426SOL    HW123177   3.390   1.690   5.345
 7426SOL    HW223178   3.308   1.582   5.436
 7427SOL     OW23179   5.089   0.630   3.224
 7427SOL    HW123180   5.013   0.694   3.223
 7427SOL    HW223181   5.138   0.638   3.311
 7428SOL     OW23182   4.641   1.871   5.231
 7428SOL    HW123183   4.623   1.926   5.149
 7428SOL    HW223184   4.559   1.871   5.289
 7429SOL     OW23185   0.103   6.560   3.846
 7429SOL    HW123186   0.143   6.557   3.754
 7429SOL    HW223187   0.087   6.656   3.872
 7430SOL     OW23188   1.360   3.542   0.746
 7430SOL    HW123189   1.286   3.591   0.702
 7430SOL    HW223190   1.386   3.588   0.831
 7431SOL     OW23191   1.160   2.534   2.654
 7431SOL    HW123192   1.148   2.445   2.699
 7431SOL    HW223193   1.079   2.590   2.669
 7432SOL     OW23194   0.742   0.515   3.254
 7432SOL    HW123195   0.719   0.463   3.171
 7432SOL    HW223196   0.762   0.451   3.328
 7433SOL     OW23197   4.496   5.703   6.230
 7433SOL    HW123198   4.540   5.614   6.239
 7433SOL    HW223199   4.437   5.720   6.309
 7434SOL     OW23200   4.715   5.071   5.099
 7434SOL    HW123201   4.778   5.001   5.130
 7434SOL    HW223202   4.766   5.150   5.064
 7435SOL     OW23203   4.295   5.890   1.669
 7435SOL    HW123204   4.299   5.858   1.574
 7435SOL    HW223205   4.257   5.982   1.671
 7436SOL     OW23206   4.155   4.223   6.393
 7436SOL    HW123207   4.219   4.299   6.396
 7436SOL    HW223208   4.185   4.151   6.456
 7437SOL     OW23209   2.081   5.694   0.108
 7437SOL    HW123210   2.095   5.634   0.029
 7437SOL    HW223211   2.004   5.756   0.090
 7438SOL     OW23212   1.081   6.178   0.533
 7438SOL    HW123213   1.064   6.242   0.607
 7438SOL    HW223214   1.098   6.229   0.448
 7439SOL     OW23215   1.838   6.721   5.991
 7439SOL    HW123216   1.757   6.731   6.049
 7439SOL    HW223217   1.907   6.788   6.020
 7440SOL     OW23218   0.223   2.977   3.850
 7440SOL    HW123219   0.316   2.961   3.817
 7440SOL    HW223220   0.226   3.003   3.946
 7441SOL     OW23221   5.017   6.868   4.261
 7441SOL    HW123222   5.104   6.820   4.247
 7441SOL    HW223223   4.957   6.852   4.183
 7442SOL     OW23224   6.133   1.462   6.142
 7442SOL    HW123225   6.221   1.500   6.114
 7442SOL    HW223226   6.068   1.536   6.157
 7443SOL     OW23227   6.363   6.420   1.632
 7443SOL    HW123228   6.270   6.388   1.651
 7443SOL    HW223229   6.428   6.347   1.654
 7444SOL     OW23230   5.462   2.526   6.740
 7444SOL    HW123231   5.444   2.452   6.804
 7444SOL    HW223232   5.466   2.489   6.647
 7445SOL     OW23233   3.949   0.528   1.335
 7445SOL    HW123234   4.038   0.492   1.308
 7445SOL    HW223235   3.960   0.590   1.413
 7446SOL     OW23236   5.499   3.179   0.588
 7446SOL    HW123237   5.520   3.145   0.680
 7446SOL    HW223238   5.529   3.113   0.520
 7447SOL     OW23239   6.679   3.963   7.008
 7447SOL    HW123240   6.643   3.874   6.979
 7447SOL    HW223241   6.751   3.991   6.944
 7448SOL     OW23242   6.646   6.912   5.097
 7448SOL    HW123243   6.657   6.815   5.075
 7448SOL    HW223244   6.708   6.966   5.040
 7449SOL     OW23245   0.494   4.316   1.881
 7449SOL    HW123246   0.543   4.270   1.807
 7449SOL    HW223247   0.557   4.330   1.958
 7450SOL     OW23248   5.586   2.796   5.330
 7450SOL    HW123249   5.492   2.787   5.297
 7450SOL    HW223250   5.642   2.724   5.289
 7451SOL     OW23251   6.515   5.556   2.751
 7451SOL    HW123252   6.569   5.633   2.717
 7451SOL    HW223253   6.430   5.549   2.699
 7452SOL     OW23254   6.119   6.016   4.059
 7452SOL    HW123255   6.103   6.088   3.991
 7452SOL    HW223256   6.033   5.969   4.079
 7453SOL     OW23257   5.532   5.285   4.963
 7453SOL    HW123258   5.489   5.254   5.048
 7453SOL    HW223259   5.536   5.385   4.962
 7454SOL     OW23260   1.467   2.013   0.909
 7454SOL    HW123261   1.459   2.111   0.888
 7454SOL    HW223262   1.393   1.986   0.971
 7455SOL     OW23263   6.801   2.719   1.303
 7455SOL    HW123264   6.740   2.738   1.227
 7455SOL    HW223265   6.827   2.622   1.302
 7456SOL     OW23266   1.220   0.788   4.800
 7456SOL    HW123267   1.263   0.703   4.830
 7456SOL    HW223268   1.127   0.793   4.836
 7457SOL     OW23269   3.413   1.063   5.175
 7457SOL    HW123270   3.405   1.104   5.266
 7457SOL    HW223271   3.460   0.975   5.182
 7458SOL     OW23272   2.146   6.564   6.287
 7458SOL    HW123273   2.246   6.568   6.291
 7458SOL    HW223274   2.108   6.650   6.320
 7459SOL     OW23275   5.279   0.089   1.741
 7459SOL    HW123276   5.224   0.172   1.753
 7459SOL    HW223277   5.246   0.017   1.802
 7460SOL     OW23278   0.696   4.996   0.619
 7460SOL    HW123279   0.620   5.051   0.653
 7460SOL    HW223280   0.661   4.920   0.565
 7461SOL     OW23281   6.026   6.746   6.798
 7461SOL    HW123282   6.023   6.768   6.700
 7461SOL    HW223283   6.029   6.831   6.850
 7462SOL     OW23284   1.291   4.257   1.912
 7462SOL    HW123285   1.287   4.287   1.816
 7462SOL    HW223286   1.198   4.238   1.944
 7463SOL     OW23287   2.658   4.678   0.839
 7463SOL    HW123288   2.619   4.757   0.792
 7463SOL    HW223289   2.733   4.709   0.898
 7464SOL     OW23290   5.359   6.885   6.247
 7464SOL    HW123291   5.435   6.841   6.200
 7464SOL    HW223292   5.290   6.816   6.272
 7465SOL     OW23293   2.622   5.585   6.571
 7465SOL    HW123294   2.704   5.640   6.574
 7465SOL    HW223295   2.638   5.498   6.619
 7466SOL     OW23296   6.991   0.290   5.065
 7466SOL    HW123297   7.021   0.362   5.128
 7466SOL    HW223298   6.900   0.257   5.093
 7467SOL     OW23299   0.252   1.081   6.909
 7467SOL    HW123300   0.271   1.120   6.819
 7467SOL    HW223301   0.330   1.097   6.970
 7468SOL     OW23302   6.147   3.068   3.504
 7468SOL    HW123303   6.157   3.028   3.413
 7468SOL    HW223304   6.234   3.062   3.553
 7469SOL     OW23305   6.746   0.457   0.076
 7469SOL    HW123306   6.788   0.448   0.167
 7469SOL    HW223307   6.667   0.518   0.083
 7470SOL     OW23308   6.190   3.538   3.273
 7470SOL    HW123309   6.144   3.454   3.245
 7470SOL    HW223310   6.154   3.567   3.362
 7471SOL     OW23311   5.141   6.874   5.471
 7471SOL    HW123312   5.132   6.916   5.380
 7471SOL    HW223313   5.145   6.775   5.461
 7472SOL     OW23314   5.676   0.969   6.089
 7472SOL    HW123315   5.631   1.057   6.102
 7472SOL    HW223316   5.775   0.981   6.090
 7473SOL     OW23317   5.247   5.430   3.848
 7473SOL    HW123318   5.207   5.449   3.938
 7473SOL    HW223319   5.310   5.353   3.856
 7474SOL     OW23320   0.044   1.760   6.075
 7474SOL    HW123321   0.037   1.696   6.151
 7474SOL    HW223322   6.986   1.810   6.065
 7475SOL     OW23323   5.067   2.466   2.389
 7475SOL    HW123324   5.142   2.531   2.391
 7475SOL    HW223325   4.997   2.497   2.324
 7476SOL     OW23326   3.467   1.115   3.355
 7476SOL    HW123327   3.547   1.065   3.323
 7476SOL    HW223328   3.490   1.212   3.365
 7477SOL     OW23329   6.824   2.156   5.260
 7477SOL    HW123330   6.815   2.251   5.292
 7477SOL    HW223331   6.765   2.097   5.316
 7478SOL     OW23332   6.517   3.873   5.638
 7478SOL    HW123333   6.578   3.842   5.710
 7478SOL    HW223334   6.443   3.927   5.679
 7479SOL     OW23335   4.161   1.792   2.298
 7479SOL    HW123336   4.129   1.843   2.378
 7479SOL    HW223337   4.236   1.732   2.325
 7480SOL     OW23338   1.378   4.988   2.342
 7480SOL    HW123339   1.461   4.988   2.286
 7480SOL    HW223340   1.336   4.897   2.340
 7481SOL     OW23341   5.639   5.474   0.869
 7481SOL    HW123342   5.625   5.518   0.780
 7481SOL    HW223343   5.736   5.471   0.890
 7482SOL     OW23344   4.388   2.416   2.732
 7482SOL    HW123345   4.387   2.393   2.634
 7482SOL    HW223346   4.297   2.405   2.770
 7483SOL     OW23347   5.043   3.385   4.161
 7483SOL    HW123348   5.064   3.301   4.211
 7483SOL    HW223349   5.080   3.379   4.068
 7484SOL     OW23350   1.413   6.296   3.937
 7484SOL    HW123351   1.363   6.346   3.867
 7484SOL    HW223352   1.396   6.337   4.027
 7485SOL     OW23353   3.184   0.363   4.285
 7485SOL    HW123354   3.121   0.323   4.352
 7485SOL    HW223355   3.132   0.402   4.209
 7486SOL     OW23356   1.229   5.998   0.674
 7486SOL    HW123357   1.195   6.071   0.614
 7486SOL    HW223358   1.261   5.922   0.618
 7487SOL     OW23359   2.397   0.573   2.823
 7487SOL    HW123360   2.471   0.638   2.841
 7487SOL    HW223361   2.339   0.565   2.903
 7488SOL     OW23362   2.670   5.371   4.896
 7488SOL    HW123363   2.719   5.392   4.980
 7488SOL    HW223364   2.688   5.276   4.869
 7489SOL     OW23365   5.952   2.577   6.087
 7489SOL    HW123366   5.880   2.605   6.150
 7489SOL    HW223367   5.950   2.635   6.006
 7490SOL     OW23368   1.316   0.337   3.107
 7490SOL    HW123369   1.312   0.237   3.101
 7490SOL    HW223370   1.381   0.372   3.039
 7491SOL     OW23371   4.037   3.324   6.355
 7491SOL    HW123372   3.948   3.369   6.350
 7491SOL    HW223373   4.033   3.252   6.425
 7492SOL     OW23374   1.790   0.584   3.576
 7492SOL    HW123375   1.694   0.583   3.548
 7492SOL    HW223376   1.804   0.516   3.648
 7493SOL     OW23377   0.761   3.076   6.428
 7493SOL    HW123378   0.838   3.014   6.441
 7493SOL    HW223379   0.772   3.124   6.341
 7494SOL     OW23380   5.829   1.319   3.065
 7494SOL    HW123381   5.904   1.304   3.000
 7494SOL    HW223382   5.866   1.356   3.150
 7495SOL     OW23383   1.751   2.278   6.922
 7495SOL    HW123384   1.674   2.258   6.983
 7495SOL    HW223385   1.816   2.202   6.926
 7496SOL     OW23386   6.685   3.590   3.376
 7496SOL    HW123387   6.741   3.509   3.394
 7496SOL    HW223388   6.697   3.619   3.281
 7497SOL     OW23389   1.863   4.315   1.580
 7497SOL    HW123390   1.959   4.286   1.586
 7497SOL    HW223391   1.840   4.335   1.485
 7498SOL     OW23392   2.779   1.059   5.251
 7498SOL    HW123393   2.785   1.107   5.164
 7498SOL    HW223394   2.685   1.063   5.285
 7499SOL     OW23395   4.390   2.078   3.218
 7499SOL    HW123396   4.486   2.085   3.189
 7499SOL    HW223397   4.377   1.991   3.266
 7500SOL     OW23398   3.303   5.939   3.579
 7500SOL    HW123399   3.262   5.938   3.488
 7500SOL    HW223400   3.364   5.860   3.590
 7501SOL     OW23401   5.253   3.979   4.786
 7501SOL    HW123402   5.243   3.891   4.833
 7501SOL    HW223403   5.171   4.034   4.801
 7502SOL     OW23404   2.743   1.141   4.377
 7502SOL    HW123405   2.708   1.097   4.294
 7502SOL    HW223406   2.843   1.141   4.375
 7503SOL     OW23407   2.254   6.724   1.650
 7503SOL    HW123408   2.246   6.772   1.737
 7503SOL    HW223409   2.274   6.790   1.577
 7504SOL     OW23410   0.677   5.983   3.833
 7504SOL    HW123411   0.691   6.029   3.921
 7504SOL    HW223412   0.683   5.884   3.845
 7505SOL     OW23413   1.562   2.922   5.706
 7505SOL    HW123414   1.645   2.874   5.680
 7505SOL    HW223415   1.483   2.876   5.667
 7506SOL     OW23416   5.684   1.828   3.602
 7506SOL    HW123417   5.755   1.893   3.628
 7506SOL    HW223418   5.620   1.872   3.538
 7507SOL     OW23419   6.425   1.690   2.437
 7507SOL    HW123420   6.519   1.660   2.455
 7507SOL    HW223421   6.400   1.668   2.343
 7508SOL     OW23422   1.686   5.940   1.022
 7508SOL    HW123423   1.619   5.918   0.952
 7508SOL    HW223424   1.685   5.870   1.093
 7509SOL     OW23425   6.392   3.769   0.792
 7509SOL    HW123426   6.369   3.835   0.721
 7509SOL    HW223427   6.491   3.767   0.805
 7510SOL     OW23428   2.867   3.486   5.250
 7510SOL    HW123429   2.862   3.397   5.205
 7510SOL    HW223430   2.826   3.480   5.341
 7511SOL     OW23431   2.613   5.935   3.337
 7511SOL    HW123432   2.713   5.929   3.334
 7511SOL    HW223433   2.579   5.889   3.419
 7512SOL     OW23434   3.183   0.458   6.469
 7512SOL    HW123435   3.150   0.535   6.524
 7512SOL    HW223436   3.120   0.444   6.392
 7513SOL     OW23437   1.241   1.492   1.719
 7513SOL    HW123438   1.258   1.590   1.727
 7513SOL    HW223439   1.283   1.457   1.635
 7514SOL     OW23440   2.330   4.794   2.572
 7514SOL    HW123441   2.325   4.893   2.585
 7514SOL    HW223442   2.418   4.760   2.603
 7515SOL     OW23443   6.847   5.350   4.627
 7515SOL    HW123444   6.760   5.379   4.588
 7515SOL    HW223445   6.913   5.425   4.622
 7516SOL     OW23446   6.662   5.446   6.149
 7516SOL    HW123447   6.585   5.475   6.206
 7516SOL    HW223448   6.663   5.346   6.144
 7517SOL     OW23449   7.007   1.796   0.302
 7517SOL    HW123450   0.048   1.764   0.368
 7517SOL    HW223451   6.924   1.742   0.313
 7518SOL     OW23452   4.900   3.892   4.269
 7518SOL    HW123453   4.893   3.813   4.209
 7518SOL    HW223454   4.874   3.866   4.362
 7519SOL     OW23455   0.079   6.324   4.573
 7519SOL    HW123456   0.159   6.270   4.546
 7519SOL    HW223457   0.033   6.280   4.651
 7520SOL     OW23458   2.348   0.517   2.569
 7520SOL    HW123459   2.374   0.521   2.665
 7520SOL    HW223460   2.383   0.433   2.528
 7521SOL     OW23461   4.862   2.806   5.553
 7521SOL    HW123462   4.811   2.758   5.482
 7521SOL    HW223463   4.868   2.749   5.635
 7522SOL     OW23464   1.481   1.126   5.931
 7522SOL    HW123465   1.408   1.135   5.864
 7522SOL    HW223466   1.450   1.161   6.019
 7523SOL     OW23467   4.698   0.277   6.145
 7523SOL    HW123468   4.617   0.331   6.122
 7523SOL    HW223469   4.751   0.325   6.215
 7524SOL     OW23470   0.996   2.676   4.878
 7524SOL    HW123471   0.938   2.719   4.808
 7524SOL    HW223472   1.084   2.723   4.881
 7525SOL     OW23473   3.527   0.398   6.996
 7525SOL    HW123474   3.467   0.448   0.030
 7525SOL    HW223475   3.577   0.462   6.937
 7526SOL     OW23476   2.866   3.227   1.272
 7526SOL    HW123477   2.880   3.129   1.280
 7526SOL    HW223478   2.954   3.275   1.281
 7527SOL     OW23479   3.060   6.218   3.922
 7527SOL    HW123480   3.139   6.222   3.860
 7527SOL    HW223481   3.039   6.311   3.954
 7528SOL     OW23482   6.462   2.298   6.573
 7528SOL    HW123483   6.386   2.274   6.513
 7528SOL    HW223484   6.467   2.397   6.582
 7529SOL     OW23485   5.779   1.576   4.616
 7529SOL    HW123486   5.749   1.663   4.577
 7529SOL    HW223487   5.705   1.509   4.606
 7530SOL     OW23488   6.865   2.340   2.489
 7530SOL    HW123489   6.834   2.276   2.559
 7530SOL    HW223490   6.939   2.298   2.435
 7531SOL     OW23491   5.658   3.235   4.381
 7531SOL    HW123492   5.648   3.300   4.456
 7531SOL    HW223493   5.658   3.142   4.417
 7532SOL     OW23494   4.087   6.249   0.676
 7532SOL    HW123495   4.150   6.263   0.752
 7532SOL    HW223496   4.078   6.334   0.624
 7533SOL     OW23497   3.435   1.839   1.635
 7533SOL    HW123498   3.415   1.742   1.643
 7533SOL    HW223499   3.350   1.891   1.644
 7534SOL     OW23500   4.846   6.125   5.034
 7534SOL    HW123501   4.927   6.180   5.014
 7534SOL    HW223502   4.764   6.178   5.012
 7535SOL     OW23503   1.929   0.044   4.599
 7535SOL    HW123504   1.971   0.091   4.676
 7535SOL    HW223505   1.960   0.086   4.513
 7536SOL     OW23506   5.310   4.249   4.170
 7536SOL    HW123507   5.395   4.202   4.146
 7536SOL    HW223508   5.242   4.183   4.200
 7537SOL     OW23509   1.854   4.964   2.448
 7537SOL    HW123510   1.803   5.023   2.510
 7537SOL    HW223511   1.952   4.976   2.463
 7538SOL     OW23512   1.974   2.473   1.732
 7538SOL    HW123513   1.923   2.519   1.805
 7538SOL    HW223514   2.070   2.500   1.737
 7539SOL     OW23515   1.495   3.472   4.393
 7539SOL    HW123516   1.431   3.447   4.320
 7539SOL    HW223517   1.542   3.557   4.368
 7540SOL     OW23518   4.461   0.865   5.049
 7540SOL    HW123519   4.561   0.871   5.044
 7540SOL    HW223520   4.424   0.847   4.957
 7541SOL     OW23521   0.627   3.893   5.087
 7541SOL    HW123522   0.531   3.905   5.113
 7541SOL    HW223523   0.632   3.839   5.004
 7542SOL     OW23524   0.773   5.613   7.011
 7542SOL    HW123525   0.872   5.628   7.008
 7542SOL    HW223526   0.726   5.688   6.964
 7543SOL     OW23527   3.718   0.992   5.292
 7543SOL    HW123528   3.750   1.075   5.245
 7543SOL    HW223529   3.705   0.919   5.225
 7544SOL     OW23530   6.312   2.453   4.306
 7544SOL    HW123531   6.259   2.370   4.326
 7544SOL    HW223532   6.259   2.511   4.244
 7545SOL     OW23533   0.834   6.044   6.584
 7545SOL    HW123534   0.867   6.123   6.635
 7545SOL    HW223535   0.863   6.051   6.489
 7546SOL     OW23536   4.057   1.905   1.291
 7546SOL    HW123537   4.085   1.853   1.371
 7546SOL    HW223538   3.958   1.917   1.292
 7547SOL     OW23539   5.063   1.703   0.700
 7547SOL    HW123540   5.026   1.665   0.615
 7547SOL    HW223541   5.105   1.630   0.754
 7548SOL     OW23542   4.361   2.566   6.408
 7548SOL    HW123543   4.307   2.609   6.336
 7548SOL    HW223544   4.382   2.634   6.479
 7549SOL     OW23545   3.563   3.685   6.556
 7549SOL    HW123546   3.574   3.717   6.650
 7549SOL    HW223547   3.510   3.601   6.555
 7550SOL     OW23548   1.930   4.681   4.040
 7550SOL    HW123549   2.001   4.684   3.970
 7550SOL    HW223550   1.967   4.642   4.125
 7551SOL     OW23551   5.931   3.232   5.763
 7551SOL    HW123552   5.887   3.269   5.846
 7551SOL    HW223553   5.869   3.168   5.718
 7552SOL     OW23554   1.565   6.186   3.676
 7552SOL    HW123555   1.560   6.120   3.601
 7552SOL    HW223556   1.600   6.141   3.758
 7553SOL     OW23557   4.066   6.903   5.909
 7553SOL    HW123558   3.987   6.950   5.947
 7553SOL    HW223559   4.150   6.942   5.947
 7554SOL     OW23560   5.157   0.779   6.775
 7554SOL    HW123561   5.151   0.680   6.789
 7554SOL    HW223562   5.173   0.824   6.863
 7555SOL     OW23563   3.354   5.545   6.427
 7555SOL    HW123564   3.427   5.529   6.494
 7555SOL    HW223565   3.339   5.461   6.374
 7556SOL     OW23566   2.756   2.386   0.217
 7556SOL    HW123567   2.737   2.479   0.186
 7556SOL    HW223568   2.854   2.372   0.221
 7557SOL     OW23569   5.257   0.743   6.542
 7557SOL    HW123570   5.193   0.752   6.618
 7557SOL    HW223571   5.213   0.774   6.458
 7558SOL     OW23572   2.127   2.709   4.456
 7558SOL    HW123573   2.138   2.799   4.498
 7558SOL    HW223574   2.100   2.719   4.361
 7559SOL     OW23575   4.048   2.868   6.348
 7559SOL    HW123576   4.127   2.812   6.325
 7559SOL    HW223577   3.973   2.848   6.285
 7560SOL     OW23578   4.678   6.815   0.454
 7560SOL    HW123579   4.581   6.791   0.450
 7560SOL    HW223580   4.729   6.739   0.495
 7561SOL     OW23581   0.168   3.416   6.101
 7561SOL    HW123582   0.075   3.450   6.117
 7561SOL    HW223583   0.163   3.333   6.044
 7562SOL     OW23584   0.260   5.646   5.420
 7562SOL    HW123585   0.317   5.724   5.448
 7562SOL    HW223586   0.312   5.562   5.433
 7563SOL     OW23587   2.938   0.231   1.681
 7563SOL    HW123588   3.014   0.184   1.725
 7563SOL    HW223589   2.953   0.233   1.582
 7564SOL     OW23590   4.326   0.897   4.065
 7564SOL    HW123591   4.236   0.918   4.027
 7564SOL    HW223592   4.320   0.892   4.165
 7565SOL     OW23593   5.801   3.644   6.694
 7565SOL    HW123594   5.729   3.585   6.731
 7565SOL    HW223595   5.879   3.588   6.665
 7566SOL     OW23596   5.739   5.199   2.527
 7566SOL    HW123597   5.711   5.292   2.547
 7566SOL    HW223598   5.658   5.143   2.506
 7567SOL     OW23599   1.895   1.284   5.721
 7567SOL    HW123600   1.900   1.380   5.695
 7567SOL    HW223601   1.800   1.261   5.746
 7568SOL     OW23602   5.577   4.553   2.856
 7568SOL    HW123603   5.616   4.599   2.936
 7568SOL    HW223604   5.592   4.609   2.775
 7569SOL     OW23605   3.230   4.222   6.107
 7569SOL    HW123606   3.213   4.249   6.013
 7569SOL    HW223607   3.142   4.217   6.156
 7570SOL     OW23608   5.515   3.978   4.333
 7570SOL    HW123609   5.449   3.915   4.290
 7570SOL    HW223610   5.478   4.010   4.420
 7571SOL     OW23611   4.637   4.396   3.178
 7571SOL    HW123612   4.702   4.463   3.214
 7571SOL    HW223613   4.676   4.304   3.186
 7572SOL     OW23614   5.100   0.742   2.175
 7572SOL    HW123615   5.195   0.723   2.150
 7572SOL    HW223616   5.047   0.761   2.093
 7573SOL     OW23617   0.423   0.036   5.322
 7573SOL    HW123618   0.336   0.054   5.278
 7573SOL    HW223619   0.492   0.013   5.253
 7574SOL     OW23620   5.267   0.800   5.606
 7574SOL    HW123621   5.211   0.807   5.689
 7574SOL    HW223622   5.208   0.780   5.528
 7575SOL     OW23623   5.332   0.212   6.806
 7575SOL    HW123624   5.404   0.233   6.740
 7575SOL    HW223625   5.243   0.218   6.762
 7576SOL     OW23626   5.070   3.084   0.319
 7576SOL    HW123627   4.992   3.120   0.370
 7576SOL    HW223628   5.056   2.987   0.299
 7577SOL     OW23629   0.637   6.606   6.683
 7577SOL    HW123630   0.667   6.515   6.653
 7577SOL    HW223631   0.561   6.636   6.626
 7578SOL     OW23632   3.179   5.403   2.933
 7578SOL    HW123633   3.122   5.326   2.906
 7578SOL    HW223634   3.247   5.420   2.861
 7579SOL     OW23635   0.154   1.396   1.887
 7579SOL    HW123636   0.189   1.469   1.947
 7579SOL    HW223637   0.054   1.391   1.897
 7580SOL     OW23638   0.868   4.070   3.947
 7580SOL    HW123639   0.821   4.132   4.010
 7580SOL    HW223640   0.821   4.070   3.859
 7581SOL     OW23641   0.697   2.173   1.213
 7581SOL    HW123642   0.632   2.118   1.265
 7581SOL    HW223643   0.658   2.264   1.196
 7582SOL     OW23644   4.097   1.734   3.324
 7582SOL    HW123645   4.026   1.804   3.332
 7582SOL    HW223646   4.056   1.648   3.295
 7583SOL     OW23647   4.960   2.777   2.286
 7583SOL    HW123648   4.911   2.718   2.221
 7583SOL    HW223649   4.913   2.866   2.292
 7584SOL     OW23650   2.215   1.151   3.014
 7584SOL    HW123651   2.195   1.161   3.111
 7584SOL    HW223652   2.213   1.054   2.990
 7585SOL     OW23653   2.105   2.727   6.315
 7585SOL    HW123654   2.096   2.782   6.233
 7585SOL    HW223655   2.196   2.686   6.318
 7586SOL     OW23656   2.271   6.539   3.721
 7586SOL    HW123657   2.292   6.591   3.804
 7586SOL    HW223658   2.203   6.588   3.667
 7587SOL     OW23659   2.232   0.777   6.709
 7587SOL    HW123660   2.229   0.841   6.632
 7587SOL    HW223661   2.212   0.825   6.794
 7588SOL     OW23662   2.287   2.302   3.617
 7588SOL    HW123663   2.331   2.255   3.694
 7588SOL    HW223664   2.356   2.353   3.565
 7589SOL     OW23665   0.286   0.569   2.582
 7589SOL    HW123666   0.192   0.581   2.548
 7589SOL    HW223667   0.298   0.474   2.612
 7590SOL     OW23668   4.416   1.794   6.671
 7590SOL    HW123669   4.371   1.879   6.698
 7590SOL    HW223670   4.489   1.813   6.606
 7591SOL     OW23671   5.341   4.478   0.533
 7591SOL    HW123672   5.410   4.522   0.591
 7591SOL    HW223673   5.375   4.389   0.503
 7592SOL     OW23674   6.477   6.061   4.738
 7592SOL    HW123675   6.435   6.028   4.654
 7592SOL    HW223676   6.440   6.010   4.816
 7593SOL     OW23677   6.411   3.398   6.773
 7593SOL    HW123678   6.355   3.316   6.765
 7593SOL    HW223679   6.400   3.438   6.864
 7594SOL     OW23680   1.378   4.656   1.961
 7594SOL    HW123681   1.420   4.745   1.941
 7594SOL    HW223682   1.279   4.665   1.957
 7595SOL     OW23683   5.648   3.436   6.167
 7595SOL    HW123684   5.648   3.431   6.267
 7595SOL    HW223685   5.590   3.364   6.130
 7596SOL     OW23686   3.464   6.378   4.397
 7596SOL    HW123687   3.550   6.428   4.404
 7596SOL    HW223688   3.393   6.427   4.446
 7597SOL     OW23689   1.712   6.495   3.175
 7597SOL    HW123690   1.718   6.397   3.162
 7597SOL    HW223691   1.757   6.542   3.099
 7598SOL     OW23692   7.000   0.785   3.391
 7598SOL    HW123693   0.064   0.744   3.389
 7598SOL    HW223694   6.982   0.834   3.306
 7599SOL     OW23695   5.541   2.332   1.974
 7599SOL    HW123696   5.520   2.332   2.072
 7599SOL    HW223697   5.587   2.417   1.950
 7600SOL     OW23698   0.789   1.464   3.749
 7600SOL    HW123699   0.813   1.531   3.819
 7600SOL    HW223700   0.870   1.441   3.695
 7601SOL     OW23701   2.882   4.788   2.334
 7601SOL    HW123702   2.966   4.740   2.359
 7601SOL    HW223703   2.861   4.856   2.404
 7602SOL     OW23704   1.785   3.535   0.193
 7602SOL    HW123705   1.755   3.541   0.288
 7602SOL    HW223706   1.885   3.532   0.190
 7603SOL     OW23707   2.055   6.179   6.507
 7603SOL    HW123708   2.057   6.085   6.475
 7603SOL    HW223709   1.977   6.226   6.467
 7604SOL     OW23710   1.393   3.012   4.399
 7604SOL    HW123711   1.478   3.050   4.436
 7604SOL    HW223712   1.389   3.029   4.300
 7605SOL     OW23713   1.104   0.308   0.696
 7605SOL    HW123714   1.198   0.335   0.678
 7605SOL    HW223715   1.103   0.217   0.739
 7606SOL     OW23716   5.962   2.977   4.348
 7606SOL    HW123717   5.904   2.898   4.327
 7606SOL    HW223718   5.960   2.995   4.446
 7607SOL     OW23719   3.697   4.863   0.695
 7607SOL    HW123720   3.616   4.828   0.742
 7607SOL    HW223721   3.779   4.819   0.732
 7608SOL     OW23722   4.745   3.422   0.920
 7608SOL    HW123723   4.675   3.428   0.849
 7608SOL    HW223724   4.821   3.366   0.887
 7609SOL     OW23725   1.628   3.049   4.155
 7609SOL    HW123726   1.706   3.021   4.100
 7609SOL    HW223727   1.658   3.071   4.248
 7610SOL     OW23728   4.137   4.562   5.873
 7610SOL    HW123729   4.096   4.497   5.937
 7610SOL    HW223730   4.067   4.595   5.810
 7611SOL     OW23731   5.463   4.244   1.487
 7611SOL    HW123732   5.463   4.199   1.398
 7611SOL    HW223733   5.535   4.204   1.545
 7612SOL     OW23734   4.810   2.962   2.626
 7612SOL    HW123735   4.761   2.964   2.539
 7612SOL    HW223736   4.896   2.912   2.614
 7613SOL     OW23737   0.713   1.540   0.649
 7613SOL    HW123738   0.647   1.500   0.713
 7613SOL    HW223739   0.664   1.582   0.573
 7614SOL     OW23740   5.379   2.906   1.130
 7614SOL    HW123741   5.460   2.892   1.072
 7614SOL    HW223742   5.387   2.849   1.212
 7615SOL     OW23743   3.920   4.690   6.464
 7615SOL    HW123744   3.988   4.660   6.531
 7615SOL    HW223745   3.938   4.646   6.376
 7616SOL     OW23746   6.972   6.174   4.764
 7616SOL    HW123747   6.899   6.113   4.733
 7616SOL    HW223748   7.022   6.131   4.839
 7617SOL     OW23749   3.344   6.259   3.848
 7617SOL    HW123750   3.340   6.287   3.752
 7617SOL    HW223751   3.435   6.277   3.883
 7618SOL     OW23752   0.276   2.576   6.287
 7618SOL    HW123753   0.362   2.574   6.237
 7618SOL    HW223754   0.294   2.580   6.385
 7619SOL     OW23755   6.847   2.922   4.820
 7619SOL    HW123756   6.801   3.005   4.790
 7619SOL    HW223757   6.783   2.864   4.869
 7620SOL     OW23758   4.224   5.738   1.957
 7620SOL    HW123759   4.214   5.805   2.031
 7620SOL    HW223760   4.231   5.786   1.869
 7621SOL     OW23761   6.770   1.014   0.691
 7621SOL    HW123762   6.708   1.088   0.666
 7621SOL    HW223763   6.785   1.016   0.790
 7622SOL     OW23764   4.479   4.289   6.043
 7622SOL    HW123765   4.555   4.285   5.978
 7622SOL    HW223766   4.394   4.264   5.997
 7623SOL     OW23767   4.681   4.531   6.704
 7623SOL    HW123768   4.715   4.480   6.625
 7623SOL    HW223769   4.697   4.478   6.787
 7624SOL     OW23770   6.688   3.701   4.507
 7624SOL    HW123771   6.775   3.741   4.535
 7624SOL    HW223772   6.705   3.611   4.466
 7625SOL     OW23773   5.528   1.340   0.568
 7625SOL    HW123774   5.478   1.415   0.613
 7625SOL    HW223775   5.497   1.252   0.605
 7626SOL     OW23776   6.312   0.599   5.550
 7626SOL    HW123777   6.295   0.698   5.541
 7626SOL    HW223778   6.241   0.559   5.608
 7627SOL     OW23779   3.736   2.718   0.753
 7627SOL    HW123780   3.653   2.775   0.756
 7627SOL    HW223781   3.742   2.664   0.836
 7628SOL     OW23782   3.486   2.728   1.943
 7628SOL    HW123783   3.487   2.631   1.965
 7628SOL    HW223784   3.573   2.754   1.902
 7629SOL     OW23785   0.209   4.120   3.675
 7629SOL    HW123786   0.302   4.134   3.643
 7629SOL    HW223787   0.147   4.182   3.627
 7630SOL     OW23788   0.823   0.966   0.488
 7630SOL    HW123789   0.728   0.937   0.480
 7630SOL    HW223790   0.827   1.065   0.501
 7631SOL     OW23791   1.266   2.331   5.804
 7631SOL    HW123792   1.206   2.257   5.773
 7631SOL    HW223793   1.362   2.304   5.794
 7632SOL     OW23794   4.953   4.495   0.632
 7632SOL    HW123795   4.861   4.506   0.593
 7632SOL    HW223796   4.958   4.409   0.683
 7633SOL     OW23797   5.365   0.787   2.061
 7633SOL    HW123798   5.409   0.747   1.981
 7633SOL    HW223799   5.313   0.868   2.033
 7634SOL     OW23800   2.133   0.996   1.982
 7634SOL    HW123801   2.212   1.050   1.952
 7634SOL    HW223802   2.158   0.900   1.987
 7635SOL     OW23803   3.465   4.932   5.309
 7635SOL    HW123804   3.370   4.943   5.338
 7635SOL    HW223805   3.524   4.921   5.390
 7636SOL     OW23806   1.512   3.534   4.083
 7636SOL    HW123807   1.430   3.569   4.036
 7636SOL    HW223808   1.571   3.488   4.017
 7637SOL     OW23809   2.489   6.009   2.586
 7637SOL    HW123810   2.430   6.033   2.663
 7637SOL    HW223811   2.433   5.996   2.504
 7638SOL     OW23812   2.135   5.405   2.138
 7638SOL    HW123813   2.103   5.320   2.096
 7638SOL    HW223814   2.224   5.389   2.181
 7639SOL     OW23815   0.301   0.963   0.945
 7639SOL    HW123816   0.258   0.901   1.010
 7639SOL    HW223817   0.400   0.955   0.950
 7640SOL     OW23818   2.691   2.234   5.746
 7640SOL    HW123819   2.624   2.220   5.819
 7640SOL    HW223820   2.659   2.187   5.663
 7641SOL     OW23821   0.825   3.277   2.910
 7641SOL    HW123822   0.736   3.240   2.940
 7641SOL    HW223823   0.849   3.236   2.822
 7642SOL     OW23824   3.838   1.808   2.664
 7642SOL    HW123825   3.829   1.724   2.611
 7642SOL    HW223826   3.770   1.874   2.633
 7643SOL     OW23827   5.320   2.015   2.982
 7643SOL    HW123828   5.415   2.019   2.951
 7643SOL    HW223829   5.314   2.050   3.076
 7644SOL     OW23830   4.665   2.717   2.105
 7644SOL    HW123831   4.665   2.671   2.016
 7644SOL    HW223832   4.691   2.813   2.093
 7645SOL     OW23833   4.899   3.912   5.566
 7645SOL    HW123834   4.872   3.877   5.476
 7645SOL    HW223835   4.822   3.963   5.606
 7646SOL     OW23836   0.652   3.099   4.189
 7646SOL    HW123837   0.647   3.061   4.282
 7646SOL    HW223838   0.559   3.122   4.158
 7647SOL     OW23839   6.864   2.709   4.263
 7647SOL    HW123840   6.815   2.711   4.175
 7647SOL    HW223841   6.948   2.656   4.253
 7648SOL     OW23842   2.450   2.033   2.516
 7648SOL    HW123843   2.373   1.998   2.569
 7648SOL    HW223844   2.420   2.053   2.422
 7649SOL     OW23845   1.307   0.254   3.640
 7649SOL    HW123846   1.405   0.273   3.639
 7649SOL    HW223847   1.257   0.339   3.659
 7650SOL     OW23848   5.497   0.730   0.693
 7650SOL    HW123849   5.406   0.693   0.677
 7650SOL    HW223850   5.502   0.768   0.785
 7651SOL     OW23851   2.293   0.188   4.439
 7651SOL    HW123852   2.363   0.218   4.374
 7651SOL    HW223853   2.331   0.118   4.500
 7652SOL     OW23854   5.424   1.976   4.620
 7652SOL    HW123855   5.407   1.885   4.659
 7652SOL    HW223856   5.494   1.968   4.548
 7653SOL     OW23857   0.820   1.495   0.138
 7653SOL    HW123858   0.832   1.413   0.194
 7653SOL    HW223859   0.866   1.572   0.181
 7654SOL     OW23860   5.130   3.368   3.903
 7654SOL    HW123861   5.058   3.371   3.834
 7654SOL    HW223862   5.212   3.413   3.868
 7655SOL     OW23863   4.199   6.571   3.884
 7655SOL    HW123864   4.106   6.564   3.847
 7655SOL    HW223865   4.264   6.533   3.818
 7656SOL     OW23866   3.884   3.838   6.841
 7656SOL    HW123867   3.881   3.746   6.879
 7656SOL    HW223868   3.944   3.895   6.897
 7657SOL     OW23869   1.615   2.129   3.011
 7657SOL    HW123870   1.619   2.223   2.977
 7657SOL    HW223871   1.563   2.126   3.096
 7658SOL     OW23872   2.411   0.205   0.756
 7658SOL    HW123873   2.470   0.148   0.812
 7658SOL    HW223874   2.427   0.301   0.777
 7659SOL     OW23875   5.126   4.745   7.006
 7659SOL    HW123876   5.206   4.697   0.016
 7659SOL    HW223877   5.121   4.837   0.017
 7660SOL     OW23878   6.761   6.122   3.997
 7660SOL    HW123879   6.750   6.155   3.903
 7660SOL    HW223880   6.849   6.155   4.033
 7661SOL     OW23881   5.408   2.368   5.059
 7661SOL    HW123882   5.428   2.426   5.138
 7661SOL    HW223883   5.424   2.419   4.975
 7662SOL     OW23884   1.093   2.505   4.239
 7662SOL    HW123885   0.999   2.508   4.204
 7662SOL    HW223886   1.127   2.598   4.252
 7663SOL     OW23887   5.680   4.511   6.687
 7663SOL    HW123888   5.648   4.428   6.733
 7663SOL    HW223889   5.606   4.548   6.631
 7664SOL     OW23890   4.175   1.112   2.228
 7664SOL    HW123891   4.259   1.130   2.280
 7664SOL    HW223892   4.099   1.163   2.267
 7665SOL     OW23893   6.117   0.932   5.091
 7665SOL    HW123894   6.210   0.930   5.055
 7665SOL    HW223895   6.103   1.017   5.142
 7666SOL     OW23896   0.543   4.311   2.923
 7666SOL    HW123897   0.447   4.328   2.944
 7666SOL    HW223898   0.596   4.394   2.942
 7667SOL     OW23899   4.204   0.414   2.485
 7667SOL    HW123900   4.119   0.455   2.451
 7667SOL    HW223901   4.185   0.363   2.569
 7668SOL     OW23902   2.665   5.114   0.837
 7668SOL    HW123903   2.615   5.201   0.837
 7668SOL    HW223904   2.754   5.127   0.880
 7669SOL     OW23905   4.948   1.369   5.464
 7669SOL    HW123906   5.027   1.345   5.520
 7669SOL    HW223907   4.979   1.411   5.378
 7670SOL     OW23908   0.979   5.215   0.857
 7670SOL    HW123909   1.007   5.255   0.769
 7670SOL    HW223910   0.894   5.164   0.845
 7671SOL     OW23911   3.267   0.937   2.432
 7671SOL    HW123912   3.359   0.970   2.415
 7671SOL    HW223913   3.258   0.843   2.399
 7672SOL     OW23914   0.316   5.536   2.935
 7672SOL    HW123915   0.254   5.608   2.966
 7672SOL    HW223916   0.410   5.559   2.962
 7673SOL     OW23917   1.938   5.571   2.402
 7673SOL    HW123918   1.876   5.586   2.480
 7673SOL    HW223919   1.920   5.481   2.363
 7674SOL     OW23920   4.888   0.870   4.048
 7674SOL    HW123921   4.899   0.796   3.982
 7674SOL    HW223922   4.963   0.935   4.038
 7675SOL     OW23923   5.918   6.290   3.133
 7675SOL    HW123924   6.014   6.308   3.113
 7675SOL    HW223925   5.864   6.298   3.049
 7676SOL     OW23926   3.119   2.383   6.550
 7676SOL    HW123927   3.096   2.471   6.507
 7676SOL    HW223928   3.207   2.391   6.596
 7677SOL     OW23929   0.333   3.807   1.627
 7677SOL    HW123930   0.410   3.744   1.630
 7677SOL    HW223931   0.352   3.885   1.688
 7678SOL     OW23932   2.456   2.489   5.269
 7678SOL    HW123933   2.481   2.585   5.256
 7678SOL    HW223934   2.372   2.470   5.218
 7679SOL     OW23935   2.352   6.243   5.575
 7679SOL    HW123936   2.418   6.178   5.612
 7679SOL    HW223937   2.349   6.234   5.475
 7680SOL     OW23938   1.473   0.454   0.884
 7680SOL    HW123939   1.492   0.549   0.863
 7680SOL    HW223940   1.514   0.431   0.973
 7681SOL     OW23941   2.754   0.947   1.124
 7681SOL    HW123942   2.691   0.928   1.199
 7681SOL    HW223943   2.839   0.985   1.160
 7682SOL     OW23944   4.184   6.985   2.299
 7682SOL    HW123945   4.091   6.952   2.309
 7682SOL    HW223946   4.183   0.051   2.264
 7683SOL     OW23947   0.104   1.593   5.067
 7683SOL    HW123948   0.007   1.615   5.078
 7683SOL    HW223949   0.140   1.639   4.987
 7684SOL     OW23950   4.115   1.293   1.156
 7684SOL    HW123951   4.071   1.378   1.185
 7684SOL    HW223952   4.184   1.267   1.223
 7685SOL     OW23953   2.590   1.602   5.740
 7685SOL    HW123954   2.583   1.550   5.826
 7685SOL    HW223955   2.531   1.682   5.745
 7686SOL     OW23956   6.602   6.808   3.311
 7686SOL    HW123957   6.701   6.802   3.297
 7686SOL    HW223958   6.584   6.829   3.407
 7687SOL     OW23959   5.762   5.118   4.486
 7687SOL    HW123960   5.846   5.148   4.532
 7687SOL    HW223961   5.763   5.018   4.479
 7688SOL     OW23962   0.269   5.827   5.747
 7688SOL    HW123963   0.293   5.919   5.778
 7688SOL    HW223964   0.179   5.828   5.703
 7689SOL     OW23965   5.475   6.161   2.834
 7689SOL    HW123966   5.554   6.111   2.870
 7689SOL    HW223967   5.394   6.104   2.841
 7690SOL     OW23968   5.436   5.348   0.575
 7690SOL    HW123969   5.397   5.257   0.574
 7690SOL    HW223970   5.504   5.357   0.502
 7691SOL     OW23971   5.744   4.147   2.915
 7691SOL    HW123972   5.806   4.124   2.990
 7691SOL    HW223973   5.654   4.171   2.952
 7692SOL     OW23974   0.593   6.177   2.087
 7692SOL    HW123975   0.652   6.241   2.136
 7692SOL    HW223976   0.532   6.227   2.026
 7693SOL     OW23977   3.136   0.831   1.708
 7693SOL    HW123978   3.140   0.789   1.799
 7693SOL    HW223979   3.156   0.762   1.639
 7694SOL     OW23980   5.606   3.225   3.448
 7694SOL    HW123981   5.520   3.254   3.405
 7694SOL    HW223982   5.683   3.270   3.402
 7695SOL     OW23983   5.336   0.910   1.477
 7695SOL    HW123984   5.320   0.834   1.415
 7695SOL    HW223985   5.290   0.992   1.441
 7696SOL     OW23986   6.753   1.609   6.121
 7696SOL    HW123987   6.751   1.708   6.110
 7696SOL    HW223988   6.672   1.569   6.079
 7697SOL     OW23989   2.466   0.362   3.440
 7697SOL    HW123990   2.415   0.434   3.488
 7697SOL    HW223991   2.511   0.303   3.506
 7698SOL     OW23992   5.762   0.974   4.101
 7698SOL    HW123993   5.826   0.980   4.177
 7698SOL    HW223994   5.670   0.958   4.137
 7699SOL     OW23995   2.643   5.546   6.300
 7699SOL    HW123996   2.631   5.573   6.395
 7699SOL    HW223997   2.557   5.555   6.251
 7700SOL     OW23998   4.349   5.817   3.632
 7700SOL    HW123999   4.401   5.737   3.602
 7700SOL    HW224000   4.251   5.797   3.625
 7701SOL     OW24001   6.990   2.755   6.559
 7701SOL    HW124002   0.022   2.832   6.535
 7701SOL    HW224003   6.961   2.764   6.654
 7702SOL     OW24004   4.636   5.638   5.097
 7702SOL    HW124005   4.594   5.600   5.015
 7702SOL    HW224006   4.720   5.587   5.119
 7703SOL     OW24007   5.933   6.193   6.228
 7703SOL    HW124008   5.881   6.126   6.175
 7703SOL    HW224009   5.895   6.284   6.213
 7704SOL     OW24010   5.950   0.497   3.136
 7704SOL    HW124011   5.924   0.512   3.231
 7704SOL    HW224012   5.973   0.585   3.093
 7705SOL     OW24013   2.132   5.947   1.236
 7705SOL    HW124014   2.057   5.972   1.297
 7705SOL    HW224015   2.095   5.905   1.153
 7706SOL     OW24016   3.559   3.096   3.722
 7706SOL    HW124017   3.461   3.083   3.734
 7706SOL    HW224018   3.579   3.194   3.718
 7707SOL     OW24019   7.020   4.675   6.161
 7707SOL    HW124020   6.925   4.646   6.175
 7707SOL    HW224021   0.044   4.601   6.118
 7708SOL     OW24022   1.291   6.573   5.019
 7708SOL    HW124023   1.362   6.624   4.970
 7708SOL    HW224024   1.276   6.485   4.974
 7709SOL     OW24025   6.582   4.797   1.819
 7709SOL    HW124026   6.584   4.795   1.719
 7709SOL    HW224027   6.498   4.842   1.849
 7710SOL     OW24028   2.277   2.322   0.307
 7710SOL    HW124029   2.344   2.384   0.348
 7710SOL    HW224030   2.205   2.304   0.374
 7711SOL     OW24031   5.698   5.994   5.668
 7711SOL    HW124032   5.795   6.017   5.671
 7711SOL    HW224033   5.682   5.929   5.593
 7712SOL     OW24034   6.140   5.541   0.398
 7712SOL    HW124035   6.106   5.561   0.306
 7712SOL    HW224036   6.074   5.483   0.446
 7713SOL     OW24037   1.749   3.803   0.555
 7713SOL    HW124038   1.737   3.704   0.540
 7713SOL    HW224039   1.693   3.832   0.632
 7714SOL     OW24040   0.051   5.232   5.314
 7714SOL    HW124041   6.995   5.179   5.297
 7714SOL    HW224042   0.091   5.203   5.402
 7715SOL     OW24043   2.934   2.649   6.596
 7715SOL    HW124044   2.844   2.608   6.608
 7715SOL    HW224045   2.937   2.697   6.509
 7716SOL     OW24046   6.486   4.313   0.513
 7716SOL    HW124047   6.520   4.231   0.560
 7716SOL    HW224048   6.551   4.388   0.528
 7717SOL     OW24049   1.186   1.342   5.535
 7717SOL    HW124050   1.174   1.328   5.633
 7717SOL    HW224051   1.280   1.372   5.517
 7718SOL     OW24052   6.418   3.578   3.027
 7718SOL    HW124053   6.338   3.576   2.968
 7718SOL    HW224054   6.399   3.635   3.107
 7719SOL     OW24055   0.590   3.861   4.821
 7719SOL    HW124056   0.663   3.904   4.769
 7719SOL    HW224057   0.504   3.908   4.804
 7720SOL     OW24058   6.637   2.546   6.347
 7720SOL    HW124059   6.634   2.504   6.257
 7720SOL    HW224060   6.696   2.493   6.407
 7721SOL     OW24061   0.597   5.743   2.284
 7721SOL    HW124062   0.647   5.670   2.332
 7721SOL    HW224063   0.659   5.791   2.223
 7722SOL     OW24064   1.902   4.315   3.798
 7722SOL    HW124065   1.858   4.405   3.798
 7722SOL    HW224066   1.972   4.312   3.727
 7723SOL     OW24067   4.083   3.593   6.915
 7723SOL    HW124068   4.029   3.527   6.968
 7723SOL    HW224069   4.061   3.584   6.818
 7724SOL     OW24070   3.282   4.611   0.659
 7724SOL    HW124071   3.193   4.633   0.619
 7724SOL    HW224072   3.281   4.516   0.690
 7725SOL     OW24073   6.457   1.615   3.174
 7725SOL    HW124074   6.407   1.554   3.235
 7725SOL    HW224075   6.503   1.686   3.228
 7726SOL     OW24076   1.345   4.115   6.452
 7726SOL    HW124077   1.357   4.080   6.545
 7726SOL    HW224078   1.288   4.051   6.400
 7727SOL     OW24079   6.458   2.632   2.216
 7727SOL    HW124080   6.452   2.727   2.186
 7727SOL    HW224081   6.542   2.592   2.180
 7728SOL     OW24082   2.222   2.767   5.150
 7728SOL    HW124083   2.275   2.769   5.235
 7728SOL    HW224084   2.268   2.823   5.081
 7729SOL     OW24085   5.562   0.909   1.625
 7729SOL    HW124086   5.491   0.898   1.555
 7729SOL    HW224087   5.647   0.938   1.582
 7730SOL     OW24088   6.905   4.983   6.180
 7730SOL    HW124089   7.001   5.007   6.169
 7730SOL    HW224090   6.864   4.969   6.090
 7731SOL     OW24091   6.068   0.062   0.454
 7731SOL    HW124092   6.132   0.127   0.495
 7731SOL    HW224093   6.118   0.002   0.391
 7732SOL     OW24094   3.903   0.006   0.218
 7732SOL    HW124095   3.812   7.019   0.180
 7732SOL    HW224096   3.946   0.084   0.173
 7733SOL     OW24097   5.570   6.009   2.178
 7733SOL    HW124098   5.559   6.038   2.273
 7733SOL    HW224099   5.514   5.928   2.161
 7734SOL     OW24100   1.569   4.876   5.211
 7734SOL    HW124101   1.474   4.858   5.233
 7734SOL    HW224102   1.619   4.789   5.204
 7735SOL     OW24103   5.726   5.702   5.984
 7735SOL    HW124104   5.740   5.752   5.899
 7735SOL    HW224105   5.780   5.745   6.057
 7736SOL     OW24106   2.718   2.912   6.593
 7736SOL    HW124107   2.652   2.836   6.595
 7736SOL    HW224108   2.786   2.899   6.665
 7737SOL     OW24109   3.616   0.414   2.370
 7737SOL    HW124110   3.625   0.448   2.464
 7737SOL    HW224111   3.571   0.484   2.315
 7738SOL     OW24112   2.867   5.332   0.391
 7738SOL    HW124113   2.847   5.382   0.475
 7738SOL    HW224114   2.906   5.394   0.324
 7739SOL     OW24115   1.344   1.957   2.330
 7739SOL    HW124116   1.307   1.867   2.311
 7739SOL    HW224117   1.279   2.009   2.386
 7740SOL     OW24118   2.669   1.202   3.674
 7740SOL    HW124119   2.725   1.285   3.675
 7740SOL    HW224120   2.701   1.142   3.601
 7741SOL     OW24121   0.230   4.174   5.210
 7741SOL    HW124122   0.254   4.215   5.298
 7741SOL    HW224123   0.244   4.241   5.137
 7742SOL     OW24124   4.425   2.356   3.805
 7742SOL    HW124125   4.358   2.303   3.857
 7742SOL    HW224126   4.377   2.412   3.737
 7743SOL     OW24127   4.626   1.266   0.099
 7743SOL    HW124128   4.719   1.241   0.071
 7743SOL    HW224129   4.624   1.363   0.126
 7744SOL     OW24130   1.122   0.061   3.820
 7744SOL    HW124131   1.133   0.045   3.722
 7744SOL    HW224132   1.193   0.013   3.871
 7745SOL     OW24133   3.046   0.313   0.804
 7745SOL    HW124134   3.099   0.387   0.763
 7745SOL    HW224135   3.064   0.228   0.755
 7746SOL     OW24136   0.635   0.112   0.557
 7746SOL    HW124137   0.653   0.026   0.604
 7746SOL    HW224138   0.718   0.167   0.554
 7747SOL     OW24139   6.732   6.603   1.539
 7747SOL    HW124140   6.740   6.685   1.595
 7747SOL    HW224141   6.823   6.570   1.514
 7748SOL     OW24142   3.584   4.157   4.167
 7748SOL    HW124143   3.546   4.189   4.254
 7748SOL    HW224144   3.510   4.147   4.100
 7749SOL     OW24145   2.957   3.329   4.414
 7749SOL    HW124146   2.913   3.408   4.456
 7749SOL    HW224147   2.983   3.264   4.486
 7750SOL     OW24148   6.452   5.549   6.940
 7750SOL    HW124149   6.458   5.540   6.840
 7750SOL    HW224150   6.363   5.588   6.964
 7751SOL     OW24151   0.962   2.736   2.653
 7751SOL    HW124152   0.869   2.700   2.652
 7751SOL    HW224153   0.976   2.796   2.574
 7752SOL     OW24154   5.456   5.821   5.068
 7752SOL    HW124155   5.378   5.840   5.008
 7752SOL    HW224156   5.451   5.880   5.149
 7753SOL     OW24157   2.236   0.539   4.051
 7753SOL    HW124158   2.299   0.532   3.974
 7753SOL    HW224159   2.170   0.613   4.034
 7754SOL     OW24160   5.343   6.470   1.887
 7754SOL    HW124161   5.293   6.524   1.955
 7754SOL    HW224162   5.438   6.500   1.884
 7755SOL     OW24163   1.276   1.961   5.935
 7755SOL    HW124164   1.212   1.885   5.930
 7755SOL    HW224165   1.324   1.971   5.848
 7756SOL     OW24166   3.742   4.976   2.875
 7756SOL    HW124167   3.762   4.948   2.969
 7756SOL    HW224168   3.754   5.075   2.867
 7757SOL     OW24169   5.164   5.612   4.695
 7757SOL    HW124170   5.222   5.603   4.776
 7757SOL    HW224171   5.151   5.522   4.653
 7758SOL     OW24172   1.236   1.886   0.379
 7758SOL    HW124173   1.223   1.789   0.359
 7758SOL    HW224174   1.180   1.912   0.457
 7759SOL     OW24175   0.931   1.880   4.955
 7759SOL    HW124176   0.918   1.949   5.027
 7759SOL    HW224177   1.021   1.838   4.965
 7760SOL     OW24178   5.844   3.501   2.618
 7760SOL    HW124179   5.890   3.563   2.554
 7760SOL    HW224180   5.753   3.480   2.583
 7761SOL     OW24181   1.098   0.154   6.537
 7761SOL    HW124182   1.184   0.137   6.584
 7761SOL    HW224183   1.025   0.168   6.605
 7762SOL     OW24184   4.458   0.804   3.856
 7762SOL    HW124185   4.523   0.734   3.884
 7762SOL    HW224186   4.421   0.849   3.937
 7763SOL     OW24187   0.970   1.475   0.721
 7763SOL    HW124188   0.974   1.409   0.796
 7763SOL    HW224189   0.875   1.499   0.703
 7764SOL     OW24190   3.483   2.951   3.212
 7764SOL    HW124191   3.457   2.887   3.284
 7764SOL    HW224192   3.402   2.984   3.164
 7765SOL     OW24193   5.952   2.453   4.150
 7765SOL    HW124194   5.927   2.362   4.184
 7765SOL    HW224195   6.030   2.445   4.088
 7766SOL     OW24196   5.909   2.244   0.134
 7766SOL    HW124197   5.998   2.258   0.090
 7766SOL    HW224198   5.866   2.162   0.096
 7767SOL     OW24199   4.695   6.569   3.772
 7767SOL    HW124200   4.615   6.626   3.792
 7767SOL    HW224201   4.681   6.521   3.686
 7768SOL     OW24202   4.117   4.718   2.534
 7768SOL    HW124203   4.140   4.794   2.595
 7768SOL    HW224204   4.027   4.734   2.493
 7769SOL     OW24205   4.986   2.428   2.657
 7769SOL    HW124206   4.893   2.466   2.661
 7769SOL    HW224207   5.008   2.404   2.563
 7770SOL     OW24208   0.838   3.905   2.277
 7770SOL    HW124209   0.772   3.928   2.348
 7770SOL    HW224210   0.835   3.807   2.259
 7771SOL     OW24211   2.728   2.065   4.993
 7771SOL    HW124212   2.744   2.164   4.992
 7771SOL    HW224213   2.637   2.047   5.029
 7772SOL     OW24214   5.789   0.716   2.569
 7772SOL    HW124215   5.712   0.656   2.589
 7772SOL    HW224216   5.767   0.809   2.597
 7773SOL     OW24217   3.188   5.640   5.064
 7773SOL    HW124218   3.223   5.708   5.000
 7773SOL    HW224219   3.261   5.611   5.125
 7774SOL     OW24220   5.926   2.277   5.871
 7774SOL    HW124221   5.988   2.300   5.946
 7774SOL    HW224222   5.895   2.360   5.826
 7775SOL     OW24223   4.059   6.412   2.573
 7775SOL    HW124224   4.057   6.475   2.651
 7775SOL    HW224225   4.086   6.462   2.491
 7776SOL     OW24226   2.546   4.667   0.067
 7776SOL    HW124227   2.623   4.710   0.020
 7776SOL    HW224228   2.542   4.570   0.044
 7777SOL     OW24229   0.763   0.722   5.194
 7777SOL    HW124230   0.718   0.779   5.262
 7777SOL    HW224231   0.742   0.756   5.102
 7778SOL     OW24232   5.030   5.378   0.308
 7778SOL    HW124233   5.004   5.456   0.364
 7778SOL    HW224234   5.081   5.410   0.228
 7779SOL     OW24235   2.689   2.717   1.259
 7779SOL    HW124236   2.634   2.799   1.273
 7779SOL    HW224237   2.680   2.686   1.164
 7780SOL     OW24238   0.711   5.285   5.701
 7780SOL    HW124239   0.733   5.348   5.627
 7780SOL    HW224240   0.759   5.198   5.686
 7781SOL     OW24241   1.194   4.739   0.074
 7781SOL    HW124242   1.236   4.769   7.016
 7781SOL    HW224243   1.265   4.716   0.140
 7782SOL     OW24244   0.919   4.781   4.864
 7782SOL    HW124245   0.858   4.793   4.786
 7782SOL    HW224246   0.869   4.798   4.949
 7783SOL     OW24247   1.408   6.255   4.590
 7783SOL    HW124248   1.334   6.192   4.611
 7783SOL    HW224249   1.437   6.244   4.495
 7784SOL     OW24250   3.212   2.655   0.744
 7784SOL    HW124251   3.195   2.737   0.798
 7784SOL    HW224252   3.306   2.624   0.760
 7785SOL     OW24253   1.613   6.570   4.038
 7785SOL    HW124254   1.634   6.644   4.102
 7785SOL    HW224255   1.604   6.607   3.946
 7786SOL     OW24256   3.335   6.171   0.149
 7786SOL    HW124257   3.238   6.148   0.138
 7786SOL    HW224258   3.385   6.092   0.184
 7787SOL     OW24259   2.732   3.039   6.104
 7787SOL    HW124260   2.722   3.021   6.202
 7787SOL    HW224261   2.765   2.957   6.057
 7788SOL     OW24262   1.433   5.672   2.092
 7788SOL    HW124263   1.391   5.670   2.183
 7788SOL    HW224264   1.531   5.691   2.100
 7789SOL     OW24265   2.858   0.030   6.767
 7789SOL    HW124266   2.913   0.099   6.813
 7789SOL    HW224267   2.766   0.030   6.805
 7790SOL     OW24268   4.960   5.340   2.956
 7790SOL    HW124269   4.876   5.345   2.902
 7790SOL    HW224270   4.975   5.246   2.987
 7791SOL     OW24271   2.263   6.007   3.455
 7791SOL    HW124272   2.295   6.050   3.540
 7791SOL    HW224273   2.182   6.054   3.423
 7792SOL     OW24274   1.749   5.287   5.373
 7792SOL    HW124275   1.702   5.361   5.421
 7792SOL    HW224276   1.702   5.201   5.392
 7793SOL     OW24277   3.180   0.913   0.019
 7793SOL    HW124278   3.198   0.815   0.027
 7793SOL    HW224279   3.182   0.939   6.950
 7794SOL     OW24280   5.811   4.828   3.457
 7794SOL    HW124281   5.724   4.863   3.422
 7794SOL    HW224282   5.805   4.729   3.467
 7795SOL     OW24283   2.295   3.836   5.809
 7795SOL    HW124284   2.285   3.753   5.754
 7795SOL    HW224285   2.322   3.912   5.750
 7796SOL     OW24286   3.275   3.960   3.325
 7796SOL    HW124287   3.306   3.875   3.282
 7796SOL    HW224288   3.346   4.030   3.314
 7797SOL     OW24289   1.443   0.199   2.716
 7797SOL    HW124290   1.417   0.276   2.774
 7797SOL    HW224291   1.540   0.178   2.729
 7798SOL     OW24292   1.921   4.464   5.837
 7798SOL    HW124293   1.924   4.412   5.752
 7798SOL    HW224294   1.837   4.519   5.839
 7799SOL     OW24295   1.298   6.032   2.176
 7799SOL    HW124296   1.320   6.053   2.081
 7799SOL    HW224297   1.383   6.024   2.228
 7800SOL     OW24298   1.194   5.362   0.706
 7800SOL    HW124299   1.178   5.458   0.682
 7800SOL    HW224300   1.186   5.306   0.624
 7801SOL     OW24301   2.204   2.104   1.904
 7801SOL    HW124302   2.121   2.074   1.856
 7801SOL    HW224303   2.255   2.023   1.934
 7802SOL     OW24304   5.491   2.455   0.962
 7802SOL    HW124305   5.559   2.522   0.932
 7802SOL    HW224306   5.535   2.366   0.972
 7803SOL     OW24307   4.293   2.070   6.066
 7803SOL    HW124308   4.304   2.169   6.075
 7803SOL    HW224309   4.384   2.027   6.064
 7804SOL     OW24310   4.829   1.857   4.363
 7804SOL    HW124311   4.868   1.949   4.351
 7804SOL    HW224312   4.856   1.799   4.286
 7805SOL     OW24313   5.242   1.891   0.583
 7805SOL    HW124314   5.315   1.843   0.535
 7805SOL    HW224315   5.184   1.825   0.630
 7806SOL     OW24316   5.731   1.939   6.519
 7806SOL    HW124317   5.749   1.843   6.497
 7806SOL    HW224318   5.794   1.997   6.467
 7807SOL     OW24319   0.537   4.406   5.578
 7807SOL    HW124320   0.547   4.394   5.479
 7807SOL    HW224321   0.615   4.366   5.625
 7808SOL     OW24322   6.548   3.030   4.183
 7808SOL    HW124323   6.548   3.057   4.087
 7808SOL    HW224324   6.502   3.101   4.237
 7809SOL     OW24325   2.030   5.676   4.062
 7809SOL    HW124326   1.997   5.712   4.149
 7809SOL    HW224327   2.045   5.751   3.998
 7810SOL     OW24328   3.500   0.563   5.071
 7810SOL    HW124329   3.577   0.509   5.103
 7810SOL    HW224330   3.499   0.566   4.971
 7811SOL     OW24331   0.978   5.620   2.929
 7811SOL    HW124332   0.879   5.609   2.938
 7811SOL    HW224333   1.003   5.626   2.833
 7812SOL     OW24334   1.150   2.327   3.537
 7812SOL    HW124335   1.076   2.259   3.536
 7812SOL    HW224336   1.149   2.378   3.451
 7813SOL     OW24337   4.331   2.290   6.386
 7813SOL    HW124338   4.335   2.385   6.416
 7813SOL    HW224339   4.424   2.255   6.374
 7814SOL     OW24340   6.843   2.902   3.352
 7814SOL    HW124341   6.856   2.807   3.324
 7814SOL    HW224342   6.929   2.938   3.388
 7815SOL     OW24343   4.938   0.468   5.899
 7815SOL    HW124344   5.015   0.515   5.855
 7815SOL    HW224345   4.970   0.422   5.981
 7816SOL     OW24346   1.471   2.118   6.745
 7816SOL    HW124347   1.543   2.183   6.719
 7816SOL    HW224348   1.387   2.168   6.764
 7817SOL     OW24349   5.479   4.395   3.495
 7817SOL    HW124350   5.416   4.349   3.433
 7817SOL    HW224351   5.517   4.329   3.560
 7818SOL     OW24352   4.721   0.673   3.090
 7818SOL    HW124353   4.802   0.651   3.035
 7818SOL    HW224354   4.656   0.724   3.034
 7819SOL     OW24355   6.912   3.367   1.699
 7819SOL    HW124356   6.875   3.452   1.663
 7819SOL    HW224357   6.972   3.386   1.777
 7820SOL     OW24358   1.189   2.303   4.918
 7820SOL    HW124359   1.120   2.352   4.971
 7820SOL    HW224360   1.178   2.323   4.821
 7821SOL     OW24361   5.428   6.348   0.823
 7821SOL    HW124362   5.399   6.443   0.836
 7821SOL    HW224363   5.446   6.306   0.912
 7822SOL     OW24364   0.847   1.689   5.728
 7822SOL    HW124365   0.938   1.687   5.688
 7822SOL    HW224366   0.809   1.596   5.728
 7823SOL     OW24367   2.668   3.935   5.270
 7823SOL    HW124368   2.685   3.837   5.257
 7823SOL    HW224369   2.579   3.958   5.232
 7824SOL     OW24370   5.560   0.967   3.856
 7824SOL    HW124371   5.515   0.886   3.894
 7824SOL    HW224372   5.654   0.973   3.891
 7825SOL     OW24373   1.610   2.807   1.378
 7825SOL    HW124374   1.532   2.792   1.317
 7825SOL    HW224375   1.593   2.888   1.434
 7826SOL     OW24376   6.352   1.312   1.512
 7826SOL    HW124377   6.428   1.377   1.516
 7826SOL    HW224378   6.284   1.343   1.445
 7827SOL     OW24379   1.967   5.191   1.115
 7827SOL    HW124380   2.016   5.247   1.182
 7827SOL    HW224381   1.957   5.098   1.150
 7828SOL     OW24382   0.806   4.507   6.947
 7828SOL    HW124383   0.732   4.451   6.909
 7828SOL    HW224384   0.880   4.448   6.977
 7829SOL     OW24385   2.332   3.925   1.572
 7829SOL    HW124386   2.250   3.913   1.628
 7829SOL    HW224387   2.398   3.853   1.595
 7830SOL     OW24388   2.697   4.738   5.250
 7830SOL    HW124389   2.742   4.709   5.166
 7830SOL    HW224390   2.761   4.730   5.326
 7831SOL     OW24391   2.267   6.547   1.940
 7831SOL    HW124392   2.268   6.479   2.014
 7831SOL    HW224393   2.176   6.588   1.934
 7832SOL     OW24394   5.962   0.739   3.285
 7832SOL    HW124395   5.987   0.739   3.382
 7832SOL    HW224396   5.865   0.719   3.275
 7833SOL     OW24397   0.834   1.127   6.214
 7833SOL    HW124398   0.802   1.072   6.137
 7833SOL    HW224399   0.817   1.078   6.299
 7834SOL     OW24400   0.098   1.682   3.763
 7834SOL    HW124401   0.069   1.765   3.716
 7834SOL    HW224402   0.192   1.694   3.797
 7835SOL     OW24403   3.487   2.333   5.376
 7835SOL    HW124404   3.579   2.359   5.346
 7835SOL    HW224405   3.422   2.350   5.303
 7836SOL     OW24406   3.220   2.965   5.107
 7836SOL    HW124407   3.206   2.956   5.008
 7836SOL    HW224408   3.313   2.996   5.124
 7837SOL     OW24409   5.206   5.142   6.883
 7837SOL    HW124410   5.117   5.131   6.928
 7837SOL    HW224411   5.194   5.135   6.784
 7838SOL     OW24412   4.201   6.917   1.071
 7838SOL    HW124413   4.128   6.893   1.135
 7838SOL    HW224414   4.182   6.876   0.982
 7839SOL     OW24415   5.852   4.209   5.171
 7839SOL    HW124416   5.845   4.112   5.147
 7839SOL    HW224417   5.901   4.258   5.099
 7840SOL     OW24418   6.245   3.289   3.876
 7840SOL    HW124419   6.259   3.372   3.823
 7840SOL    HW224420   6.166   3.239   3.840
 7841SOL     OW24421   3.488   2.072   6.069
 7841SOL    HW124422   3.561   2.011   6.101
 7841SOL    HW224423   3.528   2.156   6.032
 7842SOL     OW24424   2.917   2.240   2.751
 7842SOL    HW124425   2.897   2.166   2.686
 7842SOL    HW224426   3.007   2.225   2.792
 7843SOL     OW24427   0.632   6.332   3.501
 7843SOL    HW124428   0.661   6.355   3.408
 7843SOL    HW224429   0.690   6.258   3.535
 7844SOL     OW24430   3.830   0.357   2.985
 7844SOL    HW124431   3.773   0.284   2.947
 7844SOL    HW224432   3.789   0.392   3.069
 7845SOL     OW24433   5.636   1.868   2.940
 7845SOL    HW124434   5.676   1.877   3.031
 7845SOL    HW224435   5.682   1.930   2.877
 7846SOL     OW24436   0.378   1.945   1.692
 7846SOL    HW124437   0.467   1.990   1.681
 7846SOL    HW224438   0.305   2.007   1.664
 7847SOL     OW24439   0.018   1.046   3.235
 7847SOL    HW124440   6.992   1.130   3.221
 7847SOL    HW224441   0.108   1.056   3.193
 7848SOL     OW24442   2.889   4.490   0.532
 7848SOL    HW124443   2.908   4.427   0.456
 7848SOL    HW224444   2.836   4.442   0.602
 7849SOL     OW24445   6.667   4.516   4.659
 7849SOL    HW124446   6.646   4.493   4.754
 7849SOL    HW224447   6.588   4.562   4.618
 7850SOL     OW24448   0.282   1.512   4.288
 7850SOL    HW124449   0.364   1.518   4.230
 7850SOL    HW224450   0.307   1.538   4.382
 7851SOL     OW24451   6.554   1.493   1.551
 7851SOL    HW124452   6.560   1.518   1.648
 7851SOL    HW224453   6.535   1.574   1.496
 7852SOL     OW24454   3.240   1.714   6.280
 7852SOL    HW124455   3.329   1.688   6.317
 7852SOL    HW224456   3.168   1.681   6.340
 7853SOL     OW24457   5.252   2.457   1.974
 7853SOL    HW124458   5.249   2.395   1.896
 7853SOL    HW224459   5.308   2.416   2.046
 7854SOL     OW24460   3.535   3.772   6.828
 7854SOL    HW124461   3.523   3.702   6.898
 7854SOL    HW224462   3.587   3.848   6.867
 7855SOL     OW24463   4.722   0.081   4.411
 7855SOL    HW124464   4.667   0.009   4.369
 7855SOL    HW224465   4.661   0.146   4.457
 7856SOL     OW24466   6.716   5.505   5.152
 7856SOL    HW124467   6.634   5.542   5.109
 7856SOL    HW224468   6.772   5.579   5.187
 7857SOL     OW24469   4.823   2.392   7.013
 7857SOL    HW124470   4.739   2.339   7.003
 7857SOL    HW224471   4.891   2.337   0.034
 7858SOL     OW24472   6.160   6.625   3.990
 7858SOL    HW124473   6.179   6.555   3.922
 7858SOL    HW224474   6.202   6.712   3.963
 7859SOL     OW24475   4.232   2.780   5.921
 7859SOL    HW124476   4.148   2.796   5.973
 7859SOL    HW224477   4.290   2.861   5.928
 7860SOL     OW24478   3.886   0.685   3.481
 7860SOL    HW124479   3.820   0.714   3.549
 7860SOL    HW224480   3.851   0.704   3.389
 7861SOL     OW24481   3.650   4.702   1.597
 7861SOL    HW124482   3.621   4.671   1.688
 7861SOL    HW224483   3.589   4.776   1.567
 7862SOL     OW24484   1.965   4.789   2.029
 7862SOL    HW124485   1.980   4.753   1.937
 7862SOL    HW224486   2.035   4.754   2.091
 7863SOL     OW24487   0.268   4.417   4.678
 7863SOL    HW124488   0.320   4.502   4.672
 7863SOL    HW224489   0.209   4.407   4.598
 7864SOL     OW24490   0.727   5.780   5.330
 7864SOL    HW124491   0.732   5.790   5.430
 7864SOL    HW224492   0.820   5.780   5.292
 7865SOL     OW24493   6.390   6.225   4.004
 7865SOL    HW124494   6.485   6.238   4.033
 7865SOL    HW224495   6.331   6.284   4.058
 7866SOL     OW24496   0.796   1.972   6.024
 7866SOL    HW124497   0.829   1.985   5.930
 7866SOL    HW224498   0.716   1.912   6.023
 7867SOL     OW24499   5.975   6.027   3.224
 7867SOL    HW124500   5.999   6.044   3.319
 7867SOL    HW224501   5.965   6.114   3.176
 7868SOL     OW24502   5.020   6.632   1.867
 7868SOL    HW124503   5.077   6.708   1.837
 7868SOL    HW224504   5.003   6.640   1.965
 7869SOL     OW24505   5.205   3.833   6.919
 7869SOL    HW124506   5.194   3.885   7.003
 7869SOL    HW224507   5.291   3.781   6.923
 7870SOL     OW24508   4.602   5.695   3.993
 7870SOL    HW124509   4.666   5.759   4.034
 7870SOL    HW224510   4.598   5.612   4.048
 7871SOL     OW24511   4.734   1.685   2.054
 7871SOL    HW124512   4.659   1.628   2.021
 7871SOL    HW224513   4.697   1.763   2.104
 7872SOL     OW24514   1.870   3.379   3.019
 7872SOL    HW124515   1.805   3.431   2.963
 7872SOL    HW224516   1.828   3.360   3.108
 7873SOL     OW24517   5.576   6.774   6.130
 7873SOL    HW124518   5.646   6.786   6.200
 7873SOL    HW224519   5.618   6.742   6.045
 7874SOL     OW24520   4.780   2.627   0.307
 7874SOL    HW124521   4.728   2.702   0.346
 7874SOL    HW224522   4.810   2.566   0.380
 7875SOL     OW24523   4.395   3.023   6.756
 7875SOL    HW124524   4.367   2.982   6.843
 7875SOL    HW224525   4.355   3.114   6.747
 7876SOL     OW24526   1.632   6.858   3.518
 7876SOL    HW124527   1.637   6.801   3.600
 7876SOL    HW224528   1.548   6.836   3.468
 7877SOL     OW24529   0.897   1.875   2.789
 7877SOL    HW124530   0.925   1.786   2.826
 7877SOL    HW224531   0.909   1.875   2.690
 7878SOL     OW24532   4.628   4.331   4.603
 7878SOL    HW124533   4.581   4.405   4.650
 7878SOL    HW224534   4.668   4.268   4.670
 7879SOL     OW24535   3.964   5.449   3.299
 7879SOL    HW124536   3.929   5.383   3.232
 7879SOL    HW224537   4.012   5.522   3.251
 7880SOL     OW24538   2.078   3.864   1.697
 7880SOL    HW124539   2.013   3.838   1.625
 7880SOL    HW224540   2.028   3.882   1.782
 7881SOL     OW24541   6.065   4.929   4.920
 7881SOL    HW124542   5.992   4.955   4.983
 7881SOL    HW224543   6.151   4.970   4.950
 7882SOL     OW24544   1.519   3.409   2.393
 7882SOL    HW124545   1.552   3.350   2.468
 7882SOL    HW224546   1.456   3.477   2.430
 7883SOL     OW24547   1.102   0.419   0.345
 7883SOL    HW124548   1.167   0.418   0.268
 7883SOL    HW224549   1.091   0.327   0.380
 7884SOL     OW24550   1.960   3.819   4.364
 7884SOL    HW124551   1.878   3.877   4.367
 7884SOL    HW224552   2.008   3.833   4.277
 7885SOL     OW24553   6.026   5.617   0.807
 7885SOL    HW124554   6.021   5.666   0.720
 7885SOL    HW224555   6.120   5.618   0.841
 7886SOL     OW24556   3.965   4.908   0.154
 7886SOL    HW124557   3.934   4.864   0.071
 7886SOL    HW224558   3.918   4.995   0.166
 7887SOL     OW24559   3.237   2.310   5.544
 7887SOL    HW124560   3.316   2.309   5.483
 7887SOL    HW224561   3.153   2.315   5.489
 7888SOL     OW24562   6.486   0.508   5.338
 7888SOL    HW124563   6.514   0.596   5.300
 7888SOL    HW224564   6.442   0.523   5.427
 7889SOL     OW24565   1.311   4.421   1.356
 7889SOL    HW124566   1.388   4.361   1.333
 7889SOL    HW224567   1.289   4.478   1.277
 7890SOL     OW24568   1.846   3.171   2.774
 7890SOL    HW124569   1.937   3.192   2.810
 7890SOL    HW224570   1.790   3.254   2.773
 7891SOL     OW24571   1.707   3.457   3.654
 7891SOL    HW124572   1.616   3.416   3.641
 7891SOL    HW224573   1.765   3.434   3.575
 7892SOL     OW24574   2.363   1.509   4.194
 7892SOL    HW124575   2.369   1.507   4.294
 7892SOL    HW224576   2.437   1.455   4.154
 7893SOL     OW24577   6.859   6.274   2.685
 7893SOL    HW124578   6.795   6.208   2.725
 7893SOL    HW224579   6.854   6.360   2.736
 7894SOL     OW24580   3.346   0.186   0.927
 7894SOL    HW124581   3.351   0.093   0.962
 7894SOL    HW224582   3.290   0.241   0.989
 7895SOL     OW24583   6.293   0.886   5.541
 7895SOL    HW124584   6.303   0.953   5.615
 7895SOL    HW224585   6.365   0.900   5.474
 7896SOL     OW24586   4.886   3.868   0.005
 7896SOL    HW124587   4.832   3.952   0.004
 7896SOL    HW224588   4.974   3.884   0.050
 7897SOL     OW24589   2.565   4.179   0.190
 7897SOL    HW124590   2.628   4.102   0.180
 7897SOL    HW224591   2.471   4.147   0.176
 7898SOL     OW24592   4.900   1.702   3.627
 7898SOL    HW124593   4.928   1.704   3.723
 7898SOL    HW224594   4.864   1.611   3.605
 7899SOL     OW24595   5.751   0.928   0.730
 7899SOL    HW124596   5.726   0.893   0.820
 7899SOL    HW224597   5.674   0.914   0.667
 7900SOL     OW24598   1.361   5.462   1.230
 7900SOL    HW124599   1.308   5.391   1.183
 7900SOL    HW224600   1.318   5.483   1.318
 7901SOL     OW24601   5.125   1.382   6.654
 7901SOL    HW124602   5.179   1.466   6.660
 7901SOL    HW224603   5.119   1.339   6.744
 7902SOL     OW24604   5.305   5.842   1.286
 7902SOL    HW124605   5.341   5.832   1.193
 7902SOL    HW224606   5.274   5.753   1.319
 7903SOL     OW24607   5.910   1.112   0.860
 7903SOL    HW124608   5.862   1.041   0.808
 7903SOL    HW224609   6.008   1.108   0.837
 7904SOL     OW24610   5.827   6.339   3.392
 7904SOL    HW124611   5.770   6.421   3.394
 7904SOL    HW224612   5.835   6.305   3.299
 7905SOL     OW24613   4.665   2.813   0.519
 7905SOL    HW124614   4.758   2.827   0.554
 7905SOL    HW224615   4.622   2.737   0.568
 7906SOL     OW24616   0.277   5.405   0.647
 7906SOL    HW124617   0.226   5.365   0.724
 7906SOL    HW224618   0.358   5.453   0.681
 7907SOL     OW24619   5.565   2.543   3.415
 7907SOL    HW124620   5.575   2.636   3.452
 7907SOL    HW224621   5.617   2.535   3.330
 7908SOL     OW24622   0.545   1.966   5.518
 7908SOL    HW124623   0.570   1.876   5.482
 7908SOL    HW224624   0.463   1.957   5.575
 7909SOL     OW24625   5.651   3.724   4.902
 7909SOL    HW124626   5.750   3.736   4.910
 7909SOL    HW224627   5.610   3.717   4.993
 7910SOL     OW24628   2.714   3.569   5.768
 7910SOL    HW124629   2.668   3.626   5.836
 7910SOL    HW224630   2.805   3.544   5.801
 7911SOL     OW24631   1.478   3.165   6.949
 7911SOL    HW124632   1.504   3.114   0.004
 7911SOL    HW224633   1.391   3.129   6.914
 7912SOL     OW24634   6.735   4.999   0.433
 7912SOL    HW124635   6.752   4.903   0.408
 7912SOL    HW224636   6.706   5.050   0.352
 7913SOL     OW24637   1.194   5.120   0.981
 7913SOL    HW124638   1.149   5.071   1.055
 7913SOL    HW224639   1.126   5.169   0.927
 7914SOL     OW24640   6.804   4.177   6.853
 7914SOL    HW124641   6.864   4.251   6.822
 7914SOL    HW224642   6.805   4.103   6.785
 7915SOL     OW24643   4.805   3.009   2.350
 7915SOL    HW124644   4.839   3.090   2.397
 7915SOL    HW224645   4.779   3.033   2.256
 7916SOL     OW24646   0.311   3.930   5.467
 7916SOL    HW124647   0.231   3.909   5.522
 7916SOL    HW224648   0.297   4.018   5.421
 7917SOL     OW24649   3.600   3.778   3.438
 7917SOL    HW124650   3.519   3.746   3.389
 7917SOL    HW224651   3.680   3.727   3.408
 7918SOL     OW24652   0.401   1.388   0.110
 7918SOL    HW124653   0.452   1.474   0.103
 7918SOL    HW224654   0.317   1.396   0.057
 7919SOL     OW24655   1.625   4.479   2.827
 7919SOL    HW124656   1.536   4.518   2.851
 7919SOL    HW224657   1.671   4.449   2.911
 7920SOL     OW24658   0.503   5.186   0.662
 7920SOL    HW124659   0.464   5.235   0.583
 7920SOL    HW224660   0.560   5.249   0.714
 7921SOL     OW24661   4.366   6.552   0.644
 7921SOL    HW124662   4.350   6.467   0.694
 7921SOL    HW224663   4.392   6.624   0.709
 7922SOL     OW24664   6.871   6.451   6.967
 7922SOL    HW124665   6.865   6.539   6.920
 7922SOL    HW224666   6.795   6.442   0.004
 7923SOL     OW24667   3.361   0.763   2.188
 7923SOL    HW124668   3.296   0.720   2.250
 7923SOL    HW224669   3.332   0.747   2.094
 7924SOL     OW24670   4.153   6.584   2.387
 7924SOL    HW124671   4.174   6.619   2.296
 7924SOL    HW224672   4.146   6.661   2.451
 7925SOL     OW24673   0.619   1.882   6.345
 7925SOL    HW124674   0.567   1.958   6.306
 7925SOL    HW224675   0.603   1.800   6.291
 7926SOL     OW24676   5.385   1.551   5.440
 7926SOL    HW124677   5.384   1.516   5.533
 7926SOL    HW224678   5.363   1.649   5.440
 7927SOL     OW24679   4.118   5.325   4.187
 7927SOL    HW124680   4.215   5.352   4.194
 7927SOL    HW224681   4.111   5.226   4.196
 7928SOL     OW24682   1.533   2.501   4.384
 7928SOL    HW124683   1.448   2.461   4.349
 7928SOL    HW224684   1.521   2.600   4.395
 7929SOL     OW24685   3.935   3.711   5.690
 7929SOL    HW124686   3.885   3.624   5.689
 7929SOL    HW224687   3.906   3.765   5.769
 7930SOL     OW24688   4.256   5.696   4.038
 7930SOL    HW124689   4.268   5.772   4.103
 7930SOL    HW224690   4.160   5.668   4.035
 7931SOL     OW24691   1.536   2.051   5.992
 7931SOL    HW124692   1.539   2.095   5.902
 7931SOL    HW224693   1.465   1.979   5.991
 7932SOL     OW24694   2.650   6.676   6.669
 7932SOL    HW124695   2.659   6.606   6.598
 7932SOL    HW224696   2.731   6.734   6.668
 7933SOL     OW24697   0.445   6.055   6.745
 7933SOL    HW124698   0.487   6.040   6.656
 7933SOL    HW224699   0.346   6.060   6.735
 7934SOL     OW24700   2.389   4.767   0.537
 7934SOL    HW124701   2.421   4.726   0.451
 7934SOL    HW224702   2.436   4.724   0.614
 7935SOL     OW24703   5.467   6.499   0.138
 7935SOL    HW124704   5.498   6.404   0.128
 7935SOL    HW224705   5.494   6.533   0.228
 7936SOL     OW24706   3.791   5.237   2.779
 7936SOL    HW124707   3.867   5.229   2.715
 7936SOL    HW224708   3.773   5.334   2.797
 7937SOL     OW24709   6.430   0.323   3.826
 7937SOL    HW124710   6.379   0.318   3.740
 7937SOL    HW224711   6.515   0.272   3.818
 7938SOL     OW24712   6.280   5.303   5.201
 7938SOL    HW124713   6.358   5.294   5.263
 7938SOL    HW224714   6.213   5.367   5.241
 7939SOL     OW24715   1.089   2.800   5.684
 7939SOL    HW124716   1.079   2.719   5.742
 7939SOL    HW224717   0.998   2.835   5.660
 7940SOL     OW24718   1.851   3.757   2.704
 7940SOL    HW124719   1.804   3.733   2.619
 7940SOL    HW224720   1.949   3.767   2.686
 7941SOL     OW24721   6.648   6.363   0.697
 7941SOL    HW124722   6.735   6.322   0.723
 7941SOL    HW224723   6.616   6.422   0.771
 7942SOL     OW24724   6.466   5.388   2.961
 7942SOL    HW124725   6.371   5.409   2.981
 7942SOL    HW224726   6.500   5.450   2.890
 7943SOL     OW24727   5.962   3.416   0.218
 7943SOL    HW124728   5.980   3.386   0.312
 7943SOL    HW224729   5.977   3.515   0.211
 7944SOL     OW24730   0.562   3.164   1.599
 7944SOL    HW124731   0.507   3.234   1.645
 7944SOL    HW224732   0.637   3.137   1.659
 7945SOL     OW24733   5.326   6.238   1.764
 7945SOL    HW124734   5.313   6.330   1.800
 7945SOL    HW224735   5.355   6.243   1.669
 7946SOL     OW24736   2.217   1.528   5.494
 7946SOL    HW124737   2.290   1.468   5.523
 7946SOL    HW224738   2.217   1.611   5.551
 7947SOL     OW24739   3.599   2.283   6.300
 7947SOL    HW124740   3.522   2.224   6.278
 7947SOL    HW224741   3.581   2.376   6.267
 7948SOL     OW24742   0.425   5.972   1.005
 7948SOL    HW124743   0.392   5.880   0.987
 7948SOL    HW224744   0.403   5.997   1.100
 7949SOL     OW24745   4.560   4.379   4.337
 7949SOL    HW124746   4.596   4.345   4.424
 7949SOL    HW224747   4.518   4.468   4.351
 7950SOL     OW24748   5.697   5.133   4.157
 7950SOL    HW124749   5.708   5.225   4.119
 7950SOL    HW224750   5.775   5.111   4.215
 7951SOL     OW24751   1.623   3.784   1.148
 7951SOL    HW124752   1.626   3.763   1.245
 7951SOL    HW224753   1.691   3.730   1.099
 7952SOL     OW24754   0.949   3.306   6.741
 7952SOL    HW124755   0.860   3.271   6.712
 7952SOL    HW224756   0.937   3.373   6.814
 7953SOL     OW24757   1.760   2.973   3.159
 7953SOL    HW124758   1.835   2.922   3.201
 7953SOL    HW224759   1.797   3.048   3.105
 7954SOL     OW24760   4.637   4.423   5.283
 7954SOL    HW124761   4.728   4.463   5.277
 7954SOL    HW224762   4.640   4.345   5.346
 7955SOL     OW24763   1.593   6.970   6.615
 7955SOL    HW124764   1.588   6.994   6.712
 7955SOL    HW224765   1.542   0.009   6.561
 7956SOL     OW24766   3.149   5.889   2.780
 7956SOL    HW124767   3.099   5.975   2.788
 7956SOL    HW224768   3.140   5.837   2.865
 7957SOL     OW24769   1.957   1.364   0.687
 7957SOL    HW124770   1.987   1.446   0.735
 7957SOL    HW224771   2.010   1.285   0.719
 7958SOL     OW24772   3.143   5.380   4.328
 7958SOL    HW124773   3.055   5.422   4.305
 7958SOL    HW224774   3.159   5.302   4.267
 7959SOL     OW24775   4.183   5.769   1.152
 7959SOL    HW124776   4.099   5.823   1.146
 7959SOL    HW224777   4.164   5.683   1.200
 7960SOL     OW24778   4.017   1.959   0.605
 7960SOL    HW124779   4.000   2.018   0.527
 7960SOL    HW224780   4.110   1.973   0.638
 7961SOL     OW24781   0.908   6.409   0.977
 7961SOL    HW124782   0.826   6.353   0.987
 7961SOL    HW224783   0.899   6.492   1.032
 7962SOL     OW24784   1.969   0.232   0.326
 7962SOL    HW124785   2.043   0.295   0.348
 7962SOL    HW224786   1.918   0.267   0.248
 7963SOL     OW24787   0.361   0.785   3.650
 7963SOL    HW124788   0.344   0.836   3.734
 7963SOL    HW224789   0.418   0.839   3.588
 7964SOL     OW24790   6.989   5.029   3.214
 7964SOL    HW124791   6.980   5.038   3.313
 7964SOL    HW224792   6.932   4.953   3.182
 7965SOL     OW24793   3.662   2.964   0.191
 7965SOL    HW124794   3.742   2.927   0.144
 7965SOL    HW224795   3.613   3.026   0.130
 7966SOL     OW24796   0.732   3.156   5.796
 7966SOL    HW124797   0.739   3.246   5.753
 7966SOL    HW224798   0.758   3.085   5.730
 7967SOL     OW24799   2.737   5.911   4.197
 7967SOL    HW124800   2.706   5.886   4.289
 7967SOL    HW224801   2.795   5.992   4.203
 7968SOL     OW24802   2.431   2.501   3.449
 7968SOL    HW124803   2.395   2.560   3.522
 7968SOL    HW224804   2.411   2.542   3.360
 7969SOL     OW24805   4.502   6.998   1.866
 7969SOL    HW124806   4.452   6.948   1.795
 7969SOL    HW224807   4.475   6.965   1.956
 7970SOL     OW24808   0.568   3.309   3.397
 7970SOL    HW124809   0.506   3.261   3.335
 7970SOL    HW224810   0.661   3.302   3.362
 7971SOL     OW24811   4.515   1.221   0.685
 7971SOL    HW124812   4.517   1.154   0.760
 7971SOL    HW224813   4.450   1.293   0.707
 7972SOL     OW24814   1.365   3.827   1.537
 7972SOL    HW124815   1.357   3.901   1.603
 7972SOL    HW224816   1.357   3.739   1.584
 7973SOL     OW24817   4.699   4.147   3.267
 7973SOL    HW124818   4.725   4.087   3.192
 7973SOL    HW224819   4.601   4.138   3.286
 7974SOL     OW24820   5.651   1.010   4.863
 7974SOL    HW124821   5.737   0.959   4.851
 7974SOL    HW224822   5.669   1.092   4.918
 7975SOL     OW24823   6.086   0.282   2.498
 7975SOL    HW124824   5.999   0.263   2.452
 7975SOL    HW224825   6.068   0.329   2.584
 7976SOL     OW24826   0.713   0.782   6.437
 7976SOL    HW124827   0.637   0.835   6.401
 7976SOL    HW224828   0.678   0.701   6.485
 7977SOL     OW24829   4.875   5.498   1.420
 7977SOL    HW124830   4.940   5.424   1.405
 7977SOL    HW224831   4.784   5.469   1.392
 7978SOL     OW24832   5.349   3.524   6.337
 7978SOL    HW124833   5.282   3.594   6.312
 7978SOL    HW224834   5.381   3.540   6.430
 7979SOL     OW24835   3.724   0.416   5.122
 7979SOL    HW124836   3.798   0.408   5.055
 7979SOL    HW224837   3.685   0.326   5.140
 7980SOL     OW24838   2.726   5.668   0.211
 7980SOL    HW124839   2.733   5.764   0.240
 7980SOL    HW224840   2.631   5.647   0.189
 7981SOL     OW24841   0.362   5.635   2.176
 7981SOL    HW124842   0.442   5.662   2.230
 7981SOL    HW224843   0.280   5.677   2.215
 7982SOL     OW24844   0.468   1.121   0.067
 7982SOL    HW124845   0.423   1.091   0.151
 7982SOL    HW224846   0.494   1.217   0.076
 7983SOL     OW24847   5.970   1.766   2.652
 7983SOL    HW124848   5.938   1.859   2.669
 7983SOL    HW224849   6.056   1.769   2.602
 7984SOL     OW24850   1.714   1.753   2.053
 7984SOL    HW124851   1.657   1.774   2.132
 7984SOL    HW224852   1.782   1.826   2.041
 7985SOL     OW24853   2.435   6.115   4.060
 7985SOL    HW124854   2.495   6.105   3.981
 7985SOL    HW224855   2.378   6.033   4.069
 7986SOL     OW24856   2.916   0.543   7.021
 7986SOL    HW124857   2.820   0.567   7.007
 7986SOL    HW224858   2.926   0.494   0.080
 7987SOL     OW24859   1.418   3.435   6.856
 7987SOL    HW124860   1.338   3.421   6.797
 7987SOL    HW224861   1.455   3.347   6.884
 7988SOL     OW24862   1.626   1.995   4.147
 7988SOL    HW124863   1.653   1.950   4.233
 7988SOL    HW224864   1.689   1.969   4.074
 7989SOL     OW24865   3.284   2.609   5.359
 7989SOL    HW124866   3.213   2.679   5.350
 7989SOL    HW224867   3.265   2.534   5.296
 7990SOL     OW24868   6.409   4.220   3.585
 7990SOL    HW124869   6.359   4.277   3.520
 7990SOL    HW224870   6.368   4.231   3.676
 7991SOL     OW24871   6.954   0.942   4.478
 7991SOL    HW124872   7.011   0.992   4.543
 7991SOL    HW224873   6.889   0.885   4.528
 7992SOL     OW24874   1.486   6.351   0.990
 7992SOL    HW124875   1.455   6.283   0.924
 7992SOL    HW224876   1.543   6.419   0.943
 7993SOL     OW24877   1.421   6.021   6.564
 7993SOL    HW124878   1.430   6.064   6.654
 7993SOL    HW224879   1.451   5.926   6.570
 7994SOL     OW24880   5.056   6.861   2.938
 7994SOL    HW124881   5.089   6.790   2.876
 7994SOL    HW224882   4.992   6.821   3.003
 7995SOL     OW24883   4.433   5.245   3.619
 7995SOL    HW124884   4.475   5.231   3.709
 7995SOL    HW224885   4.396   5.338   3.613
 7996SOL     OW24886   2.919   0.243   4.803
 7996SOL    HW124887   3.016   0.258   4.780
 7996SOL    HW224888   2.885   0.321   4.856
 7997SOL     OW24889   0.013   1.210   1.024
 7997SOL    HW124890   0.098   1.235   0.978
 7997SOL    HW224891   6.997   1.135   0.976
 7998SOL     OW24892   3.809   5.499   1.245
 7998SOL    HW124893   3.801   5.520   1.343
 7998SOL    HW224894   3.724   5.525   1.199
 7999SOL     OW24895   1.494   0.022   6.124
 7999SOL    HW124896   1.418   7.002   6.169
 7999SOL    HW224897   1.492   0.004   6.026
 8000SOL     OW24898   5.157   0.398   0.836
 8000SOL    HW124899   5.126   0.404   0.931
 8000SOL    HW224900   5.253   0.427   0.831
 8001SOL     OW24901   3.413   5.722   1.310
 8001SOL    HW124902   3.383   5.637   1.353
 8001SOL    HW224903   3.471   5.700   1.231
 8002SOL     OW24904   0.439   2.424   5.609
 8002SOL    HW124905   0.500   2.350   5.580
 8002SOL    HW224906   0.360   2.427   5.547
 8003SOL     OW24907   2.594   4.661   2.711
 8003SOL    HW124908   2.627   4.750   2.679
 8003SOL    HW224909   2.632   4.642   2.802
 8004SOL     OW24910   1.681   3.947   3.608
 8004SOL    HW124911   1.588   3.983   3.602
 8004SOL    HW224912   1.694   3.876   3.539
 8005SOL     OW24913   3.317   1.474   2.584
 8005SOL    HW124914   3.249   1.405   2.608
 8005SOL    HW224915   3.374   1.441   2.509
 8006SOL     OW24916   2.676   6.958   6.953
 8006SOL    HW124917   2.611   6.992   6.885
 8006SOL    HW224918   2.625   6.924   0.005
 8007SOL     OW24919   0.665   0.635   4.317
 8007SOL    HW124920   0.747   0.578   4.307
 8007SOL    HW224921   0.609   0.626   4.235
 8008SOL     OW24922   4.187   6.593   5.697
 8008SOL    HW124923   4.214   6.560   5.787
 8008SOL    HW224924   4.235   6.541   5.626
 8009SOL     OW24925   5.933   0.387   2.729
 8009SOL    HW124926   5.987   0.354   2.805
 8009SOL    HW224927   5.891   0.475   2.753
 8010SOL     OW24928   1.232   1.141   0.880
 8010SOL    HW124929   1.281   1.228   0.874
 8010SOL    HW224930   1.193   1.119   0.790
 8011SOL     OW24931   3.229   2.389   1.205
 8011SOL    HW124932   3.294   2.399   1.280
 8011SOL    HW224933   3.142   2.357   1.241
 8012SOL     OW24934   2.128   5.753   1.609
 8012SOL    HW124935   2.181   5.807   1.674
 8012SOL    HW224936   2.062   5.812   1.563
 8013SOL     OW24937   0.992   4.554   4.274
 8013SOL    HW124938   0.899   4.565   4.238
 8013SOL    HW224939   1.057   4.600   4.213
 8014SOL     OW24940   0.885   6.013   5.467
 8014SOL    HW124941   0.930   5.932   5.505
 8014SOL    HW224942   0.939   6.094   5.490
 8015SOL     OW24943   3.226   1.416   7.010
 8015SOL    HW124944   3.240   1.326   0.024
 8015SOL    HW224945   3.312   1.466   7.009
 8016SOL     OW24946   4.647   0.259   6.848
 8016SOL    HW124947   4.648   0.162   6.870
 8016SOL    HW224948   4.716   0.306   6.903
 8017SOL     OW24949   6.346   6.072   0.263
 8017SOL    HW124950   6.395   6.038   0.183
 8017SOL    HW224951   6.332   5.997   0.328
 8018SOL     OW24952   3.363   2.463   5.896
 8018SOL    HW124953   3.349   2.493   5.802
 8018SOL    HW224954   3.277   2.429   5.933
 8019SOL     OW24955   2.345   3.799   6.917
 8019SOL    HW124956   2.410   3.725   6.903
 8019SOL    HW224957   2.382   3.884   6.880
 8020SOL     OW24958   6.692   5.829   0.668
 8020SOL    HW124959   6.660   5.923   0.660
 8020SOL    HW224960   6.774   5.817   0.612
 8021SOL     OW24961   1.129   1.927   1.340
 8021SOL    HW124962   1.208   1.955   1.394
 8021SOL    HW224963   1.158   1.907   1.246
 8022SOL     OW24964   4.379   0.126   2.886
 8022SOL    HW124965   4.475   0.127   2.915
 8022SOL    HW224966   4.372   0.159   2.792
 8023SOL     OW24967   5.635   5.144   3.133
 8023SOL    HW124968   5.596   5.086   3.061
 8023SOL    HW224969   5.606   5.110   3.223
 8024SOL     OW24970   3.417   5.096   0.178
 8024SOL    HW124971   3.387   5.143   0.261
 8024SOL    HW224972   3.364   5.013   0.165
 8025SOL     OW24973   2.230   6.044   6.915
 8025SOL    HW124974   2.322   6.047   6.954
 8025SOL    HW224975   2.230   5.989   6.832
 8026SOL     OW24976   1.009   4.657   6.747
 8026SOL    HW124977   1.070   4.591   6.791
 8026SOL    HW224978   0.930   4.609   6.710
 8027SOL     OW24979   4.201   2.030   5.232
 8027SOL    HW124980   4.167   1.958   5.172
 8027SOL    HW224981   4.281   2.073   5.189
 8028SOL     OW24982   2.565   4.980   5.402
 8028SOL    HW124983   2.496   4.933   5.348
 8028SOL    HW224984   2.650   4.927   5.403
 8029SOL     OW24985   5.179   3.513   0.142
 8029SOL    HW124986   5.145   3.419   0.147
 8029SOL    HW224987   5.244   3.521   0.067
 8030SOL     OW24988   4.805   4.105   0.158
 8030SOL    HW124989   4.879   4.141   0.215
 8030SOL    HW224990   4.719   4.106   0.209
 8031SOL     OW24991   4.515   6.215   2.725
 8031SOL    HW124992   4.426   6.259   2.714
 8031SOL    HW224993   4.566   6.219   2.639
 8032SOL     OW24994   5.591   4.264   5.939
 8032SOL    HW124995   5.642   4.218   6.012
 8032SOL    HW224996   5.655   4.314   5.880
 8033SOL     OW24997   4.918   3.716   6.440
 8033SOL    HW124998   4.908   3.773   6.522
 8033SOL    HW224999   4.958   3.628   6.465
 8034SOL     OW25000   6.640   1.079   5.153
 8034SOL    HW125001   6.685   1.150   5.099
 8034SOL    HW225002   6.707   1.033   5.211
 8035SOL     OW25003   4.918   1.000   5.413
 8035SOL    HW125004   4.990   1.007   5.483
 8035SOL    HW225005   4.836   0.959   5.454
 8036SOL     OW25006   0.426   4.353   2.380
 8036SOL    HW125007   0.456   4.306   2.462
 8036SOL    HW225008   0.331   4.331   2.361
 8037SOL     OW25009   1.769   3.247   1.547
 8037SOL    HW125010   1.731   3.340   1.539
 8037SOL    HW225011   1.795   3.231   1.642
 8038SOL     OW25012   4.368   1.083   3.061
 8038SOL    HW125013   4.426   1.071   3.141
 8038SOL    HW225014   4.425   1.090   2.979
 8039SOL     OW25015   1.112   0.623   3.975
 8039SOL    HW125016   1.014   0.630   3.995
 8039SOL    HW225017   1.130   0.661   3.885
 8040SOL     OW25018   1.361   6.166   0.831
 8040SOL    HW125019   1.319   6.143   0.919
 8040SOL    HW225020   1.337   6.096   0.764
 8041SOL     OW25021   2.902   1.806   2.080
 8041SOL    HW125022   2.965   1.782   2.154
 8041SOL    HW225023   2.924   1.897   2.045
 8042SOL     OW25024   3.314   3.013   3.794
 8042SOL    HW125025   3.300   3.086   3.862
 8042SOL    HW225026   3.228   2.963   3.782
 8043SOL     OW25027   3.541   6.953   2.103
 8043SOL    HW125028   3.529   6.990   2.196
 8043SOL    HW225029   3.537   7.027   2.037
 8044SOL     OW25030   3.680   3.396   0.343
 8044SOL    HW125031   3.718   3.320   0.290
 8044SOL    HW225032   3.738   3.477   0.333
 8045SOL     OW25033   5.594   0.286   1.131
 8045SOL    HW125034   5.560   0.287   1.225
 8045SOL    HW225035   5.640   0.199   1.113
 8046SOL     OW25036   6.600   5.143   0.220
 8046SOL    HW125037   6.669   5.125   0.150
 8046SOL    HW225038   6.594   5.242   0.235
 8047SOL     OW25039   3.966   5.297   4.620
 8047SOL    HW125040   4.022   5.329   4.544
 8047SOL    HW225041   4.012   5.319   4.706
 8048SOL     OW25042   5.435   0.842   6.004
 8048SOL    HW125043   5.364   0.897   5.960
 8048SOL    HW225044   5.521   0.891   6.004
 8049SOL     OW25045   1.786   0.297   0.814
 8049SOL    HW125046   1.830   0.355   0.882
 8049SOL    HW225047   1.692   0.327   0.800
 8050SOL     OW25048   1.266   3.981   2.099
 8050SOL    HW125049   1.364   3.986   2.077
 8050SOL    HW225050   1.235   3.887   2.089
 8051SOL     OW25051   4.477   5.975   3.151
 8051SOL    HW125052   4.519   6.040   3.088
 8051SOL    HW225053   4.492   6.005   3.245
 8052SOL     OW25054   4.220   1.558   2.107
 8052SOL    HW125055   4.131   1.600   2.121
 8052SOL    HW225056   4.276   1.570   2.189
 8053SOL     OW25057   3.730   3.510   3.340
 8053SOL    HW125058   3.793   3.517   3.417
 8053SOL    HW225059   3.673   3.428   3.352
 8054SOL     OW25060   5.182   0.095   4.299
 8054SOL    HW125061   5.203   0.009   4.252
 8054SOL    HW225062   5.083   0.107   4.305
 8055SOL     OW25063   6.690   0.462   6.327
 8055SOL    HW125064   6.716   0.394   6.396
 8055SOL    HW225065   6.767   0.525   6.311
 8056SOL     OW25066   4.535   1.914   4.187
 8056SOL    HW125067   4.600   1.842   4.210
 8056SOL    HW225068   4.456   1.908   4.248
 8057SOL     OW25069   2.798   2.333   3.159
 8057SOL    HW125070   2.776   2.343   3.256
 8057SOL    HW225071   2.885   2.286   3.149
 8058SOL     OW25072   4.601   0.456   2.948
 8058SOL    HW125073   4.645   0.519   3.011
 8058SOL    HW225074   4.511   0.430   2.984
 8059SOL     OW25075   4.704   2.763   4.791
 8059SOL    HW125076   4.641   2.718   4.728
 8059SOL    HW225077   4.766   2.823   4.739
 8060SOL     OW25078   0.496   2.471   4.247
 8060SOL    HW125079   0.420   2.450   4.308
 8060SOL    HW225080   0.517   2.391   4.191
 8061SOL     OW25081   6.699   6.935   1.642
 8061SOL    HW125082   6.745   6.989   1.713
 8061SOL    HW225083   6.602   6.956   1.641
 8062SOL     OW25084   2.757   4.769   4.309
 8062SOL    HW125085   2.717   4.805   4.393
 8062SOL    HW225086   2.719   4.678   4.290
 8063SOL     OW25087   0.986   2.663   0.690
 8063SOL    HW125088   0.912   2.627   0.632
 8063SOL    HW225089   0.973   2.631   0.784
 8064SOL     OW25090   0.096   4.996   0.976
 8064SOL    HW125091   0.070   5.052   1.055
 8064SOL    HW225092   0.179   5.034   0.935
 8065SOL     OW25093   4.430   6.440   4.029
 8065SOL    HW125094   4.435   6.342   4.011
 8065SOL    HW225095   4.345   6.477   3.992
 8066SOL     OW25096   0.964   1.941   6.242
 8066SOL    HW125097   1.053   1.978   6.217
 8066SOL    HW225098   0.903   1.944   6.163
 8067SOL     OW25099   4.669   3.222   1.677
 8067SOL    HW125100   4.667   3.168   1.761
 8067SOL    HW225101   4.613   3.304   1.688
 8068SOL     OW25102   5.981   4.472   0.334
 8068SOL    HW125103   5.913   4.540   0.308
 8068SOL    HW225104   6.059   4.475   0.271
 8069SOL     OW25105   2.076   5.767   1.049
 8069SOL    HW125106   2.142   5.701   1.086
 8069SOL    HW225107   1.983   5.733   1.061
 8070SOL     OW25108   2.959   2.896   0.386
 8070SOL    HW125109   2.992   2.935   0.472
 8070SOL    HW225110   3.010   2.936   0.310
 8071SOL     OW25111   2.940   6.089   4.829
 8071SOL    HW125112   2.855   6.036   4.828
 8071SOL    HW225113   3.004   6.048   4.894
 8072SOL     OW25114   3.401   0.587   6.724
 8072SOL    HW125115   3.374   0.492   6.708
 8072SOL    HW225116   3.498   0.591   6.749
 8073SOL     OW25117   4.383   5.700   5.976
 8073SOL    HW125118   4.409   5.668   6.067
 8073SOL    HW225119   4.359   5.797   5.980
 8074SOL     OW25120   3.375   2.526   0.115
 8074SOL    HW125121   3.282   2.561   0.102
 8074SOL    HW225122   3.427   2.590   0.172
 8075SOL     OW25123   6.727   0.898   1.214
 8075SOL    HW125124   6.725   0.949   1.300
 8075SOL    HW225125   6.637   0.901   1.171
 8076SOL     OW25126   5.433   2.511   5.647
 8076SOL    HW125127   5.341   2.513   5.685
 8076SOL    HW225128   5.499   2.499   5.721
 8077SOL     OW25129   1.598   5.167   1.818
 8077SOL    HW125130   1.641   5.256   1.799
 8077SOL    HW225131   1.638   5.098   1.758
 8078SOL     OW25132   6.083   1.351   0.419
 8078SOL    HW125133   6.009   1.349   0.486
 8078SOL    HW225134   6.054   1.306   0.335
 8079SOL     OW25135   5.407   1.481   3.374
 8079SOL    HW125136   5.372   1.400   3.420
 8079SOL    HW225137   5.478   1.524   3.431
 8080SOL     OW25138   0.174   3.876   0.054
 8080SOL    HW125139   0.131   3.905   0.140
 8080SOL    HW225140   0.272   3.863   0.069
 8081SOL     OW25141   4.795   0.282   4.631
 8081SOL    HW125142   4.806   0.191   4.671
 8081SOL    HW225143   4.850   0.289   4.547
 8082SOL     OW25144   6.058   0.886   1.699
 8082SOL    HW125145   6.065   0.963   1.763
 8082SOL    HW225146   6.146   0.839   1.694
 8083SOL     OW25147   5.339   3.867   2.627
 8083SOL    HW125148   5.410   3.934   2.650
 8083SOL    HW225149   5.261   3.878   2.689
 8084SOL     OW25150   5.282   6.995   0.474
 8084SOL    HW125151   5.214   6.923   0.470
 8084SOL    HW225152   5.373   6.957   0.459
 8085SOL     OW25153   6.320   0.170   2.586
 8085SOL    HW125154   6.248   0.219   2.538
 8085SOL    HW225155   6.297   0.162   2.683
 8086SOL     OW25156   4.779   1.166   3.989
 8086SOL    HW125157   4.755   1.162   4.086
 8086SOL    HW225158   4.850   1.099   3.969
 8087SOL     OW25159   2.743   1.924   0.853
 8087SOL    HW125160   2.748   1.860   0.777
 8087SOL    HW225161   2.783   1.883   0.935
 8088SOL     OW25162   5.600   2.013   1.190
 8088SOL    HW125163   5.505   1.980   1.186
 8088SOL    HW225164   5.662   1.937   1.179
 8089SOL     OW25165   5.180   2.872   0.706
 8089SOL    HW125166   5.095   2.876   0.655
 8089SOL    HW225167   5.164   2.901   0.801
 8090SOL     OW25168   4.197   2.621   6.707
 8090SOL    HW125169   4.269   2.559   6.737
 8090SOL    HW225170   4.237   2.695   6.653
 8091SOL     OW25171   2.735   3.691   6.987
 8091SOL    HW125172   2.643   3.667   6.956
 8091SOL    HW225173   2.758   3.784   6.957
 8092SOL     OW25174   1.156   2.094   5.094
 8092SOL    HW125175   1.157   2.159   5.017
 8092SOL    HW225176   1.072   2.106   5.147
 8093SOL     OW25177   4.704   5.780   1.846
 8093SOL    HW125178   4.632   5.729   1.798
 8093SOL    HW225179   4.670   5.872   1.869
 8094SOL     OW25180   1.975   4.096   4.516
 8094SOL    HW125181   1.895   4.074   4.459
 8094SOL    HW225182   1.993   4.020   4.579
 8095SOL     OW25183   5.744   4.455   4.489
 8095SOL    HW125184   5.730   4.457   4.390
 8095SOL    HW225185   5.833   4.414   4.510
 8096SOL     OW25186   3.226   5.445   3.972
 8096SOL    HW125187   3.207   5.397   3.886
 8096SOL    HW225188   3.219   5.381   4.048
 8097SOL     OW25189   5.015   6.944   3.300
 8097SOL    HW125190   5.066   6.907   3.378
 8097SOL    HW225191   5.005   6.872   3.231
 8098SOL     OW25192   2.464   6.772   3.917
 8098SOL    HW125193   2.546   6.829   3.927
 8098SOL    HW225194   2.384   6.831   3.910
 8099SOL     OW25195   5.593   0.146   3.796
 8099SOL    HW125196   5.630   0.053   3.796
 8099SOL    HW225197   5.515   0.151   3.733
 8100SOL     OW25198   6.913   6.688   6.790
 8100SOL    HW125199   6.911   6.712   6.693
 8100SOL    HW225200   6.821   6.697   6.829
 8101SOL     OW25201   2.129   0.299   3.871
 8101SOL    HW125202   2.112   0.355   3.952
 8101SOL    HW225203   2.219   0.256   3.879
 8102SOL     OW25204   1.196   4.779   4.899
 8102SOL    HW125205   1.096   4.780   4.905
 8102SOL    HW225206   1.225   4.702   4.841
 8103SOL     OW25207   4.419   0.582   0.775
 8103SOL    HW125208   4.323   0.580   0.749
 8103SOL    HW225209   4.473   0.531   0.707
 8104SOL     OW25210   2.651   6.402   6.077
 8104SOL    HW125211   2.731   6.406   6.138
 8104SOL    HW225212   2.655   6.478   6.012
 8105SOL     OW25213   1.869   2.214   2.931
 8105SOL    HW125214   1.950   2.155   2.935
 8105SOL    HW225215   1.792   2.168   2.975
 8106SOL     OW25216   2.563   5.680   3.513
 8106SOL    HW125217   2.588   5.666   3.417
 8106SOL    HW225218   2.464   5.674   3.523
 8107SOL     OW25219   1.317   5.944   4.935
 8107SOL    HW125220   1.241   5.887   4.904
 8107SOL    HW225221   1.375   5.891   4.998
 8108SOL     OW25222   5.731   3.212   4.975
 8108SOL    HW125223   5.785   3.292   4.998
 8108SOL    HW225224   5.787   3.130   4.985
 8109SOL     OW25225   1.035   3.881   4.073
 8109SOL    HW125226   0.971   3.942   4.028
 8109SOL    HW225227   1.022   3.886   4.172
 8110SOL     OW25228   3.419   6.247   1.191
 8110SOL    HW125229   3.427   6.162   1.139
 8110SOL    HW225230   3.506   6.296   1.188
 8111SOL     OW25231   4.035   0.659   5.335
 8111SOL    HW125232   4.106   0.729   5.329
 8111SOL    HW225233   4.076   0.569   5.320
 8112SOL     OW25234   1.546   1.507   4.308
 8112SOL    HW125235   1.563   1.593   4.356
 8112SOL    HW225236   1.570   1.431   4.368
 8113SOL     OW25237   3.010   3.395   0.524
 8113SOL    HW125238   3.014   3.495   0.523
 8113SOL    HW225239   2.943   3.365   0.591
 8114SOL     OW25240   2.053   3.173   1.450
 8114SOL    HW125241   1.968   3.209   1.488
 8114SOL    HW225242   2.040   3.149   1.354
 8115SOL     OW25243   4.119   1.226   1.752
 8115SOL    HW125244   4.165   1.237   1.840
 8115SOL    HW225245   4.029   1.270   1.755
 8116SOL     OW25246   5.019   0.455   5.061
 8116SOL    HW125247   5.059   0.543   5.087
 8116SOL    HW225248   5.002   0.454   4.963
 8117SOL     OW25249   2.160   1.379   4.615
 8117SOL    HW125250   2.132   1.352   4.523
 8117SOL    HW225251   2.245   1.332   4.639
 8118SOL     OW25252   6.566   3.166   6.141
 8118SOL    HW125253   6.659   3.204   6.140
 8118SOL    HW225254   6.502   3.235   6.106
 8119SOL     OW25255   6.183   5.599   5.084
 8119SOL    HW125256   6.123   5.679   5.083
 8119SOL    HW225257   6.154   5.537   5.157
 8120SOL     OW25258   3.386   4.634   6.855
 8120SOL    HW125259   3.358   4.580   6.775
 8120SOL    HW225260   3.342   4.724   6.852
 8121SOL     OW25261   7.010   5.000   2.846
 8121SOL    HW125262   6.932   5.021   2.904
 8121SOL    HW225263   6.978   4.982   2.753
 8122SOL     OW25264   1.277   5.767   2.627
 8122SOL    HW125265   1.345   5.712   2.676
 8122SOL    HW225266   1.186   5.726   2.640
 8123SOL     OW25267   0.145   7.024   6.696
 8123SOL    HW125268   0.144   6.958   6.621
 8123SOL    HW225269   0.072   0.063   6.683
 8124SOL     OW25270   0.033   6.336   1.034
 8124SOL    HW125271   0.074   6.353   0.945
 8124SOL    HW225272   6.991   6.405   1.053
 8125SOL     OW25273   1.030   6.682   3.023
 8125SOL    HW125274   0.980   6.657   2.940
 8125SOL    HW225275   0.967   6.679   3.101
 8126SOL     OW25276   6.425   3.880   2.428
 8126SOL    HW125277   6.518   3.890   2.393
 8126SOL    HW225278   6.367   3.840   2.357
 8127SOL     OW25279   2.210   6.107   0.910
 8127SOL    HW125280   2.292   6.159   0.885
 8127SOL    HW225281   2.184   6.048   0.834
 8128SOL     OW25282   2.768   3.313   0.970
 8128SOL    HW125283   2.858   3.325   1.012
 8128SOL    HW225284   2.699   3.300   1.041
 8129SOL     OW25285   4.126   1.426   5.708
 8129SOL    HW125286   4.073   1.376   5.639
 8129SOL    HW225287   4.194   1.365   5.748
 8130SOL     OW25288   0.441   4.797   6.276
 8130SOL    HW125289   0.343   4.792   6.293
 8130SOL    HW225290   0.461   4.773   6.181
 8131SOL     OW25291   2.742   0.534   1.156
 8131SOL    HW125292   2.745   0.556   1.253
 8131SOL    HW225293   2.829   0.492   1.129
 8132SOL     OW25294   5.492   6.443   6.196
 8132SOL    HW125295   5.420   6.463   6.130
 8132SOL    HW225296   5.572   6.408   6.148
 8133SOL     OW25297   3.641   4.974   1.756
 8133SOL    HW125298   3.638   4.896   1.818
 8133SOL    HW225299   3.568   4.966   1.688
 8134SOL     OW25300   0.879   1.486   4.275
 8134SOL    HW125301   0.857   1.412   4.339
 8134SOL    HW225302   0.957   1.459   4.219
 8135SOL     OW25303   2.545   5.424   1.400
 8135SOL    HW125304   2.554   5.414   1.301
 8135SOL    HW225305   2.473   5.363   1.433
 8136SOL     OW25306   4.665   4.330   2.702
 8136SOL    HW125307   4.755   4.347   2.662
 8136SOL    HW225308   4.645   4.400   2.771
 8137SOL     OW25309   2.080   1.486   4.169
 8137SOL    HW125310   2.177   1.508   4.177
 8137SOL    HW225311   2.032   1.513   4.252
 8138SOL     OW25312   5.531   2.304   0.532
 8138SOL    HW125313   5.456   2.307   0.598
 8138SOL    HW225314   5.507   2.242   0.457
 8139SOL     OW25315   2.039   2.457   3.520
 8139SOL    HW125316   2.103   2.382   3.508
 8139SOL    HW225317   1.982   2.465   3.438
 8140SOL     OW25318   3.650   0.005   0.798
 8140SOL    HW125319   3.643   0.096   0.840
 8140SOL    HW225320   3.573   7.018   0.736
 8141SOL     OW25321   4.567   6.930   5.616
 8141SOL    HW125322   4.539   6.841   5.579
 8141SOL    HW225323   4.662   6.924   5.648
 8142SOL     OW25324   2.048   4.918   0.589
 8142SOL    HW125325   2.057   4.968   0.502
 8142SOL    HW225326   2.043   4.983   0.664
 8143SOL     OW25327   5.184   5.085   0.814
 8143SOL    HW125328   5.255   5.074   0.745
 8143SOL    HW225329   5.198   5.171   0.863
 8144SOL     OW25330   0.707   5.734   5.612
 8144SOL    HW125331   0.616   5.711   5.647
 8144SOL    HW225332   0.757   5.787   5.681
 8145SOL     OW25333   5.547   5.125   0.854
 8145SOL    HW125334   5.620   5.056   0.855
 8145SOL    HW225335   5.524   5.148   0.760
 8146SOL     OW25336   5.681   0.541   5.694
 8146SOL    HW125337   5.654   0.493   5.610
 8146SOL    HW225338   5.754   0.606   5.674
 8147SOL     OW25339   6.827   0.704   0.896
 8147SOL    HW125340   6.852   0.680   0.802
 8147SOL    HW225341   6.738   0.663   0.919
 8148SOL     OW25342   4.161   5.204   6.481
 8148SOL    HW125343   4.223   5.158   6.545
 8148SOL    HW225344   4.215   5.259   6.417
 8149SOL     OW25345   1.338   6.656   3.010
 8149SOL    HW125346   1.244   6.680   3.035
 8149SOL    HW225347   1.385   6.617   3.090
 8150SOL     OW25348   0.766   4.039   1.042
 8150SOL    HW125349   0.687   4.010   0.988
 8150SOL    HW225350   0.820   4.105   0.990
 8151SOL     OW25351   5.654   5.095   3.650
 8151SOL    HW125352   5.625   5.062   3.739
 8151SOL    HW225353   5.754   5.098   3.646
 8152SOL     OW25354   6.463   3.352   3.188
 8152SOL    HW125355   6.406   3.430   3.163
 8152SOL    HW225356   6.545   3.351   3.131
 8153SOL     OW25357   1.100   1.343   2.941
 8153SOL    HW125358   1.188   1.319   2.982
 8153SOL    HW225359   1.027   1.300   2.993
 8154SOL     OW25360   3.617   6.444   2.836
 8154SOL    HW125361   3.609   6.498   2.920
 8154SOL    HW225362   3.595   6.349   2.855
 8155SOL     OW25363   1.537   3.980   2.087
 8155SOL    HW125364   1.609   3.991   2.156
 8155SOL    HW225365   1.552   3.894   2.037
 8156SOL     OW25366   4.666   6.115   0.702
 8156SOL    HW125367   4.763   6.135   0.721
 8156SOL    HW225368   4.625   6.071   0.782
 8157SOL     OW25369   6.205   4.489   6.339
 8157SOL    HW125370   6.133   4.552   6.312
 8157SOL    HW225371   6.213   4.417   6.269
 8158SOL     OW25372   5.186   4.292   0.148
 8158SOL    HW125373   5.138   4.311   0.062
 8158SOL    HW225374   5.145   4.346   0.222
 8159SOL     OW25375   2.938   5.588   4.707
 8159SOL    HW125376   2.929   5.626   4.799
 8159SOL    HW225377   2.981   5.498   4.713
 8160SOL     OW25378   4.759   0.337   3.677
 8160SOL    HW125379   4.823   0.385   3.618
 8160SOL    HW225380   4.665   0.362   3.651
 8161SOL     OW25381   5.597   3.985   6.423
 8161SOL    HW125382   5.645   3.947   6.502
 8161SOL    HW225383   5.498   3.973   6.436
 8162SOL     OW25384   6.392   5.486   6.652
 8162SOL    HW125385   6.432   5.572   6.619
 8162SOL    HW225386   6.459   5.412   6.640
 8163SOL     OW25387   2.299   4.333   5.564
 8163SOL    HW125388   2.300   4.259   5.497
 8163SOL    HW225389   2.295   4.421   5.516
 8164SOL     OW25390   4.415   1.500   0.353
 8164SOL    HW125391   4.358   1.418   0.358
 8164SOL    HW225392   4.482   1.499   0.427
 8165SOL     OW25393   6.762   3.882   6.131
 8165SOL    HW125394   6.842   3.909   6.076
 8165SOL    HW225395   6.786   3.805   6.190
 8166SOL     OW25396   1.425   0.681   3.354
 8166SOL    HW125397   1.375   0.596   3.339
 8166SOL    HW225398   1.442   0.726   3.266
 8167SOL     OW25399   0.511   0.919   3.463
 8167SOL    HW125400   0.417   0.950   3.449
 8167SOL    HW225401   0.532   0.846   3.397
 8168SOL     OW25402   2.682   0.637   1.693
 8168SOL    HW125403   2.711   0.544   1.715
 8168SOL    HW225404   2.760   0.699   1.703
 8169SOL     OW25405   4.237   2.513   0.449
 8169SOL    HW125406   4.197   2.460   0.523
 8169SOL    HW225407   4.199   2.605   0.449
 8170SOL     OW25408   6.530   4.756   1.542
 8170SOL    HW125409   6.456   4.740   1.477
 8170SOL    HW225410   6.613   4.783   1.493
 8171SOL     OW25411   2.071   0.942   6.473
 8171SOL    HW125412   2.129   1.009   6.519
 8171SOL    HW225413   2.003   0.990   6.418
 8172SOL     OW25414   6.975   1.995   1.897
 8172SOL    HW125415   6.987   2.076   1.840
 8172SOL    HW225416   7.021   1.917   1.854
 8173SOL     OW25417   5.560   1.633   2.255
 8173SOL    HW125418   5.609   1.607   2.172
 8173SOL    HW225419   5.514   1.554   2.293
 8174SOL     OW25420   0.749   6.762   2.629
 8174SOL    HW125421   0.775   6.822   2.553
 8174SOL    HW225422   0.666   6.711   2.605
 8175SOL     OW25423   0.187   3.128   4.861
 8175SOL    HW125424   0.141   3.040   4.875
 8175SOL    HW225425   0.217   3.165   4.949
 8176SOL     OW25426   2.272   4.828   1.610
 8176SOL    HW125427   2.365   4.795   1.629
 8176SOL    HW225428   2.240   4.882   1.688
 8177SOL     OW25429   4.962   0.718   3.812
 8177SOL    HW125430   4.953   0.640   3.874
 8177SOL    HW225431   5.038   0.702   3.749
 8178SOL     OW25432   3.053   6.806   0.879
 8178SOL    HW125433   3.047   6.761   0.968
 8178SOL    HW225434   3.144   6.790   0.840
 8179SOL     OW25435   5.489   1.058   5.108
 8179SOL    HW125436   5.584   1.046   5.082
 8179SOL    HW225437   5.457   1.148   5.077
 8180SOL     OW25438   6.302   0.830   6.457
 8180SOL    HW125439   6.393   0.849   6.420
 8180SOL    HW225440   6.288   0.732   6.462
 8181SOL     OW25441   1.663   1.387   0.723
 8181SOL    HW125442   1.642   1.485   0.711
 8181SOL    HW225443   1.762   1.374   0.726
 8182SOL     OW25444   2.919   3.286   5.601
 8182SOL    HW125445   2.854   3.209   5.600
 8182SOL    HW225446   2.999   3.262   5.546
 8183SOL     OW25447   6.630   2.052   4.567
 8183SOL    HW125448   6.579   2.044   4.653
 8183SOL    HW225449   6.566   2.048   4.491
 8184SOL     OW25450   0.388   6.858   0.309
 8184SOL    HW125451   0.299   6.877   0.351
 8184SOL    HW225452   0.427   6.776   0.350
 8185SOL     OW25453   1.813   0.311   0.106
 8185SOL    HW125454   1.880   0.312   0.032
 8185SOL    HW225455   1.721   0.310   0.067
 8186SOL     OW25456   2.913   4.126   5.919
 8186SOL    HW125457   2.914   4.127   5.819
 8186SOL    HW225458   2.906   4.219   5.954
 8187SOL     OW25459   1.955   1.213   4.791
 8187SOL    HW125460   2.009   1.154   4.851
 8187SOL    HW225461   1.949   1.304   4.831
 8188SOL     OW25462   4.925   3.432   3.685
 8188SOL    HW125463   4.830   3.459   3.699
 8188SOL    HW225464   4.929   3.344   3.638
 8189SOL     OW25465   5.213   4.977   2.986
 8189SOL    HW125466   5.279   5.026   3.043
 8189SOL    HW225467   5.258   4.899   2.942
 8190SOL     OW25468   4.839   3.817   3.914
 8190SOL    HW125469   4.837   3.755   3.993
 8190SOL    HW225470   4.911   3.885   3.927
 8191SOL     OW25471   3.340   5.416   2.718
 8191SOL    HW125472   3.291   5.451   2.638
 8191SOL    HW225473   3.393   5.336   2.691
 8192SOL     OW25474   2.271   5.559   1.941
 8192SOL    HW125475   2.209   5.522   2.009
 8192SOL    HW225476   2.338   5.490   1.916
 8193SOL     OW25477   6.480   5.490   5.652
 8193SOL    HW125478   6.488   5.391   5.646
 8193SOL    HW225479   6.409   5.521   5.588
 8194SOL     OW25480   4.940   0.465   1.365
 8194SOL    HW125481   4.994   0.520   1.428
 8194SOL    HW225482   4.936   0.371   1.398
 8195SOL     OW25483   6.868   0.163   3.292
 8195SOL    HW125484   6.816   0.152   3.207
 8195SOL    HW225485   6.855   0.256   3.327
 8196SOL     OW25486   3.949   6.205   6.924
 8196SOL    HW125487   3.853   6.179   6.919
 8196SOL    HW225488   3.959   6.288   6.978
 8197SOL     OW25489   3.158   0.835   0.449
 8197SOL    HW125490   3.092   0.838   0.373
 8197SOL    HW225491   3.245   0.799   0.415
 8198SOL     OW25492   3.360   6.574   2.821
 8198SOL    HW125493   3.331   6.485   2.855
 8198SOL    HW225494   3.380   6.567   2.723
 8199SOL     OW25495   5.723   2.985   5.917
 8199SOL    HW125496   5.741   3.011   5.822
 8199SOL    HW225497   5.810   2.970   5.964
 8200SOL     OW25498   5.556   4.489   1.589
 8200SOL    HW125499   5.645   4.491   1.544
 8200SOL    HW225500   5.510   4.403   1.567
 8201SOL     OW25501   5.837   0.862   5.001
 8201SOL    HW125502   5.933   0.861   5.032
 8201SOL    HW225503   5.777   0.853   5.080
 8202SOL     OW25504   0.541   5.677   3.694
 8202SOL    HW125505   0.510   5.772   3.700
 8202SOL    HW225506   0.471   5.617   3.732
 8203SOL     OW25507   3.130   2.621   6.785
 8203SOL    HW125508   3.211   2.590   6.735
 8203SOL    HW225509   3.057   2.643   6.721
 8204SOL     OW25510   3.875   4.800   6.925
 8204SOL    HW125511   3.835   4.712   6.954
 8204SOL    HW225512   3.824   4.834   6.846
 8205SOL     OW25513   0.405   4.763   7.002
 8205SOL    HW125514   0.367   4.810   6.922
 8205SOL    HW225515   0.372   4.668   7.004
 8206SOL     OW25516   4.971   2.198   0.140
 8206SOL    HW125517   4.896   2.158   0.194
 8206SOL    HW225518   5.026   2.124   0.100
 8207SOL     OW25519   3.093   3.164   4.586
 8207SOL    HW125520   3.095   3.166   4.686
 8207SOL    HW225521   3.153   3.091   4.553
 8208SOL     OW25522   1.025   0.590   1.054
 8208SOL    HW125523   1.121   0.572   1.078
 8208SOL    HW225524   1.014   0.687   1.033
 8209SOL     OW25525   0.493   1.616   4.910
 8209SOL    HW125526   0.437   1.698   4.897
 8209SOL    HW225527   0.552   1.603   4.830
 8210SOL     OW25528   2.546   1.991   0.362
 8210SOL    HW125529   2.611   2.050   0.411
 8210SOL    HW225530   2.498   2.045   0.293
 8211SOL     OW25531   3.807   4.516   1.497
 8211SOL    HW125532   3.743   4.452   1.453
 8211SOL    HW225533   3.755   4.593   1.536
 8212SOL     OW25534   2.126   2.317   2.306
 8212SOL    HW125535   2.128   2.408   2.345
 8212SOL    HW225536   2.121   2.323   2.206
 8213SOL     OW25537   6.547   4.482   1.874
 8213SOL    HW125538   6.554   4.580   1.861
 8213SOL    HW225539   6.624   4.449   1.928
 8214SOL     OW25540   5.782   5.611   3.827
 8214SOL    HW125541   5.719   5.589   3.753
 8214SOL    HW225542   5.874   5.623   3.791
 8215SOL     OW25543   3.101   5.535   5.905
 8215SOL    HW125544   3.195   5.549   5.875
 8215SOL    HW225545   3.065   5.620   5.942
 8216SOL     OW25546   5.333   5.138   3.950
 8216SOL    HW125547   5.424   5.130   3.908
 8216SOL    HW225548   5.340   5.113   4.047
 8217SOL     OW25549   1.471   4.646   0.398
 8217SOL    HW125550   1.493   4.598   0.483
 8217SOL    HW225551   1.556   4.676   0.354
 8218SOL     OW25552   0.136   6.831   6.494
 8218SOL    HW125553   0.107   6.742   6.529
 8218SOL    HW225554   0.066   6.867   6.434
 8219SOL     OW25555   4.447   2.835   0.952
 8219SOL    HW125556   4.423   2.776   1.029
 8219SOL    HW225557   4.381   2.824   0.879
 8220SOL     OW25558   3.981   3.045   3.183
 8220SOL    HW125559   3.894   2.995   3.177
 8220SOL    HW225560   4.018   3.057   3.091
 8221SOL     OW25561   5.388   6.498   4.092
 8221SOL    HW125562   5.327   6.420   4.106
 8221SOL    HW225563   5.403   6.511   3.994
 8222SOL     OW25564   5.524   1.199   1.357
 8222SOL    HW125565   5.557   1.200   1.451
 8222SOL    HW225566   5.535   1.107   1.319
 8223SOL     OW25567   1.157   4.676   5.579
 8223SOL    HW125568   1.179   4.721   5.666
 8223SOL    HW225569   1.149   4.578   5.594
 8224SOL     OW25570   6.340   0.969   2.602
 8224SOL    HW125571   6.396   1.051   2.591
 8224SOL    HW225572   6.282   0.958   2.522
 8225SOL     OW25573   3.098   1.245   0.264
 8225SOL    HW125574   3.029   1.173   0.256
 8225SOL    HW225575   3.176   1.223   0.205
 8226SOL     OW25576   4.135   6.930   1.434
 8226SOL    HW125577   4.088   6.851   1.395
 8226SOL    HW225578   4.116   6.935   1.532
 8227SOL     OW25579   6.839   1.918   2.984
 8227SOL    HW125580   6.906   1.976   2.938
 8227SOL    HW225581   6.850   1.823   2.953
 8228SOL     OW25582   6.551   2.340   5.437
 8228SOL    HW125583   6.465   2.391   5.433
 8228SOL    HW225584   6.593   2.339   5.346
 8229SOL     OW25585   4.065   3.388   0.466
 8229SOL    HW125586   4.026   3.308   0.421
 8229SOL    HW225587   3.998   3.427   0.529
 8230SOL     OW25588   4.333   0.051   5.685
 8230SOL    HW125589   4.406   7.013   5.664
 8230SOL    HW225590   4.363   0.144   5.663
 8231SOL     OW25591   3.452   4.774   0.808
 8231SOL    HW125592   3.437   4.701   0.741
 8231SOL    HW225593   3.442   4.738   0.900
 8232SOL     OW25594   4.918   1.142   1.945
 8232SOL    HW125595   4.917   1.239   1.970
 8232SOL    HW225596   4.947   1.088   2.024
 8233SOL     OW25597   1.388   6.134   6.333
 8233SOL    HW125598   1.303   6.184   6.346
 8233SOL    HW225599   1.404   6.074   6.411
 8234SOL     OW25600   2.984   4.654   6.625
 8234SOL    HW125601   3.025   4.567   6.652
 8234SOL    HW225602   2.948   4.647   6.532
 8235SOL     OW25603   0.462   3.597   0.285
 8235SOL    HW125604   0.554   3.572   0.313
 8235SOL    HW225605   0.452   3.696   0.288
 8236SOL     OW25606   0.586   4.759   0.537
 8236SOL    HW125607   0.492   4.757   0.570
 8236SOL    HW225608   0.606   4.676   0.485
 8237SOL     OW25609   4.324   6.786   4.546
 8237SOL    HW125610   4.291   6.765   4.453
 8237SOL    HW225611   4.258   6.845   4.592
 8238SOL     OW25612   0.880   5.319   6.604
 8238SOL    HW125613   0.852   5.226   6.627
 8238SOL    HW225614   0.927   5.318   6.516
 8239SOL     OW25615   6.511   1.201   6.175
 8239SOL    HW125616   6.464   1.162   6.255
 8239SOL    HW225617   6.534   1.127   6.112
 8240SOL     OW25618   3.467   4.156   2.390
 8240SOL    HW125619   3.513   4.160   2.479
 8240SOL    HW225620   3.368   4.164   2.404
 8241SOL     OW25621   4.061   0.289   5.891
 8241SOL    HW125622   4.062   0.285   5.791
 8241SOL    HW225623   3.978   0.245   5.925
 8242SOL     OW25624   0.383   4.894   5.950
 8242SOL    HW125625   0.408   4.798   5.951
 8242SOL    HW225626   0.403   4.933   5.861
 8243SOL     OW25627   0.544   2.487   0.628
 8243SOL    HW125628   0.642   2.503   0.616
 8243SOL    HW225629   0.503   2.463   0.540
 8244SOL     OW25630   6.923   0.729   4.783
 8244SOL    HW125631   6.922   0.820   4.826
 8244SOL    HW225632   6.883   0.662   4.846
 8245SOL     OW25633   4.187   2.035   2.730
 8245SOL    HW125634   4.276   2.038   2.776
 8245SOL    HW225635   4.189   1.964   2.659
 8246SOL     OW25636   1.139   2.892   5.990
 8246SOL    HW125637   1.098   2.972   5.946
 8246SOL    HW225638   1.238   2.895   5.977
 8247SOL     OW25639   1.344   0.157   2.465
 8247SOL    HW125640   1.397   0.182   2.546
 8247SOL    HW225641   1.319   0.060   2.470
 8248SOL     OW25642   5.933   5.214   4.669
 8248SOL    HW125643   5.854   5.197   4.728
 8248SOL    HW225644   6.013   5.167   4.706
 8249SOL     OW25645   1.889   3.013   5.521
 8249SOL    HW125646   1.864   2.946   5.591
 8249SOL    HW225647   1.851   3.103   5.545
 8250SOL     OW25648   3.097   3.999   1.902
 8250SOL    HW125649   3.029   3.957   1.963
 8250SOL    HW225650   3.176   4.028   1.955
 8251SOL     OW25651   5.363   3.769   4.217
 8251SOL    HW125652   5.291   3.705   4.244
 8251SOL    HW225653   5.349   3.797   4.122
 8252SOL     OW25654   2.867   1.307   5.503
 8252SOL    HW125655   2.946   1.251   5.527
 8252SOL    HW225656   2.866   1.389   5.560
 8253SOL     OW25657   4.227   4.761   5.441
 8253SOL    HW125658   4.172   4.838   5.471
 8253SOL    HW225659   4.259   4.709   5.520
 8254SOL     OW25660   4.601   4.724   5.003
 8254SOL    HW125661   4.569   4.815   4.980
 8254SOL    HW225662   4.679   4.700   4.945
 8255SOL     OW25663   2.020   0.145   4.831
 8255SOL    HW125664   2.038   0.196   4.915
 8255SOL    HW225665   2.073   0.061   4.831
 8256SOL     OW25666   0.076   6.931   2.061
 8256SOL    HW125667   0.141   6.977   2.120
 8256SOL    HW225668   0.101   6.834   2.053
 8257SOL     OW25669   5.456   3.761   2.953
 8257SOL    HW125670   5.452   3.798   3.045
 8257SOL    HW225671   5.458   3.836   2.887
 8258SOL     OW25672   5.629   1.916   0.341
 8258SOL    HW125673   5.613   1.959   0.252
 8258SOL    HW225674   5.678   1.981   0.400
 8259SOL     OW25675   3.764   1.634   3.903
 8259SOL    HW125676   3.762   1.534   3.908
 8259SOL    HW225677   3.676   1.671   3.935
 8260SOL     OW25678   2.664   6.732   1.701
 8260SOL    HW125679   2.679   6.679   1.618
 8260SOL    HW225680   2.701   6.824   1.690
 8261SOL     OW25681   5.968   0.033   1.880
 8261SOL    HW125682   5.908   6.981   1.873
 8261SOL    HW225683   6.059   0.008   1.847
 8262SOL     OW25684   0.529   3.472   0.640
 8262SOL    HW125685   0.475   3.416   0.577
 8262SOL    HW225686   0.484   3.560   0.654
 8263SOL     OW25687   0.624   2.530   6.441
 8263SOL    HW125688   0.557   2.459   6.463
 8263SOL    HW225689   0.598   2.616   6.484
 8264SOL     OW25690   2.564   6.728   2.418
 8264SOL    HW125691   2.634   6.732   2.489
 8264SOL    HW225692   2.540   6.633   2.400
 8265SOL     OW25693   0.095   0.286   1.051
 8265SOL    HW125694   0.125   0.374   1.013
 8265SOL    HW225695   0.104   0.215   0.980
 8266SOL     OW25696   2.150   1.229   3.506
 8266SOL    HW125697   2.233   1.275   3.537
 8266SOL    HW225698   2.091   1.211   3.585
 8267SOL     OW25699   1.955   2.812   1.782
 8267SOL    HW125700   2.038   2.851   1.822
 8267SOL    HW225701   1.892   2.783   1.855
 8268SOL     OW25702   1.634   6.318   6.226
 8268SOL    HW125703   1.677   6.331   6.315
 8268SOL    HW225704   1.578   6.235   6.227
 8269SOL     OW25705   4.389   1.621   2.328
 8269SOL    HW125706   4.465   1.685   2.315
 8269SOL    HW225707   4.423   1.537   2.370
 8270SOL     OW25708   2.738   6.468   5.354
 8270SOL    HW125709   2.823   6.521   5.360
 8270SOL    HW225710   2.664   6.527   5.323
 8271SOL     OW25711   0.576   0.232   3.127
 8271SOL    HW125712   0.675   0.237   3.138
 8271SOL    HW225713   0.551   0.145   3.085
 8272SOL     OW25714   5.843   2.066   2.318
 8272SOL    HW125715   5.779   1.991   2.339
 8272SOL    HW225716   5.932   2.045   2.358
 8273SOL     OW25717   2.679   0.836   6.994
 8273SOL    HW125718   2.647   0.742   7.007
 8273SOL    HW225719   2.762   0.835   6.938
 8274SOL     OW25720   5.117   4.828   4.276
 8274SOL    HW125721   5.045   4.840   4.208
 8274SOL    HW225722   5.153   4.735   4.271
 8275SOL     OW25723   5.543   1.411   5.818
 8275SOL    HW125724   5.583   1.448   5.902
 8275SOL    HW225725   5.593   1.328   5.792
 8276SOL     OW25726   0.520   2.459   3.652
 8276SOL    HW125727   0.482   2.447   3.561
 8276SOL    HW225728   0.619   2.466   3.647
 8277SOL     OW25729   6.967   5.960   6.255
 8277SOL    HW125730   6.973   6.045   6.306
 8277SOL    HW225731   6.883   5.911   6.282
 8278SOL     OW25732   2.785   1.964   5.894
 8278SOL    HW125733   2.783   2.000   5.801
 8278SOL    HW225734   2.827   1.874   5.894
 8279SOL     OW25735   1.285   6.981   4.526
 8279SOL    HW125736   1.240   0.006   4.598
 8279SOL    HW225737   1.219   6.956   4.455
 8280SOL     OW25738   2.674   3.514   0.788
 8280SOL    HW125739   2.718   3.448   0.848
 8280SOL    HW225740   2.668   3.477   0.695
 8281SOL     OW25741   3.074   4.444   1.690
 8281SOL    HW125742   3.097   4.347   1.692
 8281SOL    HW225743   3.024   4.469   1.773
 8282SOL     OW25744   4.569   3.681   6.567
 8282SOL    HW125745   4.523   3.747   6.508
 8282SOL    HW225746   4.640   3.728   6.621
 8283SOL     OW25747   1.658   5.347   6.068
 8283SOL    HW125748   1.647   5.328   6.165
 8283SOL    HW225749   1.712   5.431   6.056
 8284SOL     OW25750   1.468   3.600   0.992
 8284SOL    HW125751   1.506   3.669   1.053
 8284SOL    HW225752   1.529   3.521   0.989
 8285SOL     OW25753   3.376   4.144   4.700
 8285SOL    HW125754   3.360   4.098   4.613
 8285SOL    HW225755   3.311   4.111   4.768
 8286SOL     OW25756   5.639   2.298   6.262
 8286SOL    HW125757   5.727   2.338   6.236
 8286SOL    HW225758   5.569   2.326   6.196
 8287SOL     OW25759   1.873   5.857   4.327
 8287SOL    HW125760   1.798   5.792   4.336
 8287SOL    HW225761   1.855   5.938   4.383
 8288SOL     OW25762   3.203   2.001   1.831
 8288SOL    HW125763   3.300   2.021   1.849
 8288SOL    HW225764   3.148   2.030   1.909
 8289SOL     OW25765   0.664   5.763   0.791
 8289SOL    HW125766   0.650   5.732   0.885
 8289SOL    HW225767   0.660   5.863   0.788
 8290SOL     OW25768   5.880   1.345   1.218
 8290SOL    HW125769   5.812   1.361   1.290
 8290SOL    HW225770   5.913   1.251   1.223
 8291SOL     OW25771   5.089   6.386   4.808
 8291SOL    HW125772   5.023   6.431   4.748
 8291SOL    HW225773   5.174   6.438   4.809
 8292SOL     OW25774   2.811   6.747   6.956
 8292SOL    HW125775   2.761   6.684   6.897
 8292SOL    HW225776   2.771   6.838   6.950
 8293SOL     OW25777   2.984   5.637   0.729
 8293SOL    HW125778   3.071   5.667   0.689
 8293SOL    HW225779   2.976   5.674   0.822
 8294SOL     OW25780   6.066   3.511   5.441
 8294SOL    HW125781   6.144   3.449   5.450
 8294SOL    HW225782   6.019   3.518   5.529
 8295SOL     OW25783   5.410   5.774   2.198
 8295SOL    HW125784   5.413   5.700   2.265
 8295SOL    HW225785   5.427   5.738   2.107
 8296SOL     OW25786   1.136   4.449   6.577
 8296SOL    HW125787   1.121   4.547   6.560
 8296SOL    HW225788   1.231   4.435   6.606
 8297SOL     OW25789   6.781   2.809   2.667
 8297SOL    HW125790   6.865   2.842   2.625
 8297SOL    HW225791   6.743   2.734   2.613
 8298SOL     OW25792   6.236   1.311   1.777
 8298SOL    HW125793   6.309   1.367   1.815
 8298SOL    HW225794   6.252   1.297   1.680
 8299SOL     OW25795   6.624   2.494   1.854
 8299SOL    HW125796   6.591   2.427   1.787
 8299SOL    HW225797   6.559   2.571   1.858
 8300SOL     OW25798   0.422   6.010   4.654
 8300SOL    HW125799   0.418   5.915   4.685
 8300SOL    HW225800   0.514   6.031   4.620
 8301SOL     OW25801   3.854   1.741   1.072
 8301SOL    HW125802   3.890   1.813   1.012
 8301SOL    HW225803   3.793   1.681   1.020
 8302SOL     OW25804   5.720   0.012   6.801
 8302SOL    HW125805   5.799   0.031   6.743
 8302SOL    HW225806   5.690   0.097   6.843
 8303SOL     OW25807   6.907   1.061   3.517
 8303SOL    HW125808   6.808   1.054   3.524
 8303SOL    HW225809   6.941   0.990   3.456
 8304SOL     OW25810   0.075   3.328   0.870
 8304SOL    HW125811   0.128   3.250   0.836
 8304SOL    HW225812   0.138   3.399   0.902
 8305SOL     OW25813   5.076   5.280   4.230
 8305SOL    HW125814   5.168   5.264   4.264
 8305SOL    HW225815   5.052   5.209   4.163
 8306SOL     OW25816   6.175   2.376   5.565
 8306SOL    HW125817   6.153   2.282   5.588
 8306SOL    HW225818   6.194   2.428   5.648
 8307SOL     OW25819   3.551   5.395   1.702
 8307SOL    HW125820   3.506   5.440   1.625
 8307SOL    HW225821   3.550   5.455   1.782
 8308SOL     OW25822   3.382   5.522   1.507
 8308SOL    HW125823   3.368   5.604   1.563
 8308SOL    HW225824   3.308   5.457   1.524
 8309SOL     OW25825   6.633   5.056   4.096
 8309SOL    HW125826   6.691   5.107   4.159
 8309SOL    HW225827   6.557   5.015   4.147
 8310SOL     OW25828   6.935   5.176   0.558
 8310SOL    HW125829   6.941   5.129   0.646
 8310SOL    HW225830   6.894   5.115   0.491
 8311SOL     OW25831   0.710   1.630   4.697
 8311SOL    HW125832   0.801   1.589   4.704
 8311SOL    HW225833   0.658   1.583   4.627
 8312SOL     OW25834   4.833   0.329   0.209
 8312SOL    HW125835   4.734   0.317   0.218
 8312SOL    HW225836   4.878   0.298   0.292
 8313SOL     OW25837   5.342   0.076   0.954
 8313SOL    HW125838   5.433   0.110   0.931
 8313SOL    HW225839   5.282   0.083   0.874
 8314SOL     OW25840   4.828   0.750   0.516
 8314SOL    HW125841   4.891   0.741   0.440
 8314SOL    HW225842   4.850   0.682   0.586
 8315SOL     OW25843   4.352   2.761   1.602
 8315SOL    HW125844   4.311   2.684   1.651
 8315SOL    HW225845   4.397   2.822   1.667
 8316SOL     OW25846   1.376   2.136   1.707
 8316SOL    HW125847   1.349   2.229   1.733
 8316SOL    HW225848   1.446   2.103   1.771
 8317SOL     OW25849   1.804   2.908   2.754
 8317SOL    HW125850   1.819   3.002   2.786
 8317SOL    HW225851   1.859   2.892   2.672
 8318SOL     OW25852   4.499   1.393   4.985
 8318SOL    HW125853   4.494   1.481   5.032
 8318SOL    HW225854   4.515   1.321   5.053
 8319SOL     OW25855   2.054   1.722   0.294
 8319SOL    HW125856   2.082   1.626   0.301
 8319SOL    HW225857   2.133   1.778   0.270
 8320SOL     OW25858   3.053   3.420   2.291
 8320SOL    HW125859   2.983   3.375   2.348
 8320SOL    HW225860   3.016   3.506   2.255
 8321SOL     OW25861   6.396   0.261   6.306
 8321SOL    HW125862   6.448   0.325   6.363
 8321SOL    HW225863   6.354   0.311   6.230
 8322SOL     OW25864   6.830   0.012   1.124
 8322SOL    HW125865   6.760   6.969   1.135
 8322SOL    HW225866   6.800   0.079   1.057
 8323SOL     OW25867   5.053   5.444   2.716
 8323SOL    HW125868   5.035   5.400   2.804
 8323SOL    HW225869   5.100   5.379   2.656
 8324SOL     OW25870   5.792   6.809   1.146
 8324SOL    HW125871   5.877   6.820   1.094
 8324SOL    HW225872   5.814   6.792   1.242
 8325SOL     OW25873   2.365   3.601   5.653
 8325SOL    HW125874   2.441   3.615   5.590
 8325SOL    HW225875   2.378   3.516   5.704
 8326SOL     OW25876   5.228   3.729   5.582
 8326SOL    HW125877   5.227   3.629   5.581
 8326SOL    HW225878   5.161   3.762   5.649
 8327SOL     OW25879   6.155   1.217   6.329
 8327SOL    HW125880   6.153   1.315   6.310
 8327SOL    HW225881   6.244   1.192   6.367
 8328SOL     OW25882   2.686   6.164   5.920
 8328SOL    HW125883   2.681   6.247   5.974
 8328SOL    HW225884   2.782   6.133   5.915
 8329SOL     OW25885   0.874   3.129   6.027
 8329SOL    HW125886   0.872   3.194   6.103
 8329SOL    HW225887   0.828   3.169   5.948
 8330SOL     OW25888   2.565   1.021   0.118
 8330SOL    HW125889   2.631   1.093   0.139
 8330SOL    HW225890   2.609   0.951   0.061
 8331SOL     OW25891   3.333   1.161   1.222
 8331SOL    HW125892   3.334   1.124   1.315
 8331SOL    HW225893   3.332   1.261   1.225
 8332SOL     OW25894   4.628   5.354   2.456
 8332SOL    HW125895   4.540   5.395   2.434
 8332SOL    HW225896   4.634   5.264   2.412
 8333SOL     OW25897   0.069   6.491   6.209
 8333SOL    HW125898   0.138   6.471   6.140
 8333SOL    HW225899   0.080   6.586   6.240
 8334SOL     OW25900   3.986   0.849   3.726
 8334SOL    HW125901   3.938   0.774   3.770
 8334SOL    HW225902   3.921   0.919   3.699
 8335SOL     OW25903   5.622   6.692   7.025
 8335SOL    HW125904   5.556   6.630   0.040
 8335SOL    HW225905   5.655   6.652   6.939
 8336SOL     OW25906   6.807   4.815   3.127
 8336SOL    HW125907   6.780   4.770   3.042
 8336SOL    HW225908   6.769   4.908   3.128
 8337SOL     OW25909   2.202   6.184   2.568
 8337SOL    HW125910   2.273   6.182   2.498
 8337SOL    HW225911   2.160   6.093   2.576
 8338SOL     OW25912   3.179   5.619   1.959
 8338SOL    HW125913   3.229   5.659   2.036
 8338SOL    HW225914   3.100   5.569   1.993
 8339SOL     OW25915   5.905   0.548   0.928
 8339SOL    HW125916   5.888   0.470   0.869
 8339SOL    HW225917   6.000   0.579   0.917
 8340SOL     OW25918   4.965   2.917   1.574
 8340SOL    HW125919   5.033   2.912   1.648
 8340SOL    HW225920   4.903   2.839   1.581
 8341SOL     OW25921   2.743   6.283   0.481
 8341SOL    HW125922   2.649   6.249   0.480
 8341SOL    HW225923   2.759   6.338   0.399
 8342SOL     OW25924   4.186   6.304   1.551
 8342SOL    HW125925   4.211   6.399   1.535
 8342SOL    HW225926   4.087   6.293   1.541
 8343SOL     OW25927   1.750   5.947   5.696
 8343SOL    HW125928   1.679   5.882   5.669
 8343SOL    HW225929   1.772   5.933   5.792
 8344SOL     OW25930   4.419   6.641   4.244
 8344SOL    HW125931   4.434   6.579   4.167
 8344SOL    HW225932   4.376   6.591   4.319
 8345SOL     OW25933   4.575   1.596   2.733
 8345SOL    HW125934   4.507   1.657   2.693
 8345SOL    HW225935   4.656   1.650   2.760
 8346SOL     OW25936   3.138   4.816   0.834
 8346SOL    HW125937   3.208   4.834   0.903
 8346SOL    HW225938   3.179   4.771   0.755
 8347SOL     OW25939   3.099   5.349   4.598
 8347SOL    HW125940   3.117   5.364   4.501
 8347SOL    HW225941   3.167   5.397   4.653
 8348SOL     OW25942   2.393   0.292   2.427
 8348SOL    HW125943   2.359   0.224   2.362
 8348SOL    HW225944   2.481   0.327   2.396
 8349SOL     OW25945   6.119   6.353   1.693
 8349SOL    HW125946   6.035   6.382   1.648
 8349SOL    HW225947   6.097   6.293   1.770
 8350SOL     OW25948   3.914   6.677   5.710
 8350SOL    HW125949   3.924   6.616   5.788
 8350SOL    HW225950   4.001   6.682   5.660
 8351SOL     OW25951   5.154   5.031   4.443
 8351SOL    HW125952   5.179   5.011   4.538
 8351SOL    HW225953   5.148   4.945   4.392
 8352SOL     OW25954   0.848   0.181   3.152
 8352SOL    HW125955   0.901   0.096   3.152
 8352SOL    HW225956   0.879   0.239   3.227
 8353SOL     OW25957   6.889   3.218   1.489
 8353SOL    HW125958   6.921   3.281   1.559
 8353SOL    HW225959   6.854   3.270   1.411
 8354SOL     OW25960   3.843   7.022   6.242
 8354SOL    HW125961   3.802   6.931   6.238
 8354SOL    HW225962   3.937   7.014   6.278
 8355SOL     OW25963   2.833   0.733   6.236
 8355SOL    HW125964   2.797   0.818   6.197
 8355SOL    HW225965   2.758   0.683   6.280
 8356SOL     OW25966   1.109   6.203   0.997
 8356SOL    HW125967   1.154   6.232   1.082
 8356SOL    HW225968   1.041   6.271   0.971
 8357SOL     OW25969   4.192   0.138   4.816
 8357SOL    HW125970   4.145   0.209   4.868
 8357SOL    HW225971   4.286   0.128   4.851
 8358SOL     OW25972   1.401   4.352   5.493
 8358SOL    HW125973   1.382   4.257   5.468
 8358SOL    HW225974   1.495   4.359   5.529
 8359SOL     OW25975   2.965   0.975   5.425
 8359SOL    HW125976   2.912   1.014   5.350
 8359SOL    HW225977   2.911   0.904   5.470
 8360SOL     OW25978   3.261   6.094   1.604
 8360SOL    HW125979   3.250   6.043   1.519
 8360SOL    HW225980   3.180   6.081   1.662
 8361SOL     OW25981   3.238   0.587   2.667
 8361SOL    HW125982   3.197   0.678   2.666
 8361SOL    HW225983   3.331   0.593   2.704
 8362SOL     OW25984   4.126   2.176   0.393
 8362SOL    HW125985   4.131   2.262   0.445
 8362SOL    HW225986   4.030   2.153   0.377
 8363SOL     OW25987   6.800   2.833   6.363
 8363SOL    HW125988   6.714   2.783   6.350
 8363SOL    HW225989   6.832   2.819   6.456
 8364SOL     OW25990   0.994   2.950   2.998
 8364SOL    HW125991   1.042   2.880   2.946
 8364SOL    HW225992   1.019   3.041   2.964
 8365SOL     OW25993   2.271   3.962   1.967
 8365SOL    HW125994   2.337   3.965   1.892
 8365SOL    HW225995   2.285   4.040   2.028
 8366SOL     OW25996   1.774   5.690   1.979
 8366SOL    HW125997   1.872   5.708   1.982
 8366SOL    HW225998   1.727   5.741   2.051
 8367SOL     OW25999   4.148   6.186   3.680
 8367SOL    HW126000   4.212   6.262   3.693
 8367SOL    HW226001   4.133   6.140   3.768
 8368SOL     OW26002   2.378   6.242   6.716
 8368SOL    HW126003   2.291   6.192   6.709
 8368SOL    HW226004   2.361   6.340   6.703
 8369SOL     OW26005   2.126   6.658   6.637
 8369SOL    HW126006   2.182   6.588   6.682
 8369SOL    HW226007   2.103   6.729   6.704
 8370SOL     OW26008   3.008   1.778   5.588
 8370SOL    HW126009   3.023   1.870   5.550
 8370SOL    HW226010   2.949   1.786   5.669
 8371SOL     OW26011   1.769   3.987   0.860
 8371SOL    HW126012   1.792   4.073   0.815
 8371SOL    HW226013   1.745   4.004   0.956
 8372SOL     OW26014   0.599   5.340   1.956
 8372SOL    HW126015   0.568   5.434   1.945
 8372SOL    HW226016   0.699   5.338   1.963
 8373SOL     OW26017   1.603   0.133   3.566
 8373SOL    HW126018   1.688   0.182   3.544
 8373SOL    HW226019   1.589   0.059   3.499
 8374SOL     OW26020   6.857   1.014   5.748
 8374SOL    HW126021   6.923   1.039   5.677
 8374SOL    HW226022   6.893   0.939   5.803
 8375SOL     OW26023   3.597   6.739   5.038
 8375SOL    HW126024   3.554   6.739   4.948
 8375SOL    HW226025   3.614   6.645   5.067
 8376SOL     OW26026   1.535   0.478   4.114
 8376SOL    HW126027   1.491   0.400   4.069
 8376SOL    HW226028   1.593   0.446   4.188
 8377SOL     OW26029   4.806   5.977   1.526
 8377SOL    HW126030   4.734   6.032   1.484
 8377SOL    HW226031   4.887   6.034   1.541
 8378SOL     OW26032   4.385   4.846   2.841
 8378SOL    HW126033   4.470   4.894   2.818
 8378SOL    HW226034   4.307   4.906   2.826
 8379SOL     OW26035   5.840   2.309   1.150
 8379SOL    HW126036   5.813   2.242   1.219
 8379SOL    HW226037   5.890   2.383   1.194
 8380SOL     OW26038   0.029   0.611   2.383
 8380SOL    HW126039   6.965   0.639   2.413
 8380SOL    HW226040   0.090   0.690   2.386
 8381SOL     OW26041   6.988   2.990   5.238
 8381SOL    HW126042   7.017   3.007   5.144
 8381SOL    HW226043   0.032   3.019   5.301
 8382SOL     OW26044   2.562   1.082   2.656
 8382SOL    HW126045   2.474   1.109   2.616
 8382SOL    HW226046   2.623   1.050   2.583
 8383SOL     OW26047   2.288   6.907   5.765
 8383SOL    HW126048   2.277   6.996   5.808
 8383SOL    HW226049   2.302   6.837   5.835
 8384SOL     OW26050   6.858   0.972   0.988
 8384SOL    HW126051   6.852   0.964   1.087
 8384SOL    HW226052   6.836   0.883   0.946
 8385SOL     OW26053   6.308   1.409   0.996
 8385SOL    HW126054   6.353   1.495   0.972
 8385SOL    HW226055   6.369   1.354   1.053
 8386SOL     OW26056   1.238   5.054   2.004
 8386SOL    HW126057   1.157   5.031   2.058
 8386SOL    HW226058   1.221   5.032   1.908
 8387SOL     OW26059   1.511   1.404   2.278
 8387SOL    HW126060   1.554   1.433   2.364
 8387SOL    HW226061   1.566   1.438   2.201
 8388SOL     OW26062   2.429   6.247   0.824
 8388SOL    HW126063   2.507   6.239   0.886
 8388SOL    HW226064   2.451   6.202   0.738
 8389SOL     OW26065   0.029   3.085   2.816
 8389SOL    HW126066   6.983   3.057   2.877
 8389SOL    HW226067   0.100   3.132   2.869
 8390SOL     OW26068   4.192   1.263   6.136
 8390SOL    HW126069   4.205   1.177   6.185
 8390SOL    HW226070   4.273   1.321   6.147
 8391SOL     OW26071   6.243   4.973   1.035
 8391SOL    HW126072   6.237   4.951   0.938
 8391SOL    HW226073   6.167   4.929   1.083
 8392SOL     OW26074   6.495   3.464   4.673
 8392SOL    HW126075   6.420   3.489   4.733
 8392SOL    HW226076   6.581   3.500   4.709
 8393SOL     OW26077   0.252   0.277   2.979
 8393SOL    HW126078   0.304   0.358   3.006
 8393SOL    HW226079   0.154   0.299   2.979
 8394SOL     OW26080   6.328   2.287   1.050
 8394SOL    HW126081   6.378   2.210   1.009
 8394SOL    HW226082   6.234   2.258   1.070
 8395SOL     OW26083   2.972   6.933   5.339
 8395SOL    HW126084   2.890   6.891   5.300
 8395SOL    HW226085   2.958   0.005   5.345
 8396SOL     OW26086   4.832   5.758   3.165
 8396SOL    HW126087   4.768   5.749   3.088
 8396SOL    HW226088   4.923   5.779   3.130
 8397SOL     OW26089   1.249   1.029   2.270
 8397SOL    HW126090   1.293   1.090   2.336
 8397SOL    HW226091   1.318   0.968   2.230
 8398SOL     OW26092   4.177   1.870   5.913
 8398SOL    HW126093   4.208   1.953   5.960
 8398SOL    HW226094   4.249   1.801   5.916
 8399SOL     OW26095   5.504   6.942   6.469
 8399SOL    HW126096   5.454   6.917   6.386
 8399SOL    HW226097   5.456   7.016   6.516
 8400SOL     OW26098   1.823   0.859   4.248
 8400SOL    HW126099   1.779   0.773   4.222
 8400SOL    HW226100   1.859   0.904   4.166
 8401SOL     OW26101   2.168   1.123   5.277
 8401SOL    HW126102   2.168   1.218   5.306
 8401SOL    HW226103   2.236   1.111   5.204
 8402SOL     OW26104   4.785   1.797   6.158
 8402SOL    HW126105   4.850   1.872   6.172
 8402SOL    HW226106   4.787   1.737   6.237
 8403SOL     OW26107   6.901   3.434   4.692
 8403SOL    HW126108   6.911   3.471   4.599
 8403SOL    HW226109   6.977   3.465   4.748
 8404SOL     OW26110   3.660   6.647   5.935
 8404SOL    HW126111   3.655   6.629   5.837
 8404SOL    HW226112   3.753   6.630   5.968
 8405SOL     OW26113   2.118   1.401   5.278
 8405SOL    HW126114   2.141   1.434   5.370
 8405SOL    HW226115   2.042   1.455   5.242
 8406SOL     OW26116   3.943   0.797   0.522
 8406SOL    HW126117   3.990   0.828   0.440
 8406SOL    HW226118   3.927   0.698   0.517
 8407SOL     OW26119   3.274   6.560   3.143
 8407SOL    HW126120   3.245   6.573   3.238
 8407SOL    HW226121   3.323   6.641   3.111
 8408SOL     OW26122   5.837   3.839   1.274
 8408SOL    HW126123   5.829   3.847   1.174
 8408SOL    HW226124   5.908   3.773   1.297
 8409SOL     OW26125   5.230   1.752   2.929
 8409SOL    HW126126   5.235   1.851   2.943
 8409SOL    HW226127   5.320   1.712   2.939
 8410SOL     OW26128   5.720   0.458   1.630
 8410SOL    HW126129   5.802   0.417   1.667
 8410SOL    HW226130   5.641   0.435   1.687
 8411SOL     OW26131   0.915   5.205   0.054
 8411SOL    HW126132   0.905   5.154   0.140
 8411SOL    HW226133   0.825   5.227   0.017
 8412SOL     OW26134   3.967   2.218   1.523
 8412SOL    HW126135   3.983   2.294   1.586
 8412SOL    HW226136   4.051   2.200   1.471
 8413SOL     OW26137   4.285   5.710   6.892
 8413SOL    HW126138   4.199   5.663   6.914
 8413SOL    HW226139   4.362   5.647   6.906
 8414SOL     OW26140   3.928   6.517   3.807
 8414SOL    HW126141   3.884   6.427   3.805
 8414SOL    HW226142   3.930   6.555   3.714
 8415SOL     OW26143   0.701   5.804   4.188
 8415SOL    HW126144   0.691   5.903   4.175
 8415SOL    HW226145   0.684   5.782   4.284
 8416SOL     OW26146   6.019   2.793   2.783
 8416SOL    HW126147   5.950   2.849   2.829
 8416SOL    HW226148   6.109   2.812   2.822
 8417SOL     OW26149   1.081   3.370   5.530
 8417SOL    HW126150   1.118   3.447   5.582
 8417SOL    HW226151   1.152   3.300   5.521
 8418SOL     OW26152   5.891   5.386   0.886
 8418SOL    HW126153   5.926   5.301   0.924
 8418SOL    HW226154   5.965   5.453   0.879
 8419SOL     OW26155   5.667   0.081   1.485
 8419SOL    HW126156   5.764   0.059   1.490
 8419SOL    HW226157   5.654   0.167   1.436
 8420SOL     OW26158   4.173   6.823   0.799
 8420SOL    HW126159   4.097   6.761   0.817
 8420SOL    HW226160   4.143   6.897   0.739
 8421SOL     OW26161   3.474   5.857   6.941
 8421SOL    HW126162   3.375   5.840   6.941
 8421SOL    HW226163   3.500   5.902   6.855
 8422SOL     OW26164   4.223   1.284   2.012
 8422SOL    HW126165   4.213   1.379   2.040
 8422SOL    HW226166   4.178   1.225   2.080
 8423SOL     OW26167   3.265   5.205   6.086
 8423SOL    HW126168   3.290   5.269   6.159
 8423SOL    HW226169   3.169   5.221   6.060
 8424SOL     OW26170   1.899   2.143   2.342
 8424SOL    HW126171   1.958   2.062   2.334
 8424SOL    HW226172   1.956   2.224   2.353
 8425SOL     OW26173   4.600   4.727   6.033
 8425SOL    HW126174   4.579   4.665   5.957
 8425SOL    HW226175   4.540   4.808   6.028
 8426SOL     OW26176   3.727   3.248   3.152
 8426SOL    HW126177   3.757   3.210   3.240
 8426SOL    HW226178   3.691   3.340   3.167
 8427SOL     OW26179   3.525   3.867   3.681
 8427SOL    HW126180   3.508   3.965   3.689
 8427SOL    HW226181   3.557   3.846   3.589
 8428SOL     OW26182   0.591   6.104   1.382
 8428SOL    HW126183   0.605   6.014   1.342
 8428SOL    HW226184   0.504   6.105   1.432
 8429SOL     OW26185   1.836   6.353   4.791
 8429SOL    HW126186   1.756   6.294   4.790
 8429SOL    HW226187   1.902   6.319   4.858
 8430SOL     OW26188   3.735   5.184   3.576
 8430SOL    HW126189   3.803   5.238   3.626
 8430SOL    HW226190   3.778   5.101   3.541
 8431SOL     OW26191   4.058   3.690   0.937
 8431SOL    HW126192   4.061   3.724   0.843
 8431SOL    HW226193   4.032   3.593   0.935
 8432SOL     OW26194   5.715   6.302   5.212
 8432SOL    HW126195   5.691   6.364   5.287
 8432SOL    HW226196   5.711   6.208   5.244
 8433SOL     OW26197   4.833   2.990   0.907
 8433SOL    HW126198   4.740   3.028   0.907
 8433SOL    HW226199   4.899   3.065   0.902
 8434SOL     OW26200   3.039   0.198   4.475
 8434SOL    HW126201   3.020   0.101   4.461
 8434SOL    HW226202   3.094   0.210   4.558
 8435SOL     OW26203   6.115   0.622   1.540
 8435SOL    HW126204   6.052   0.548   1.515
 8435SOL    HW226205   6.064   0.699   1.576
 8436SOL     OW26206   3.068   6.243   3.545
 8436SOL    HW126207   3.032   6.212   3.457
 8436SOL    HW226208   2.992   6.267   3.606
 8437SOL     OW26209   2.086   1.249   3.998
 8437SOL    HW126210   2.167   1.204   4.035
 8437SOL    HW226211   2.086   1.345   4.026
 8438SOL     OW26212   2.230   4.070   2.862
 8438SOL    HW126213   2.199   4.031   2.949
 8438SOL    HW226214   2.270   4.160   2.877
 8439SOL     OW26215   5.752   5.163   2.827
 8439SOL    HW126216   5.689   5.229   2.868
 8439SOL    HW226217   5.751   5.174   2.728
 8440SOL     OW26218   2.040   1.765   3.940
 8440SOL    HW126219   2.125   1.731   3.980
 8440SOL    HW226220   2.042   1.751   3.841
 8441SOL     OW26221   5.244   0.240   0.484
 8441SOL    HW126222   5.262   0.143   0.468
 8441SOL    HW226223   5.309   0.295   0.431
 8442SOL     OW26224   3.615   2.608   5.353
 8442SOL    HW126225   3.517   2.592   5.370
 8442SOL    HW226226   3.660   2.520   5.337
 8443SOL     OW26227   2.314   4.372   3.624
 8443SOL    HW126228   2.362   4.371   3.711
 8443SOL    HW226229   2.227   4.323   3.634
 8444SOL     OW26230   3.154   6.349   4.526
 8444SOL    HW126231   3.125   6.262   4.487
 8444SOL    HW226232   3.135   6.350   4.624
 8445SOL     OW26233   2.958   0.528   1.596
 8445SOL    HW126234   3.050   0.551   1.629
 8445SOL    HW226235   2.939   0.432   1.616
 8446SOL     OW26236   5.908   5.905   6.118
 8446SOL    HW126237   5.909   5.868   6.211
 8446SOL    HW226238   6.000   5.897   6.079
 8447SOL     OW26239   4.919   1.685   2.243
 8447SOL    HW126240   4.875   1.712   2.329
 8447SOL    HW226241   4.850   1.679   2.171
 8448SOL     OW26242   4.092   6.180   4.312
 8448SOL    HW126243   4.072   6.230   4.228
 8448SOL    HW226244   4.008   6.145   4.352
 8449SOL     OW26245   6.867   3.281   3.552
 8449SOL    HW126246   6.940   3.214   3.568
 8449SOL    HW226247   6.864   3.303   3.454
 8450SOL     OW26248   0.752   0.200   1.277
 8450SOL    HW126249   0.851   0.193   1.265
 8450SOL    HW226250   0.712   0.247   1.199
 8451SOL     OW26251   3.816   1.819   0.337
 8451SOL    HW126252   3.887   1.751   0.359
 8451SOL    HW226253   3.736   1.804   0.396
 8452SOL     OW26254   6.276   2.156   3.691
 8452SOL    HW126255   6.287   2.072   3.638
 8452SOL    HW226256   6.291   2.235   3.631
 8453SOL     OW26257   0.373   4.747   0.241
 8453SOL    HW126258   0.387   4.764   0.143
 8453SOL    HW226259   0.294   4.800   0.273
 8454SOL     OW26260   6.972   5.968   1.699
 8454SOL    HW126261   6.885   5.926   1.674
 8454SOL    HW226262   7.024   5.988   1.615
 8455SOL     OW26263   6.669   1.679   1.778
 8455SOL    HW126264   6.752   1.681   1.722
 8455SOL    HW226265   6.613   1.760   1.758
 8456SOL     OW26266   3.809   6.159   3.434
 8456SOL    HW126267   3.808   6.140   3.336
 8456SOL    HW226268   3.868   6.238   3.451
 8457SOL     OW26269   0.255   0.042   4.507
 8457SOL    HW126270   0.285   0.001   4.421
 8457SOL    HW226271   0.334   0.052   4.568
 8458SOL     OW26272   2.864   0.595   0.553
 8458SOL    HW126273   2.794   0.537   0.595
 8458SOL    HW226274   2.900   0.658   0.622
 8459SOL     OW26275   2.891   5.736   2.050
 8459SOL    HW126276   2.887   5.667   2.121
 8459SOL    HW226277   2.979   5.784   2.055
 8460SOL     OW26278   3.976   4.245   5.234
 8460SOL    HW126279   4.046   4.257   5.164
 8460SOL    HW226280   3.928   4.158   5.219
 8461SOL     OW26281   0.913   3.911   5.164
 8461SOL    HW126282   0.988   3.975   5.178
 8461SOL    HW226283   0.839   3.956   5.113
 8462SOL     OW26284   2.202   2.137   6.400
 8462SOL    HW126285   2.203   2.076   6.479
 8462SOL    HW226286   2.281   2.199   6.403
 8463SOL     OW26287   0.215   0.241   1.286
 8463SOL    HW126288   0.149   0.262   1.358
 8463SOL    HW226289   0.168   0.242   1.197
 8464SOL     OW26290   5.749   4.384   4.184
 8464SOL    HW126291   5.839   4.428   4.193
 8464SOL    HW226292   5.752   4.293   4.227
 8465SOL     OW26293   0.708   3.177   0.577
 8465SOL    HW126294   0.793   3.210   0.535
 8465SOL    HW226295   0.638   3.166   0.507
 8466SOL     OW26296   0.455   0.361   4.331
 8466SOL    HW126297   0.423   0.439   4.384
 8466SOL    HW226298   0.539   0.326   4.372
 8467SOL     OW26299   3.380   6.385   0.492
 8467SOL    HW126300   3.321   6.400   0.412
 8467SOL    HW226301   3.436   6.304   0.478
 8468SOL     OW26302   4.015   1.947   0.078
 8468SOL    HW126303   3.979   2.040   0.066
 8468SOL    HW226304   3.977   1.907   0.161
 8469SOL     OW26305   3.840   1.963   6.545
 8469SOL    HW126306   3.783   2.039   6.576
 8469SOL    HW226307   3.924   1.999   6.506
 8470SOL     OW26308   0.932   3.486   6.937
 8470SOL    HW126309   0.941   3.448   0.001
 8470SOL    HW226310   0.974   3.577   6.934
 8471SOL     OW26311   3.292   1.116   3.575
 8471SOL    HW126312   3.348   1.094   3.495
 8471SOL    HW226313   3.346   1.103   3.658
 8472SOL     OW26314   0.145   0.208   4.888
 8472SOL    HW126315   0.087   0.229   4.967
 8472SOL    HW226316   0.199   0.288   4.863
 8473SOL     OW26317   5.923   5.056   6.415
 8473SOL    HW126318   5.963   4.974   6.455
 8473SOL    HW226319   5.929   5.131   6.480
 8474SOL     OW26320   3.198   2.931   2.198
 8474SOL    HW126321   3.185   2.858   2.265
 8474SOL    HW226322   3.245   3.007   2.241
 8475SOL     OW26323   0.309   1.935   3.244
 8475SOL    HW126324   0.327   1.884   3.160
 8475SOL    HW226325   0.237   1.890   3.297
 8476SOL     OW26326   6.505   1.286   1.129
 8476SOL    HW126327   6.558   1.300   1.213
 8476SOL    HW226328   6.520   1.193   1.096
 8477SOL     OW26329   4.157   6.555   2.084
 8477SOL    HW126330   4.143   6.456   2.097
 8477SOL    HW226331   4.069   6.599   2.066
 8478SOL     OW26332   1.342   0.608   6.045
 8478SOL    HW126333   1.257   0.565   6.014
 8478SOL    HW226334   1.416   0.541   6.043
 8479SOL     OW26335   6.372   2.499   1.225
 8479SOL    HW126336   6.377   2.420   1.164
 8479SOL    HW226337   6.453   2.500   1.284
 8480SOL     OW26338   4.050   1.240   0.109
 8480SOL    HW126339   4.064   1.176   0.033
 8480SOL    HW226340   4.101   1.324   0.092
 8481SOL     OW26341   4.933   2.356   3.646
 8481SOL    HW126342   4.916   2.398   3.735
 8481SOL    HW226343   4.854   2.372   3.586
 8482SOL     OW26344   3.884   6.819   2.897
 8482SOL    HW126345   3.971   6.773   2.916
 8482SOL    HW226346   3.899   6.896   2.835
 8483SOL     OW26347   3.778   5.868   2.410
 8483SOL    HW126348   3.776   5.772   2.435
 8483SOL    HW226349   3.866   5.908   2.437
 8484SOL     OW26350   0.703   5.520   2.817
 8484SOL    HW126351   0.718   5.453   2.889
 8484SOL    HW226352   0.753   5.494   2.735
 8485SOL     OW26353   3.329   3.331   6.892
 8485SOL    HW126354   3.261   3.290   6.830
 8485SOL    HW226355   3.282   3.384   6.963
 8486SOL     OW26356   4.662   1.198   3.013
 8486SOL    HW126357   4.743   1.241   2.972
 8486SOL    HW226358   4.645   1.239   3.103
 8487SOL     OW26359   5.846   1.205   6.347
 8487SOL    HW126360   5.945   1.191   6.346
 8487SOL    HW226361   5.802   1.129   6.394
 8488SOL     OW26362   5.842   4.531   5.256
 8488SOL    HW126363   5.896   4.605   5.215
 8488SOL    HW226364   5.868   4.444   5.215
 8489SOL     OW26365   6.369   0.826   0.931
 8489SOL    HW126366   6.372   0.843   0.832
 8489SOL    HW226367   6.309   0.748   0.949
 8490SOL     OW26368   3.935   6.663   4.548
 8490SOL    HW126369   4.028   6.696   4.530
 8490SOL    HW226370   3.900   6.706   4.631
 8491SOL     OW26371   2.054   0.098   1.011
 8491SOL    HW126372   2.036   0.128   0.917
 8491SOL    HW226373   1.967   0.095   1.062
 8492SOL     OW26374   4.257   4.101   6.761
 8492SOL    HW126375   4.228   4.082   6.668
 8492SOL    HW226376   4.356   4.089   6.769
 8493SOL     OW26377   2.627   1.834   6.243
 8493SOL    HW126378   2.531   1.832   6.271
 8493SOL    HW226379   2.649   1.924   6.205
 8494SOL     OW26380   2.909   4.728   0.935
 8494SOL    HW126381   2.941   4.656   0.997
 8494SOL    HW226382   2.986   4.763   0.882
 8495SOL     OW26383   6.547   4.345   0.855
 8495SOL    HW126384   6.503   4.345   0.945
 8495SOL    HW226385   6.589   4.434   0.839
 8496SOL     OW26386   0.637   2.015   1.659
 8496SOL    HW126387   0.689   1.951   1.602
 8496SOL    HW226388   0.696   2.091   1.685
 8497SOL     OW26389   6.642   0.933   3.758
 8497SOL    HW126390   6.723   0.928   3.815
 8497SOL    HW226391   6.669   0.930   3.661
 8498SOL     OW26392   0.126   6.074   2.840
 8498SOL    HW126393   0.204   6.035   2.792
 8498SOL    HW226394   0.154   6.158   2.888
 8499SOL     OW26395   2.620   5.339   6.966
 8499SOL    HW126396   2.622   5.378   0.030
 8499SOL    HW226397   2.667   5.251   6.966
 8500SOL     OW26398   2.139   0.165   5.561
 8500SOL    HW126399   2.220   0.137   5.510
 8500SOL    HW226400   2.166   0.223   5.638
 8501SOL     OW26401   0.599   2.531   0.139
 8501SOL    HW126402   0.633   2.624   0.125
 8501SOL    HW226403   0.510   2.521   0.095
 8502SOL     OW26404   1.586   4.939   1.416
 8502SOL    HW126405   1.491   4.969   1.413
 8502SOL    HW226406   1.604   4.878   1.339
 8503SOL     OW26407   1.396   6.367   3.416
 8503SOL    HW126408   1.330   6.293   3.427
 8503SOL    HW226409   1.424   6.400   3.506
 8504SOL     OW26410   2.516   5.644   3.218
 8504SOL    HW126411   2.419   5.666   3.212
 8504SOL    HW226412   2.527   5.546   3.233
 8505SOL     OW26413   4.878   3.851   3.640
 8505SOL    HW126414   4.859   3.845   3.738
 8505SOL    HW226415   4.929   3.771   3.610
 8506SOL     OW26416   6.307   0.753   6.964
 8506SOL    HW126417   6.255   0.836   6.987
 8506SOL    HW226418   6.376   0.776   6.895
 8507SOL     OW26419   3.575   1.140   5.503
 8507SOL    HW126420   3.615   1.150   5.594
 8507SOL    HW226421   3.646   1.107   5.440
 8508SOL     OW26422   6.961   2.589   4.953
 8508SOL    HW126423   0.003   2.522   4.982
 8508SOL    HW226424   6.899   2.608   5.028
 8509SOL     OW26425   4.976   1.953   3.491
 8509SOL    HW126426   4.876   1.962   3.491
 8509SOL    HW226427   5.004   1.886   3.559
 8510SOL     OW26428   5.272   4.055   3.213
 8510SOL    HW126429   5.287   3.959   3.189
 8510SOL    HW226430   5.218   4.099   3.141
 8511SOL     OW26431   5.901   3.608   1.991
 8511SOL    HW126432   5.813   3.654   1.975
 8511SOL    HW226433   5.963   3.628   1.915
 8512SOL     OW26434   3.319   1.976   0.930
 8512SOL    HW126435   3.322   1.925   0.845
 8512SOL    HW226436   3.403   1.959   0.982
 8513SOL     OW26437   4.741   4.095   1.738
 8513SOL    HW126438   4.733   4.188   1.775
 8513SOL    HW226439   4.819   4.049   1.780
 8514SOL     OW26440   3.121   2.160   3.940
 8514SOL    HW126441   3.156   2.067   3.946
 8514SOL    HW226442   3.077   2.185   4.026
 8515SOL     OW26443   5.901   1.616   7.015
 8515SOL    HW126444   5.955   1.545   0.033
 8515SOL    HW226445   5.948   1.704   7.023
 8516SOL     OW26446   6.749   1.340   1.420
 8516SOL    HW126447   6.695   1.412   1.462
 8516SOL    HW226448   6.782   1.372   1.331
 8517SOL     OW26449   1.669   3.242   6.761
 8517SOL    HW126450   1.607   3.213   6.833
 8517SOL    HW226451   1.761   3.208   6.779
 8518SOL     OW26452   4.788   4.734   6.214
 8518SOL    HW126453   4.717   4.725   6.144
 8518SOL    HW226454   4.775   4.819   6.265
 8519SOL     OW26455   1.326   4.329   1.653
 8519SOL    HW126456   1.316   4.301   1.557
 8519SOL    HW226457   1.419   4.363   1.668
 8520SOL     OW26458   3.558   3.592   0.040
 8520SOL    HW126459   3.578   3.640   0.125
 8520SOL    HW226460   3.639   3.540   0.011
 8521SOL     OW26461   2.259   4.788   5.782
 8521SOL    HW126462   2.309   4.825   5.859
 8521SOL    HW226463   2.317   4.789   5.700
 8522SOL     OW26464   1.378   6.117   1.172
 8522SOL    HW126465   1.376   6.166   1.260
 8522SOL    HW226466   1.468   6.129   1.130
 8523SOL     OW26467   2.184   6.416   6.982
 8523SOL    HW126468   2.278   6.386   7.002
 8523SOL    HW226469   2.170   6.418   6.883
 8524SOL     OW26470   0.440   2.697   5.528
 8524SOL    HW126471   0.350   2.712   5.487
 8524SOL    HW226472   0.442   2.606   5.569
 8525SOL     OW26473   5.998   4.137   1.831
 8525SOL    HW126474   6.042   4.053   1.861
 8525SOL    HW226475   5.956   4.123   1.741
 8526SOL     OW26476   4.280   6.451   6.793
 8526SOL    HW126477   4.365   6.453   6.741
 8526SOL    HW226478   4.248   6.356   6.800
 8527SOL     OW26479   2.870   0.970   6.533
 8527SOL    HW126480   2.813   1.047   6.561
 8527SOL    HW226481   2.867   0.961   6.434
 8528SOL     OW26482   3.893   0.776   0.058
 8528SOL    HW126483   3.795   0.794   0.063
 8528SOL    HW226484   3.909   0.686   0.019
 8529SOL     OW26485   1.346   6.966   0.719
 8529SOL    HW126486   1.370   6.885   0.665
 8529SOL    HW226487   1.423   6.993   0.776
 8530SOL     OW26488   3.770   4.167   5.558
 8530SOL    HW126489   3.821   4.084   5.534
 8530SOL    HW226490   3.723   4.153   5.645
 8531SOL     OW26491   6.303   4.921   2.546
 8531SOL    HW126492   6.255   4.849   2.596
 8531SOL    HW226493   6.236   4.983   2.505
 8532SOL     OW26494   4.302   5.087   4.560
 8532SOL    HW126495   4.232   5.082   4.632
 8532SOL    HW226496   4.384   5.131   4.596
 8533SOL     OW26497   1.625   6.528   0.311
 8533SOL    HW126498   1.532   6.547   0.342
 8533SOL    HW226499   1.688   6.594   0.353
 8534SOL     OW26500   6.265   2.791   4.474
 8534SOL    HW126501   6.284   2.694   4.459
 8534SOL    HW226502   6.260   2.809   4.572
 8535SOL     OW26503   6.144   0.854   3.627
 8535SOL    HW126504   6.075   0.781   3.616
 8535SOL    HW226505   6.234   0.819   3.600
 8536SOL     OW26506   0.058   2.493   4.474
 8536SOL    HW126507   0.054   2.543   4.561
 8536SOL    HW226508   7.003   2.437   4.464
 8537SOL     OW26509   5.689   0.630   2.912
 8537SOL    HW126510   5.756   0.671   2.850
 8537SOL    HW226511   5.665   0.696   2.983
 8538SOL     OW26512   1.000   0.989   0.239
 8538SOL    HW126513   0.919   0.952   0.283
 8538SOL    HW226514   0.988   0.987   0.140
 8539SOL     OW26515   6.194   1.080   2.851
 8539SOL    HW126516   6.264   1.103   2.919
 8539SOL    HW226517   6.207   0.985   2.822
 8540SOL     OW26518   4.951   0.393   6.316
 8540SOL    HW126519   5.003   0.417   6.398
 8540SOL    HW226520   4.894   0.470   6.289
 8541SOL     OW26521   2.766   1.645   4.179
 8541SOL    HW126522   2.839   1.578   4.190
 8541SOL    HW226523   2.678   1.599   4.181
 8542SOL     OW26524   3.965   4.989   6.491
 8542SOL    HW126525   3.963   4.896   6.528
 8542SOL    HW226526   4.015   4.990   6.405
 8543SOL     OW26527   2.470   1.791   0.883
 8543SOL    HW126528   2.505   1.721   0.821
 8543SOL    HW226529   2.489   1.766   0.977
 8544SOL     OW26530   5.836   3.056   4.094
 8544SOL    HW126531   5.894   3.061   4.175
 8544SOL    HW226532   5.807   3.148   4.067
 8545SOL     OW26533   4.842   0.036   4.795
 8545SOL    HW126534   4.808   0.054   4.888
 8545SOL    HW226535   4.876   6.969   4.791
 8546SOL     OW26536   6.417   1.940   3.839
 8546SOL    HW126537   6.477   1.898   3.907
 8546SOL    HW226538   6.399   2.035   3.864
 8547SOL     OW26539   2.050   6.791   6.405
 8547SOL    HW126540   2.066   6.754   6.496
 8547SOL    HW226541   1.964   6.841   6.403
 8548SOL     OW26542   6.068   2.140   5.629
 8548SOL    HW126543   6.036   2.158   5.722
 8548SOL    HW226544   5.989   2.130   5.568
 8549SOL     OW26545   1.246   2.985   3.717
 8549SOL    HW126546   1.279   2.891   3.725
 8549SOL    HW226547   1.153   2.991   3.755
 8550SOL     OW26548   1.651   4.293   0.266
 8550SOL    HW126549   1.674   4.390   0.271
 8550SOL    HW226550   1.678   4.248   0.351
 8551SOL     OW26551   3.547   3.914   6.373
 8551SOL    HW126552   3.539   3.823   6.413
 8551SOL    HW226553   3.480   3.924   6.299
 8552SOL     OW26554   2.521   0.199   3.676
 8552SOL    HW126555   2.467   0.202   3.759
 8552SOL    HW226556   2.517   0.107   3.637
 8553SOL     OW26557   4.473   4.600   6.280
 8553SOL    HW126558   4.487   4.675   6.345
 8553SOL    HW226559   4.493   4.631   6.187
 8554SOL     OW26560   0.596   4.914   0.297
 8554SOL    HW126561   0.529   4.864   0.242
 8554SOL    HW226562   0.615   4.862   0.380
 8555SOL     OW26563   1.470   0.895   2.147
 8555SOL    HW126564   1.491   0.874   2.243
 8555SOL    HW226565   1.534   0.847   2.088
 8556SOL     OW26566   1.052   6.658   5.115
 8556SOL    HW126567   1.141   6.624   5.085
 8556SOL    HW226568   1.012   6.717   5.045
 8557SOL     OW26569   5.681   0.185   2.690
 8557SOL    HW126570   5.703   0.276   2.657
 8557SOL    HW226571   5.738   0.164   2.770
 8558SOL     OW26572   3.054   5.216   3.428
 8558SOL    HW126573   3.087   5.163   3.350
 8558SOL    HW226574   3.117   5.292   3.445
 8559SOL     OW26575   6.756   0.445   2.387
 8559SOL    HW126576   6.715   0.437   2.478
 8559SOL    HW226577   6.765   0.542   2.363
 8560SOL     OW26578   6.986   6.204   2.136
 8560SOL    HW126579   0.035   6.265   2.152
 8560SOL    HW226580   6.904   6.257   2.113
 8561SOL     OW26581   3.221   0.677   1.907
 8561SOL    HW126582   3.157   0.602   1.924
 8561SOL    HW226583   3.298   0.644   1.853
 8562SOL     OW26584   3.902   5.962   5.399
 8562SOL    HW126585   3.945   6.046   5.364
 8562SOL    HW226586   3.814   5.949   5.353
 8563SOL     OW26587   2.931   4.213   0.187
 8563SOL    HW126588   2.947   4.311   0.202
 8563SOL    HW226589   2.900   4.171   0.272
 8564SOL     OW26590   3.169   1.230   4.074
 8564SOL    HW126591   3.167   1.322   4.035
 8564SOL    HW226592   3.236   1.174   4.025
 8565SOL     OW26593   4.329   5.529   1.065
 8565SOL    HW126594   4.297   5.592   0.994
 8565SOL    HW226595   4.255   5.512   1.131
 8566SOL     OW26596   1.394   0.413   1.325
 8566SOL    HW126597   1.328   0.448   1.391
 8566SOL    HW226598   1.420   0.486   1.262
 8567SOL     OW26599   0.004   1.835   2.565
 8567SOL    HW126600   0.032   1.898   2.638
 8567SOL    HW226601   6.944   1.865   2.527
 8568SOL     OW26602   5.531   1.225   6.074
 8568SOL    HW126603   5.437   1.230   6.041
 8568SOL    HW226604   5.539   1.272   6.162
 8569SOL     OW26605   5.175   1.724   5.909
 8569SOL    HW126606   5.143   1.769   5.992
 8569SOL    HW226607   5.107   1.735   5.837
 8570SOL     OW26608   1.092   2.689   5.363
 8570SOL    HW126609   1.058   2.597   5.345
 8570SOL    HW226610   1.139   2.690   5.451
 8571SOL     OW26611   1.763   5.098   5.785
 8571SOL    HW126612   1.677   5.081   5.738
 8571SOL    HW226613   1.745   5.111   5.883
 8572SOL     OW26614   3.356   5.264   6.810
 8572SOL    HW126615   3.430   5.330   6.827
 8572SOL    HW226616   3.269   5.312   6.807
 8573SOL     OW26617   3.368   6.416   5.828
 8573SOL    HW126618   3.358   6.471   5.910
 8573SOL    HW226619   3.302   6.444   5.759
 8574SOL     OW26620   6.773   5.466   5.694
 8574SOL    HW126621   6.791   5.488   5.598
 8574SOL    HW226622   6.678   5.490   5.716
 8575SOL     OW26623   2.918   2.574   5.344
 8575SOL    HW126624   2.886   2.608   5.432
 8575SOL    HW226625   2.989   2.635   5.308
 8576SOL     OW26626   1.839   5.877   0.024
 8576SOL    HW126627   1.890   5.917   6.975
 8576SOL    HW226628   1.779   5.805   7.017
 8577SOL     OW26629   0.466   6.241   4.319
 8577SOL    HW126630   0.553   6.260   4.366
 8577SOL    HW226631   0.394   6.225   4.387
 8578SOL     OW26632   5.490   0.832   4.508
 8578SOL    HW126633   5.407   0.888   4.518
 8578SOL    HW226634   5.496   0.798   4.415
 8579SOL     OW26635   1.406   0.424   2.847
 8579SOL    HW126636   1.426   0.496   2.780
 8579SOL    HW226637   1.307   0.412   2.855
 8580SOL     OW26638   2.655   6.415   2.796
 8580SOL    HW126639   2.621   6.509   2.796
 8580SOL    HW226640   2.722   6.403   2.723
 8581SOL     OW26641   3.447   3.383   1.881
 8581SOL    HW126642   3.405   3.303   1.925
 8581SOL    HW226643   3.545   3.385   1.903
 8582SOL     OW26644   4.361   4.657   2.611
 8582SOL    HW126645   4.264   4.649   2.586
 8582SOL    HW226646   4.369   4.707   2.697
 8583SOL     OW26647   5.565   0.204   4.773
 8583SOL    HW126648   5.596   0.165   4.860
 8583SOL    HW226649   5.642   0.208   4.709
 8584SOL     OW26650   0.498   3.750   5.895
 8584SOL    HW126651   0.421   3.691   5.922
 8584SOL    HW226652   0.490   3.774   5.798
 8585SOL     OW26653   0.677   6.098   6.007
 8585SOL    HW126654   0.715   6.007   5.989
 8585SOL    HW226655   0.751   6.166   6.007
 8586SOL     OW26656   3.133   0.452   3.251
 8586SOL    HW126657   3.083   0.511   3.187
 8586SOL    HW226658   3.074   0.376   3.279
 8587SOL     OW26659   1.925   0.221   2.697
 8587SOL    HW126660   2.009   0.220   2.642
 8587SOL    HW226661   1.884   0.129   2.696
 8588SOL     OW26662   2.587   0.491   0.421
 8588SOL    HW126663   2.588   0.391   0.431
 8588SOL    HW226664   2.530   0.531   0.493
 8589SOL     OW26665   5.328   2.490   4.665
 8589SOL    HW126666   5.415   2.441   4.672
 8589SOL    HW226667   5.257   2.440   4.715
 8590SOL     OW26668   6.713   6.490   3.837
 8590SOL    HW126669   6.784   6.421   3.821
 8590SOL    HW226670   6.695   6.497   3.935
 8591SOL     OW26671   0.398   5.033   6.453
 8591SOL    HW126672   0.404   5.066   6.359
 8591SOL    HW226673   0.418   5.109   6.516
 8592SOL     OW26674   0.335   2.844   6.607
 8592SOL    HW126675   0.411   2.877   6.552
 8592SOL    HW226676   0.323   2.746   6.591
 8593SOL     OW26677   2.067   0.305   1.828
 8593SOL    HW126678   2.028   0.310   1.736
 8593SOL    HW226679   2.072   0.397   1.867
 8594SOL     OW26680   3.472   3.029   5.204
 8594SOL    HW126681   3.436   2.971   5.277
 8594SOL    HW226682   3.543   3.089   5.241
 8595SOL     OW26683   1.643   2.637   2.878
 8595SOL    HW126684   1.692   2.575   2.940
 8595SOL    HW226685   1.580   2.693   2.931
 8596SOL     OW26686   6.343   5.153   3.451
 8596SOL    HW126687   6.425   5.096   3.454
 8596SOL    HW226688   6.354   5.230   3.515
 8597SOL     OW26689   4.548   1.039   1.167
 8597SOL    HW126690   4.598   1.013   1.249
 8597SOL    HW226691   4.483   0.967   1.143
 8598SOL     OW26692   0.040   6.031   0.787
 8598SOL    HW126693   0.072   5.950   0.738
 8598SOL    HW226694   0.010   6.005   0.879
 8599SOL     OW26695   0.981   2.313   3.873
 8599SOL    HW126696   0.938   2.294   3.785
 8599SOL    HW226697   0.995   2.227   3.922
 8600SOL     OW26698   5.370   4.858   5.581
 8600SOL    HW126699   5.410   4.949   5.574
 8600SOL    HW226700   5.274   4.866   5.606
 8601SOL     OW26701   0.555   0.458   5.158
 8601SOL    HW126702   0.602   0.546   5.150
 8601SOL    HW226703   0.458   0.470   5.134
 8602SOL     OW26704   3.076   5.619   3.574
 8602SOL    HW126705   3.122   5.645   3.659
 8602SOL    HW226706   2.977   5.625   3.586
 8603SOL     OW26707   4.205   5.166   0.550
 8603SOL    HW126708   4.114   5.198   0.525
 8603SOL    HW226709   4.220   5.074   0.513
 8604SOL     OW26710   0.991   3.346   3.885
 8604SOL    HW126711   1.030   3.429   3.923
 8604SOL    HW226712   0.980   3.278   3.958
 8605SOL     OW26713   3.489   5.121   4.391
 8605SOL    HW126714   3.479   5.217   4.364
 8605SOL    HW226715   3.563   5.112   4.457
 8606SOL     OW26716   1.580   3.804   6.106
 8606SOL    HW126717   1.623   3.841   6.189
 8606SOL    HW226718   1.648   3.754   6.053
 8607SOL     OW26719   3.507   5.751   0.652
 8607SOL    HW126720   3.532   5.679   0.717
 8607SOL    HW226721   3.580   5.762   0.585
 8608SOL     OW26722   4.597   4.813   3.107
 8608SOL    HW126723   4.525   4.879   3.126
 8608SOL    HW226724   4.590   4.737   3.172
 8609SOL     OW26725   5.389   1.074   3.298
 8609SOL    HW126726   5.471   1.079   3.355
 8609SOL    HW226727   5.382   1.156   3.242
 8610SOL     OW26728   1.760   1.875   2.513
 8610SOL    HW126729   1.767   1.803   2.582
 8610SOL    HW226730   1.836   1.867   2.448
 8611SOL     OW26731   2.136   2.178   4.350
 8611SOL    HW126732   2.193   2.187   4.269
 8611SOL    HW226733   2.040   2.163   4.323
 8612SOL     OW26734   3.681   3.244   0.597
 8612SOL    HW126735   3.774   3.232   0.561
 8612SOL    HW226736   3.666   3.181   0.673
 8613SOL     OW26737   2.283   2.061   1.033
 8613SOL    HW126738   2.270   2.037   0.937
 8613SOL    HW226739   2.381   2.070   1.052
 8614SOL     OW26740   0.871   3.137   2.676
 8614SOL    HW126741   0.934   3.089   2.614
 8614SOL    HW226742   0.818   3.204   2.625
 8615SOL     OW26743   5.042   1.956   5.466
 8615SOL    HW126744   5.005   2.042   5.431
 8615SOL    HW226745   4.982   1.920   5.537
 8616SOL     OW26746   2.876   4.872   1.373
 8616SOL    HW126747   2.918   4.865   1.283
 8616SOL    HW226748   2.896   4.961   1.413
 8617SOL     OW26749   6.752   1.036   6.502
 8617SOL    HW126750   6.846   1.015   6.476
 8617SOL    HW226751   6.744   1.135   6.520
 8618SOL     OW26752   5.953   6.443   1.046
 8618SOL    HW126753   6.015   6.373   1.079
 8618SOL    HW226754   5.952   6.442   0.946
 8619SOL     OW26755   3.797   4.874   2.109
 8619SOL    HW126756   3.752   4.961   2.091
 8619SOL    HW226757   3.754   4.802   2.054
 8620SOL     OW26758   0.844   0.134   3.593
 8620SOL    HW126759   0.851   0.041   3.630
 8620SOL    HW226760   0.748   0.157   3.580
 8621SOL     OW26761   6.368   1.173   3.047
 8621SOL    HW126762   6.372   1.272   3.057
 8621SOL    HW226763   6.460   1.135   3.060
 8622SOL     OW26764   4.644   3.177   6.947
 8622SOL    HW126765   4.711   3.155   6.876
 8622SOL    HW226766   4.654   3.272   6.975
 8623SOL     OW26767   0.885   4.067   3.328
 8623SOL    HW126768   0.947   4.097   3.255
 8623SOL    HW226769   0.884   3.967   3.332
 8624SOL     OW26770   1.180   3.786   4.512
 8624SOL    HW126771   1.272   3.766   4.477
 8624SOL    HW226772   1.162   3.729   4.591
 8625SOL     OW26773   4.432   7.010   4.961
 8625SOL    HW126774   4.463   6.919   4.933
 8625SOL    HW226775   4.391   7.004   5.052
 8626SOL     OW26776   3.869   2.957   5.027
 8626SOL    HW126777   3.781   2.932   5.069
 8626SOL    HW226778   3.923   2.874   5.010
 8627SOL     OW26779   0.572   1.334   3.334
 8627SOL    HW126780   0.540   1.401   3.267
 8627SOL    HW226781   0.557   1.370   3.426
 8628SOL     OW26782   6.079   6.880   1.342
 8628SOL    HW126783   6.176   6.863   1.361
 8628SOL    HW226784   6.067   6.896   1.244
 8629SOL     OW26785   1.623   5.053   5.393
 8629SOL    HW126786   1.575   5.022   5.476
 8629SOL    HW226787   1.614   4.983   5.322
 8630SOL     OW26788   5.502   4.492   3.808
 8630SOL    HW126789   5.419   4.447   3.840
 8630SOL    HW226790   5.582   4.436   3.830
 8631SOL     OW26791   2.776   5.909   6.286
 8631SOL    HW126792   2.706   5.932   6.218
 8631SOL    HW226793   2.831   5.833   6.253
 8632SOL     OW26794   3.084   6.752   3.868
 8632SOL    HW126795   3.011   6.697   3.828
 8632SOL    HW226796   3.165   6.696   3.880
 8633SOL     OW26797   6.084   1.801   4.447
 8633SOL    HW126798   5.994   1.758   4.445
 8633SOL    HW226799   6.154   1.734   4.422
 8634SOL     OW26800   5.608   3.308   0.313
 8634SOL    HW126801   5.568   3.220   0.289
 8634SOL    HW226802   5.570   3.339   0.400
 8635SOL     OW26803   6.056   4.295   6.175
 8635SOL    HW126804   5.956   4.294   6.173
 8635SOL    HW226805   6.092   4.235   6.104
 8636SOL     OW26806   5.227   6.273   0.625
 8636SOL    HW126807   5.295   6.322   0.680
 8636SOL    HW226808   5.242   6.175   0.634
 8637SOL     OW26809   1.959   1.170   0.070
 8637SOL    HW126810   1.973   1.219   7.012
 8637SOL    HW226811   1.930   1.234   0.141
 8638SOL     OW26812   3.439   3.017   6.868
 8638SOL    HW126813   3.417   2.990   6.962
 8638SOL    HW226814   3.486   2.942   6.822
 8639SOL     OW26815   5.578   1.834   1.772
 8639SOL    HW126816   5.509   1.905   1.787
 8639SOL    HW226817   5.660   1.855   1.825
 8640SOL     OW26818   4.723   3.796   0.844
 8640SOL    HW126819   4.745   3.876   0.788
 8640SOL    HW226820   4.807   3.745   0.862
 8641SOL     OW26821   6.129   5.300   4.023
 8641SOL    HW126822   6.141   5.208   3.986
 8641SOL    HW226823   6.032   5.325   4.017
 8642SOL     OW26824   3.404   1.208   3.093
 8642SOL    HW126825   3.388   1.306   3.101
 8642SOL    HW226826   3.446   1.174   3.177
 8643SOL     OW26827   3.321   0.846   6.667
 8643SOL    HW126828   3.248   0.853   6.734
 8643SOL    HW226829   3.366   0.756   6.675
 8644SOL     OW26830   4.892   2.453   5.778
 8644SOL    HW126831   4.798   2.486   5.770
 8644SOL    HW226832   4.945   2.515   5.835
 8645SOL     OW26833   4.592   4.215   1.006
 8645SOL    HW126834   4.685   4.223   0.969
 8645SOL    HW226835   4.547   4.304   1.001
 8646SOL     OW26836   6.388   1.228   2.120
 8646SOL    HW126837   6.370   1.132   2.143
 8646SOL    HW226838   6.352   1.247   2.028
 8647SOL     OW26839   2.635   5.268   6.046
 8647SOL    HW126840   2.657   5.266   6.144
 8647SOL    HW226841   2.651   5.178   6.006
 8648SOL     OW26842   6.433   0.760   3.657
 8648SOL    HW126843   6.502   0.811   3.706
 8648SOL    HW226844   6.467   0.668   3.637
 8649SOL     OW26845   5.452   4.618   6.524
 8649SOL    HW126846   5.449   4.519   6.509
 8649SOL    HW226847   5.361   4.656   6.511
 8650SOL     OW26848   2.155   4.327   6.141
 8650SOL    HW126849   2.234   4.272   6.114
 8650SOL    HW226850   2.124   4.382   6.064
 8651SOL     OW26851   3.076   0.986   0.657
 8651SOL    HW126852   3.089   0.933   0.573
 8651SOL    HW226853   2.994   1.042   0.648
 8652SOL     OW26854   1.796   4.055   3.837
 8652SOL    HW126855   1.794   4.152   3.812
 8652SOL    HW226856   1.769   4.000   3.758
 8653SOL     OW26857   5.847   1.294   0.023
 8653SOL    HW126858   5.764   1.349   0.032
 8653SOL    HW226859   5.851   1.255   6.958
 8654SOL     OW26860   1.132   5.102   1.271
 8654SOL    HW126861   1.139   5.004   1.289
 8654SOL    HW226862   1.185   5.152   1.339
 8655SOL     OW26863   6.256   1.305   3.922
 8655SOL    HW126864   6.180   1.241   3.918
 8655SOL    HW226865   6.342   1.255   3.921
 8656SOL     OW26866   6.299   0.754   0.287
 8656SOL    HW126867   6.352   0.839   0.290
 8656SOL    HW226868   6.272   0.735   0.192
 8657SOL     OW26869   5.198   4.971   0.247
 8657SOL    HW126870   5.295   4.948   0.241
 8657SOL    HW226871   5.187   5.057   0.298
 8658SOL     OW26872   4.148   6.578   7.001
 8658SOL    HW126873   4.183   6.671   7.006
 8658SOL    HW226874   4.198   6.526   6.932
 8659SOL     OW26875   4.662   2.004   3.113
 8659SOL    HW126876   4.614   1.962   3.037
 8659SOL    HW226877   4.761   1.994   3.099
 8660SOL     OW26878   6.043   3.849   0.605
 8660SOL    HW126879   6.027   3.923   0.540
 8660SOL    HW226880   6.088   3.772   0.559
 8661SOL     OW26881   5.769   3.845   0.956
 8661SOL    HW126882   5.811   3.755   0.964
 8661SOL    HW226883   5.818   3.898   0.886
 8662SOL     OW26884   4.373   6.002   0.796
 8662SOL    HW126885   4.274   6.011   0.805
 8662SOL    HW226886   4.412   5.970   0.882
 8663SOL     OW26887   2.984   5.761   1.542
 8663SOL    HW126888   3.044   5.816   1.485
 8663SOL    HW226889   2.912   5.721   1.486
 8664SOL     OW26890   3.160   6.359   1.211
 8664SOL    HW126891   3.243   6.304   1.221
 8664SOL    HW226892   3.125   6.383   1.302
 8665SOL     OW26893   5.465   6.119   4.914
 8665SOL    HW126894   5.517   6.036   4.893
 8665SOL    HW226895   5.369   6.097   4.926
 8666SOL     OW26896   4.703   1.417   3.892
 8666SOL    HW126897   4.639   1.437   3.966
 8666SOL    HW226898   4.758   1.337   3.917
 8667SOL     OW26899   4.953   2.616   3.101
 8667SOL    HW126900   4.853   2.613   3.096
 8667SOL    HW226901   4.982   2.711   3.114
 8668SOL     OW26902   5.871   3.505   2.917
 8668SOL    HW126903   5.839   3.504   2.823
 8668SOL    HW226904   5.814   3.444   2.973
 8669SOL     OW26905   2.023   6.518   0.502
 8669SOL    HW126906   2.120   6.516   0.477
 8669SOL    HW226907   1.987   6.424   0.504
 8670SOL     OW26908   3.563   4.534   5.406
 8670SOL    HW126909   3.639   4.471   5.396
 8670SOL    HW226910   3.477   4.488   5.384
 8671SOL     OW26911   5.565   1.920   3.387
 8671SOL    HW126912   5.536   2.014   3.371
 8671SOL    HW226913   5.516   1.859   3.325
 8672SOL     OW26914   1.713   4.947   3.863
 8672SOL    HW126915   1.717   5.035   3.911
 8672SOL    HW226916   1.789   4.890   3.894
 8673SOL     OW26917   6.904   2.596   0.040
 8673SOL    HW126918   6.829   2.609   0.105
 8673SOL    HW226919   6.934   2.501   0.043
 8674SOL     OW26920   5.373   5.369   3.063
 8674SOL    HW126921   5.297   5.427   3.092
 8674SOL    HW226922   5.363   5.278   3.103
 8675SOL     OW26923   3.116   2.204   4.390
 8675SOL    HW126924   3.049   2.199   4.316
 8675SOL    HW226925   3.070   2.217   4.477
 8676SOL     OW26926   4.096   0.295   2.710
 8676SOL    HW126927   4.111   0.361   2.783
 8676SOL    HW226928   3.998   0.293   2.687
 8677SOL     OW26929   2.560   6.104   5.675
 8677SOL    HW126930   2.574   6.130   5.771
 8677SOL    HW226931   2.589   6.009   5.663
 8678SOL     OW26932   6.865   0.396   1.189
 8678SOL    HW126933   6.842   0.318   1.247
 8678SOL    HW226934   6.961   0.391   1.162
 8679SOL     OW26935   6.681   2.531   3.782
 8679SOL    HW126936   6.665   2.543   3.684
 8679SOL    HW226937   6.633   2.603   3.833
 8680SOL     OW26938   1.020   4.257   1.670
 8680SOL    HW126939   1.100   4.288   1.721
 8680SOL    HW226940   0.988   4.170   1.708
 8681SOL     OW26941   4.654   5.476   6.830
 8681SOL    HW126942   4.663   5.377   6.822
 8681SOL    HW226943   4.657   5.518   6.739
 8682SOL     OW26944   5.149   6.781   1.262
 8682SOL    HW126945   5.168   6.838   1.343
 8682SOL    HW226946   5.090   6.704   1.289
 8683SOL     OW26947   1.867   2.624   2.695
 8683SOL    HW126948   1.818   2.687   2.757
 8683SOL    HW226949   1.919   2.559   2.749
 8684SOL     OW26950   0.723   2.805   4.810
 8684SOL    HW126951   0.732   2.812   4.711
 8684SOL    HW226952   0.637   2.760   4.833
 8685SOL     OW26953   0.323   2.170   5.887
 8685SOL    HW126954   0.299   2.080   5.925
 8685SOL    HW226955   0.321   2.164   5.787
 8686SOL     OW26956   6.869   0.875   1.894
 8686SOL    HW126957   6.819   0.947   1.846
 8686SOL    HW226958   6.933   0.915   1.959
 8687SOL     OW26959   3.953   5.243   2.202
 8687SOL    HW126960   3.988   5.236   2.296
 8687SOL    HW226961   3.935   5.338   2.180
 8688SOL     OW26962   3.080   6.097   0.171
 8688SOL    HW126963   3.069   6.097   0.271
 8688SOL    HW226964   2.990   6.091   0.128
 8689SOL     OW26965   3.234   4.234   1.717
 8689SOL    HW126966   3.322   4.202   1.753
 8689SOL    HW226967   3.162   4.219   1.785
 8690SOL     OW26968   1.462   3.094   3.312
 8690SOL    HW126969   1.373   3.060   3.342
 8690SOL    HW226970   1.487   3.049   3.226
 8691SOL     OW26971   3.178   2.097   6.722
 8691SOL    HW126972   3.255   2.149   6.685
 8691SOL    HW226973   3.204   2.001   6.730
 8692SOL     OW26974   1.887   1.454   3.814
 8692SOL    HW126975   1.878   1.482   3.909
 8692SOL    HW226976   1.798   1.422   3.780
 8693SOL     OW26977   6.937   0.989   6.707
 8693SOL    HW126978   6.974   0.902   6.737
 8693SOL    HW226979   6.984   1.064   6.754
 8694SOL     OW26980   4.095   0.973   5.198
 8694SOL    HW126981   4.048   1.060   5.208
 8694SOL    HW226982   4.063   0.927   5.115
 8695SOL     OW26983   3.779   2.574   6.303
 8695SOL    HW126984   3.730   2.646   6.255
 8695SOL    HW226985   3.839   2.526   6.238
 8696SOL     OW26986   2.145   5.364   0.579
 8696SOL    HW126987   2.242   5.342   0.593
 8696SOL    HW226988   2.133   5.405   0.489
 8697SOL     OW26989   6.734   2.640   0.394
 8697SOL    HW126990   6.829   2.633   0.422
 8697SOL    HW226991   6.720   2.586   0.310
 8698SOL     OW26992   5.715   5.797   4.346
 8698SOL    HW126993   5.660   5.809   4.264
 8698SOL    HW226994   5.783   5.870   4.352
 8699SOL     OW26995   2.049   2.579   5.509
 8699SOL    HW126996   2.077   2.673   5.494
 8699SOL    HW226997   1.961   2.578   5.557
 8700SOL     OW26998   0.995   0.501   4.527
 8700SOL    HW126999   1.027   0.409   4.551
 8700SOL    HW227000   0.970   0.502   4.430
 8701SOL     OW27001   1.410   0.777   0.432
 8701SOL    HW127002   1.359   0.789   0.517
 8701SOL    HW227003   1.456   0.689   0.432
 8702SOL     OW27004   5.539   4.451   0.814
 8702SOL    HW127005   5.461   4.391   0.830
 8702SOL    HW227006   5.592   4.417   0.737
 8703SOL     OW27007   3.509   5.391   0.531
 8703SOL    HW127008   3.458   5.421   0.612
 8703SOL    HW227009   3.458   5.320   0.484
 8704SOL     OW27010   0.120   3.530   2.497
 8704SOL    HW127011   0.027   3.552   2.467
 8704SOL    HW227012   0.163   3.611   2.536
 8705SOL     OW27013   5.080   0.900   7.026
 8705SOL    HW127014   5.008   0.850   0.047
 8705SOL    HW227015   5.110   0.977   0.054
 8706SOL     OW27016   4.762   2.324   6.060
 8706SOL    HW127017   4.673   2.318   6.014
 8706SOL    HW227018   4.787   2.420   6.073
 8707SOL     OW27019   0.003   2.836   0.086
 8707SOL    HW127020   6.970   2.895   0.032
 8707SOL    HW227021   7.005   2.740   0.071
 8708SOL     OW27022   4.644   1.964   2.175
 8708SOL    HW127023   4.637   2.037   2.107
 8708SOL    HW227024   4.700   1.994   2.252
 8709SOL     OW27025   6.666   5.957   0.143
 8709SOL    HW127026   6.591   5.970   0.078
 8709SOL    HW227027   6.696   6.047   0.177
 8710SOL     OW27028   2.176   3.093   4.218
 8710SOL    HW127029   2.253   3.029   4.216
 8710SOL    HW227030   2.173   3.138   4.307
 8711SOL     OW27031   1.148   6.223   3.491
 8711SOL    HW127032   1.123   6.268   3.576
 8711SOL    HW227033   1.157   6.125   3.507
 8712SOL     OW27034   3.975   2.187   5.162
 8712SOL    HW127035   3.985   2.272   5.214
 8712SOL    HW227036   4.042   2.120   5.195
 8713SOL     OW27037   0.785   3.541   4.010
 8713SOL    HW127038   0.699   3.534   3.960
 8713SOL    HW227039   0.860   3.557   3.945
 8714SOL     OW27040   1.196   1.198   5.806
 8714SOL    HW127041   1.196   1.293   5.835
 8714SOL    HW227042   1.130   1.146   5.860
 8715SOL     OW27043   4.326   0.286   0.952
 8715SOL    HW127044   4.297   0.306   1.046
 8715SOL    HW227045   4.424   0.304   0.942
 8716SOL     OW27046   0.393   7.021   0.900
 8716SOL    HW127047   0.316   6.958   0.892
 8716SOL    HW227048   0.405   0.018   0.997
 8717SOL     OW27049   3.247   3.554   3.339
 8717SOL    HW127050   3.229   3.470   3.287
 8717SOL    HW227051   3.168   3.573   3.398
 8718SOL     OW27052   0.880   4.277   4.672
 8718SOL    HW127053   0.933   4.342   4.726
 8718SOL    HW227054   0.942   4.215   4.624
 8719SOL     OW27055   2.803   0.285   6.465
 8719SOL    HW127056   2.841   0.192   6.460
 8719SOL    HW227057   2.870   0.346   6.507
 8720SOL     OW27058   6.235   5.205   5.534
 8720SOL    HW127059   6.190   5.152   5.606
 8720SOL    HW227060   6.333   5.211   5.552
 8721SOL     OW27061   0.243   2.371   2.495
 8721SOL    HW127062   0.169   2.362   2.562
 8721SOL    HW227063   0.225   2.449   2.436
 8722SOL     OW27064   3.916   1.390   6.684
 8722SOL    HW127065   3.973   1.333   6.624
 8722SOL    HW227066   3.962   1.401   6.772
 8723SOL     OW27067   4.713   5.473   0.756
 8723SOL    HW127068   4.705   5.409   0.679
 8723SOL    HW227069   4.695   5.566   0.723
 8724SOL     OW27070   5.646   0.307   5.847
 8724SOL    HW127071   5.644   0.321   5.946
 8724SOL    HW227072   5.658   0.394   5.801
 8725SOL     OW27073   2.133   0.086   6.617
 8725SOL    HW127074   2.036   0.083   6.592
 8725SOL    HW227075   2.158   0.180   6.639
 8726SOL     OW27076   6.329   0.039   2.167
 8726SOL    HW127077   6.346   6.974   2.133
 8726SOL    HW227078   6.257   0.082   2.113
 8727SOL     OW27079   0.422   6.173   2.322
 8727SOL    HW127080   0.452   6.182   2.227
 8727SOL    HW227081   0.332   6.129   2.325
 8728SOL     OW27082   4.629   0.588   3.904
 8728SOL    HW127083   4.589   0.518   3.846
 8728SOL    HW227084   4.727   0.571   3.915
 8729SOL     OW27085   4.975   6.354   3.961
 8729SOL    HW127086   4.875   6.357   3.960
 8729SOL    HW227087   5.008   6.410   4.038
 8730SOL     OW27088   6.532   4.182   2.500
 8730SOL    HW127089   6.565   4.215   2.412
 8730SOL    HW227090   6.449   4.128   2.487
 8731SOL     OW27091   2.274   2.642   2.601
 8731SOL    HW127092   2.338   2.609   2.532
 8731SOL    HW227093   2.287   2.590   2.686
 8732SOL     OW27094   5.202   4.719   1.690
 8732SOL    HW127095   5.275   4.787   1.699
 8732SOL    HW227096   5.204   4.657   1.768
 8733SOL     OW27097   1.910   5.424   1.327
 8733SOL    HW127098   1.976   5.477   1.381
 8733SOL    HW227099   1.888   5.339   1.375
 8734SOL     OW27100   1.669   4.964   2.234
 8734SOL    HW127101   1.684   4.871   2.202
 8734SOL    HW227102   1.711   4.976   2.324
 8735SOL     OW27103   1.047   1.955   0.578
 8735SOL    HW127104   1.036   1.883   0.647
 8735SOL    HW227105   1.011   2.041   0.613
 8736SOL     OW27106   0.824   5.959   5.792
 8736SOL    HW127107   0.919   5.982   5.770
 8736SOL    HW227108   0.770   6.043   5.799
 8737SOL     OW27109   2.423   6.596   6.273
 8737SOL    HW127110   2.457   6.577   6.181
 8737SOL    HW227111   2.434   6.694   6.293
 8738SOL     OW27112   2.263   5.124   4.462
 8738SOL    HW127113   2.200   5.048   4.448
 8738SOL    HW227114   2.298   5.122   4.556
 8739SOL     OW27115   5.571   5.524   6.080
 8739SOL    HW127116   5.630   5.602   6.057
 8739SOL    HW227117   5.568   5.461   6.002
 8740SOL     OW27118   5.108   1.053   5.600
 8740SOL    HW127119   5.126   1.151   5.602
 8740SOL    HW227120   5.194   1.003   5.595
 8741SOL     OW27121   2.859   1.246   1.499
 8741SOL    HW127122   2.802   1.328   1.493
 8741SOL    HW227123   2.912   1.249   1.583
 8742SOL     OW27124   5.852   6.449   1.290
 8742SOL    HW127125   5.873   6.545   1.311
 8742SOL    HW227126   5.862   6.434   1.192
 8743SOL     OW27127   1.526   0.836   2.427
 8743SOL    HW127128   1.552   0.749   2.468
 8743SOL    HW227129   1.580   0.910   2.467
 8744SOL     OW27130   3.402   2.776   6.563
 8744SOL    HW127131   3.367   2.852   6.620
 8744SOL    HW227132   3.392   2.800   6.467
 8745SOL     OW27133   5.981   2.941   6.031
 8745SOL    HW127134   5.964   2.921   6.128
 8745SOL    HW227135   6.019   3.034   6.023
 8746SOL     OW27136   5.223   3.738   4.965
 8746SOL    HW127137   5.278   3.680   4.904
 8746SOL    HW227138   5.231   3.704   5.059
 8747SOL     OW27139   0.541   2.745   2.162
 8747SOL    HW127140   0.630   2.753   2.206
 8747SOL    HW227141   0.512   2.650   2.160
 8748SOL     OW27142   6.864   1.625   5.137
 8748SOL    HW127143   6.840   1.699   5.074
 8748SOL    HW227144   6.780   1.583   5.171
 8749SOL     OW27145   2.707   0.617   6.594
 8749SOL    HW127146   2.644   0.691   6.571
 8749SOL    HW227147   2.656   0.539   6.631
 8750SOL     OW27148   3.159   3.411   5.400
 8750SOL    HW127149   3.066   3.436   5.430
 8750SOL    HW227150   3.153   3.352   5.320
 8751SOL     OW27151   6.484   0.702   3.099
 8751SOL    HW127152   6.465   0.650   3.015
 8751SOL    HW227153   6.406   0.696   3.160
 8752SOL     OW27154   2.356   4.387   0.699
 8752SOL    HW127155   2.281   4.395   0.635
 8752SOL    HW227156   2.345   4.454   0.773
 8753SOL     OW27157   4.872   2.147   5.121
 8753SOL    HW127158   4.788   2.100   5.092
 8753SOL    HW227159   4.879   2.235   5.075
 8754SOL     OW27160   1.279   2.982   5.087
 8754SOL    HW127161   1.299   3.050   5.017
 8754SOL    HW227162   1.303   2.891   5.053
 8755SOL     OW27163   2.495   0.458   0.819
 8755SOL    HW127164   2.591   0.431   0.811
 8755SOL    HW227165   2.484   0.519   0.896
 8756SOL     OW27166   1.791   2.975   3.511
 8756SOL    HW127167   1.693   2.986   3.530
 8756SOL    HW227168   1.810   2.881   3.483
 8757SOL     OW27169   4.308   6.191   5.858
 8757SOL    HW127170   4.370   6.269   5.866
 8757SOL    HW227171   4.334   6.121   5.925
 8758SOL     OW27172   4.562   6.426   2.098
 8758SOL    HW127173   4.643   6.386   2.142
 8758SOL    HW227174   4.591   6.494   2.031
 8759SOL     OW27175   4.092   2.327   0.618
 8759SOL    HW127176   4.016   2.383   0.652
 8759SOL    HW227177   4.113   2.256   0.684
 8760SOL     OW27178   1.315   1.463   5.125
 8760SOL    HW127179   1.239   1.424   5.176
 8760SOL    HW227180   1.381   1.390   5.103
 8761SOL     OW27181   5.500   2.146   2.296
 8761SOL    HW127182   5.544   2.063   2.329
 8761SOL    HW227183   5.414   2.122   2.251
 8762SOL     OW27184   0.659   4.309   2.141
 8762SOL    HW127185   0.591   4.344   2.205
 8762SOL    HW227186   0.704   4.385   2.095
 8763SOL     OW27187   6.404   6.277   5.702
 8763SOL    HW127188   6.313   6.267   5.741
 8763SOL    HW227189   6.448   6.187   5.695
 8764SOL     OW27190   4.925   1.321   4.836
 8764SOL    HW127191   4.882   1.235   4.809
 8764SOL    HW227192   4.881   1.356   4.918
 8765SOL     OW27193   5.875   6.750   5.620
 8765SOL    HW127194   5.779   6.722   5.626
 8765SOL    HW227195   5.933   6.669   5.613
 8766SOL     OW27196   4.465   4.505   3.838
 8766SOL    HW127197   4.437   4.597   3.863
 8766SOL    HW227198   4.490   4.453   3.920
 8767SOL     OW27199   4.214   6.820   2.901
 8767SOL    HW127200   4.285   6.872   2.854
 8767SOL    HW227201   4.248   6.791   2.991
 8768SOL     OW27202   1.210   3.120   0.580
 8768SOL    HW127203   1.218   3.173   0.665
 8768SOL    HW227204   1.137   3.052   0.591
 8769SOL     OW27205   0.901   0.264   4.155
 8769SOL    HW127206   0.911   0.253   4.056
 8769SOL    HW227207   0.926   0.358   4.180
 8770SOL     OW27208   5.371   4.162   2.274
 8770SOL    HW127209   5.404   4.068   2.269
 8770SOL    HW227210   5.319   4.176   2.358
 8771SOL     OW27211   1.192   0.502   6.431
 8771SOL    HW127212   1.143   0.569   6.487
 8771SOL    HW227213   1.126   0.442   6.386
 8772SOL     OW27214   4.988   6.741   6.808
 8772SOL    HW127215   5.063   6.731   6.873
 8772SOL    HW227216   4.951   6.833   6.814
 8773SOL     OW27217   4.609   2.592   3.666
 8773SOL    HW127218   4.542   2.561   3.599
 8773SOL    HW227219   4.596   2.542   3.752
 8774SOL     OW27220   2.036   1.400   6.605
 8774SOL    HW127221   2.017   1.330   6.674
 8774SOL    HW227222   1.969   1.473   6.614
 8775SOL     OW27223   6.455   0.158   5.312
 8775SOL    HW127224   6.527   0.139   5.245
 8775SOL    HW227225   6.404   0.074   5.331
 8776SOL     OW27226   4.087   3.527   5.507
 8776SOL    HW127227   4.017   3.476   5.458
 8776SOL    HW227228   4.045   3.579   5.582
 8777SOL     OW27229   6.892   3.848   1.720
 8777SOL    HW127230   6.801   3.846   1.679
 8777SOL    HW227231   6.959   3.817   1.653
 8778SOL     OW27232   6.397   2.208   4.760
 8778SOL    HW127233   6.451   2.263   4.696
 8778SOL    HW227234   6.316   2.259   4.788
 8779SOL     OW27235   3.066   5.218   2.240
 8779SOL    HW127236   3.145   5.219   2.301
 8779SOL    HW227237   3.089   5.167   2.156
 8780SOL     OW27238   1.076   5.893   2.911
 8780SOL    HW127239   1.026   5.808   2.921
 8780SOL    HW227240   1.038   5.946   2.835
 8781SOL     OW27241   6.557   1.784   3.395
 8781SOL    HW127242   6.641   1.729   3.392
 8781SOL    HW227243   6.507   1.764   3.479
 8782SOL     OW27244   5.128   6.962   2.040
 8782SOL    HW127245   5.082   0.024   2.039
 8782SOL    HW227246   5.111   6.915   1.953
 8783SOL     OW27247   0.012   4.145   3.879
 8783SOL    HW127248   6.949   4.171   3.846
 8783SOL    HW227249   0.067   4.112   3.802
 8784SOL     OW27250   5.751   4.227   6.448
 8784SOL    HW127251   5.703   4.140   6.456
 8784SOL    HW227252   5.826   4.230   6.514
 8785SOL     OW27253   6.684   3.627   6.342
 8785SOL    HW127254   6.736   3.653   6.423
 8785SOL    HW227255   6.609   3.567   6.369
 8786SOL     OW27256   1.693   0.075   0.216
 8786SOL    HW127257   1.761   0.135   0.175
 8786SOL    HW227258   1.733   0.029   0.296
 8787SOL     OW27259   2.371   2.738   1.897
 8787SOL    HW127260   2.458   2.701   1.864
 8787SOL    HW227261   2.367   2.836   1.876
 8788SOL     OW27262   0.018   2.235   6.059
 8788SOL    HW127263   0.109   2.206   6.089
 8788SOL    HW227264   7.022   2.322   6.102
 8789SOL     OW27265   6.172   0.086   5.622
 8789SOL    HW127266   6.245   0.151   5.603
 8789SOL    HW227267   6.210   7.022   5.636
 8790SOL     OW27268   0.155   0.792   6.566
 8790SOL    HW127269   0.133   0.801   6.663
 8790SOL    HW227270   0.189   0.700   6.548
 8791SOL     OW27271   6.196   6.845   5.062
 8791SOL    HW127272   6.170   6.912   4.993
 8791SOL    HW227273   6.211   6.756   5.019
 8792SOL     OW27274   3.297   6.823   3.411
 8792SOL    HW127275   3.259   6.860   3.495
 8792SOL    HW227276   3.265   6.729   3.398
 8793SOL     OW27277   1.674   5.393   3.124
 8793SOL    HW127278   1.683   5.388   3.223
 8793SOL    HW227279   1.699   5.305   3.084
 8794SOL     OW27280   4.073   6.425   1.838
 8794SOL    HW127281   4.012   6.483   1.892
 8794SOL    HW227282   4.166   6.462   1.843
 8795SOL     OW27283   1.667   6.234   5.557
 8795SOL    HW127284   1.581   6.277   5.584
 8795SOL    HW227285   1.720   6.212   5.639
 8796SOL     OW27286   4.679   1.726   4.534
 8796SOL    HW127287   4.692   1.627   4.536
 8796SOL    HW227288   4.732   1.766   4.459
 8797SOL     OW27289   1.174   6.933   5.468
 8797SOL    HW127290   1.171   6.845   5.516
 8797SOL    HW227291   1.194   6.918   5.371
 8798SOL     OW27292   4.905   5.505   5.615
 8798SOL    HW127293   4.818   5.551   5.594
 8798SOL    HW227294   4.933   5.528   5.708
 8799SOL     OW27295   2.055   4.609   3.783
 8799SOL    HW127296   2.136   4.592   3.840
 8799SOL    HW227297   2.081   4.606   3.687
 8800SOL     OW27298   5.995   4.241   5.433
 8800SOL    HW127299   5.952   4.223   5.345
 8800SOL    HW227300   6.072   4.179   5.447
 8801SOL     OW27301   0.701   1.868   4.831
 8801SOL    HW127302   0.790   1.881   4.875
 8801SOL    HW227303   0.706   1.792   4.767
 8802SOL     OW27304   1.833   0.051   1.151
 8802SOL    HW127305   1.825   7.000   1.212
 8802SOL    HW227306   1.747   0.063   1.101
 8803SOL     OW27307   0.002   5.516   6.301
 8803SOL    HW127308   0.034   5.610   6.289
 8803SOL    HW227309   0.024   5.462   6.219
 8804SOL     OW27310   3.204   0.672   2.404
 8804SOL    HW127311   3.107   0.696   2.417
 8804SOL    HW227312   3.234   0.615   2.480
 8805SOL     OW27313   2.911   0.038   3.972
 8805SOL    HW127314   2.938   6.976   4.009
 8805SOL    HW227315   2.990   0.099   3.970
 8806SOL     OW27316   2.460   5.180   2.088
 8806SOL    HW127317   2.400   5.112   2.046
 8806SOL    HW227318   2.536   5.134   2.134
 8807SOL     OW27319   5.075   0.266   6.649
 8807SOL    HW127320   5.002   0.330   6.673
 8807SOL    HW227321   5.038   0.173   6.645
 8808SOL     OW27322   5.849   2.432   6.930
 8808SOL    HW127323   5.846   2.369   6.852
 8808SOL    HW227324   5.806   2.389   7.009
 8809SOL     OW27325   4.361   5.532   3.594
 8809SOL    HW127326   4.278   5.477   3.595
 8809SOL    HW227327   4.394   5.544   3.688
 8810SOL     OW27328   5.476   0.401   6.268
 8810SOL    HW127329   5.400   0.342   6.295
 8810SOL    HW227330   5.482   0.479   6.331
 8811SOL     OW27331   2.707   1.492   3.858
 8811SOL    HW127332   2.645   1.551   3.807
 8811SOL    HW227333   2.777   1.548   3.903
 8812SOL     OW27334   2.340   6.914   1.499
 8812SOL    HW127335   2.379   6.910   1.407
 8812SOL    HW227336   2.395   6.977   1.556
 8813SOL     OW27337   0.790   4.670   1.774
 8813SOL    HW127338   0.787   4.763   1.738
 8813SOL    HW227339   0.698   4.633   1.782
 8814SOL     OW27340   5.753   6.839   0.750
 8814SOL    HW127341   5.693   6.817   0.827
 8814SOL    HW227342   5.699   6.851   0.667
 8815SOL     OW27343   6.922   6.241   0.674
 8815SOL    HW127344   6.964   6.165   0.723
 8815SOL    HW227345   6.989   6.280   0.610
 8816SOL     OW27346   0.979   0.649   0.318
 8816SOL    HW127347   0.981   0.714   0.394
 8816SOL    HW227348   1.023   0.564   0.345
 8817SOL     OW27349   1.203   6.088   4.683
 8817SOL    HW127350   1.174   6.086   4.779
 8817SOL    HW227351   1.241   5.999   4.659
 8818SOL     OW27352   0.659   3.600   4.750
 8818SOL    HW127353   0.681   3.616   4.653
 8818SOL    HW227354   0.631   3.686   4.793
 8819SOL     OW27355   5.640   4.885   4.915
 8819SOL    HW127356   5.618   4.878   5.012
 8819SOL    HW227357   5.666   4.796   4.880
 8820SOL     OW27358   1.764   0.726   5.127
 8820SOL    HW127359   1.856   0.705   5.092
 8820SOL    HW227360   1.757   0.824   5.145
 8821SOL     OW27361   2.965   6.072   0.426
 8821SOL    HW127362   3.016   6.047   0.508
 8821SOL    HW227363   2.918   6.159   0.441
 8822SOL     OW27364   0.592   0.111   4.938
 8822SOL    HW127365   0.506   0.061   4.948
 8822SOL    HW227366   0.659   0.053   4.891
 8823SOL     OW27367   2.289   0.770   1.220
 8823SOL    HW127368   2.197   0.755   1.256
 8823SOL    HW227369   2.315   0.865   1.235
 8824SOL     OW27370   0.702   2.985   0.962
 8824SOL    HW127371   0.638   2.995   1.039
 8824SOL    HW227372   0.768   2.913   0.983
 8825SOL     OW27373   1.579   0.592   2.548
 8825SOL    HW127374   1.618   0.572   2.638
 8825SOL    HW227375   1.643   0.565   2.476
 8826SOL     OW27376   6.627   3.100   0.888
 8826SOL    HW127377   6.555   3.157   0.929
 8826SOL    HW227378   6.701   3.088   0.953
 8827SOL     OW27379   3.704   1.259   3.055
 8827SOL    HW127380   3.619   1.277   3.005
 8827SOL    HW227381   3.685   1.256   3.153
 8828SOL     OW27382   4.300   5.217   5.705
 8828SOL    HW127383   4.334   5.180   5.618
 8828SOL    HW227384   4.354   5.297   5.731
 8829SOL     OW27385   6.484   2.248   0.744
 8829SOL    HW127386   6.498   2.345   0.725
 8829SOL    HW227387   6.503   2.194   0.662
 8830SOL     OW27388   0.970   1.823   2.194
 8830SOL    HW127389   0.965   1.765   2.113
 8830SOL    HW227390   1.060   1.812   2.237
 8831SOL     OW27391   5.066   1.700   3.868
 8831SOL    HW127392   5.103   1.769   3.807
 8831SOL    HW227393   5.129   1.622   3.871
 8832SOL     OW27394   6.851   5.853   2.881
 8832SOL    HW127395   6.876   5.910   2.803
 8832SOL    HW227396   6.911   5.774   2.885
 8833SOL     OW27397   2.102   6.177   5.685
 8833SOL    HW127398   2.059   6.098   5.642
 8833SOL    HW227399   2.182   6.205   5.632
 8834SOL     OW27400   5.416   3.578   4.845
 8834SOL    HW127401   5.498   3.625   4.876
 8834SOL    HW227402   5.398   3.498   4.903
 8835SOL     OW27403   5.489   1.225   6.470
 8835SOL    HW127404   5.442   1.235   6.558
 8835SOL    HW227405   5.433   1.169   6.409
 8836SOL     OW27406   4.514   2.316   7.019
 8836SOL    HW127407   4.517   2.383   0.065
 8836SOL    HW227408   4.419   2.287   7.004
 8837SOL     OW27409   0.042   5.951   3.298
 8837SOL    HW127410   7.021   6.009   3.233
 8837SOL    HW227411   0.018   5.855   3.282
 8838SOL     OW27412   2.101   4.698   2.725
 8838SOL    HW127413   2.164   4.742   2.661
 8838SOL    HW227414   2.140   4.700   2.817
 8839SOL     OW27415   4.656   5.081   3.259
 8839SOL    HW127416   4.671   4.983   3.274
 8839SOL    HW227417   4.562   5.096   3.228
 8840SOL     OW27418   6.469   2.138   1.927
 8840SOL    HW127419   6.387   2.171   1.975
 8840SOL    HW227420   6.549   2.148   1.986
 8841SOL     OW27421   0.233   0.999   5.195
 8841SOL    HW127422   0.265   1.088   5.229
 8841SOL    HW227423   0.309   0.949   5.155
 8842SOL     OW27424   3.329   3.176   2.003
 8842SOL    HW127425   3.245   3.204   2.050
 8842SOL    HW227426   3.315   3.088   1.958
 8843SOL     OW27427   2.031   3.327   5.573
 8843SOL    HW127428   2.036   3.378   5.487
 8843SOL    HW227429   1.935   3.311   5.597
 8844SOL     OW27430   6.649   2.477   6.783
 8844SOL    HW127431   6.682   2.564   6.819
 8844SOL    HW227432   6.606   2.491   6.694
 8845SOL     OW27433   3.640   3.944   0.264
 8845SOL    HW127434   3.559   3.905   0.308
 8845SOL    HW227435   3.718   3.940   0.327
 8846SOL     OW27436   3.179   5.693   3.825
 8846SOL    HW127437   3.235   5.768   3.861
 8846SOL    HW227438   3.203   5.608   3.872
 8847SOL     OW27439   2.863   1.404   3.593
 8847SOL    HW127440   2.955   1.365   3.594
 8847SOL    HW227441   2.867   1.501   3.617
 8848SOL     OW27442   2.469   1.184   1.622
 8848SOL    HW127443   2.433   1.251   1.557
 8848SOL    HW227444   2.446   1.092   1.592
 8849SOL     OW27445   3.178   6.580   3.401
 8849SOL    HW127446   3.079   6.575   3.414
 8849SOL    HW227447   3.221   6.502   3.445
 8850SOL     OW27448   1.317   2.715   6.909
 8850SOL    HW127449   1.306   2.665   6.823
 8850SOL    HW227450   1.334   2.650   6.983
 8851SOL     OW27451   1.482   4.075   3.467
 8851SOL    HW127452   1.515   4.161   3.427
 8851SOL    HW227453   1.448   4.016   3.394
 8852SOL     OW27454   0.139   2.411   5.000
 8852SOL    HW127455   0.188   2.499   4.997
 8852SOL    HW227456   0.155   2.367   5.088
 8853SOL     OW27457   2.852   0.860   1.740
 8853SOL    HW127458   2.775   0.921   1.758
 8853SOL    HW227459   2.934   0.915   1.724
 8854SOL     OW27460   2.113   2.439   5.748
 8854SOL    HW127461   2.033   2.493   5.722
 8854SOL    HW227462   2.157   2.402   5.666
 8855SOL     OW27463   6.373   5.072   1.474
 8855SOL    HW127464   6.356   5.160   1.517
 8855SOL    HW227465   6.354   4.999   1.540
 8856SOL     OW27466   1.199   6.299   6.430
 8856SOL    HW127467   1.161   6.239   6.500
 8856SOL    HW227468   1.125   6.335   6.372
 8857SOL     OW27469   6.776   1.715   4.408
 8857SOL    HW127470   6.790   1.790   4.473
 8857SOL    HW227471   6.763   1.630   4.459
 8858SOL     OW27472   0.038   4.005   4.448
 8858SOL    HW127473   0.037   4.105   4.454
 8858SOL    HW227474   0.131   3.972   4.459
 8859SOL     OW27475   1.416   1.828   3.754
 8859SOL    HW127476   1.497   1.836   3.812
 8859SOL    HW227477   1.389   1.919   3.722
 8860SOL     OW27478   6.990   2.209   1.291
 8860SOL    HW127479   0.027   2.282   1.318
 8860SOL    HW227480   6.956   2.163   1.373
 8861SOL     OW27481   4.047   1.121   5.851
 8861SOL    HW127482   4.051   1.025   5.878
 8861SOL    HW227483   4.138   1.149   5.819
 8862SOL     OW27484   5.796   0.332   3.729
 8862SOL    HW127485   5.729   0.258   3.736
 8862SOL    HW227486   5.819   0.348   3.633
 8863SOL     OW27487   2.778   4.750   3.329
 8863SOL    HW127488   2.692   4.718   3.289
 8863SOL    HW227489   2.845   4.764   3.256
 8864SOL     OW27490   3.313   5.106   6.595
 8864SOL    HW127491   3.402   5.103   6.549
 8864SOL    HW227492   3.319   5.165   6.676
 8865SOL     OW27493   3.111   0.740   4.639
 8865SOL    HW127494   3.144   0.833   4.623
 8865SOL    HW227495   3.168   0.676   4.587
 8866SOL     OW27496   5.607   6.892   2.892
 8866SOL    HW127497   5.515   6.927   2.873
 8866SOL    HW227498   5.665   6.968   2.922
 8867SOL     OW27499   5.757   4.562   3.477
 8867SOL    HW127500   5.803   4.489   3.526
 8867SOL    HW227501   5.682   4.598   3.533
 8868SOL     OW27502   0.115   3.156   1.817
 8868SOL    HW127503   0.046   3.207   1.868
 8868SOL    HW227504   0.075   3.072   1.779
 8869SOL     OW27505   3.953   5.858   5.635
 8869SOL    HW127506   3.989   5.943   5.674
 8869SOL    HW227507   3.932   5.872   5.539
 8870SOL     OW27508   2.512   6.701   1.968
 8870SOL    HW127509   2.422   6.660   1.951
 8870SOL    HW227510   2.562   6.708   1.882
 8871SOL     OW27511   1.993   0.015   3.502
 8871SOL    HW127512   1.944   0.036   3.586
 8871SOL    HW227513   1.935   6.987   3.442
 8872SOL     OW27514   1.473   4.882   5.954
 8872SOL    HW127515   1.387   4.933   5.953
 8872SOL    HW227516   1.549   4.946   5.966
 8873SOL     OW27517   1.982   6.682   2.297
 8873SOL    HW127518   1.899   6.718   2.255
 8873SOL    HW227519   2.062   6.719   2.250
 8874SOL     OW27520   2.173   5.609   2.520
 8874SOL    HW127521   2.219   5.520   2.519
 8874SOL    HW227522   2.088   5.603   2.467
 8875SOL     OW27523   6.707   3.586   4.831
 8875SOL    HW127524   6.778   3.544   4.776
 8875SOL    HW227525   6.727   3.683   4.844
 8876SOL     OW27526   2.346   0.110   5.948
 8876SOL    HW127527   2.341   0.146   6.042
 8876SOL    HW227528   2.421   0.043   5.943
 8877SOL     OW27529   2.237   2.379   4.168
 8877SOL    HW127530   2.262   2.374   4.265
 8877SOL    HW227531   2.307   2.428   4.117
 8878SOL     OW27532   4.097   4.720   1.048
 8878SOL    HW127533   4.014   4.672   1.019
 8878SOL    HW227534   4.176   4.684   0.997
 8879SOL     OW27535   4.461   4.653   2.275
 8879SOL    HW127536   4.505   4.643   2.185
 8879SOL    HW227537   4.481   4.573   2.330
 8880SOL     OW27538   4.605   6.261   4.963
 8880SOL    HW127539   4.582   6.194   5.033
 8880SOL    HW227540   4.546   6.248   4.883
 8881SOL     OW27541   5.269   6.268   4.126
 8881SOL    HW127542   5.176   6.273   4.162
 8881SOL    HW227543   5.273   6.197   4.056
 8882SOL     OW27544   4.592   1.408   0.959
 8882SOL    HW127545   4.564   1.495   1.000
 8882SOL    HW227546   4.516   1.343   0.964
 8883SOL     OW27547   2.260   6.318   6.365
 8883SOL    HW127548   2.215   6.238   6.404
 8883SOL    HW227549   2.197   6.395   6.366
 8884SOL     OW27550   5.911   3.494   5.652
 8884SOL    HW127551   5.937   3.418   5.711
 8884SOL    HW227552   5.819   3.478   5.616
 8885SOL     OW27553   5.030   4.738   0.643
 8885SOL    HW127554   5.001   4.643   0.630
 8885SOL    HW227555   5.105   4.741   0.710
 8886SOL     OW27556   2.843   5.860   5.441
 8886SOL    HW127557   2.910   5.787   5.421
 8886SOL    HW227558   2.773   5.824   5.503
 8887SOL     OW27559   3.848   0.943   0.959
 8887SOL    HW127560   3.928   0.890   0.985
 8887SOL    HW227561   3.766   0.905   1.003
 8888SOL     OW27562   2.120   2.203   5.222
 8888SOL    HW127563   2.197   2.141   5.204
 8888SOL    HW227564   2.062   2.208   5.141
 8889SOL     OW27565   6.260   6.663   0.136
 8889SOL    HW127566   6.211   6.747   0.162
 8889SOL    HW227567   6.198   6.585   0.144
 8890SOL     OW27568   0.192   5.716   5.996
 8890SOL    HW127569   0.193   5.770   5.912
 8890SOL    HW227570   0.110   5.658   5.997
 8891SOL     OW27571   3.984   4.161   0.495
 8891SOL    HW127572   3.998   4.256   0.466
 8891SOL    HW227573   3.889   4.135   0.480
 8892SOL     OW27574   3.622   4.945   3.352
 8892SOL    HW127575   3.537   4.969   3.398
 8892SOL    HW227576   3.691   4.917   3.419
 8893SOL     OW27577   1.120   5.027   4.630
 8893SOL    HW127578   1.102   5.124   4.644
 8893SOL    HW227579   1.206   5.002   4.675
 8894SOL     OW27580   3.158   1.981   6.308
 8894SOL    HW127581   3.196   1.889   6.299
 8894SOL    HW227582   3.092   1.983   6.384
 8895SOL     OW27583   7.011   2.187   1.703
 8895SOL    HW127584   6.986   2.281   1.729
 8895SOL    HW227585   0.080   2.184   1.677
 8896SOL     OW27586   2.184   3.046   4.863
 8896SOL    HW127587   2.260   3.014   4.919
 8896SOL    HW227588   2.181   3.146   4.865
 8897SOL     OW27589   2.490   2.595   3.848
 8897SOL    HW127590   2.538   2.680   3.822
 8897SOL    HW227591   2.392   2.612   3.850
 8898SOL     OW27592   5.247   3.604   2.444
 8898SOL    HW127593   5.278   3.685   2.395
 8898SOL    HW227594   5.277   3.522   2.396
 8899SOL     OW27595   1.509   4.405   0.584
 8899SOL    HW127596   1.576   4.426   0.655
 8899SOL    HW227597   1.490   4.307   0.583
 8900SOL     OW27598   5.114   3.064   3.235
 8900SOL    HW127599   5.186   3.042   3.301
 8900SOL    HW227600   5.155   3.089   3.148
 8901SOL     OW27601   0.757   1.261   5.080
 8901SOL    HW127602   0.755   1.361   5.090
 8901SOL    HW227603   0.686   1.233   5.015
 8902SOL     OW27604   1.188   5.583   0.287
 8902SOL    HW127605   1.148   5.533   0.210
 8902SOL    HW227606   1.119   5.641   0.329
 8903SOL     OW27607   0.661   2.060   4.386
 8903SOL    HW127608   0.744   2.005   4.396
 8903SOL    HW227609   0.681   2.139   4.328
 8904SOL     OW27610   0.719   0.833   4.915
 8904SOL    HW127611   0.813   0.800   4.904
 8904SOL    HW227612   0.695   0.891   4.837
 8905SOL     OW27613   2.026   3.153   3.120
 8905SOL    HW127614   1.996   3.243   3.091
 8905SOL    HW227615   2.094   3.117   3.056
 8906SOL     OW27616   0.579   6.217   0.996
 8906SOL    HW127617   0.506   6.280   1.021
 8906SOL    HW227618   0.544   6.123   0.997
 8907SOL     OW27619   3.283   2.802   5.745
 8907SOL    HW127620   3.314   2.714   5.709
 8907SOL    HW227621   3.316   2.812   5.839
 8908SOL     OW27622   1.786   6.014   0.518
 8908SOL    HW127623   1.814   6.023   0.422
 8908SOL    HW227624   1.694   6.050   0.530
 8909SOL     OW27625   2.882   1.531   5.654
 8909SOL    HW127626   2.783   1.534   5.669
 8909SOL    HW227627   2.925   1.605   5.705
 8910SOL     OW27628   0.827   3.114   5.237
 8910SOL    HW127629   0.925   3.107   5.220
 8910SOL    HW227630   0.777   3.060   5.169
 8911SOL     OW27631   4.968   3.176   4.416
 8911SOL    HW127632   5.060   3.137   4.413
 8911SOL    HW227633   4.961   3.240   4.492
 8912SOL     OW27634   3.027   3.535   6.948
 8912SOL    HW127635   3.013   3.622   6.902
 8912SOL    HW227636   3.084   3.548   0.002
 8913SOL     OW27637   4.080   5.569   6.377
 8913SOL    HW127638   4.006   5.607   6.321
 8913SOL    HW227639   4.122   5.492   6.329
 8914SOL     OW27640   4.697   0.442   4.986
 8914SOL    HW127641   4.782   0.482   5.021
 8914SOL    HW227642   4.712   0.346   4.966
 8915SOL     OW27643   1.974   2.189   3.851
 8915SOL    HW127644   1.911   2.251   3.804
 8915SOL    HW227645   1.995   2.111   3.792
 8916SOL     OW27646   6.692   3.459   0.413
 8916SOL    HW127647   6.761   3.491   0.479
 8916SOL    HW227648   6.737   3.409   0.339
 8917SOL     OW27649   5.578   2.674   0.179
 8917SOL    HW127650   5.608   2.578   0.175
 8917SOL    HW227651   5.636   2.724   0.244
 8918SOL     OW27652   0.834   4.982   0.972
 8918SOL    HW127653   0.736   4.964   0.957
 8918SOL    HW227654   0.866   4.927   1.049
 8919SOL     OW27655   5.112   4.003   0.111
 8919SOL    HW127656   5.109   4.095   0.073
 8919SOL    HW227657   5.059   4.000   0.196
 8920SOL     OW27658   7.011   1.645   0.037
 8920SOL    HW127659   0.024   1.691   6.985
 8920SOL    HW227660   0.013   1.692   0.121
 8921SOL     OW27661   1.925   3.169   1.795
 8921SOL    HW127662   1.995   3.098   1.801
 8921SOL    HW227663   1.968   3.259   1.794
 8922SOL     OW27664   4.355   5.165   2.583
 8922SOL    HW127665   4.335   5.130   2.674
 8922SOL    HW227666   4.317   5.103   2.514
 8923SOL     OW27667   1.839   1.613   6.714
 8923SOL    HW127668   1.790   1.646   6.634
 8923SOL    HW227669   1.787   1.539   6.757
 8924SOL     OW27670   4.398   5.430   5.503
 8924SOL    HW127671   4.455   5.375   5.442
 8924SOL    HW227672   4.342   5.493   5.449
 8925SOL     OW27673   0.949   0.857   3.036
 8925SOL    HW127674   0.996   0.805   3.106
 8925SOL    HW227675   0.902   0.795   2.973
 8926SOL     OW27676   6.845   3.246   6.151
 8926SOL    HW127677   6.894   3.174   6.201
 8926SOL    HW227678   6.864   3.335   6.193
 8927SOL     OW27679   6.340   1.306   4.379
 8927SOL    HW127680   6.412   1.363   4.339
 8927SOL    HW227681   6.343   1.314   4.479
 8928SOL     OW27682   1.201   0.143   6.260
 8928SOL    HW127683   1.149   0.145   6.345
 8928SOL    HW227684   1.264   0.065   6.262
 8929SOL     OW27685   5.740   1.814   4.805
 8929SOL    HW127686   5.703   1.904   4.827
 8929SOL    HW227687   5.704   1.783   4.717
 8930SOL     OW27688   1.041   2.780   3.560
 8930SOL    HW127689   1.107   2.774   3.634
 8930SOL    HW227690   0.966   2.716   3.576
 8931SOL     OW27691   2.911   3.685   0.978
 8931SOL    HW127692   2.889   3.587   0.977
 8931SOL    HW227693   2.938   3.713   0.886
 8932SOL     OW27694   5.914   2.072   1.552
 8932SOL    HW127695   5.877   1.991   1.599
 8932SOL    HW227696   5.856   2.095   1.475
 8933SOL     OW27697   2.665   2.505   6.368
 8933SOL    HW127698   2.593   2.572   6.350
 8933SOL    HW227699   2.623   2.415   6.382
 8934SOL     OW27700   2.546   5.326   4.629
 8934SOL    HW127701   2.595   5.360   4.710
 8934SOL    HW227702   2.473   5.263   4.657
 8935SOL     OW27703   0.565   4.574   0.341
 8935SOL    HW127704   0.493   4.637   0.312
 8935SOL    HW227705   0.624   4.552   0.264
 8936SOL     OW27706   1.020   4.223   1.985
 8936SOL    HW127707   0.945   4.157   1.988
 8936SOL    HW227708   0.985   4.313   2.012
 8937SOL     OW27709   0.701   0.058   5.818
 8937SOL    HW127710   0.696   0.032   5.915
 8937SOL    HW227711   0.625   0.118   5.795
 8938SOL     OW27712   0.722   6.041   0.775
 8938SOL    HW127713   0.762   6.027   0.865
 8938SOL    HW227714   0.708   6.138   0.758
 8939SOL     OW27715   5.164   3.015   4.095
 8939SOL    HW127716   5.145   2.921   4.124
 8939SOL    HW227717   5.189   3.071   4.174
 8940SOL     OW27718   0.502   1.453   2.105
 8940SOL    HW127719   0.581   1.473   2.163
 8940SOL    HW227720   0.533   1.437   2.011
 8941SOL     OW27721   6.351   2.513   5.391
 8941SOL    HW127722   6.358   2.610   5.417
 8941SOL    HW227723   6.284   2.468   5.451
 8942SOL     OW27724   6.814   4.699   4.823
 8942SOL    HW127725   6.753   4.627   4.857
 8942SOL    HW227726   6.829   4.688   4.725
 8943SOL     OW27727   3.389   4.932   6.020
 8943SOL    HW127728   3.334   5.014   6.039
 8943SOL    HW227729   3.401   4.921   5.922
 8944SOL     OW27730   5.328   4.553   5.176
 8944SOL    HW127731   5.427   4.567   5.169
 8944SOL    HW227732   5.285   4.578   5.089
 8945SOL     OW27733   0.777   0.737   2.884
 8945SOL    HW127734   0.710   0.788   2.830
 8945SOL    HW227735   0.748   0.642   2.892
 8946SOL     OW27736   3.352   1.394   5.241
 8946SOL    HW127737   3.425   1.457   5.213
 8946SOL    HW227738   3.387   1.332   5.311
 8947SOL     OW27739   2.049   3.470   5.346
 8947SOL    HW127740   2.112   3.410   5.296
 8947SOL    HW227741   2.048   3.560   5.304
 8948SOL     OW27742   6.572   6.586   4.511
 8948SOL    HW127743   6.524   6.540   4.436
 8948SOL    HW227744   6.645   6.527   4.545
 8949SOL     OW27745   2.635   6.805   1.064
 8949SOL    HW127746   2.733   6.798   1.080
 8949SOL    HW227747   2.593   6.714   1.069
 8950SOL     OW27748   4.513   4.269   6.318
 8950SOL    HW127749   4.497   4.290   6.222
 8950SOL    HW227750   4.433   4.297   6.372
 8951SOL     OW27751   1.486   2.108   5.505
 8951SOL    HW127752   1.450   2.196   5.536
 8951SOL    HW227753   1.521   2.117   5.411
 8952SOL     OW27754   1.298   6.911   2.477
 8952SOL    HW127755   1.254   6.873   2.558
 8952SOL    HW227756   1.375   6.854   2.451
 8953SOL     OW27757   1.400   4.205   0.196
 8953SOL    HW127758   1.389   4.116   0.241
 8953SOL    HW227759   1.483   4.250   0.231
 8954SOL     OW27760   0.772   0.425   5.583
 8954SOL    HW127761   0.783   0.375   5.498
 8954SOL    HW227762   0.838   0.393   5.651
 8955SOL     OW27763   0.080   5.265   2.470
 8955SOL    HW127764   0.030   5.238   2.387
 8955SOL    HW227765   0.154   5.201   2.487
 8956SOL     OW27766   1.029   1.625   6.716
 8956SOL    HW127767   1.089   1.619   6.796
 8956SOL    HW227768   0.942   1.579   6.736
 8957SOL     OW27769   2.610   4.439   1.767
 8957SOL    HW127770   2.569   4.350   1.785
 8957SOL    HW227771   2.644   4.479   1.853
 8958SOL     OW27772   0.101   0.921   4.707
 8958SOL    HW127773   0.074   0.825   4.698
 8958SOL    HW227774   0.199   0.927   4.728
 8959SOL     OW27775   1.558   4.674   1.698
 8959SOL    HW127776   1.561   4.578   1.667
 8959SOL    HW227777   1.528   4.677   1.793
 8960SOL     OW27778   4.337   4.621   2.970
 8960SOL    HW127779   4.379   4.706   2.939
 8960SOL    HW227780   4.285   4.579   2.896
 8961SOL     OW27781   2.396   1.250   4.698
 8961SOL    HW127782   2.448   1.301   4.766
 8961SOL    HW227783   2.456   1.223   4.623
 8962SOL     OW27784   6.302   6.227   2.085
 8962SOL    HW127785   6.389   6.208   2.131
 8962SOL    HW227786   6.296   6.170   2.002
 8963SOL     OW27787   4.706   6.386   3.989
 8963SOL    HW127788   4.623   6.387   4.044
 8963SOL    HW227789   4.689   6.434   3.903
 8964SOL     OW27790   4.961   3.265   3.320
 8964SOL    HW127791   4.872   3.232   3.351
 8964SOL    HW227792   5.024   3.188   3.313
 8965SOL     OW27793   2.270   4.826   1.032
 8965SOL    HW127794   2.295   4.909   0.981
 8965SOL    HW227795   2.293   4.838   1.128
 8966SOL     OW27796   6.780   4.015   6.450
 8966SOL    HW127797   6.804   3.920   6.431
 8966SOL    HW227798   6.857   4.074   6.426
 8967SOL     OW27799   3.970   0.068   1.865
 8967SOL    HW127800   4.028   0.132   1.814
 8967SOL    HW227801   3.958   0.101   1.958
 8968SOL     OW27802   5.143   4.668   3.310
 8968SOL    HW127803   5.211   4.704   3.246
 8968SOL    HW227804   5.129   4.734   3.383
 8969SOL     OW27805   0.007   1.605   4.700
 8969SOL    HW127806   0.038   1.512   4.722
 8969SOL    HW227807   0.027   1.666   4.777
 8970SOL     OW27808   2.808   3.497   0.304
 8970SOL    HW127809   2.811   3.436   0.224
 8970SOL    HW227810   2.825   3.443   0.387
 8971SOL     OW27811   5.028   5.763   2.101
 8971SOL    HW127812   5.084   5.845   2.108
 8971SOL    HW227813   4.955   5.766   2.170
 8972SOL     OW27814   5.210   4.739   6.484
 8972SOL    HW127815   5.154   4.770   6.407
 8972SOL    HW227816   5.174   4.777   6.569
 8973SOL     OW27817   1.012   3.500   2.392
 8973SOL    HW127818   0.992   3.546   2.478
 8973SOL    HW227819   1.038   3.405   2.410
 8974SOL     OW27820   1.656   4.532   5.739
 8974SOL    HW127821   1.679   4.577   5.653
 8974SOL    HW227822   1.638   4.435   5.723
 8975SOL     OW27823   2.136   7.024   6.266
 8975SOL    HW127824   2.112   6.945   6.322
 8975SOL    HW227825   2.229   7.013   6.230
 8976SOL     OW27826   0.555   4.850   4.927
 8976SOL    HW127827   0.530   4.871   4.833
 8976SOL    HW227828   0.482   4.797   4.970
 8977SOL     OW27829   6.128   2.669   0.148
 8977SOL    HW127830   6.035   2.652   0.180
 8977SOL    HW227831   6.184   2.702   0.225
 8978SOL     OW27832   5.564   0.440   5.460
 8978SOL    HW127833   5.470   0.467   5.477
 8978SOL    HW227834   5.565   0.352   5.413
 8979SOL     OW27835   1.340   3.486   4.611
 8979SOL    HW127836   1.337   3.574   4.658
 8979SOL    HW227837   1.415   3.486   4.545
 8980SOL     OW27838   2.647   2.950   5.803
 8980SOL    HW127839   2.551   2.963   5.775
 8980SOL    HW227840   2.654   2.867   5.859
 8981SOL     OW27841   4.429   1.929   5.377
 8981SOL    HW127842   4.393   1.887   5.461
 8981SOL    HW227843   4.354   1.957   5.318
 8982SOL     OW27844   1.088   2.541   1.074
 8982SOL    HW127845   1.076   2.575   1.167
 8982SOL    HW227846   1.146   2.605   1.023
 8983SOL     OW27847   1.993   6.484   0.117
 8983SOL    HW127848   2.091   6.475   0.100
 8983SOL    HW227849   1.947   6.518   0.035
 8984SOL     OW27850   0.050   0.598   4.538
 8984SOL    HW127851   0.110   0.621   4.615
 8984SOL    HW227852   0.103   0.553   4.466
 8985SOL     OW27853   2.369   3.134   0.704
 8985SOL    HW127854   2.372   3.215   0.763
 8985SOL    HW227855   2.415   3.058   0.750
 8986SOL     OW27856   5.097   5.314   2.438
 8986SOL    HW127857   5.063   5.251   2.508
 8986SOL    HW227858   5.022   5.373   2.408
 8987SOL     OW27859   4.174   6.600   1.602
 8987SOL    HW127860   4.246   6.633   1.541
 8987SOL    HW227861   4.213   6.583   1.692
 8988SOL     OW27862   1.653   3.491   5.721
 8988SOL    HW127863   1.733   3.546   5.745
 8988SOL    HW227864   1.577   3.551   5.700
 8989SOL     OW27865   5.205   3.957   1.258
 8989SOL    HW127866   5.277   4.024   1.240
 8989SOL    HW227867   5.116   3.998   1.243
 8990SOL     OW27868   1.802   6.304   3.592
 8990SOL    HW127869   1.717   6.254   3.583
 8990SOL    HW227870   1.828   6.310   3.689
 8991SOL     OW27871   1.678   2.308   6.663
 8991SOL    HW127872   1.746   2.333   6.595
 8991SOL    HW227873   1.723   2.289   6.750
 8992SOL     OW27874   5.432   1.735   0.443
 8992SOL    HW127875   5.388   1.701   0.360
 8992SOL    HW227876   5.508   1.795   0.419
 8993SOL     OW27877   5.389   2.379   2.215
 8993SOL    HW127878   5.360   2.460   2.267
 8993SOL    HW227879   5.415   2.306   2.278
 8994SOL     OW27880   1.283   4.346   4.604
 8994SOL    HW127881   1.280   4.272   4.671
 8994SOL    HW227882   1.282   4.434   4.651
 8995SOL     OW27883   1.182   3.024   0.045
 8995SOL    HW127884   1.244   2.994   0.118
 8995SOL    HW227885   1.217   2.992   6.984
 8996SOL     OW27886   5.986   5.412   0.600
 8996SOL    HW127887   5.926   5.373   0.530
 8996SOL    HW227888   5.938   5.414   0.688
 8997SOL     OW27889   4.775   1.449   5.896
 8997SOL    HW127890   4.806   1.544   5.905
 8997SOL    HW227891   4.763   1.427   5.799
 8998SOL     OW27892   6.462   4.025   4.358
 8998SOL    HW127893   6.557   4.056   4.351
 8998SOL    HW227894   6.459   3.925   4.358
 8999SOL     OW27895   4.901   6.707   6.534
 8999SOL    HW127896   4.932   6.725   6.627
 8999SOL    HW227897   4.882   6.609   6.524
 9000SOL     OW27898   1.558   4.054   1.062
 9000SOL    HW127899   1.569   3.971   1.117
 9000SOL    HW227900   1.472   4.049   1.012
 9001SOL     OW27901   1.337   5.691   2.368
 9001SOL    HW127902   1.321   5.713   2.465
 9001SOL    HW227903   1.322   5.594   2.353
 9002SOL     OW27904   0.682   5.133   4.756
 9002SOL    HW127905   0.630   5.218   4.762
 9002SOL    HW227906   0.619   5.057   4.738
 9003SOL     OW27907   5.760   3.047   1.693
 9003SOL    HW127908   5.694   3.014   1.625
 9003SOL    HW227909   5.721   3.125   1.741
 9004SOL     OW27910   3.723   6.538   1.757
 9004SOL    HW127911   3.672   6.618   1.789
 9004SOL    HW227912   3.778   6.502   1.832
 9005SOL     OW27913   5.758   2.804   4.219
 9005SOL    HW127914   5.735   2.892   4.179
 9005SOL    HW227915   5.740   2.731   4.153
 9006SOL     OW27916   2.450   5.689   1.498
 9006SOL    HW127917   2.447   5.721   1.593
 9006SOL    HW227918   2.485   5.595   1.496
 9007SOL     OW27919   3.239   1.056   3.858
 9007SOL    HW127920   3.218   0.976   3.914
 9007SOL    HW227921   3.174   1.061   3.782
 9008SOL     OW27922   1.212   5.679   3.672
 9008SOL    HW127923   1.297   5.724   3.701
 9008SOL    HW227924   1.230   5.582   3.653
 9009SOL     OW27925   2.889   7.012   0.926
 9009SOL    HW127926   2.831   0.012   0.850
 9009SOL    HW227927   2.971   6.966   0.891
 9010SOL     OW27928   1.595   6.778   3.800
 9010SOL    HW127929   1.507   6.816   3.829
 9010SOL    HW227930   1.669   6.838   3.831
 9011SOL     OW27931   5.593   1.865   2.380
 9011SOL    HW127932   5.583   1.774   2.340
 9011SOL    HW227933   5.575   1.860   2.478
 9012SOL     OW27934   2.448   3.480   0.312
 9012SOL    HW127935   2.448   3.545   0.388
 9012SOL    HW227936   2.417   3.390   0.344
 9013SOL     OW27937   0.077   6.767   5.143
 9013SOL    HW127938   0.123   6.758   5.055
 9013SOL    HW227939   0.145   6.766   5.217
 9014SOL     OW27940   6.206   2.063   0.057
 9014SOL    HW127941   6.305   2.070   0.067
 9014SOL    HW227942   6.178   2.109   7.001
 9015SOL     OW27943   4.490   1.252   2.048
 9015SOL    HW127944   4.393   1.273   2.037
 9015SOL    HW227945   4.545   1.315   1.992
 9016SOL     OW27946   0.298   6.481   6.654
 9016SOL    HW127947   0.355   6.525   6.585
 9016SOL    HW227948   0.252   6.550   6.710
 9017SOL     OW27949   4.691   2.328   3.517
 9017SOL    HW127950   4.694   2.237   3.476
 9017SOL    HW227951   4.614   2.379   3.479
 9018SOL     OW27952   4.041   2.405   6.623
 9018SOL    HW127953   3.946   2.434   6.632
 9018SOL    HW227954   4.102   2.481   6.647
 9019SOL     OW27955   1.286   5.852   1.375
 9019SOL    HW127956   1.237   5.860   1.288
 9019SOL    HW227957   1.385   5.850   1.356
 9020SOL     OW27958   0.093   3.693   0.720
 9020SOL    HW127959   7.021   3.692   0.722
 9020SOL    HW227960   0.129   3.643   0.799
 9021SOL     OW27961   6.340   6.743   3.224
 9021SOL    HW127962   6.426   6.766   3.268
 9021SOL    HW227963   6.314   6.650   3.249
 9022SOL     OW27964   3.285   1.864   6.816
 9022SOL    HW127965   3.282   1.865   6.916
 9022SOL    HW227966   3.375   1.832   6.786
 9023SOL     OW27967   3.393   3.156   2.269
 9023SOL    HW127968   3.406   3.180   2.173
 9023SOL    HW227969   3.466   3.095   2.299
 9024SOL     OW27970   0.710   4.382   4.886
 9024SOL    HW127971   0.756   4.434   4.958
 9024SOL    HW227972   0.778   4.346   4.822
 9025SOL     OW27973   0.823   5.170   0.435
 9025SOL    HW127974   0.770   5.156   0.519
 9025SOL    HW227975   0.908   5.218   0.458
 9026SOL     OW27976   4.284   3.332   0.619
 9026SOL    HW127977   4.225   3.369   0.547
 9026SOL    HW227978   4.231   3.272   0.678
 9027SOL     OW27979   1.800   2.470   3.047
 9027SOL    HW127980   1.863   2.404   3.006
 9027SOL    HW227981   1.799   2.459   3.146
 9028SOL     OW27982   2.812   3.878   5.613
 9028SOL    HW127983   2.795   3.963   5.563
 9028SOL    HW227984   2.756   3.877   5.696
 9029SOL     OW27985   4.087   6.306   5.079
 9029SOL    HW127986   4.171   6.330   5.129
 9029SOL    HW227987   4.082   6.360   4.995
 9030SOL     OW27988   2.844   1.696   3.570
 9030SOL    HW127989   2.862   1.770   3.506
 9030SOL    HW227990   2.746   1.692   3.590
 9031SOL     OW27991   4.018   5.701   4.253
 9031SOL    HW127992   4.025   5.698   4.353
 9031SOL    HW227993   3.946   5.639   4.223
 9032SOL     OW27994   3.672   3.874   0.666
 9032SOL    HW127995   3.690   3.809   0.740
 9032SOL    HW227996   3.738   3.860   0.592
 9033SOL     OW27997   0.472   4.052   2.908
 9033SOL    HW127998   0.505   4.144   2.931
 9033SOL    HW227999   0.373   4.053   2.900
 9034SOL     OW28000   3.282   0.033   5.391
 9034SOL    HW128001   3.193   0.080   5.397
 9034SOL    HW228002   3.268   6.962   5.402
 9035SOL     OW28003   1.938   5.248   6.543
 9035SOL    HW128004   1.958   5.170   6.484
 9035SOL    HW228005   2.015   5.312   6.542
 9036SOL     OW28006   1.926   1.612   5.139
 9036SOL    HW128007   1.853   1.607   5.206
 9036SOL    HW228008   1.974   1.699   5.148
 9037SOL     OW28009   1.454   4.009   5.121
 9037SOL    HW128010   1.395   4.002   5.041
 9037SOL    HW228011   1.468   3.918   5.160
 9038SOL     OW28012   4.113   0.883   5.993
 9038SOL    HW128013   4.199   0.899   6.042
 9038SOL    HW228014   4.091   0.785   5.995
 9039SOL     OW28015   2.515   5.559   5.528
 9039SOL    HW128016   2.498   5.634   5.464
 9039SOL    HW228017   2.518   5.472   5.477
 9040SOL     OW28018   3.165   2.170   2.503
 9040SOL    HW128019   3.262   2.183   2.483
 9040SOL    HW228020   3.156   2.122   2.590
 9041SOL     OW28021   1.211   2.269   1.108
 9041SOL    HW128022   1.160   2.351   1.084
 9041SOL    HW228023   1.169   2.189   1.064
 9042SOL     OW28024   3.467   7.023   4.702
 9042SOL    HW128025   3.530   6.948   4.722
 9042SOL    HW228026   3.414   0.018   4.783
 9043SOL     OW28027   1.330   0.967   6.995
 9043SOL    HW128028   1.309   0.998   0.060
 9043SOL    HW228029   1.252   0.985   6.935
 9044SOL     OW28030   6.246   0.564   0.471
 9044SOL    HW128031   6.207   0.476   0.442
 9044SOL    HW228032   6.250   0.626   0.392
 9045SOL     OW28033   2.492   1.802   2.812
 9045SOL    HW128034   2.511   1.704   2.824
 9045SOL    HW228035   2.534   1.854   2.885
 9046SOL     OW28036   3.391   3.537   2.999
 9046SOL    HW128037   3.340   3.475   3.059
 9046SOL    HW228038   3.489   3.532   3.022
 9047SOL     OW28039   1.818   3.937   5.850
 9047SOL    HW128040   1.855   4.003   5.785
 9047SOL    HW228041   1.726   3.910   5.821
 9048SOL     OW28042   5.117   3.328   6.354
 9048SOL    HW128043   5.146   3.401   6.416
 9048SOL    HW228044   5.191   3.261   6.346
 9049SOL     OW28045   3.438   0.097   5.710
 9049SOL    HW128046   3.344   0.116   5.681
 9049SOL    HW228047   3.470   0.013   5.666
 9050SOL     OW28048   0.260   3.164   0.681
 9050SOL    HW128049   0.312   3.152   0.766
 9050SOL    HW228050   0.324   3.166   0.604
 9051SOL     OW28051   3.814   0.195   1.168
 9051SOL    HW128052   3.810   0.222   1.072
 9051SOL    HW228053   3.909   0.172   1.192
 9052SOL     OW28054   2.641   2.258   4.089
 9052SOL    HW128055   2.622   2.209   4.173
 9052SOL    HW228056   2.584   2.340   4.084
 9053SOL     OW28057   2.154   0.698   2.711
 9053SOL    HW128058   2.240   0.656   2.683
 9053SOL    HW228059   2.084   0.628   2.720
 9054SOL     OW28060   2.939   5.877   3.755
 9054SOL    HW128061   3.026   5.833   3.779
 9054SOL    HW228062   2.864   5.812   3.768
 9055SOL     OW28063   6.243   2.845   4.769
 9055SOL    HW128064   6.212   2.917   4.831
 9055SOL    HW228065   6.320   2.796   4.810
 9056SOL     OW28066   0.431   1.698   1.814
 9056SOL    HW128067   0.411   1.765   1.742
 9056SOL    HW228068   0.522   1.715   1.851
 9057SOL     OW28069   4.765   3.901   6.320
 9057SOL    HW128070   4.748   3.966   6.395
 9057SOL    HW228071   4.811   3.820   6.356
 9058SOL     OW28072   2.193   1.499   1.553
 9058SOL    HW128073   2.162   1.586   1.515
 9058SOL    HW228074   2.272   1.515   1.612
 9059SOL     OW28075   1.503   2.085   3.853
 9059SOL    HW128076   1.497   2.073   3.952
 9059SOL    HW228077   1.462   2.173   3.828
 9060SOL     OW28078   6.351   2.651   3.797
 9060SOL    HW128079   6.303   2.606   3.722
 9060SOL    HW228080   6.388   2.738   3.765
 9061SOL     OW28081   2.145   5.082   1.651
 9061SOL    HW128082   2.085   5.048   1.724
 9061SOL    HW228083   2.177   5.005   1.596
 9062SOL     OW28084   1.796   6.266   1.905
 9062SOL    HW128085   1.888   6.305   1.909
 9062SOL    HW228086   1.803   6.169   1.882
 9063SOL     OW28087   3.346   0.132   3.351
 9063SOL    HW128088   3.386   0.057   3.298
 9063SOL    HW228089   3.368   0.119   3.448
 9064SOL     OW28090   6.210   2.502   5.138
 9064SOL    HW128091   6.166   2.431   5.193
 9064SOL    HW228092   6.158   2.516   5.054
 9065SOL     OW28093   3.500   0.473   5.421
 9065SOL    HW128094   3.485   0.374   5.429
 9065SOL    HW228095   3.590   0.490   5.381
 9066SOL     OW28096   4.381   6.309   0.765
 9066SOL    HW128097   4.398   6.215   0.735
 9066SOL    HW228098   4.382   6.313   0.865
 9067SOL     OW28099   0.557   0.365   4.821
 9067SOL    HW128100   0.549   0.270   4.852
 9067SOL    HW228101   0.466   0.400   4.799
 9068SOL     OW28102   2.753   6.873   4.476
 9068SOL    HW128103   2.806   6.790   4.492
 9068SOL    HW228104   2.731   6.880   4.378
 9069SOL     OW28105   1.375   3.419   1.454
 9069SOL    HW128106   1.310   3.378   1.389
 9069SOL    HW228107   1.326   3.482   1.514
 9070SOL     OW28108   1.349   3.223   4.688
 9070SOL    HW128109   1.283   3.158   4.650
 9070SOL    HW228110   1.325   3.316   4.660
 9071SOL     OW28111   6.046   6.598   1.947
 9071SOL    HW128112   5.975   6.555   1.890
 9071SOL    HW228113   6.007   6.623   2.035
 9072SOL     OW28114   0.098   1.701   1.305
 9072SOL    HW128115   0.191   1.665   1.308
 9072SOL    HW228116   0.070   1.730   1.396
 9073SOL     OW28117   2.850   7.022   2.843
 9073SOL    HW128118   2.934   0.042   2.816
 9073SOL    HW228119   2.807   0.044   2.918
 9074SOL     OW28120   1.385   1.830   1.908
 9074SOL    HW128121   1.380   1.923   1.944
 9074SOL    HW228122   1.376   1.764   1.983
 9075SOL     OW28123   0.326   1.135   1.877
 9075SOL    HW128124   0.256   1.069   1.906
 9075SOL    HW228125   0.300   1.226   1.908
 9076SOL     OW28126   0.200   2.880   5.553
 9076SOL    HW128127   0.281   2.912   5.602
 9076SOL    HW228128   0.174   2.948   5.484
 9077SOL     OW28129   4.481   0.597   0.205
 9077SOL    HW128130   4.548   0.655   0.253
 9077SOL    HW228131   4.467   0.632   0.113
 9078SOL     OW28132   3.868   3.228   5.857
 9078SOL    HW128133   3.924   3.309   5.876
 9078SOL    HW228134   3.923   3.146   5.866
 9079SOL     OW28135   3.366   6.694   3.969
 9079SOL    HW128136   3.364   6.604   4.013
 9079SOL    HW228137   3.354   6.765   4.038
 9080SOL     OW28138   4.604   2.482   6.286
 9080SOL    HW128139   4.593   2.388   6.253
 9080SOL    HW228140   4.522   2.508   6.338
 9081SOL     OW28141   4.197   0.213   2.251
 9081SOL    HW128142   4.256   0.239   2.175
 9081SOL    HW228143   4.192   0.288   2.318
 9082SOL     OW28144   2.238   0.394   5.025
 9082SOL    HW128145   2.175   0.318   5.036
 9082SOL    HW228146   2.293   0.405   5.107
 9083SOL     OW28147   3.321   5.281   6.345
 9083SOL    HW128148   3.375   5.206   6.307
 9083SOL    HW228149   3.308   5.266   6.443
 9084SOL     OW28150   3.698   4.054   3.392
 9084SOL    HW128151   3.755   4.089   3.467
 9084SOL    HW228152   3.681   3.956   3.406
 9085SOL     OW28153   2.097   0.615   1.778
 9085SOL    HW128154   2.124   0.588   1.685
 9085SOL    HW228155   1.998   0.607   1.787
 9086SOL     OW28156   0.824   4.619   0.156
 9086SOL    HW128157   0.799   4.599   0.061
 9086SOL    HW228158   0.871   4.540   0.196
 9087SOL     OW28159   4.441   2.308   1.459
 9087SOL    HW128160   4.516   2.272   1.403
 9087SOL    HW228161   4.454   2.406   1.473
 9088SOL     OW28162   6.976   6.582   1.418
 9088SOL    HW128163   0.023   6.641   1.450
 9088SOL    HW228164   6.977   6.579   1.318
 9089SOL     OW28165   5.701   5.532   5.293
 9089SOL    HW128166   5.662   5.598   5.358
 9089SOL    HW228167   5.628   5.478   5.252
 9090SOL     OW28168   6.658   1.388   4.906
 9090SOL    HW128169   6.625   1.430   4.990
 9090SOL    HW228170   6.727   1.319   4.927
 9091SOL     OW28171   2.595   4.376   0.377
 9091SOL    HW128172   2.648   4.329   0.447
 9091SOL    HW228173   2.568   4.311   0.306
 9092SOL     OW28174   6.477   0.805   6.742
 9092SOL    HW128175   6.552   0.799   6.676
 9092SOL    HW228176   6.408   0.868   6.707
 9093SOL     OW28177   0.965   5.778   5.548
 9093SOL    HW128178   0.884   5.722   5.569
 9093SOL    HW228179   0.993   5.762   5.453
 9094SOL     OW28180   6.509   4.930   2.855
 9094SOL    HW128181   6.594   4.983   2.847
 9094SOL    HW228182   6.431   4.992   2.860
 9095SOL     OW28183   4.993   4.893   5.906
 9095SOL    HW128184   4.950   4.944   5.980
 9095SOL    HW228185   4.960   4.798   5.906
 9096SOL     OW28186   6.589   4.945   2.536
 9096SOL    HW128187   6.491   4.952   2.558
 9096SOL    HW228188   6.606   4.857   2.492
 9097SOL     OW28189   1.981   1.893   0.572
 9097SOL    HW128190   2.040   1.897   0.491
 9097SOL    HW228191   1.885   1.894   0.544
 9098SOL     OW28192   3.104   2.083   4.719
 9098SOL    HW128193   3.195   2.109   4.753
 9098SOL    HW228194   3.109   1.990   4.681
 9099SOL     OW28195   3.159   3.262   5.867
 9099SOL    HW128196   3.235   3.286   5.807
 9099SOL    HW228197   3.084   3.326   5.853
 9100SOL     OW28198   0.395   3.519   3.417
 9100SOL    HW128199   0.440   3.585   3.356
 9100SOL    HW228200   0.453   3.438   3.426
 9101SOL     OW28201   2.688   2.266   1.858
 9101SOL    HW128202   2.698   2.274   1.759
 9101SOL    HW228203   2.775   2.286   1.902
 9102SOL     OW28204   3.080   0.037   2.286
 9102SOL    HW128205   3.011   0.062   2.218
 9102SOL    HW228206   3.106   0.119   2.338
 9103SOL     OW28207   5.686   1.624   6.867
 9103SOL    HW128208   5.775   1.613   6.912
 9103SOL    HW228209   5.641   1.707   6.901
 9104SOL     OW28210   6.919   6.311   1.523
 9104SOL    HW128211   7.006   6.274   1.556
 9104SOL    HW228212   6.931   6.407   1.498
 9105SOL     OW28213   0.582   0.388   5.768
 9105SOL    HW128214   0.503   0.449   5.766
 9105SOL    HW228215   0.634   0.398   5.683
 9106SOL     OW28216   6.056   3.085   1.000
 9106SOL    HW128217   6.109   3.009   0.962
 9106SOL    HW228218   6.057   3.079   1.100
 9107SOL     OW28219   2.028   0.691   6.458
 9107SOL    HW128220   2.029   0.789   6.479
 9107SOL    HW228221   2.058   0.677   6.364
 9108SOL     OW28222   4.880   4.540   5.289
 9108SOL    HW128223   4.919   4.570   5.202
 9108SOL    HW228224   4.953   4.508   5.349
 9109SOL     OW28225   5.359   3.513   2.686
 9109SOL    HW128226   5.317   3.562   2.609
 9109SOL    HW228227   5.296   3.443   2.719
 9110SOL     OW28228   1.837   5.374   4.471
 9110SOL    HW128229   1.757   5.314   4.475
 9110SOL    HW228230   1.807   5.469   4.474
 9111SOL     OW28231   4.562   2.789   6.979
 9111SOL    HW128232   4.633   2.744   0.005
 9111SOL    HW228233   4.594   2.803   6.886
 9112SOL     OW28234   1.583   5.369   2.629
 9112SOL    HW128235   1.549   5.460   2.650
 9112SOL    HW228236   1.510   5.313   2.590
 9113SOL     OW28237   5.459   2.542   2.806
 9113SOL    HW128238   5.373   2.539   2.755
 9113SOL    HW228239   5.534   2.515   2.746
 9114SOL     OW28240   0.257   5.363   3.467
 9114SOL    HW128241   0.158   5.351   3.472
 9114SOL    HW228242   0.279   5.457   3.442
 9115SOL     OW28243   6.073   5.452   5.316
 9115SOL    HW128244   6.000   5.445   5.249
 9115SOL    HW228245   6.042   5.418   5.404
 9116SOL     OW28246   0.487   0.144   2.868
 9116SOL    HW128247   0.472   0.053   2.905
 9116SOL    HW228248   0.402   0.196   2.870
 9117SOL     OW28249   3.730   2.422   6.506
 9117SOL    HW128250   3.679   2.354   6.454
 9117SOL    HW228251   3.748   2.502   6.449
 9118SOL     OW28252   6.582   3.356   0.041
 9118SOL    HW128253   6.675   3.357   0.077
 9118SOL    HW228254   6.557   3.262   0.016
 9119SOL     OW28255   3.881   1.343   1.787
 9119SOL    HW128256   3.871   1.433   1.830
 9119SOL    HW228257   3.823   1.337   1.706
 9120SOL     OW28258   6.724   2.588   5.497
 9120SOL    HW128259   6.679   2.499   5.491
 9120SOL    HW228260   6.766   2.599   5.587
 9121SOL     OW28261   3.404   6.254   5.310
 9121SOL    HW128262   3.357   6.341   5.303
 9121SOL    HW228263   3.503   6.270   5.316
 9122SOL     OW28264   2.386   4.459   2.144
 9122SOL    HW128265   2.455   4.526   2.172
 9122SOL    HW228266   2.329   4.434   2.222
 9123SOL     OW28267   1.674   0.222   4.314
 9123SOL    HW128268   1.672   0.317   4.347
 9123SOL    HW228269   1.625   0.163   4.377
 9124SOL     OW28270   3.714   5.338   2.043
 9124SOL    HW128271   3.772   5.361   1.964
 9124SOL    HW228272   3.623   5.377   2.030
 9125SOL     OW28273   4.266   4.547   0.894
 9125SOL    HW128274   4.340   4.500   0.943
 9125SOL    HW228275   4.303   4.589   0.811
 9126SOL     OW28276   4.596   3.974   1.271
 9126SOL    HW128277   4.520   4.033   1.299
 9126SOL    HW228278   4.680   4.004   1.315
 9127SOL     OW28279   6.966   2.541   5.293
 9127SOL    HW128280   6.991   2.458   5.243
 9127SOL    HW228281   6.948   2.519   5.389
 9128SOL     OW28282   5.773   2.106   5.074
 9128SOL    HW128283   5.694   2.120   5.014
 9128SOL    HW228284   5.857   2.125   5.023
 9129SOL     OW28285   6.734   1.691   0.345
 9129SOL    HW128286   6.649   1.702   0.397
 9129SOL    HW228287   6.749   1.593   0.327
 9130SOL     OW28288   0.996   4.581   5.964
 9130SOL    HW128289   1.031   4.614   6.051
 9130SOL    HW228290   0.899   4.601   5.957
 9131SOL     OW28291   5.153   3.359   6.841
 9131SOL    HW128292   5.105   3.446   6.829
 9131SOL    HW228293   5.087   3.285   6.849
 9132SOL     OW28294   1.053   4.327   4.451
 9132SOL    HW128295   1.139   4.322   4.503
 9132SOL    HW228296   1.037   4.422   4.423
 9133SOL     OW28297   3.467   0.567   1.146
 9133SOL    HW128298   3.444   0.471   1.160
 9133SOL    HW228299   3.555   0.588   1.190
 9134SOL     OW28300   4.546   5.607   1.660
 9134SOL    HW128301   4.506   5.667   1.591
 9134SOL    HW228302   4.598   5.535   1.615
 9135SOL     OW28303   1.248   6.270   1.628
 9135SOL    HW128304   1.315   6.310   1.691
 9135SOL    HW228305   1.187   6.208   1.678
 9136SOL     OW28306   4.239   6.009   5.443
 9136SOL    HW128307   4.227   5.934   5.377
 9136SOL    HW228308   4.252   5.972   5.534
 9137SOL     OW28309   4.008   0.332   6.350
 9137SOL    HW128310   4.087   0.309   6.292
 9137SOL    HW228311   3.959   0.248   6.375
 9138SOL     OW28312   1.507   3.461   0.109
 9138SOL    HW128313   1.596   3.422   0.132
 9138SOL    HW228314   1.490   3.449   0.011
 9139SOL     OW28315   0.785   1.413   1.628
 9139SOL    HW128316   0.795   1.329   1.575
 9139SOL    HW228317   0.692   1.449   1.617
 9140SOL     OW28318   0.445   5.041   2.364
 9140SOL    HW128319   0.475   5.125   2.409
 9140SOL    HW228320   0.522   4.978   2.358
 9141SOL     OW28321   6.993   5.907   6.695
 9141SOL    HW128322   0.016   5.865   6.619
 9141SOL    HW228323   6.992   5.845   6.773
 9142SOL     OW28324   0.389   3.075   2.518
 9142SOL    HW128325   0.298   3.116   2.528
 9142SOL    HW228326   0.403   3.049   2.423
 9143SOL     OW28327   0.307   3.944   1.389
 9143SOL    HW128328   0.246   4.022   1.401
 9143SOL    HW228329   0.309   3.891   1.474
 9144SOL     OW28330   2.930   4.875   4.934
 9144SOL    HW128331   2.904   4.778   4.936
 9144SOL    HW228332   2.981   4.893   4.850
 9145SOL     OW28333   1.700   6.461   6.916
 9145SOL    HW128334   1.638   6.454   6.838
 9145SOL    HW228335   1.779   6.517   6.890
 9146SOL     OW28336   4.998   2.920   3.017
 9146SOL    HW128337   4.910   2.874   3.005
 9146SOL    HW228338   4.995   2.975   3.101
 9147SOL     OW28339   6.693   0.970   4.654
 9147SOL    HW128340   6.679   0.960   4.752
 9147SOL    HW228341   6.612   1.013   4.613
 9148SOL     OW28342   6.119   0.187   2.045
 9148SOL    HW128343   6.110   0.284   2.022
 9148SOL    HW228344   6.054   0.134   1.990
 9149SOL     OW28345   5.662   3.148   1.987
 9149SOL    HW128346   5.602   3.183   2.059
 9149SOL    HW228347   5.740   3.101   2.029
 9150SOL     OW28348   3.196   4.296   0.433
 9150SOL    HW128349   3.294   4.311   0.419
 9150SOL    HW228350   3.148   4.383   0.431
 9151SOL     OW28351   2.161   3.926   3.928
 9151SOL    HW128352   2.242   3.869   3.941
 9151SOL    HW228353   2.082   3.867   3.908
 9152SOL     OW28354   1.727   4.321   4.546
 9152SOL    HW128355   1.682   4.285   4.465
 9152SOL    HW228356   1.818   4.355   4.522
 9153SOL     OW28357   0.459   3.242   6.760
 9153SOL    HW128358   0.386   3.278   6.702
 9153SOL    HW228359   0.445   3.144   6.773
 9154SOL     OW28360   4.779   4.849   3.653
 9154SOL    HW128361   4.754   4.834   3.557
 9154SOL    HW228362   4.866   4.804   3.671
 9155SOL     OW28363   1.920   4.605   3.036
 9155SOL    HW128364   1.875   4.622   3.124
 9155SOL    HW228365   1.901   4.511   3.006
 9156SOL     OW28366   6.672   2.838   1.068
 9156SOL    HW128367   6.584   2.884   1.081
 9156SOL    HW228368   6.745   2.907   1.062
 9157SOL     OW28369   3.190   4.316   6.644
 9157SOL    HW128370   3.222   4.405   6.612
 9157SOL    HW228371   3.268   4.254   6.654
 9158SOL     OW28372   6.887   4.550   4.225
 9158SOL    HW128373   6.909   4.502   4.140
 9158SOL    HW228374   6.791   4.533   4.248
 9159SOL     OW28375   2.193   0.071   3.305
 9159SOL    HW128376   2.126   0.049   3.375
 9159SOL    HW228377   2.253   7.020   3.290
 9160SOL     OW28378   0.533   4.904   5.636
 9160SOL    HW128379   0.622   4.950   5.630
 9160SOL    HW228380   0.474   4.936   5.562
 9161SOL     OW28381   5.928   5.116   3.189
 9161SOL    HW128382   5.829   5.123   3.202
 9161SOL    HW228383   5.964   5.045   3.249
 9162SOL     OW28384   3.708   0.700   2.957
 9162SOL    HW128385   3.741   0.756   2.881
 9162SOL    HW228386   3.708   0.755   3.041
 9163SOL     OW28387   6.990   3.358   1.988
 9163SOL    HW128388   0.032   3.366   2.059
 9163SOL    HW228389   6.924   3.288   2.014
 9164SOL     OW28390   1.614   0.703   6.721
 9164SOL    HW128391   1.675   0.753   6.782
 9164SOL    HW228392   1.591   0.760   6.642
 9165SOL     OW28393   5.222   1.984   5.719
 9165SOL    HW128394   5.163   2.029   5.787
 9165SOL    HW228395   5.195   2.013   5.627
 9166SOL     OW28396   4.023   5.503   1.067
 9166SOL    HW128397   3.942   5.520   1.123
 9166SOL    HW228398   4.016   5.413   1.024
 9167SOL     OW28399   1.058   2.290   6.366
 9167SOL    HW128400   1.016   2.242   6.289
 9167SOL    HW228401   0.987   2.324   6.427
 9168SOL     OW28402   6.470   5.514   6.333
 9168SOL    HW128403   6.439   5.422   6.357
 9168SOL    HW228404   6.391   5.574   6.320
 9169SOL     OW28405   6.510   6.222   6.059
 9169SOL    HW128406   6.517   6.249   6.155
 9169SOL    HW228407   6.422   6.176   6.044
 9170SOL     OW28408   1.793   1.314   6.212
 9170SOL    HW128409   1.886   1.320   6.247
 9170SOL    HW228410   1.767   1.401   6.170
 9171SOL     OW28411   2.536   5.369   0.879
 9171SOL    HW128412   2.473   5.332   0.947
 9171SOL    HW228413   2.555   5.465   0.900
 9172SOL     OW28414   4.539   1.968   4.622
 9172SOL    HW128415   4.542   2.049   4.563
 9172SOL    HW228416   4.596   1.896   4.583
 9173SOL     OW28417   6.818   3.172   4.672
 9173SOL    HW128418   6.891   3.239   4.659
 9173SOL    HW228419   6.738   3.199   4.618
 9174SOL     OW28420   0.565   5.799   6.935
 9174SOL    HW128421   0.483   5.786   6.991
 9174SOL    HW228422   0.551   5.878   6.875
 9175SOL     OW28423   1.685   6.287   0.360
 9175SOL    HW128424   1.655   6.261   0.451
 9175SOL    HW228425   1.666   6.384   0.345
 9176SOL     OW28426   2.615   6.950   2.069
 9176SOL    HW128427   2.574   6.871   2.025
 9176SOL    HW228428   2.568   6.968   2.156
 9177SOL     OW28429   1.862   2.413   3.733
 9177SOL    HW128430   1.931   2.417   3.661
 9177SOL    HW228431   1.865   2.497   3.787
 9178SOL     OW28432   2.356   5.567   6.640
 9178SOL    HW128433   2.455   5.577   6.631
 9178SOL    HW228434   2.310   5.646   6.601
 9179SOL     OW28435   2.637   5.711   4.948
 9179SOL    HW128436   2.590   5.665   5.024
 9179SOL    HW228437   2.733   5.681   4.946
 9180SOL     OW28438   6.729   2.151   3.943
 9180SOL    HW128439   6.805   2.125   4.001
 9180SOL    HW228440   6.716   2.082   3.871
 9181SOL     OW28441   5.022   2.759   3.378
 9181SOL    HW128442   5.091   2.688   3.373
 9181SOL    HW228443   5.066   2.849   3.382
 9182SOL     OW28444   3.163   1.291   2.698
 9182SOL    HW128445   3.158   1.338   2.786
 9182SOL    HW228446   3.079   1.240   2.682
 9183SOL     OW28447   4.477   3.816   6.162
 9183SOL    HW128448   4.528   3.901   6.167
 9183SOL    HW228449   4.450   3.798   6.067
 9184SOL     OW28450   3.528   1.940   1.086
 9184SOL    HW128451   3.576   1.968   1.003
 9184SOL    HW228452   3.516   2.019   1.146
 9185SOL     OW28453   0.883   6.704   6.688
 9185SOL    HW128454   0.885   6.770   6.612
 9185SOL    HW228455   0.793   6.660   6.691
 9186SOL     OW28456   4.821   0.648   5.483
 9186SOL    HW128457   4.812   0.608   5.574
 9186SOL    HW228458   4.730   0.664   5.445
 9187SOL     OW28459   4.504   2.037   6.841
 9187SOL    HW128460   4.415   2.059   6.802
 9187SOL    HW228461   4.497   2.030   6.940
 9188SOL     OW28462   1.869   0.953   1.242
 9188SOL    HW128463   1.845   0.893   1.166
 9188SOL    HW228464   1.786   0.994   1.279
 9189SOL     OW28465   3.580   0.842   3.778
 9189SOL    HW128466   3.639   0.762   3.767
 9189SOL    HW228467   3.484   0.815   3.767
 9190SOL     OW28468   6.436   4.199   5.437
 9190SOL    HW128469   6.504   4.227   5.505
 9190SOL    HW228470   6.472   4.125   5.382
 9191SOL     OW28471   4.826   0.026   6.682
 9191SOL    HW128472   4.776   0.109   6.656
 9191SOL    HW228473   4.839   6.996   6.601
 9192SOL     OW28474   6.194   3.776   6.187
 9192SOL    HW128475   6.127   3.742   6.122
 9192SOL    HW228476   6.172   3.742   6.279
 9193SOL     OW28477   3.321   3.705   3.816
 9193SOL    HW128478   3.387   3.763   3.768
 9193SOL    HW228479   3.349   3.609   3.808
 9194SOL     OW28480   3.634   5.933   2.084
 9194SOL    HW128481   3.703   5.873   2.043
 9194SOL    HW228482   3.545   5.888   2.081
 9195SOL     OW28483   1.945   2.791   3.216
 9195SOL    HW128484   2.040   2.802   3.242
 9195SOL    HW228485   1.938   2.726   3.140
 9196SOL     OW28486   4.893   0.487   3.957
 9196SOL    HW128487   4.890   0.396   3.917
 9196SOL    HW228488   4.974   0.495   4.016
 9197SOL     OW28489   3.153   3.749   1.150
 9197SOL    HW128490   3.219   3.696   1.097
 9197SOL    HW228491   3.076   3.775   1.092
 9198SOL     OW28492   5.643   4.072   6.162
 9198SOL    HW128493   5.721   4.044   6.106
 9198SOL    HW228494   5.641   4.019   6.246
 9199SOL     OW28495   0.983   3.362   6.443
 9199SOL    HW128496   1.063   3.302   6.437
 9199SOL    HW228497   0.958   3.374   6.539
 9200SOL     OW28498   1.397   6.199   6.814
 9200SOL    HW128499   1.407   6.151   6.901
 9200SOL    HW228500   1.301   6.216   6.796
 9201SOL     OW28501   0.538   4.152   1.166
 9201SOL    HW128502   0.482   4.179   1.088
 9201SOL    HW228503   0.626   4.117   1.132
 9202SOL     OW28504   2.292   5.433   4.674
 9202SOL    HW128505   2.311   5.507   4.738
 9202SOL    HW228506   2.373   5.416   4.618
 9203SOL     OW28507   4.786   2.240   6.554
 9203SOL    HW128508   4.850   2.305   6.513
 9203SOL    HW228509   4.704   2.289   6.585
 9204SOL     OW28510   5.755   3.648   3.359
 9204SOL    HW128511   5.794   3.704   3.286
 9204SOL    HW228512   5.655   3.653   3.354
 9205SOL     OW28513   5.110   3.344   2.185
 9205SOL    HW128514   5.108   3.270   2.118
 9205SOL    HW228515   5.070   3.427   2.145
 9206SOL     OW28516   2.852   0.465   4.953
 9206SOL    HW128517   2.859   0.527   4.874
 9206SOL    HW228518   2.938   0.464   5.002
 9207SOL     OW28519   3.734   6.324   6.060
 9207SOL    HW128520   3.664   6.288   5.999
 9207SOL    HW228521   3.784   6.396   6.014
 9208SOL     OW28522   5.026   3.620   2.062
 9208SOL    HW128523   4.949   3.594   2.004
 9208SOL    HW228524   5.110   3.616   2.008
 9209SOL     OW28525   4.201   0.911   2.053
 9209SOL    HW128526   4.198   0.983   2.123
 9209SOL    HW228527   4.226   0.824   2.096
 9210SOL     OW28528   2.241   0.322   1.390
 9210SOL    HW128529   2.238   0.321   1.290
 9210SOL    HW228530   2.328   0.283   1.421
 9211SOL     OW28531   5.187   1.990   6.580
 9211SOL    HW128532   5.183   2.019   6.485
 9211SOL    HW228533   5.280   2.003   6.615
 9212SOL     OW28534   4.678   4.314   4.897
 9212SOL    HW128535   4.754   4.354   4.947
 9212SOL    HW228536   4.623   4.387   4.855
 9213SOL     OW28537   5.821   6.662   4.291
 9213SOL    HW128538   5.917   6.689   4.283
 9213SOL    HW228539   5.769   6.737   4.331
 9214SOL     OW28540   1.017   2.446   5.071
 9214SOL    HW128541   0.970   2.430   5.158
 9214SOL    HW228542   0.977   2.525   5.026
 9215SOL     OW28543   6.894   4.202   2.358
 9215SOL    HW128544   6.837   4.281   2.378
 9215SOL    HW228545   6.919   4.156   2.443
 9216SOL     OW28546   2.501   6.574   4.674
 9216SOL    HW128547   2.547   6.486   4.668
 9216SOL    HW228548   2.496   6.616   4.583
 9217SOL     OW28549   5.478   1.550   6.684
 9217SOL    HW128550   5.452   1.454   6.700
 9217SOL    HW228551   5.569   1.566   6.723
 9218SOL     OW28552   4.161   0.496   6.518
 9218SOL    HW128553   4.246   0.447   6.535
 9218SOL    HW228554   4.094   0.434   6.477
 9219SOL     OW28555   4.062   2.968   5.398
 9219SOL    HW128556   3.964   2.954   5.407
 9219SOL    HW228557   4.080   3.036   5.326
 9220SOL     OW28558   1.907   5.980   2.734
 9220SOL    HW128559   1.889   6.038   2.654
 9220SOL    HW228560   1.952   6.034   2.805
 9221SOL     OW28561   2.302   0.728   5.838
 9221SOL    HW128562   2.242   0.798   5.876
 9221SOL    HW228563   2.376   0.708   5.902
 9222SOL     OW28564   2.512   4.490   4.181
 9222SOL    HW128565   2.515   4.455   4.275
 9222SOL    HW228566   2.452   4.432   4.126
 9223SOL     OW28567   0.971   3.019   3.763
 9223SOL    HW128568   0.908   3.047   3.691
 9223SOL    HW228569   0.934   3.045   3.852
 9224SOL     OW28570   1.232   3.265   3.818
 9224SOL    HW128571   1.136   3.289   3.829
 9224SOL    HW228572   1.239   3.175   3.776
 9225SOL     OW28573   3.529   6.924   6.032
 9225SOL    HW128574   3.572   7.004   5.990
 9225SOL    HW228575   3.579   6.842   6.004
 9226SOL     OW28576   1.472   0.286   1.822
 9226SOL    HW128577   1.484   0.270   1.920
 9226SOL    HW228578   1.383   0.252   1.793
 9227SOL     OW28579   1.617   5.280   1.415
 9227SOL    HW128580   1.649   5.292   1.509
 9227SOL    HW228581   1.693   5.248   1.359
 9228SOL     OW28582   2.277   2.536   6.180
 9228SOL    HW128583   2.312   2.529   6.087
 9228SOL    HW228584   2.182   2.504   6.181
 9229SOL     OW28585   1.299   4.952   6.894
 9229SOL    HW128586   1.341   4.902   6.819
 9229SOL    HW228587   1.256   5.035   6.859
 9230SOL     OW28588   5.030   3.002   3.867
 9230SOL    HW128589   5.048   2.913   3.826
 9230SOL    HW228590   5.085   3.014   3.949
 9231SOL     OW28591   0.826   5.225   6.052
 9231SOL    HW128592   0.787   5.233   6.143
 9231SOL    HW228593   0.837   5.316   6.012
 9232SOL     OW28594   1.594   4.892   0.927
 9232SOL    HW128595   1.663   4.895   0.855
 9232SOL    HW228596   1.505   4.915   0.887
 9233SOL     OW28597   1.177   6.872   1.283
 9233SOL    HW128598   1.221   6.783   1.289
 9233SOL    HW228599   1.245   6.944   1.301
 9234SOL     OW28600   2.398   5.242   1.073
 9234SOL    HW128601   2.337   5.296   1.131
 9234SOL    HW228602   2.466   5.196   1.130
 9235SOL     OW28603   2.556   2.021   3.697
 9235SOL    HW128604   2.637   2.079   3.698
 9235SOL    HW228605   2.504   2.038   3.614
 9236SOL     OW28606   2.394   3.087   6.951
 9236SOL    HW128607   2.313   3.083   6.891
 9236SOL    HW228608   2.476   3.094   6.895
 9237SOL     OW28609   7.003   6.119   3.087
 9237SOL    HW128610   0.003   6.214   3.104
 9237SOL    HW228611   0.016   6.088   3.001
 9238SOL     OW28612   2.691   2.737   5.982
 9238SOL    HW128613   2.782   2.712   6.014
 9238SOL    HW228614   2.623   2.704   6.048
 9239SOL     OW28615   6.794   4.579   6.332
 9239SOL    HW128616   6.794   4.679   6.326
 9239SOL    HW228617   6.871   4.549   6.388
 9240SOL     OW28618   5.176   3.298   2.731
 9240SOL    HW128619   5.172   3.219   2.669
 9240SOL    HW228620   5.087   3.343   2.731
 9241SOL     OW28621   6.793   5.766   0.322
 9241SOL    HW128622   6.789   5.675   0.280
 9241SOL    HW228623   6.733   5.828   0.272
 9242SOL     OW28624   1.970   2.227   1.604
 9242SOL    HW128625   2.059   2.205   1.564
 9242SOL    HW228626   1.967   2.323   1.628
 9243SOL     OW28627   1.384   0.728   1.760
 9243SOL    HW128628   1.385   0.699   1.856
 9243SOL    HW228629   1.419   0.654   1.703
 9244SOL     OW28630   2.784   6.455   6.309
 9244SOL    HW128631   2.857   6.407   6.357
 9244SOL    HW228632   2.801   6.553   6.313
 9245SOL     OW28633   1.032   4.232   3.673
 9245SOL    HW128634   1.091   4.151   3.673
 9245SOL    HW228635   0.937   4.203   3.664
 9246SOL     OW28636   5.852   0.537   4.193
 9246SOL    HW128637   5.825   0.464   4.131
 9246SOL    HW228638   5.923   0.593   4.151
 9247SOL     OW28639   3.920   5.268   3.078
 9247SOL    HW128640   3.824   5.239   3.070
 9247SOL    HW228641   3.979   5.187   3.077
 9248SOL     OW28642   2.885   1.811   5.165
 9248SOL    HW128643   2.830   1.808   5.248
 9248SOL    HW228644   2.904   1.906   5.141
 9249SOL     OW28645   3.950   4.845   1.513
 9249SOL    HW128646   4.041   4.880   1.537
 9249SOL    HW228647   3.907   4.807   1.595
 9250SOL     OW28648   6.685   3.814   4.096
 9250SOL    HW128649   6.751   3.873   4.142
 9250SOL    HW228650   6.732   3.758   4.027
 9251SOL     OW28651   4.262   2.533   1.695
 9251SOL    HW128652   4.173   2.495   1.669
 9251SOL    HW228653   4.288   2.500   1.785
 9252SOL     OW28654   5.149   0.660   5.161
 9252SOL    HW128655   5.172   0.680   5.257
 9252SOL    HW228656   5.233   0.652   5.107
 9253SOL     OW28657   5.565   4.766   5.427
 9253SOL    HW128658   5.506   4.812   5.493
 9253SOL    HW228659   5.636   4.715   5.476
 9254SOL     OW28660   5.200   4.495   2.273
 9254SOL    HW128661   5.291   4.494   2.313
 9254SOL    HW228662   5.195   4.565   2.202
 9255SOL     OW28663   5.651   3.392   6.808
 9255SOL    HW128664   5.593   3.406   6.888
 9255SOL    HW228665   5.715   3.317   6.827
 9256SOL     OW28666   2.272   6.905   1.902
 9256SOL    HW128667   2.254   6.831   1.966
 9256SOL    HW228668   2.212   6.983   1.922
 9257SOL     OW28669   5.979   5.767   3.107
 9257SOL    HW128670   6.034   5.705   3.163
 9257SOL    HW228671   5.973   5.856   3.151
 9258SOL     OW28672   3.447   3.499   0.656
 9258SOL    HW128673   3.436   3.471   0.752
 9258SOL    HW228674   3.417   3.594   0.646
 9259SOL     OW28675   1.873   1.416   0.156
 9259SOL    HW128676   1.897   1.463   0.072
 9259SOL    HW228677   1.854   1.483   0.228
 9260SOL     OW28678   6.912   2.717   6.125
 9260SOL    HW128679   6.888   2.784   6.196
 9260SOL    HW228680   6.949   2.764   6.045
 9261SOL     OW28681   4.614   1.051   6.814
 9261SOL    HW128682   4.692   1.036   6.752
 9261SOL    HW228683   4.595   1.149   6.819
 9262SOL     OW28684   0.648   6.693   4.978
 9262SOL    HW128685   0.601   6.625   4.923
 9262SOL    HW228686   0.636   6.784   4.938
 9263SOL     OW28687   3.365   5.660   3.300
 9263SOL    HW128688   3.445   5.642   3.356
 9263SOL    HW228689   3.382   5.628   3.206
 9264SOL     OW28690   4.610   3.388   6.401
 9264SOL    HW128691   4.636   3.433   6.316
 9264SOL    HW228692   4.539   3.440   6.447
 9265SOL     OW28693   4.270   2.023   6.453
 9265SOL    HW128694   4.236   1.958   6.385
 9265SOL    HW228695   4.294   2.109   6.407
 9266SOL     OW28696   0.349   5.484   1.148
 9266SOL    HW128697   0.262   5.532   1.150
 9266SOL    HW228698   0.340   5.395   1.192
 9267SOL     OW28699   0.874   1.908   4.360
 9267SOL    HW128700   0.939   1.962   4.308
 9267SOL    HW228701   0.923   1.849   4.424
 9268SOL     OW28702   1.047   6.640   2.712
 9268SOL    HW128703   1.125   6.642   2.649
 9268SOL    HW228704   0.972   6.695   2.674
 9269SOL     OW28705   4.300   0.269   6.217
 9269SOL    HW128706   4.366   0.221   6.274
 9269SOL    HW228707   4.347   0.338   6.162
 9270SOL     OW28708   3.460   0.861   5.521
 9270SOL    HW128709   3.504   0.951   5.519
 9270SOL    HW228710   3.367   0.869   5.485
 9271SOL     OW28711   0.289   6.873   0.636
 9271SOL    HW128712   0.271   6.879   0.538
 9271SOL    HW228713   0.361   6.938   0.661
 9272SOL     OW28714   0.946   6.448   0.002
 9272SOL    HW128715   0.886   6.371   7.007
 9272SOL    HW228716   1.029   6.414   0.046
 9273SOL     OW28717   5.387   6.095   3.361
 9273SOL    HW128718   5.318   6.151   3.314
 9273SOL    HW228719   5.471   6.148   3.373
 9274SOL     OW28720   7.010   2.083   0.274
 9274SOL    HW128721   6.988   1.986   0.279
 9274SOL    HW228722   0.059   2.096   0.211
 9275SOL     OW28723   0.068   6.760   0.159
 9275SOL    HW128724   0.044   6.674   0.203
 9275SOL    HW228725   0.148   6.747   0.100
 9276SOL     OW28726   2.868   4.415   6.968
 9276SOL    HW128727   2.885   4.393   6.872
 9276SOL    HW228728   2.901   4.341   7.026
 9277SOL     OW28729   4.112   4.999   3.346
 9277SOL    HW128730   4.197   4.965   3.304
 9277SOL    HW228731   4.135   5.061   3.421
 9278SOL     OW28732   0.333   0.520   5.693
 9278SOL    HW128733   0.245   0.474   5.703
 9278SOL    HW228734   0.363   0.515   5.598
 9279SOL     OW28735   3.091   6.394   1.804
 9279SOL    HW128736   3.064   6.474   1.752
 9279SOL    HW228737   3.188   6.401   1.828
 9280SOL     OW28738   2.147   2.327   2.045
 9280SOL    HW128739   2.221   2.392   2.028
 9280SOL    HW228740   2.162   2.245   1.989
 9281SOL     OW28741   3.423   3.743   5.794
 9281SOL    HW128742   3.517   3.720   5.817
 9281SOL    HW228743   3.378   3.784   5.873
 9282SOL     OW28744   4.789   1.550   4.217
 9282SOL    HW128745   4.732   1.484   4.169
 9282SOL    HW228746   4.766   1.549   4.314
 9283SOL     OW28747   5.222   0.464   5.874
 9283SOL    HW128748   5.266   0.507   5.953
 9283SOL    HW228749   5.159   0.393   5.906
 9284SOL     OW28750   2.982   3.511   4.849
 9284SOL    HW128751   2.953   3.567   4.927
 9284SOL    HW228752   3.082   3.510   4.844
 9285SOL     OW28753   5.006   3.196   0.880
 9285SOL    HW128754   5.024   3.269   0.945
 9285SOL    HW228755   5.027   3.227   0.787
 9286SOL     OW28756   4.884   5.608   6.947
 9286SOL    HW128757   4.837   5.544   6.886
 9286SOL    HW228758   4.844   5.602   0.011
 9287SOL     OW28759   2.906   4.192   5.644
 9287SOL    HW128760   2.892   4.291   5.651
 9287SOL    HW228761   2.844   4.155   5.575
 9288SOL     OW28762   4.674   2.321   3.174
 9288SOL    HW128763   4.634   2.252   3.235
 9288SOL    HW228764   4.760   2.287   3.136
 9289SOL     OW28765   4.294   0.659   6.362
 9289SOL    HW128766   4.236   0.587   6.401
 9289SOL    HW228767   4.237   0.737   6.337
 9290SOL     OW28768   6.113   0.643   4.088
 9290SOL    HW128769   6.066   0.697   4.018
 9290SOL    HW228770   6.167   0.705   4.146
 9291SOL     OW28771   1.298   6.436   6.008
 9291SOL    HW128772   1.261   6.371   6.074
 9291SOL    HW228773   1.393   6.456   6.030
 9292SOL     OW28774   1.524   1.353   6.600
 9292SOL    HW128775   1.587   1.355   6.678
 9292SOL    HW228776   1.447   1.294   6.622
 9293SOL     OW28777   5.173   2.832   0.010
 9293SOL    HW128778   5.172   2.733   7.020
 9293SOL    HW228779   5.263   2.859   0.042
 9294SOL     OW28780   4.899   1.184   0.064
 9294SOL    HW128781   4.866   1.090   0.052
 9294SOL    HW228782   4.970   1.186   0.134
 9295SOL     OW28783   6.966   0.798   5.556
 9295SOL    HW128784   6.975   0.895   5.535
 9295SOL    HW228785   6.987   0.782   5.652
 9296SOL     OW28786   2.205   3.950   1.060
 9296SOL    HW128787   2.167   4.023   1.003
 9296SOL    HW228788   2.284   3.910   1.015
 9297SOL     OW28789   0.641   6.562   2.835
 9297SOL    HW128790   0.666   6.479   2.787
 9297SOL    HW228791   0.689   6.566   2.923
 9298SOL     OW28792   0.887   6.683   6.109
 9298SOL    HW128793   0.910   6.778   6.132
 9298SOL    HW228794   0.789   6.668   6.124
 9299SOL     OW28795   1.470   1.140   3.893
 9299SOL    HW128796   1.494   1.237   3.894
 9299SOL    HW228797   1.457   1.107   3.986
 9300SOL     OW28798   0.255   5.251   5.125
 9300SOL    HW128799   0.243   5.341   5.083
 9300SOL    HW228800   0.188   5.238   5.198
 9301SOL     OW28801   0.102   4.601   5.100
 9301SOL    HW128802   0.131   4.537   5.029
 9301SOL    HW228803   0.032   4.557   5.157
 9302SOL     OW28804   2.274   2.980   4.609
 9302SOL    HW128805   2.226   2.994   4.695
 9302SOL    HW228806   2.330   2.897   4.614
 9303SOL     OW28807   3.050   4.712   0.545
 9303SOL    HW128808   2.982   4.639   0.537
 9303SOL    HW228809   3.004   4.797   0.572
 9304SOL     OW28810   4.528   5.208   0.522
 9304SOL    HW128811   4.434   5.197   0.553
 9304SOL    HW228812   4.548   5.306   0.512
 9305SOL     OW28813   3.656   1.368   0.274
 9305SOL    HW128814   3.741   1.322   0.299
 9305SOL    HW228815   3.620   1.417   0.353
 9306SOL     OW28816   0.310   3.720   4.924
 9306SOL    HW128817   0.400   3.684   4.948
 9306SOL    HW228818   0.319   3.791   4.854
 9307SOL     OW28819   1.426   4.133   0.620
 9307SOL    HW128820   1.473   4.067   0.562
 9307SOL    HW228821   1.406   4.091   0.709
 9308SOL     OW28822   0.737   4.750   1.456
 9308SOL    HW128823   0.760   4.663   1.412
 9308SOL    HW228824   0.641   4.749   1.483
 9309SOL     OW28825   4.020   6.669   6.131
 9309SOL    HW128826   4.111   6.687   6.096
 9309SOL    HW228827   4.019   6.581   6.179
 9310SOL     OW28828   5.093   5.733   5.639
 9310SOL    HW128829   5.045   5.813   5.603
 9310SOL    HW228830   5.054   5.650   5.598
 9311SOL     OW28831   4.849   4.209   0.933
 9311SOL    HW128832   4.867   4.296   0.979
 9311SOL    HW228833   4.860   4.134   0.999
 9312SOL     OW28834   1.915   2.195   1.235
 9312SOL    HW128835   1.939   2.288   1.207
 9312SOL    HW228836   1.841   2.160   1.178
 9313SOL     OW28837   0.606   0.792   1.593
 9313SOL    HW128838   0.633   0.888   1.592
 9313SOL    HW228839   0.544   0.776   1.670
 9314SOL     OW28840   6.004   3.487   0.709
 9314SOL    HW128841   5.950   3.412   0.749
 9314SOL    HW228842   6.066   3.524   0.778
 9315SOL     OW28843   6.085   0.820   5.886
 9315SOL    HW128844   6.032   0.888   5.936
 9315SOL    HW228845   6.066   0.729   5.923
 9316SOL     OW28846   6.210   0.147   4.667
 9316SOL    HW128847   6.202   0.242   4.697
 9316SOL    HW228848   6.292   0.136   4.611
 9317SOL     OW28849   3.552   5.460   3.246
 9317SOL    HW128850   3.529   5.417   3.334
 9317SOL    HW228851   3.564   5.389   3.177
 9318SOL     OW28852   4.138   6.109   0.276
 9318SOL    HW128853   4.170   6.041   0.342
 9318SOL    HW228854   4.078   6.175   0.322
 9319SOL     OW28855   2.167   2.990   0.515
 9319SOL    HW128856   2.208   2.916   0.462
 9319SOL    HW228857   2.237   3.033   0.572
 9320SOL     OW28858   4.255   0.075   5.976
 9320SOL    HW128859   4.267   0.104   5.881
 9320SOL    HW228860   4.232   0.154   6.032
 9321SOL     OW28861   1.112   2.120   5.706
 9321SOL    HW128862   1.194   2.064   5.691
 9321SOL    HW228863   1.032   2.073   5.670
 9322SOL     OW28864   6.294   4.782   6.008
 9322SOL    HW128865   6.268   4.699   5.958
 9322SOL    HW228866   6.233   4.794   6.087
 9323SOL     OW28867   2.191   2.295   4.839
 9323SOL    HW128868   2.284   2.268   4.814
 9323SOL    HW228869   2.155   2.357   4.770
 9324SOL     OW28870   1.782   3.730   0.894
 9324SOL    HW128871   1.789   3.827   0.872
 9324SOL    HW228872   1.873   3.693   0.912
 9325SOL     OW28873   0.910   6.312   1.752
 9325SOL    HW128874   0.910   6.412   1.758
 9325SOL    HW228875   0.854   6.283   1.674
 9326SOL     OW28876   3.372   5.481   0.159
 9326SOL    HW128877   3.351   5.550   0.227
 9326SOL    HW228878   3.467   5.450   0.171
 9327SOL     OW28879   4.619   0.176   3.005
 9327SOL    HW128880   4.537   0.216   3.047
 9327SOL    HW228881   4.699   0.228   3.034
 9328SOL     OW28882   2.175   6.944   4.806
 9328SOL    HW128883   2.176   6.861   4.752
 9328SOL    HW228884   2.234   6.933   4.887
 9329SOL     OW28885   6.852   5.551   0.124
 9329SOL    HW128886   6.832   5.491   0.047
 9329SOL    HW228887   6.936   5.603   0.105
 9330SOL     OW28888   0.655   0.056   6.504
 9330SOL    HW128889   0.688   0.007   6.585
 9330SOL    HW228890   0.584   0.002   6.459
 9331SOL     OW28891   1.829   2.554   5.673
 9331SOL    HW128892   1.821   2.457   5.695
 9331SOL    HW228893   1.783   2.573   5.586
 9332SOL     OW28894   4.328   5.414   0.559
 9332SOL    HW128895   4.373   5.408   0.470
 9332SOL    HW228896   4.299   5.323   0.588
 9333SOL     OW28897   4.053   5.507   0.692
 9333SOL    HW128898   4.136   5.489   0.638
 9333SOL    HW228899   4.021   5.422   0.734
 9334SOL     OW28900   5.504   0.359   4.110
 9334SOL    HW128901   5.508   0.376   4.208
 9334SOL    HW228902   5.463   0.269   4.093
 9335SOL     OW28903   1.814   2.234   0.436
 9335SOL    HW128904   1.732   2.230   0.494
 9335SOL    HW228905   1.818   2.322   0.390
 9336SOL     OW28906   5.561   0.080   4.285
 9336SOL    HW128907   5.639   0.028   4.250
 9336SOL    HW228908   5.537   0.046   4.376
 9337SOL     OW28909   4.794   0.929   0.091
 9337SOL    HW128910   4.763   0.851   0.036
 9337SOL    HW228911   4.717   0.992   0.105
 9338SOL     OW28912   6.948   5.713   0.562
 9338SOL    HW128913   6.973   5.617   0.556
 9338SOL    HW228914   6.911   5.743   0.474
 9339SOL     OW28915   5.885   5.708   0.508
 9339SOL    HW128916   5.891   5.780   0.577
 9339SOL    HW228917   5.897   5.618   0.551
 9340SOL     OW28918   3.973   4.969   2.727
 9340SOL    HW128919   3.959   4.943   2.631
 9340SOL    HW228920   3.891   4.948   2.779
 9341SOL     OW28921   6.494   4.128   6.803
 9341SOL    HW128922   6.507   4.124   6.704
 9341SOL    HW228923   6.573   4.088   6.849
 9342SOL     OW28924   2.730   0.448   4.533
 9342SOL    HW128925   2.796   0.475   4.602
 9342SOL    HW228926   2.638   0.450   4.572
 9343SOL     OW28927   5.006   3.294   1.901
 9343SOL    HW128928   4.932   3.361   1.908
 9343SOL    HW228929   5.003   3.251   1.811
 9344SOL     OW28930   5.002   5.669   6.254
 9344SOL    HW128931   5.034   5.584   6.296
 9344SOL    HW228932   4.918   5.651   6.203
 9345SOL     OW28933   5.887   5.237   6.658
 9345SOL    HW128934   5.807   5.291   6.633
 9345SOL    HW228935   5.961   5.298   6.685
 9346SOL     OW28936   4.902   6.185   2.353
 9346SOL    HW128937   4.988   6.232   2.335
 9346SOL    HW228938   4.903   6.095   2.309
 9347SOL     OW28939   3.727   5.735   0.503
 9347SOL    HW128940   3.734   5.783   0.416
 9347SOL    HW228941   3.819   5.712   0.535
 9348SOL     OW28942   2.832   5.318   3.081
 9348SOL    HW128943   2.863   5.398   3.031
 9348SOL    HW228944   2.815   5.343   3.176
 9349SOL     OW28945   6.114   5.934   1.954
 9349SOL    HW128946   6.130   5.964   1.860
 9349SOL    HW228947   6.044   5.992   1.996
 9350SOL     OW28948   0.048   1.623   4.108
 9350SOL    HW128949   0.118   1.650   4.042
 9350SOL    HW228950   0.093   1.575   4.184
 9351SOL     OW28951   2.695   0.220   6.229
 9351SOL    HW128952   2.596   0.207   6.234
 9351SOL    HW228953   2.733   0.223   6.322
 9352SOL     OW28954   1.718   3.081   5.903
 9352SOL    HW128955   1.674   3.009   5.850
 9352SOL    HW228956   1.704   3.169   5.858
 9353SOL     OW28957   1.548   4.168   1.893
 9353SOL    HW128958   1.461   4.218   1.895
 9353SOL    HW228959   1.557   4.115   1.977
 9354SOL     OW28960   5.833   1.548   1.037
 9354SOL    HW128961   5.844   1.469   1.097
 9354SOL    HW228962   5.825   1.517   0.942
 9355SOL     OW28963   6.238   1.095   4.221
 9355SOL    HW128964   6.260   1.156   4.297
 9355SOL    HW228965   6.322   1.070   4.173
 9356SOL     OW28966   4.863   5.460   2.330
 9356SOL    HW128967   4.866   5.559   2.315
 9356SOL    HW228968   4.786   5.437   2.389
 9357SOL     OW28969   2.131   4.249   6.895
 9357SOL    HW128970   2.204   4.305   6.933
 9357SOL    HW228971   2.093   4.190   6.966
 9358SOL     OW28972   5.824   3.363   1.623
 9358SOL    HW128973   5.903   3.425   1.625
 9358SOL    HW228974   5.829   3.305   1.542
 9359SOL     OW28975   0.427   3.736   5.291
 9359SOL    HW128976   0.411   3.773   5.199
 9359SOL    HW228977   0.390   3.800   5.359
 9360SOL     OW28978   0.893   0.254   5.757
 9360SOL    HW128979   0.833   0.175   5.748
 9360SOL    HW228980   0.860   0.313   5.831
 9361SOL     OW28981   2.337   6.429   3.479
 9361SOL    HW128982   2.336   6.456   3.576
 9361SOL    HW228983   2.380   6.339   3.470
 9362SOL     OW28984   1.470   1.102   1.914
 9362SOL    HW128985   1.449   1.011   1.951
 9362SOL    HW228986   1.387   1.158   1.913
 9363SOL     OW28987   4.292   5.336   2.020
 9363SOL    HW128988   4.271   5.393   2.099
 9363SOL    HW228989   4.305   5.394   1.940
 9364SOL     OW28990   3.994   3.457   5.947
 9364SOL    HW128991   4.065   3.488   6.010
 9364SOL    HW228992   3.910   3.510   5.963
 9365SOL     OW28993   2.803   1.647   4.962
 9365SOL    HW128994   2.791   1.711   4.887
 9365SOL    HW228995   2.814   1.697   5.048
 9366SOL     OW28996   3.009   1.670   6.450
 9366SOL    HW128997   2.935   1.732   6.478
 9366SOL    HW228998   3.069   1.653   6.529
 9367SOL     OW28999   0.251   5.889   3.511
 9367SOL    HW129000   0.309   5.960   3.552
 9367SOL    HW229001   0.231   5.912   3.416
 9368SOL     OW29002   3.204   1.891   3.608
 9368SOL    HW129003   3.137   1.863   3.539
 9368SOL    HW229004   3.202   1.990   3.619
 9369SOL     OW29005   0.779   0.396   5.979
 9369SOL    HW129006   0.712   0.423   5.909
 9369SOL    HW229007   0.736   0.402   6.069
 9370SOL     OW29008   5.165   0.388   2.284
 9370SOL    HW129009   5.232   0.371   2.356
 9370SOL    HW229010   5.096   0.452   2.318
 9371SOL     OW29011   1.899   4.854   0.324
 9371SOL    HW129012   1.943   4.782   0.378
 9371SOL    HW229013   1.961   4.883   0.251
 9372SOL     OW29014   5.593   5.893   3.189
 9372SOL    HW129015   5.626   5.848   3.272
 9372SOL    HW229016   5.537   5.972   3.214
 9373SOL     OW29017   4.691   2.061   2.437
 9373SOL    HW129018   4.770   2.060   2.498
 9373SOL    HW229019   4.607   2.049   2.491
 9374SOL     OW29020   6.756   3.204   6.798
 9374SOL    HW129021   6.689   3.148   6.749
 9374SOL    HW229022   6.735   3.301   6.786
 9375SOL     OW29023   6.870   2.284   3.211
 9375SOL    HW129024   6.841   2.194   3.242
 9375SOL    HW229025   6.876   2.285   3.112
 9376SOL     OW29026   2.669   3.851   1.073
 9376SOL    HW129027   2.615   3.826   1.153
 9376SOL    HW229028   2.741   3.783   1.059
 9377SOL     OW29029   1.456   5.812   3.765
 9377SOL    HW129030   1.424   5.896   3.810
 9377SOL    HW229031   1.554   5.820   3.747
 9378SOL     OW29032   0.747   0.312   5.318
 9378SOL    HW129033   0.680   0.350   5.255
 9378SOL    HW229034   0.787   0.229   5.278
 9379SOL     OW29035   4.480   4.949   5.173
 9379SOL    HW129036   4.570   4.984   5.148
 9379SOL    HW229037   4.411   5.021   5.159
 9380SOL     OW29038   6.281   4.619   4.800
 9380SOL    HW129039   6.327   4.611   4.712
 9380SOL    HW229040   6.272   4.716   4.824
 9381SOL     OW29041   2.124   3.331   5.864
 9381SOL    HW129042   2.083   3.353   5.775
 9381SOL    HW229043   2.060   3.275   5.917
 9382SOL     OW29044   3.618   1.594   3.531
 9382SOL    HW129045   3.699   1.539   3.517
 9382SOL    HW229046   3.643   1.681   3.574
 9383SOL     OW29047   2.476   6.127   4.529
 9383SOL    HW129048   2.379   6.110   4.509
 9383SOL    HW229049   2.528   6.043   4.518
 9384SOL     OW29050   3.430   5.831   1.764
 9384SOL    HW129051   3.349   5.776   1.745
 9384SOL    HW229052   3.494   5.825   1.687
 9385SOL     OW29053   4.772   1.323   2.714
 9385SOL    HW129054   4.699   1.341   2.780
 9385SOL    HW229055   4.791   1.406   2.661
 9386SOL     OW29056   2.079   6.576   5.119
 9386SOL    HW129057   2.171   6.591   5.082
 9386SOL    HW229058   2.086   6.533   5.209
 9387SOL     OW29059   3.107   0.966   6.792
 9387SOL    HW129060   3.113   1.050   6.738
 9387SOL    HW229061   3.021   0.920   6.771
 9388SOL     OW29062   2.008   5.327   2.567
 9388SOL    HW129063   1.936   5.348   2.500
 9388SOL    HW229064   1.983   5.364   2.656
 9389SOL     OW29065   2.061   0.194   5.114
 9389SOL    HW129066   2.067   0.095   5.102
 9389SOL    HW229067   2.006   0.215   5.195
 9390SOL     OW29068   3.920   5.533   4.982
 9390SOL    HW129069   3.979   5.598   4.935
 9390SOL    HW229070   3.825   5.553   4.963
 9391SOL     OW29071   2.456   0.487   4.905
 9391SOL    HW129072   2.510   0.518   4.983
 9391SOL    HW229073   2.379   0.432   4.936
 9392SOL     OW29074   0.125   0.665   5.201
 9392SOL    HW129075   0.160   0.758   5.217
 9392SOL    HW229076   0.059   0.642   5.272
 9393SOL     OW29077   2.697   0.813   5.504
 9393SOL    HW129078   2.706   0.728   5.452
 9393SOL    HW229079   2.664   0.885   5.443
 9394SOL     OW29080   6.723   2.008   2.008
 9394SOL    HW129081   6.815   2.026   1.976
 9394SOL    HW229082   6.717   1.914   2.043
 9395SOL     OW29083   2.576   2.221   0.050
 9395SOL    HW129084   2.631   2.279   0.110
 9395SOL    HW229085   2.548   2.274   6.997
 9396SOL     OW29086   0.879   5.391   3.244
 9396SOL    HW129087   0.947   5.462   3.225
 9396SOL    HW229088   0.811   5.426   3.307
 9397SOL     OW29089   3.000   0.397   1.066
 9397SOL    HW129090   3.074   0.452   1.106
 9397SOL    HW229091   3.025   0.370   0.973
 9398SOL     OW29092   1.599   0.444   5.463
 9398SOL    HW129093   1.566   0.526   5.417
 9398SOL    HW229094   1.610   0.370   5.397
 9399SOL     OW29095   0.543   1.631   0.141
 9399SOL    HW129096   0.640   1.609   0.146
 9399SOL    HW229097   0.531   1.715   0.087
 9400SOL     OW29098   5.140   2.417   1.500
 9400SOL    HW129099   5.133   2.424   1.401
 9400SOL    HW229100   5.154   2.322   1.526
 9401SOL     OW29101   4.330   6.773   3.151
 9401SOL    HW129102   4.348   6.860   3.197
 9401SOL    HW229103   4.260   6.723   3.201
 9402SOL     OW29104   1.046   5.019   4.074
 9402SOL    HW129105   1.076   4.992   4.165
 9402SOL    HW229106   1.059   5.117   4.062
 9403SOL     OW29107   5.998   1.426   3.282
 9403SOL    HW129108   6.032   1.517   3.304
 9403SOL    HW229109   5.987   1.373   3.366
 9404SOL     OW29110   0.595   3.057   6.016
 9404SOL    HW129111   0.629   3.078   5.924
 9404SOL    HW229112   0.601   2.959   6.032
 9405SOL     OW29113   0.185   6.086   2.431
 9405SOL    HW129114   0.091   6.118   2.426
 9405SOL    HW229115   0.187   5.987   2.421
 9406SOL     OW29116   6.960   3.044   6.279
 9406SOL    HW129117   6.915   2.960   6.308
 9406SOL    HW229118   0.016   3.057   6.333
 9407SOL     OW29119   2.535   5.130   3.234
 9407SOL    HW129120   2.525   5.227   3.257
 9407SOL    HW229121   2.466   5.077   3.283
 9408SOL     OW29122   3.946   1.760   6.134
 9408SOL    HW129123   3.995   1.677   6.107
 9408SOL    HW229124   3.882   1.786   6.061
 9409SOL     OW29125   5.785   4.371   6.195
 9409SOL    HW129126   5.757   4.311   6.270
 9409SOL    HW229127   5.705   4.418   6.158
 9410SOL     OW29128   3.137   6.426   2.111
 9410SOL    HW129129   3.206   6.363   2.076
 9410SOL    HW229130   3.149   6.516   2.070
 9411SOL     OW29131   4.060   3.926   1.576
 9411SOL    HW129132   4.043   3.866   1.498
 9411SOL    HW229133   4.051   3.874   1.661
 9412SOL     OW29134   0.327   3.106   2.010
 9412SOL    HW129135   0.244   3.076   1.964
 9412SOL    HW229136   0.303   3.172   2.081
 9413SOL     OW29137   3.653   5.996   4.184
 9413SOL    HW129138   3.664   5.901   4.213
 9413SOL    HW229139   3.737   6.026   4.138
 9414SOL     OW29140   3.344   0.736   3.724
 9414SOL    HW129141   3.268   0.766   3.666
 9414SOL    HW229142   3.331   0.640   3.748
 9415SOL     OW29143   2.649   0.340   2.371
 9415SOL    HW129144   2.659   0.380   2.280
 9415SOL    HW229145   2.709   0.261   2.379
 9416SOL     OW29146   0.816   1.425   1.011
 9416SOL    HW129147   0.818   1.506   1.070
 9416SOL    HW229148   0.743   1.434   0.944
 9417SOL     OW29149   3.650   6.627   5.656
 9417SOL    HW129150   3.634   6.528   5.650
 9417SOL    HW229151   3.749   6.643   5.662
 9418SOL     OW29152   2.868   6.256   1.413
 9418SOL    HW129153   2.951   6.292   1.457
 9418SOL    HW229154   2.879   6.157   1.398
 9419SOL     OW29155   2.909   4.869   5.785
 9419SOL    HW129156   3.004   4.839   5.776
 9419SOL    HW229157   2.904   4.940   5.856
 9420SOL     OW29158   0.421   2.802   4.580
 9420SOL    HW129159   0.382   2.737   4.514
 9420SOL    HW229160   0.365   2.802   4.663
 9421SOL     OW29161   2.278   6.209   4.845
 9421SOL    HW129162   2.378   6.205   4.851
 9421SOL    HW229163   2.250   6.205   4.750
 9422SOL     OW29164   4.714   6.365   2.359
 9422SOL    HW129165   4.783   6.293   2.367
 9422SOL    HW229166   4.623   6.323   2.354
 9423SOL     OW29167   4.383   0.792   3.202
 9423SOL    HW129168   4.413   0.878   3.244
 9423SOL    HW229169   4.424   0.783   3.112
 9424SOL     OW29170   4.732   1.217   5.274
 9424SOL    HW129171   4.648   1.163   5.277
 9424SOL    HW229172   4.782   1.206   5.359
 9425SOL     OW29173   0.353   3.727   6.423
 9425SOL    HW129174   0.326   3.724   6.520
 9425SOL    HW229175   0.357   3.634   6.388
 9426SOL     OW29176   2.761   1.984   0.039
 9426SOL    HW129177   2.714   2.070   0.060
 9426SOL    HW229178   2.816   1.956   0.118
 9427SOL     OW29179   2.930   5.180   4.734
 9427SOL    HW129180   2.938   5.198   4.833
 9427SOL    HW229181   2.978   5.252   4.684
 9428SOL     OW29182   4.951   1.036   1.186
 9428SOL    HW129183   4.879   1.019   1.119
 9428SOL    HW229184   4.980   1.131   1.180
 9429SOL     OW29185   1.793   4.123   2.246
 9429SOL    HW129186   1.838   4.113   2.335
 9429SOL    HW229187   1.863   4.136   2.175
 9430SOL     OW29188   6.924   4.467   1.856
 9430SOL    HW129189   6.907   4.561   1.826
 9430SOL    HW229190   6.849   4.438   1.916
 9431SOL     OW29191   5.522   3.438   0.854
 9431SOL    HW129192   5.498   3.411   0.761
 9431SOL    HW229193   5.443   3.429   0.914
 9432SOL     OW29194   5.649   0.918   2.747
 9432SOL    HW129195   5.553   0.893   2.761
 9432SOL    HW229196   5.687   0.953   2.833
 9433SOL     OW29197   3.559   4.918   3.761
 9433SOL    HW129198   3.514   4.890   3.846
 9433SOL    HW229199   3.561   5.018   3.756
 9434SOL     OW29200   4.955   5.063   3.073
 9434SOL    HW129201   4.954   5.100   3.165
 9434SOL    HW229202   5.047   5.032   3.050
 9435SOL     OW29203   0.488   2.383   4.676
 9435SOL    HW129204   0.433   2.389   4.593
 9435SOL    HW229205   0.531   2.293   4.682
 9436SOL     OW29206   1.182   3.592   1.944
 9436SOL    HW129207   1.195   3.493   1.944
 9436SOL    HW229208   1.176   3.625   1.850
 9437SOL     OW29209   2.108   6.678   3.543
 9437SOL    HW129210   2.163   6.701   3.463
 9437SOL    HW229211   2.020   6.640   3.513
 9438SOL     OW29212   0.452   6.939   1.879
 9438SOL    HW129213   0.399   6.990   1.811
 9438SOL    HW229214   0.476   6.850   1.841
 9439SOL     OW29215   0.633   2.446   1.973
 9439SOL    HW129216   0.699   2.372   1.986
 9439SOL    HW229217   0.674   2.517   1.915
 9440SOL     OW29218   4.356   5.464   4.162
 9440SOL    HW129219   4.388   5.460   4.257
 9440SOL    HW229220   4.325   5.557   4.142
 9441SOL     OW29221   1.662   3.492   4.850
 9441SOL    HW129222   1.596   3.568   4.857
 9441SOL    HW229223   1.683   3.475   4.753
 9442SOL     OW29224   4.387   3.196   7.019
 9442SOL    HW129225   4.474   3.168   6.980
 9442SOL    HW229226   4.372   3.293   7.002
 9443SOL     OW29227   2.240   5.327   1.302
 9443SOL    HW129228   2.196   5.399   1.355
 9443SOL    HW229229   2.282   5.261   1.364
 9444SOL     OW29230   1.379   3.868   6.642
 9444SOL    HW129231   1.410   3.781   6.681
 9444SOL    HW229232   1.370   3.936   6.715
 9445SOL     OW29233   5.654   3.726   2.573
 9445SOL    HW129234   5.705   3.796   2.623
 9445SOL    HW229235   5.589   3.682   2.634
 9446SOL     OW29236   6.668   6.521   4.102
 9446SOL    HW129237   6.574   6.529   4.135
 9446SOL    HW229238   6.729   6.504   4.179
 9447SOL     OW29239   6.397   3.699   3.281
 9447SOL    HW129240   6.312   3.646   3.275
 9447SOL    HW229241   6.451   3.669   3.359
 9448SOL     OW29242   6.746   6.953   6.326
 9448SOL    HW129243   6.763   7.024   6.258
 9448SOL    HW229244   6.650   6.956   6.353
 9449SOL     OW29245   6.602   5.869   6.654
 9449SOL    HW129246   6.632   5.841   6.745
 9449SOL    HW229247   6.630   5.800   6.587
 9450SOL     OW29248   3.398   5.162   5.177
 9450SOL    HW129249   3.467   5.097   5.209
 9450SOL    HW229250   3.374   5.225   5.251
 9451SOL     OW29251   3.691   6.487   6.312
 9451SOL    HW129252   3.715   6.447   6.224
 9451SOL    HW229253   3.752   6.451   6.383
 9452SOL     OW29254   1.200   3.711   0.645
 9452SOL    HW129255   1.151   3.775   0.705
 9452SOL    HW229256   1.146   3.693   0.563
 9453SOL     OW29257   2.340   5.073   3.855
 9453SOL    HW129258   2.399   5.153   3.843
 9453SOL    HW229259   2.304   5.073   3.949
 9454SOL     OW29260   2.151   3.656   6.679
 9454SOL    HW129261   2.116   3.701   6.760
 9454SOL    HW229262   2.144   3.557   6.689
 9455SOL     OW29263   4.480   1.847   2.977
 9455SOL    HW129264   4.484   1.810   2.884
 9455SOL    HW229265   4.490   1.772   3.043
 9456SOL     OW29266   0.829   3.726   0.850
 9456SOL    HW129267   0.893   3.802   0.845
 9456SOL    HW229268   0.860   3.660   0.917
 9457SOL     OW29269   2.301   4.145   5.363
 9457SOL    HW129270   2.373   4.098   5.312
 9457SOL    HW229271   2.213   4.127   5.320
 9458SOL     OW29272   1.175   2.925   6.543
 9458SOL    HW129273   1.241   2.868   6.495
 9458SOL    HW229274   1.183   3.020   6.513
 9459SOL     OW29275   5.642   4.823   2.718
 9459SOL    HW129276   5.686   4.786   2.635
 9459SOL    HW229277   5.712   4.867   2.775
 9460SOL     OW29278   6.857   2.385   4.566
 9460SOL    HW129279   6.825   2.462   4.510
 9460SOL    HW229280   6.795   2.308   4.553
 9461SOL     OW29281   6.657   1.889   2.634
 9461SOL    HW129282   6.667   1.918   2.538
 9461SOL    HW229283   6.626   1.794   2.637
 9462SOL     OW29284   1.986   3.646   3.139
 9462SOL    HW129285   2.032   3.668   3.225
 9462SOL    HW229286   1.993   3.547   3.122
 9463SOL     OW29287   6.971   0.554   1.445
 9463SOL    HW129288   6.943   0.617   1.517
 9463SOL    HW229289   0.013   0.598   1.387
 9464SOL     OW29290   6.381   6.659   0.903
 9464SOL    HW129291   6.283   6.662   0.884
 9464SOL    HW229292   6.396   6.660   1.002
 9465SOL     OW29293   0.586   6.319   3.160
 9465SOL    HW129294   0.492   6.287   3.159
 9465SOL    HW229295   0.592   6.405   3.210
 9466SOL     OW29296   3.764   4.360   5.364
 9466SOL    HW129297   3.776   4.309   5.449
 9466SOL    HW229298   3.830   4.328   5.296
 9467SOL     OW29299   1.312   2.399   1.383
 9467SOL    HW129300   1.291   2.318   1.328
 9467SOL    HW229301   1.407   2.395   1.414
 9468SOL     OW29302   5.753   2.651   6.273
 9468SOL    HW129303   5.761   2.563   6.321
 9468SOL    HW229304   5.657   2.678   6.267
 9469SOL     OW29305   6.012   6.102   1.321
 9469SOL    HW129306   5.934   6.132   1.375
 9469SOL    HW229307   6.002   6.005   1.299
 9470SOL     OW29308   4.658   4.271   5.507
 9470SOL    HW129309   4.652   4.275   5.607
 9470SOL    HW229310   4.746   4.234   5.480
 9471SOL     OW29311   6.245   1.455   4.157
 9471SOL    HW129312   6.246   1.454   4.057
 9471SOL    HW229313   6.307   1.385   4.191
 9472SOL     OW29314   5.894   3.026   4.611
 9472SOL    HW129315   5.794   3.025   4.606
 9472SOL    HW229316   5.924   3.111   4.653
 9473SOL     OW29317   2.423   5.440   5.977
 9473SOL    HW129318   2.372   5.395   5.903
 9473SOL    HW229319   2.502   5.383   6.002
 9474SOL     OW29320   6.811   3.327   0.169
 9474SOL    HW129321   6.888   3.367   0.119
 9474SOL    HW229322   6.839   3.241   0.211
 9475SOL     OW29323   2.889   3.719   0.200
 9475SOL    HW129324   2.876   3.717   0.101
 9475SOL    HW229325   2.887   3.626   0.236
 9476SOL     OW29326   2.877   3.275   5.055
 9476SOL    HW129327   2.930   3.312   4.979
 9476SOL    HW229328   2.786   3.248   5.022
 9477SOL     OW29329   0.352   3.694   2.588
 9477SOL    HW129330   0.412   3.641   2.528
 9477SOL    HW229331   0.407   3.753   2.647
 9478SOL     OW29332   5.235   3.248   5.754
 9478SOL    HW129333   5.222   3.302   5.671
 9478SOL    HW229334   5.332   3.225   5.763
 9479SOL     OW29335   5.142   6.457   6.998
 9479SOL    HW129336   5.194   6.543   7.001
 9479SOL    HW229337   5.118   6.436   6.904
 9480SOL     OW29338   5.249   3.943   0.924
 9480SOL    HW129339   5.344   3.960   0.949
 9480SOL    HW229340   5.233   3.845   0.916
 9481SOL     OW29341   5.760   3.653   1.670
 9481SOL    HW129342   5.683   3.648   1.733
 9481SOL    HW229343   5.779   3.562   1.632
 9482SOL     OW29344   6.822   0.820   2.985
 9482SOL    HW129345   6.806   0.874   2.903
 9482SOL    HW229346   6.777   0.864   3.063
 9483SOL     OW29347   1.742   1.423   1.141
 9483SOL    HW129348   1.744   1.472   1.229
 9483SOL    HW229349   1.750   1.489   1.067
 9484SOL     OW29350   4.163   1.441   2.821
 9484SOL    HW129351   4.095   1.378   2.857
 9484SOL    HW229352   4.184   1.510   2.890
 9485SOL     OW29353   0.862   0.217   2.326
 9485SOL    HW129354   0.889   0.207   2.422
 9485SOL    HW229355   0.895   0.305   2.291
 9486SOL     OW29356   2.483   5.025   1.738
 9486SOL    HW129357   2.445   4.968   1.810
 9486SOL    HW229358   2.524   4.967   1.668
 9487SOL     OW29359   2.965   3.345   3.342
 9487SOL    HW129360   2.913   3.397   3.275
 9487SOL    HW229361   2.987   3.403   3.421
 9488SOL     OW29362   1.857   6.260   1.285
 9488SOL    HW129363   1.870   6.173   1.334
 9488SOL    HW229364   1.835   6.241   1.189
 9489SOL     OW29365   3.978   4.144   1.416
 9489SOL    HW129366   3.882   4.123   1.398
 9489SOL    HW229367   4.016   4.076   1.478
 9490SOL     OW29368   6.477   5.652   0.704
 9490SOL    HW129369   6.546   5.721   0.681
 9490SOL    HW229370   6.456   5.597   0.624
 9491SOL     OW29371   6.948   4.755   3.925
 9491SOL    HW129372   6.966   4.793   4.016
 9491SOL    HW229373   6.850   4.765   3.905
 9492SOL     OW29374   3.629   2.907   2.930
 9492SOL    HW129375   3.632   3.007   2.918
 9492SOL    HW229376   3.555   2.869   2.874
 9493SOL     OW29377   4.166   5.370   3.712
 9493SOL    HW129378   4.068   5.353   3.705
 9493SOL    HW229379   4.210   5.295   3.761
 9494SOL     OW29380   4.528   4.561   1.264
 9494SOL    HW129381   4.431   4.544   1.285
 9494SOL    HW229382   4.546   4.660   1.272
 9495SOL     OW29383   5.871   1.928   4.344
 9495SOL    HW129384   5.971   1.925   4.350
 9495SOL    HW229385   5.844   1.995   4.276
 9496SOL     OW29386   5.745   4.610   0.891
 9496SOL    HW129387   5.679   4.537   0.874
 9496SOL    HW229388   5.812   4.612   0.816
 9497SOL     OW29389   6.234   4.731   0.076
 9497SOL    HW129390   6.252   4.781   7.019
 9497SOL    HW229391   6.177   4.651   0.056
 9498SOL     OW29392   5.353   0.181   5.040
 9498SOL    HW129393   5.390   0.254   5.097
 9498SOL    HW229394   5.269   0.213   4.996
 9499SOL     OW29395   2.346   4.865   6.100
 9499SOL    HW129396   2.272   4.814   6.145
 9499SOL    HW229397   2.426   4.867   6.160
 9500SOL     OW29398   4.539   6.935   1.384
 9500SOL    HW129399   4.588   6.856   1.421
 9500SOL    HW229400   4.533   7.006   1.455
 9501SOL     OW29401   3.287   1.439   4.691
 9501SOL    HW129402   3.288   1.410   4.787
 9501SOL    HW229403   3.248   1.531   4.684
 9502SOL     OW29404   0.338   2.087   4.973
 9502SOL    HW129405   0.275   2.133   4.910
 9502SOL    HW229406   0.384   2.012   4.925
 9503SOL     OW29407   0.553   1.455   0.873
 9503SOL    HW129408   0.525   1.365   0.840
 9503SOL    HW229409   0.472   1.509   0.895
 9504SOL     OW29410   0.414   2.102   0.822
 9504SOL    HW129411   0.494   2.050   0.850
 9504SOL    HW229412   0.334   2.070   0.873
 9505SOL     OW29413   5.416   3.950   3.683
 9505SOL    HW129414   5.486   3.929   3.752
 9505SOL    HW229415   5.392   3.867   3.633
 9506SOL     OW29416   0.448   2.978   6.818
 9506SOL    HW129417   0.403   2.966   6.907
 9506SOL    HW229418   0.411   2.912   6.753
 9507SOL     OW29419   1.349   1.419   3.399
 9507SOL    HW129420   1.347   1.322   3.423
 9507SOL    HW229421   1.397   1.470   3.470
 9508SOL     OW29422   5.925   3.623   1.042
 9508SOL    HW129423   5.985   3.577   1.108
 9508SOL    HW229424   5.847   3.565   1.021
 9509SOL     OW29425   0.958   0.544   5.264
 9509SOL    HW129426   0.909   0.461   5.293
 9509SOL    HW229427   0.893   0.607   5.221
 9510SOL     OW29428   0.803   4.058   2.057
 9510SOL    HW129429   0.819   3.995   2.134
 9510SOL    HW229430   0.745   4.134   2.088
 9511SOL     OW29431   0.767   1.526   6.890
 9511SOL    HW129432   0.787   1.494   6.982
 9511SOL    HW229433   0.751   1.624   6.891
 9512SOL     OW29434   5.761   1.195   1.533
 9512SOL    HW129435   5.861   1.193   1.543
 9512SOL    HW229436   5.718   1.184   1.623
 9513SOL     OW29437   1.624   3.434   5.299
 9513SOL    HW129438   1.683   3.435   5.380
 9513SOL    HW229439   1.660   3.497   5.230
 9514SOL     OW29440   2.331   4.390   0.036
 9514SOL    HW129441   2.314   4.486   0.010
 9514SOL    HW229442   2.427   4.368   0.019
 9515SOL     OW29443   1.368   5.787   0.557
 9515SOL    HW129444   1.440   5.718   0.555
 9515SOL    HW229445   1.375   5.844   0.475
 9516SOL     OW29446   5.918   3.623   5.252
 9516SOL    HW129447   5.969   3.566   5.318
 9516SOL    HW229448   5.886   3.705   5.298
 9517SOL     OW29449   1.301   4.863   0.371
 9517SOL    HW129450   1.384   4.903   0.410
 9517SOL    HW229451   1.312   4.764   0.365
 9518SOL     OW29452   1.351   2.094   0.050
 9518SOL    HW129453   1.322   2.166   7.015
 9518SOL    HW229454   1.451   2.095   0.058
 9519SOL     OW29455   3.750   4.109   3.927
 9519SOL    HW129456   3.664   4.071   3.892
 9519SOL    HW229457   3.737   4.138   4.022
 9520SOL     OW29458   0.440   1.207   2.852
 9520SOL    HW129459   0.414   1.115   2.881
 9520SOL    HW229460   0.534   1.225   2.880
 9521SOL     OW29461   3.453   4.315   1.195
 9521SOL    HW129462   3.463   4.413   1.209
 9521SOL    HW229463   3.478   4.266   1.278
 9522SOL     OW29464   4.340   5.509   1.811
 9522SOL    HW129465   4.277   5.581   1.840
 9522SOL    HW229466   4.424   5.551   1.775
 9523SOL     OW29467   2.574   4.955   4.833
 9523SOL    HW129468   2.616   4.967   4.923
 9523SOL    HW229469   2.607   4.870   4.792
 9524SOL     OW29470   2.318   2.766   0.335
 9524SOL    HW129471   2.324   2.802   0.242
 9524SOL    HW229472   2.236   2.708   0.343
 9525SOL     OW29473   2.438   2.157   5.511
 9525SOL    HW129474   2.338   2.162   5.520
 9525SOL    HW229475   2.476   2.249   5.506
 9526SOL     OW29476   6.049   4.282   1.314
 9526SOL    HW129477   6.101   4.266   1.230
 9526SOL    HW229478   6.112   4.296   1.391
 9527SOL     OW29479   1.497   0.418   4.711
 9527SOL    HW129480   1.437   0.386   4.638
 9527SOL    HW229481   1.565   0.347   4.732
 9528SOL     OW29482   6.898   1.044   0.335
 9528SOL    HW129483   6.916   1.001   0.246
 9528SOL    HW229484   6.905   0.976   0.407
 9529SOL     OW29485   5.977   3.554   6.260
 9529SOL    HW129486   5.890   3.597   6.284
 9529SOL    HW229487   5.995   3.567   6.163
 9530SOL     OW29488   1.532   3.074   3.574
 9530SOL    HW129489   1.484   3.128   3.504
 9530SOL    HW229490   1.478   2.993   3.596
 9531SOL     OW29491   4.878   4.506   2.285
 9531SOL    HW129492   4.944   4.499   2.360
 9531SOL    HW229493   4.829   4.419   2.276
 9532SOL     OW29494   0.019   5.693   0.895
 9532SOL    HW129495   6.985   5.632   0.846
 9532SOL    HW229496   7.001   5.781   0.911
 9533SOL     OW29497   0.728   6.048   4.799
 9533SOL    HW129498   0.826   6.043   4.820
 9533SOL    HW229499   0.711   6.009   4.709
 9534SOL     OW29500   6.552   4.006   5.296
 9534SOL    HW129501   6.512   3.959   5.217
 9534SOL    HW229502   6.652   4.011   5.285
 9535SOL     OW29503   2.036   0.459   5.711
 9535SOL    HW129504   1.958   0.449   5.649
 9535SOL    HW229505   2.076   0.550   5.699
 9536SOL     OW29506   3.099   4.129   4.983
 9536SOL    HW129507   3.076   4.110   5.078
 9536SOL    HW229508   3.083   4.226   4.963
 9537SOL     OW29509   2.706   0.217   4.021
 9537SOL    HW129510   2.704   0.188   3.925
 9537SOL    HW229511   2.733   0.141   4.079
 9538SOL     OW29512   5.432   1.325   4.234
 9538SOL    HW129513   5.344   1.372   4.230
 9538SOL    HW229514   5.503   1.386   4.200
 9539SOL     OW29515   3.480   3.901   4.519
 9539SOL    HW129516   3.414   3.889   4.446
 9539SOL    HW229517   3.452   3.846   4.598
 9540SOL     OW29518   5.989   4.927   4.308
 9540SOL    HW129519   6.069   4.899   4.362
 9540SOL    HW229520   5.999   5.023   4.281
 9541SOL     OW29521   3.216   0.444   6.098
 9541SOL    HW129522   3.237   0.404   6.009
 9541SOL    HW229523   3.273   0.524   6.113
 9542SOL     OW29524   5.184   4.565   4.929
 9542SOL    HW129525   5.159   4.472   4.901
 9542SOL    HW229526   5.260   4.598   4.873
 9543SOL     OW29527   3.141   0.560   5.733
 9543SOL    HW129528   3.077   0.621   5.780
 9543SOL    HW229529   3.216   0.537   5.794
 9544SOL     OW29530   6.290   2.950   3.935
 9544SOL    HW129531   6.206   2.992   3.968
 9544SOL    HW229532   6.313   2.870   3.991
 9545SOL     OW29533   5.602   5.522   3.634
 9545SOL    HW129534   5.549   5.568   3.705
 9545SOL    HW229535   5.544   5.458   3.585
 9546SOL     OW29536   3.898   2.036   5.498
 9546SOL    HW129537   3.949   2.091   5.432
 9546SOL    HW229538   3.931   2.058   5.590
 9547SOL     OW29539   2.275   5.050   4.114
 9547SOL    HW129540   2.311   5.131   4.162
 9547SOL    HW229541   2.311   4.968   4.158
 9548SOL     OW29542   6.789   4.811   5.324
 9548SOL    HW129543   6.856   4.780   5.256
 9548SOL    HW229544   6.704   4.760   5.313
 9549SOL     OW29545   3.218   2.242   1.541
 9549SOL    HW129546   3.150   2.240   1.614
 9549SOL    HW229547   3.238   2.336   1.515
 9550SOL     OW29548   6.594   0.888   0.461
 9550SOL    HW129549   6.569   0.977   0.421
 9550SOL    HW229550   6.642   0.903   0.547
 9551SOL     OW29551   5.460   2.382   6.099
 9551SOL    HW129552   5.375   2.430   6.124
 9551SOL    HW229553   5.512   2.438   6.034
 9552SOL     OW29554   1.764   6.367   4.124
 9552SOL    HW129555   1.790   6.402   4.214
 9552SOL    HW229556   1.702   6.432   4.080
 9553SOL     OW29557   5.914   2.288   6.672
 9553SOL    HW129558   5.934   2.382   6.646
 9553SOL    HW229559   5.963   2.226   6.611
 9554SOL     OW29560   2.583   0.300   2.705
 9554SOL    HW129561   2.549   0.238   2.775
 9554SOL    HW229562   2.616   0.248   2.627
 9555SOL     OW29563   0.955   1.150   2.498
 9555SOL    HW129564   0.927   1.054   2.497
 9555SOL    HW229565   1.055   1.155   2.492
 9556SOL     OW29566   1.825   3.920   1.893
 9556SOL    HW129567   1.787   3.944   1.803
 9556SOL    HW229568   1.789   3.832   1.923
 9557SOL     OW29569   6.576   6.201   1.951
 9557SOL    HW129570   6.666   6.195   1.908
 9557SOL    HW229571   6.585   6.238   2.043
 9558SOL     OW29572   6.113   5.743   5.494
 9558SOL    HW129573   6.180   5.817   5.491
 9558SOL    HW229574   6.106   5.709   5.588
 9559SOL     OW29575   0.408   4.570   1.002
 9559SOL    HW129576   0.450   4.593   0.914
 9559SOL    HW229577   0.430   4.641   1.069
 9560SOL     OW29578   2.003   1.218   3.753
 9560SOL    HW129579   2.022   1.196   3.848
 9560SOL    HW229580   1.943   1.298   3.748
 9561SOL     OW29581   2.509   0.811   0.590
 9561SOL    HW129582   2.579   0.809   0.662
 9561SOL    HW229583   2.433   0.750   0.616
 9562SOL     OW29584   2.432   0.348   5.508
 9562SOL    HW129585   2.524   0.311   5.526
 9562SOL    HW229586   2.379   0.347   5.593
 9563SOL     OW29587   0.398   6.217   0.560
 9563SOL    HW129588   0.424   6.146   0.495
 9563SOL    HW229589   0.363   6.176   0.644
 9564SOL     OW29590   2.548   1.172   1.085
 9564SOL    HW129591   2.629   1.115   1.096
 9564SOL    HW229592   2.506   1.154   0.995
 9565SOL     OW29593   4.156   0.876   4.376
 9565SOL    HW129594   4.202   0.789   4.360
 9565SOL    HW229595   4.085   0.864   4.445
 9566SOL     OW29596   2.731   4.792   6.943
 9566SOL    HW129597   2.828   4.799   6.964
 9566SOL    HW229598   2.719   4.765   6.848
 9567SOL     OW29599   4.932   4.993   0.612
 9567SOL    HW129600   4.850   4.963   0.564
 9567SOL    HW229601   4.993   4.915   0.626
 9568SOL     OW29602   4.175   2.628   6.216
 9568SOL    HW129603   4.205   2.657   6.125
 9568SOL    HW229604   4.140   2.535   6.212
 9569SOL     OW29605   6.800   1.458   2.299
 9569SOL    HW129606   6.883   1.420   2.340
 9569SOL    HW229607   6.796   1.432   2.202
 9570SOL     OW29608   0.550   3.454   1.901
 9570SOL    HW129609   0.580   3.542   1.938
 9570SOL    HW229610   0.452   3.458   1.880
 9571SOL     OW29611   3.400   4.027   6.152
 9571SOL    HW129612   3.443   4.000   6.066
 9571SOL    HW229613   3.330   4.096   6.135
 9572SOL     OW29614   2.481   4.829   2.086
 9572SOL    HW129615   2.522   4.807   1.998
 9572SOL    HW229616   2.525   4.775   2.158
 9573SOL     OW29617   0.655   2.778   6.615
 9573SOL    HW129618   0.657   2.845   6.690
 9573SOL    HW229619   0.725   2.801   6.548
 9574SOL     OW29620   4.095   3.628   2.851
 9574SOL    HW129621   4.049   3.672   2.929
 9574SOL    HW229622   4.191   3.658   2.849
 9575SOL     OW29623   0.457   1.106   1.412
 9575SOL    HW129624   0.491   1.052   1.334
 9575SOL    HW229625   0.515   1.089   1.492
 9576SOL     OW29626   1.956   1.368   1.525
 9576SOL    HW129627   1.982   1.272   1.533
 9576SOL    HW229628   2.035   1.426   1.544
 9577SOL     OW29629   1.087   0.749   6.230
 9577SOL    HW129630   1.105   0.651   6.224
 9577SOL    HW229631   1.150   0.798   6.170
 9578SOL     OW29632   0.540   3.712   3.271
 9578SOL    HW129633   0.487   3.731   3.188
 9578SOL    HW229634   0.505   3.767   3.346
 9579SOL     OW29635   1.394   5.338   2.979
 9579SOL    HW129636   1.472   5.396   2.955
 9579SOL    HW229637   1.309   5.389   2.963
 9580SOL     OW29638   5.074   3.970   0.691
 9580SOL    HW129639   5.116   3.978   0.782
 9580SOL    HW229640   5.146   3.967   0.622
 9581SOL     OW29641   0.495   5.692   5.769
 9581SOL    HW129642   0.476   5.605   5.816
 9581SOL    HW229643   0.409   5.735   5.743
 9582SOL     OW29644   4.965   5.508   5.905
 9582SOL    HW129645   4.959   5.414   5.871
 9582SOL    HW229646   5.009   5.509   5.994
 9583SOL     OW29647   3.607   4.268   1.469
 9583SOL    HW129648   3.595   4.287   1.566
 9583SOL    HW229649   3.656   4.181   1.458
 9584SOL     OW29650   6.967   5.409   6.787
 9584SOL    HW129651   6.884   5.424   6.841
 9584SOL    HW229652   6.946   5.422   6.690
 9585SOL     OW29653   6.776   0.101   4.987
 9585SOL    HW129654   6.690   0.154   4.986
 9585SOL    HW229655   6.845   0.149   4.933
 9586SOL     OW29656   5.608   4.759   2.199
 9586SOL    HW129657   5.520   4.791   2.163
 9586SOL    HW229658   5.670   4.740   2.123
 9587SOL     OW29659   0.799   0.464   1.522
 9587SOL    HW129660   0.837   0.443   1.431
 9587SOL    HW229661   0.873   0.468   1.589
 9588SOL     OW29662   6.796   1.060   1.432
 9588SOL    HW129663   6.891   1.035   1.452
 9588SOL    HW229664   6.793   1.154   1.398
 9589SOL     OW29665   2.482   4.987   6.960
 9589SOL    HW129666   2.557   4.928   6.990
 9589SOL    HW229667   2.520   5.067   6.913
 9590SOL     OW29668   6.585   2.825   1.893
 9590SOL    HW129669   6.659   2.846   1.958
 9590SOL    HW229670   6.501   2.805   1.943
 9591SOL     OW29671   2.924   5.962   5.901
 9591SOL    HW129672   2.896   5.898   5.829
 9591SOL    HW229673   2.946   5.911   5.984
 9592SOL     OW29674   3.728   4.402   0.825
 9592SOL    HW129675   3.652   4.378   0.886
 9592SOL    HW229676   3.761   4.493   0.848
 9593SOL     OW29677   0.221   0.794   5.989
 9593SOL    HW129678   0.307   0.766   5.945
 9593SOL    HW229679   0.208   0.742   6.073
 9594SOL     OW29680   1.136   5.191   2.369
 9594SOL    HW129681   1.150   5.119   2.301
 9594SOL    HW229682   1.165   5.159   2.459
 9595SOL     OW29683   0.665   3.975   5.398
 9595SOL    HW129684   0.650   3.930   5.310
 9595SOL    HW229685   0.713   3.911   5.459
 9596SOL     OW29686   6.793   5.135   6.540
 9596SOL    HW129687   6.758   5.042   6.559
 9596SOL    HW229688   6.888   5.141   6.571
 9597SOL     OW29689   0.487   4.171   1.412
 9597SOL    HW129690   0.443   4.083   1.431
 9597SOL    HW229691   0.533   4.166   1.323
 9598SOL     OW29692   1.775   4.018   4.327
 9598SOL    HW129693   1.681   4.038   4.353
 9598SOL    HW229694   1.784   4.025   4.228
 9599SOL     OW29695   3.624   0.243   4.799
 9599SOL    HW129696   3.550   0.310   4.790
 9599SOL    HW229697   3.595   0.157   4.756
 9600SOL     OW29698   2.371   6.519   6.739
 9600SOL    HW129699   2.402   6.508   6.833
 9600SOL    HW229700   2.429   6.585   6.692
 9601SOL     OW29701   4.995   4.099   1.224
 9601SOL    HW129702   4.919   4.079   1.287
 9601SOL    HW229703   5.003   4.198   1.213
 9602SOL     OW29704   6.414   5.024   6.259
 9602SOL    HW129705   6.352   4.959   6.215
 9602SOL    HW229706   6.363   5.079   6.326
 9603SOL     OW29707   3.914   1.431   4.174
 9603SOL    HW129708   3.896   1.441   4.272
 9603SOL    HW229709   3.828   1.411   4.126
 9604SOL     OW29710   4.413   0.370   6.576
 9604SOL    HW129711   4.411   0.296   6.643
 9604SOL    HW229712   4.453   0.336   6.491
 9605SOL     OW29713   0.659   5.436   3.443
 9605SOL    HW129714   0.594   5.498   3.399
 9605SOL    HW229715   0.703   5.483   3.519
 9606SOL     OW29716   1.884   6.627   6.801
 9606SOL    HW129717   1.976   6.635   6.765
 9606SOL    HW229718   1.818   6.625   6.726
 9607SOL     OW29719   1.792   1.787   0.183
 9607SOL    HW129720   1.891   1.774   0.171
 9607SOL    HW229721   1.776   1.845   0.262
 9608SOL     OW29722   6.760   5.559   2.465
 9608SOL    HW129723   6.859   5.553   2.459
 9608SOL    HW229724   6.734   5.650   2.498
 9609SOL     OW29725   2.238   4.418   6.383
 9609SOL    HW129726   2.184   4.490   6.427
 9609SOL    HW229727   2.187   4.382   6.305
 9610SOL     OW29728   1.468   5.201   4.272
 9610SOL    HW129729   1.531   5.189   4.349
 9610SOL    HW229730   1.448   5.113   4.230
 9611SOL     OW29731   0.438   6.396   6.912
 9611SOL    HW129732   0.424   6.300   6.937
 9611SOL    HW229733   0.387   6.415   6.828
 9612SOL     OW29734   0.459   3.888   2.321
 9612SOL    HW129735   0.403   3.923   2.246
 9612SOL    HW229736   0.498   3.800   2.295
 9613SOL     OW29737   4.991   6.465   3.148
 9613SOL    HW129738   5.087   6.491   3.161
 9613SOL    HW229739   4.980   6.421   3.059
 9614SOL     OW29740   3.208   2.019   0.398
 9614SOL    HW129741   3.171   2.031   0.306
 9614SOL    HW229742   3.257   1.932   0.404
 9615SOL     OW29743   1.243   0.039   0.443
 9615SOL    HW129744   1.318   0.003   0.388
 9615SOL    HW229745   1.261   0.022   0.540
 9616SOL     OW29746   4.197   4.151   1.241
 9616SOL    HW129747   4.117   4.158   1.300
 9616SOL    HW229748   4.190   4.068   1.185
 9617SOL     OW29749   2.218   2.879   3.395
 9617SOL    HW129750   2.231   2.799   3.452
 9617SOL    HW229751   2.202   2.959   3.453
 9618SOL     OW29752   3.930   6.784   5.313
 9618SOL    HW129753   4.020   6.765   5.354
 9618SOL    HW229754   3.864   6.802   5.386
 9619SOL     OW29755   1.175   6.771   0.411
 9619SOL    HW129756   1.116   6.837   0.364
 9619SOL    HW229757   1.266   6.810   0.423
 9620SOL     OW29758   4.256   2.270   6.982
 9620SOL    HW129759   4.206   2.328   0.018
 9620SOL    HW229760   4.197   2.247   6.904
 9621SOL     OW29761   0.583   1.017   2.332
 9621SOL    HW129762   0.618   1.057   2.416
 9621SOL    HW229763   0.642   1.043   2.255
 9622SOL     OW29764   6.007   1.138   0.256
 9622SOL    HW129765   5.916   1.099   0.264
 9622SOL    HW229766   6.050   1.105   0.172
 9623SOL     OW29767   3.138   4.836   6.147
 9623SOL    HW129768   3.220   4.836   6.205
 9623SOL    HW229769   3.144   4.762   6.080
 9624SOL     OW29770   6.481   4.718   2.105
 9624SOL    HW129771   6.397   4.667   2.084
 9624SOL    HW229772   6.487   4.734   2.203
 9625SOL     OW29773   5.210   5.901   0.076
 9625SOL    HW129774   5.304   5.918   0.106
 9625SOL    HW229775   5.172   5.985   0.037
 9626SOL     OW29776   3.360   6.319   6.914
 9626SOL    HW129777   3.276   6.287   6.870
 9626SOL    HW229778   3.376   6.267   6.998
 9627SOL     OW29779   6.966   5.433   3.113
 9627SOL    HW129780   6.874   5.394   3.116
 9627SOL    HW229781   0.006   5.360   3.124
 9628SOL     OW29782   5.606   5.438   6.869
 9628SOL    HW129783   5.611   5.346   6.909
 9628SOL    HW229784   5.653   5.439   6.781
 9629SOL     OW29785   0.334   6.524   2.829
 9629SOL    HW129786   0.256   6.576   2.794
 9629SOL    HW229787   0.413   6.539   2.770
 9630SOL     OW29788   6.664   6.149   5.557
 9630SOL    HW129789   6.697   6.078   5.495
 9630SOL    HW229790   6.667   6.116   5.651
 9631SOL     OW29791   5.970   0.191   0.202
 9631SOL    HW129792   5.895   0.128   0.185
 9631SOL    HW229793   6.044   0.143   0.250
 9632SOL     OW29794   2.235   5.091   2.677
 9632SOL    HW129795   2.201   5.155   2.609
 9632SOL    HW229796   2.261   5.141   2.760
 9633SOL     OW29797   5.393   5.321   0.033
 9633SOL    HW129798   5.472   5.260   0.039
 9633SOL    HW229799   5.341   5.299   6.977
 9634SOL     OW29800   0.712   0.210   4.393
 9634SOL    HW129801   0.769   0.249   4.322
 9634SOL    HW229802   0.694   0.114   4.372
 9635SOL     OW29803   1.357   5.100   5.703
 9635SOL    HW129804   1.370   5.023   5.641
 9635SOL    HW229805   1.310   5.069   5.786
 9636SOL     OW29806   4.179   1.883   6.237
 9636SOL    HW129807   4.083   1.859   6.223
 9636SOL    HW229808   4.210   1.941   6.162
 9637SOL     OW29809   2.763   1.500   6.497
 9637SOL    HW129810   2.822   1.469   6.422
 9637SOL    HW229811   2.769   1.600   6.505
 9638SOL     OW29812   6.929   3.481   6.973
 9638SOL    HW129813   6.955   3.564   7.021
 9638SOL    HW229814   6.840   3.495   6.929
 9639SOL     OW29815   3.778   1.327   2.054
 9639SOL    HW129816   3.822   1.302   1.968
 9639SOL    HW229817   3.697   1.382   2.035
 9640SOL     OW29818   3.379   1.699   3.008
 9640SOL    HW129819   3.428   1.629   2.956
 9640SOL    HW229820   3.285   1.706   2.975
 9641SOL     OW29821   5.468   6.299   1.115
 9641SOL    HW129822   5.530   6.225   1.140
 9641SOL    HW229823   5.518   6.385   1.114
 9642SOL     OW29824   3.040   6.021   5.081
 9642SOL    HW129825   3.134   5.989   5.091
 9642SOL    HW229826   2.994   6.017   5.170
 9643SOL     OW29827   6.021   4.513   4.263
 9643SOL    HW129828   6.076   4.551   4.338
 9643SOL    HW229829   5.996   4.587   4.200
 9644SOL     OW29830   1.120   5.260   5.073
 9644SOL    HW129831   1.024   5.233   5.073
 9644SOL    HW229832   1.172   5.201   5.012
 9645SOL     OW29833   3.965   4.901   3.961
 9645SOL    HW129834   3.900   4.904   4.037
 9645SOL    HW229835   4.037   4.835   3.981
 9646SOL     OW29836   2.875   4.861   2.069
 9646SOL    HW129837   2.832   4.774   2.044
 9646SOL    HW229838   2.908   4.856   2.163
 9647SOL     OW29839   6.789   5.368   1.128
 9647SOL    HW129840   6.795   5.467   1.111
 9647SOL    HW229841   6.770   5.352   1.225
 9648SOL     OW29842   3.647   1.831   0.114
 9648SOL    HW129843   3.708   1.809   0.190
 9648SOL    HW229844   3.680   1.787   0.030
 9649SOL     OW29845   3.177   5.795   0.191
 9649SOL    HW129846   3.235   5.766   0.268
 9649SOL    HW229847   3.147   5.889   0.207
 9650SOL     OW29848   4.957   4.279   3.137
 9650SOL    HW129849   4.931   4.348   3.069
 9650SOL    HW229850   4.893   4.203   3.133
 9651SOL     OW29851   6.638   0.866   6.964
 9651SOL    HW129852   6.653   0.965   6.952
 9651SOL    HW229853   6.573   0.834   6.895
 9652SOL     OW29854   2.157   4.370   0.498
 9652SOL    HW129855   2.095   4.449   0.489
 9652SOL    HW229856   2.175   4.332   0.407
 9653SOL     OW29857   4.285   5.591   5.299
 9653SOL    HW129858   4.346   5.669   5.317
 9653SOL    HW229859   4.265   5.587   5.201
 9654SOL     OW29860   3.948   3.335   1.667
 9654SOL    HW129861   4.032   3.354   1.718
 9654SOL    HW229862   3.884   3.287   1.726
 9655SOL     OW29863   7.012   1.154   6.990
 9655SOL    HW129864   6.985   1.248   7.014
 9655SOL    HW229865   0.081   1.153   6.965
 9656SOL     OW29866   3.576   2.280   0.980
 9656SOL    HW129867   3.504   2.261   0.913
 9656SOL    HW229868   3.542   2.263   1.072
 9657SOL     OW29869   6.476   2.043   3.473
 9657SOL    HW129870   6.480   1.943   3.470
 9657SOL    HW229871   6.444   2.078   3.385
 9658SOL     OW29872   6.197   1.365   2.638
 9658SOL    HW129873   6.166   1.323   2.723
 9658SOL    HW229874   6.119   1.406   2.591
 9659SOL     OW29875   0.081   3.992   0.524
 9659SOL    HW129876   0.177   3.972   0.543
 9659SOL    HW229877   0.043   4.046   0.600
 9660SOL     OW29878   0.391   5.851   1.255
 9660SOL    HW129879   0.453   5.831   1.331
 9660SOL    HW229880   0.297   5.843   1.285
 9661SOL     OW29881   3.551   6.390   2.001
 9661SOL    HW129882   3.581   6.472   2.049
 9661SOL    HW229883   3.578   6.309   2.053
 9662SOL     OW29884   5.081   2.917   4.860
 9662SOL    HW129885   5.049   2.832   4.819
 9662SOL    HW229886   5.003   2.974   4.884
 9663SOL     OW29887   0.743   6.293   4.463
 9663SOL    HW129888   0.734   6.231   4.541
 9663SOL    HW229889   0.794   6.374   4.491
 9664SOL     OW29890   5.825   6.786   3.983
 9664SOL    HW129891   5.890   6.747   3.918
 9664SOL    HW229892   5.780   6.713   4.033
 9665SOL     OW29893   5.134   6.101   6.697
 9665SOL    HW129894   5.213   6.057   6.655
 9665SOL    HW229895   5.054   6.041   6.690
 9666SOL     OW29896   5.816   4.142   1.324
 9666SOL    HW129897   5.909   4.177   1.311
 9666SOL    HW229898   5.807   4.054   1.276
 9667SOL     OW29899   3.567   3.596   5.054
 9667SOL    HW129900   3.605   3.504   5.047
 9667SOL    HW229901   3.640   3.663   5.041
 9668SOL     OW29902   6.378   1.135   6.443
 9668SOL    HW129903   6.418   1.175   6.525
 9668SOL    HW229904   6.353   1.040   6.461
 9669SOL     OW29905   1.459   0.205   2.068
 9669SOL    HW129906   1.473   0.118   2.115
 9669SOL    HW229907   1.413   0.269   2.131
 9670SOL     OW29908   5.544   4.698   6.085
 9670SOL    HW129909   5.565   4.672   6.179
 9670SOL    HW229910   5.480   4.775   6.086
 9671SOL     OW29911   5.897   5.647   6.918
 9671SOL    HW129912   5.917   5.550   6.919
 9671SOL    HW229913   5.910   5.684   6.826
 9672SOL     OW29914   1.556   5.796   4.263
 9672SOL    HW129915   1.613   5.843   4.196
 9672SOL    HW229916   1.552   5.698   4.242
 9673SOL     OW29917   5.703   3.975   0.149
 9673SOL    HW129918   5.613   4.020   0.143
 9673SOL    HW229919   5.690   3.879   0.173
 9674SOL     OW29920   2.740   5.823   3.063
 9674SOL    HW129921   2.719   5.793   2.969
 9674SOL    HW229922   2.664   5.798   3.123
 9675SOL     OW29923   6.157   2.388   0.512
 9675SOL    HW129924   6.112   2.476   0.499
 9675SOL    HW229925   6.097   2.315   0.479
 9676SOL     OW29926   1.426   3.659   5.640
 9676SOL    HW129927   1.331   3.682   5.662
 9676SOL    HW229928   1.428   3.594   5.564
 9677SOL     OW29929   1.682   5.689   5.301
 9677SOL    HW129930   1.637   5.775   5.324
 9677SOL    HW229931   1.694   5.635   5.384
 9678SOL     OW29932   3.196   3.341   3.136
 9678SOL    HW129933   3.105   3.378   3.118
 9678SOL    HW229934   3.189   3.260   3.193
 9679SOL     OW29935   2.421   1.256   2.519
 9679SOL    HW129936   2.347   1.218   2.574
 9679SOL    HW229937   2.407   1.232   2.423
 9680SOL     OW29938   5.680   0.821   3.106
 9680SOL    HW129939   5.592   0.824   3.153
 9680SOL    HW229940   5.697   0.910   3.063
 9681SOL     OW29941   3.338   1.562   6.701
 9681SOL    HW129942   3.390   1.543   6.785
 9681SOL    HW229943   3.365   1.651   6.665
 9682SOL     OW29944   4.945   4.899   4.076
 9682SOL    HW129945   4.852   4.860   4.076
 9682SOL    HW229946   4.940   4.995   4.051
 9683SOL     OW29947   2.671   5.340   1.148
 9683SOL    HW129948   2.652   5.243   1.137
 9683SOL    HW229949   2.699   5.379   1.060
 9684SOL     OW29950   0.639   2.605   5.319
 9684SOL    HW129951   0.695   2.650   5.250
 9684SOL    HW229952   0.599   2.674   5.379
 9685SOL     OW29953   2.132   4.152   1.668
 9685SOL    HW129954   2.158   4.132   1.574
 9685SOL    HW229955   2.057   4.093   1.695
 9686SOL     OW29956   6.819   1.259   0.509
 9686SOL    HW129957   6.904   1.246   0.560
 9686SOL    HW229958   6.815   1.192   0.435
 9687SOL     OW29959   1.990   0.338   4.130
 9687SOL    HW129960   1.904   0.309   4.089
 9687SOL    HW229961   2.017   0.273   4.201
 9688SOL     OW29962   6.768   2.150   2.686
 9688SOL    HW129963   6.734   2.058   2.707
 9688SOL    HW229964   6.697   2.200   2.636
 9689SOL     OW29965   1.563   6.068   0.185
 9689SOL    HW129966   1.616   6.140   0.229
 9689SOL    HW229967   1.626   6.002   0.144
 9690SOL     OW29968   5.946   6.142   6.501
 9690SOL    HW129969   5.925   6.148   6.403
 9690SOL    HW229970   5.862   6.123   6.551
 9691SOL     OW29971   2.955   4.942   1.787
 9691SOL    HW129972   2.927   4.868   1.725
 9691SOL    HW229973   2.946   4.911   1.881
 9692SOL     OW29974   3.589   5.473   2.854
 9692SOL    HW129975   3.499   5.469   2.810
 9692SOL    HW229976   3.621   5.568   2.856
 9693SOL     OW29977   6.384   5.695   1.433
 9693SOL    HW129978   6.383   5.777   1.375
 9693SOL    HW229979   6.454   5.632   1.400
 9694SOL     OW29980   2.129   1.164   0.293
 9694SOL    HW129981   2.216   1.115   0.294
 9694SOL    HW229982   2.080   1.145   0.208
 9695SOL     OW29983   0.257   3.488   1.853
 9695SOL    HW129984   0.276   3.415   1.787
 9695SOL    HW229985   0.168   3.528   1.835
 9696SOL     OW29986   5.199   3.588   0.618
 9696SOL    HW129987   5.110   3.632   0.622
 9696SOL    HW229988   5.243   3.610   0.531
 9697SOL     OW29989   0.034   6.209   6.338
 9697SOL    HW129990   0.034   6.300   6.295
 9697SOL    HW229991   0.098   6.208   6.414
 9698SOL     OW29992   4.742   1.733   5.883
 9698SOL    HW129993   4.689   1.809   5.846
 9698SOL    HW229994   4.764   1.751   5.979
 9699SOL     OW29995   6.996   5.126   6.892
 9699SOL    HW129996   0.026   5.145   6.972
 9699SOL    HW229997   6.984   5.210   6.839
 9700SOL     OW29998   4.414   5.331   4.901
 9700SOL    HW129999   4.486   5.304   4.837
 9700SOL    HW230000   4.325   5.315   4.860
 9701SOL     OW30001   4.056   5.299   4.893
 9701SOL    HW130002   4.012   5.382   4.927
 9701SOL    HW230003   4.046   5.226   4.962
 9702SOL     OW30004   5.081   0.244   0.095
 9702SOL    HW130005   5.052   0.312   0.162
 9702SOL    HW230006   5.001   0.202   0.053
 9703SOL     OW30007   4.435   5.027   4.017
 9703SOL    HW130008   4.389   5.050   4.103
 9703SOL    HW230009   4.389   4.949   3.975
 9704SOL     OW30010   2.713   1.091   3.226
 9704SOL    HW130011   2.788   1.074   3.162
 9704SOL    HW230012   2.627   1.096   3.176
 9705SOL     OW30013   4.970   5.282   6.240
 9705SOL    HW130014   4.870   5.274   6.243
 9705SOL    HW230015   5.007   5.266   6.331
 9706SOL     OW30016   0.624   2.651   1.049
 9706SOL    HW130017   0.678   2.683   1.127
 9706SOL    HW230018   0.676   2.584   0.996
 9707SOL     OW30019   6.172   4.638   1.391
 9707SOL    HW130020   6.138   4.636   1.484
 9707SOL    HW230021   6.154   4.728   1.351
 9708SOL     OW30022   1.492   2.032   2.557
 9708SOL    HW130023   1.585   1.995   2.551
 9708SOL    HW230024   1.439   1.998   2.480
 9709SOL     OW30025   5.910   6.004   2.927
 9709SOL    HW130026   5.966   6.013   2.844
 9709SOL    HW230027   5.929   5.917   2.971
 9710SOL     OW30028   6.925   1.610   1.675
 9710SOL    HW130029   7.008   1.649   1.713
 9710SOL    HW230030   6.899   1.529   1.729
 9711SOL     OW30031   2.560   4.638   6.215
 9711SOL    HW130032   2.582   4.564   6.279
 9711SOL    HW230033   2.520   4.598   6.132
 9712SOL     OW30034   5.869   4.593   6.340
 9712SOL    HW130035   5.879   4.539   6.256
 9712SOL    HW230036   5.777   4.633   6.343
 9713SOL     OW30037   1.093   5.135   3.588
 9713SOL    HW130038   1.128   5.198   3.658
 9713SOL    HW230039   1.015   5.085   3.625
 9714SOL     OW30040   2.943   1.226   0.897
 9714SOL    HW130041   2.884   1.176   0.833
 9714SOL    HW230042   2.961   1.168   0.977
 9715SOL     OW30043   5.458   4.254   6.207
 9715SOL    HW130044   5.381   4.238   6.146
 9715SOL    HW230045   5.530   4.188   6.187
 9716SOL     OW30046   4.250   3.285   6.684
 9716SOL    HW130047   4.189   3.334   6.746
 9716SOL    HW230048   4.198   3.217   6.632
 9717SOL     OW30049   5.291   5.652   5.830
 9717SOL    HW130050   5.306   5.714   5.907
 9717SOL    HW230051   5.197   5.660   5.797
 9718SOL     OW30052   5.147   2.428   1.184
 9718SOL    HW130053   5.058   2.473   1.180
 9718SOL    HW230054   5.219   2.494   1.165
 9719SOL     OW30055   0.117   1.789   6.885
 9719SOL    HW130056   0.159   1.876   6.908
 9719SOL    HW230057   0.122   1.774   6.786
 9720SOL     OW30058   6.976   5.547   2.160
 9720SOL    HW130059   6.970   5.448   2.144
 9720SOL    HW230060   6.903   5.593   2.111
 9721SOL     OW30061   0.222   3.016   1.229
 9721SOL    HW130062   0.302   2.959   1.208
 9721SOL    HW230063   0.139   2.964   1.210
 9722SOL     OW30064   6.894   0.399   4.507
 9722SOL    HW130065   6.814   0.458   4.506
 9722SOL    HW230066   6.977   0.454   4.516
 9723SOL     OW30067   2.118   6.463   3.293
 9723SOL    HW130068   2.195   6.461   3.357
 9723SOL    HW230069   2.033   6.462   3.345
 9724SOL     OW30070   1.801   3.514   0.482
 9724SOL    HW130071   1.891   3.557   0.484
 9724SOL    HW230072   1.794   3.447   0.556
 9725SOL     OW30073   3.284   4.535   6.570
 9725SOL    HW130074   3.227   4.612   6.542
 9725SOL    HW230075   3.374   4.542   6.528
 9726SOL     OW30076   5.293   0.580   4.038
 9726SOL    HW130077   5.322   0.492   4.001
 9726SOL    HW230078   5.212   0.568   4.095
 9727SOL     OW30079   0.819   3.456   5.801
 9727SOL    HW130080   0.750   3.514   5.757
 9727SOL    HW230081   0.907   3.469   5.754
 9728SOL     OW30082   0.548   0.290   6.452
 9728SOL    HW130083   0.591   0.208   6.489
 9728SOL    HW230084   0.483   0.264   6.380
 9729SOL     OW30085   1.103   4.148   3.148
 9729SOL    HW130086   1.198   4.165   3.125
 9729SOL    HW230087   1.043   4.198   3.085
 9730SOL     OW30088   0.889   3.549   3.240
 9730SOL    HW130089   0.834   3.470   3.269
 9730SOL    HW230090   0.874   3.565   3.142
 9731SOL     OW30091   4.422   4.011   0.975
 9731SOL    HW130092   4.332   4.033   0.938
 9731SOL    HW230093   4.465   4.094   1.010
 9732SOL     OW30094   5.738   5.686   2.808
 9732SOL    HW130095   5.752   5.656   2.903
 9732SOL    HW230096   5.728   5.786   2.806
 9733SOL     OW30097   5.706   5.039   0.539
 9733SOL    HW130098   5.733   5.037   0.635
 9733SOL    HW230099   5.679   4.947   0.510
 9734SOL     OW30100   6.439   1.264   2.511
 9734SOL    HW130101   6.489   1.307   2.436
 9734SOL    HW230102   6.382   1.333   2.557
 9735SOL     OW30103   2.448   4.489   3.066
 9735SOL    HW130104   2.454   4.475   3.164
 9735SOL    HW230105   2.521   4.551   3.036
 9736SOL     OW30106   5.922   1.889   6.046
 9736SOL    HW130107   5.939   1.819   6.116
 9736SOL    HW230108   5.924   1.847   5.956
 9737SOL     OW30109   6.585   3.252   4.536
 9737SOL    HW130110   6.527   3.202   4.472
 9737SOL    HW230111   6.530   3.319   4.585
 9738SOL     OW30112   1.920   6.911   1.835
 9738SOL    HW130113   1.960   6.981   1.895
 9738SOL    HW230114   1.825   6.896   1.860
 9739SOL     OW30115   6.081   5.400   2.550
 9739SOL    HW130116   6.012   5.468   2.528
 9739SOL    HW230117   6.053   5.350   2.633
 9740SOL     OW30118   6.748   2.029   3.233
 9740SOL    HW130119   6.769   1.989   3.143
 9740SOL    HW230120   6.656   2.002   3.260
 9741SOL     OW30121   5.220   2.128   2.537
 9741SOL    HW130122   5.201   2.032   2.560
 9741SOL    HW230123   5.232   2.180   2.622
 9742SOL     OW30124   4.073   0.695   1.542
 9742SOL    HW130125   4.075   0.752   1.460
 9742SOL    HW230126   3.991   0.716   1.595
 9743SOL     OW30127   0.833   2.218   4.269
 9743SOL    HW130128   0.930   2.243   4.268
 9743SOL    HW230129   0.793   2.237   4.180
 9744SOL     OW30130   0.470   0.325   2.519
 9744SOL    HW130131   0.476   0.374   2.433
 9744SOL    HW230132   0.374   0.317   2.547
 9745SOL     OW30133   6.440   2.974   6.312
 9745SOL    HW130134   6.473   3.046   6.251
 9745SOL    HW230135   6.437   2.887   6.263
 9746SOL     OW30136   6.463   0.765   6.066
 9746SOL    HW130137   6.438   0.761   5.969
 9746SOL    HW230138   6.411   0.838   6.111
 9747SOL     OW30139   2.034   0.414   1.559
 9747SOL    HW130140   2.014   0.486   1.492
 9747SOL    HW230141   2.107   0.355   1.524
 9748SOL     OW30142   0.957   1.720   3.802
 9748SOL    HW130143   0.929   1.804   3.848
 9748SOL    HW230144   1.037   1.738   3.746
 9749SOL     OW30145   2.141   1.724   4.943
 9749SOL    HW130146   2.164   1.665   5.020
 9749SOL    HW230147   2.167   1.679   4.858
 9750SOL     OW30148   5.578   4.686   3.644
 9750SOL    HW130149   5.503   4.718   3.586
 9750SOL    HW230150   5.549   4.605   3.695
 9751SOL     OW30151   1.699   0.982   0.197
 9751SOL    HW130152   1.677   1.074   0.164
 9751SOL    HW230153   1.630   0.917   0.165
 9752SOL     OW30154   5.256   2.339   6.832
 9752SOL    HW130155   5.211   2.250   6.838
 9752SOL    HW230156   5.270   2.363   6.736
 9753SOL     OW30157   6.302   5.555   5.469
 9753SOL    HW130158   6.273   5.477   5.414
 9753SOL    HW230159   6.236   5.630   5.459
 9754SOL     OW30160   1.004   1.746   6.477
 9754SOL    HW130161   1.027   1.671   6.414
 9754SOL    HW230162   1.025   1.718   6.571
 9755SOL     OW30163   4.188   4.039   5.421
 9755SOL    HW130164   4.234   3.965   5.471
 9755SOL    HW230165   4.257   4.101   5.383
 9756SOL     OW30166   6.057   3.359   0.469
 9756SOL    HW130167   6.036   3.424   0.541
 9756SOL    HW230168   6.122   3.291   0.503
 9757SOL     OW30169   5.802   3.379   3.348
 9757SOL    HW130170   5.794   3.477   3.364
 9757SOL    HW230171   5.898   3.356   3.330
 9758SOL     OW30172   2.342   0.114   6.980
 9758SOL    HW130173   2.417   0.172   7.011
 9758SOL    HW230174   2.269   0.114   0.021
 9759SOL     OW30175   2.331   6.809   6.875
 9759SOL    HW130176   2.415   6.813   6.822
 9759SOL    HW230177   2.353   6.818   6.973
 9760SOL     OW30178   4.760   3.346   5.301
 9760SOL    HW130179   4.732   3.434   5.263
 9760SOL    HW230180   4.836   3.309   5.247
 9761SOL     OW30181   5.783   0.604   2.063
 9761SOL    HW130182   5.862   0.610   2.001
 9761SOL    HW230183   5.804   0.542   2.138
 9762SOL     OW30184   2.783   2.027   4.495
 9762SOL    HW130185   2.768   1.949   4.435
 9762SOL    HW230186   2.804   1.994   4.587
 9763SOL     OW30187   5.148   1.524   1.928
 9763SOL    HW130188   5.240   1.560   1.945
 9763SOL    HW230189   5.154   1.432   1.889
 9764SOL     OW30190   0.506   2.588   2.819
 9764SOL    HW130191   0.461   2.675   2.796
 9764SOL    HW230192   0.589   2.578   2.764
 9765SOL     OW30193   6.734   1.379   2.692
 9765SOL    HW130194   6.658   1.316   2.705
 9765SOL    HW230195   6.712   1.444   2.619
 9766SOL     OW30196   2.868   0.684   3.171
 9766SOL    HW130197   2.820   0.752   3.115
 9766SOL    HW230198   2.954   0.659   3.128
 9767SOL     OW30199   5.304   1.798   5.488
 9767SOL    HW130200   5.323   1.818   5.584
 9767SOL    HW230201   5.206   1.801   5.472
 9768SOL     OW30202   4.911   1.418   2.031
 9768SOL    HW130203   4.862   1.499   2.062
 9768SOL    HW230204   4.997   1.445   1.987
 9769SOL     OW30205   2.440   0.681   2.338
 9769SOL    HW130206   2.422   0.640   2.427
 9769SOL    HW230207   2.485   0.769   2.351
 9770SOL     OW30208   5.352   0.633   7.005
 9770SOL    HW130209   5.377   0.575   6.927
 9770SOL    HW230210   5.270   0.596   0.021
 9771SOL     OW30211   3.272   5.177   1.312
 9771SOL    HW130212   3.369   5.203   1.309
 9771SOL    HW230213   3.235   5.198   1.402
 9772SOL     OW30214   1.155   6.411   3.096
 9772SOL    HW130215   1.132   6.476   3.024
 9772SOL    HW230216   1.243   6.436   3.137
 9773SOL     OW30217   5.559   6.489   4.313
 9773SOL    HW130218   5.496   6.481   4.236
 9773SOL    HW230219   5.633   6.553   4.290
 9774SOL     OW30220   5.989   5.009   1.625
 9774SOL    HW130221   6.080   4.974   1.604
 9774SOL    HW230222   5.922   4.935   1.621
 9775SOL     OW30223   2.348   1.020   3.683
 9775SOL    HW130224   2.430   0.988   3.730
 9775SOL    HW230225   2.359   1.116   3.658
 9776SOL     OW30226   0.318   5.732   4.382
 9776SOL    HW130227   0.304   5.677   4.464
 9776SOL    HW230228   0.290   5.679   4.301
 9777SOL     OW30229   5.411   4.481   5.951
 9777SOL    HW130230   5.472   4.401   5.949
 9777SOL    HW230231   5.465   4.562   5.972
 9778SOL     OW30232   0.892   0.985   3.410
 9778SOL    HW130233   0.816   0.995   3.345
 9778SOL    HW230234   0.855   0.968   3.501
 9779SOL     OW30235   2.016   1.026   4.997
 9779SOL    HW130236   2.063   0.975   5.069
 9779SOL    HW230237   1.950   0.967   4.951
 9780SOL     OW30238   2.564   2.123   0.812
 9780SOL    HW130239   2.628   2.052   0.841
 9780SOL    HW230240   2.476   2.082   0.788
 9781SOL     OW30241   0.980   3.860   4.346
 9781SOL    HW130242   0.934   3.773   4.328
 9781SOL    HW230243   1.061   3.843   4.402
 9782SOL     OW30244   6.742   1.107   1.746
 9782SOL    HW130245   6.687   1.058   1.678
 9782SOL    HW230246   6.815   1.157   1.700
 9783SOL     OW30247   5.263   2.307   2.774
 9783SOL    HW130248   5.309   2.342   2.856
 9783SOL    HW230249   5.165   2.303   2.791
 9784SOL     OW30250   3.588   1.829   4.299
 9784SOL    HW130251   3.622   1.764   4.231
 9784SOL    HW230252   3.515   1.884   4.259
 9785SOL     OW30253   6.885   3.915   5.741
 9785SOL    HW130254   6.888   3.914   5.841
 9785SOL    HW230255   6.790   3.902   5.711
 9786SOL     OW30256   2.265   5.232   6.418
 9786SOL    HW130257   2.243   5.319   6.463
 9786SOL    HW230258   2.180   5.190   6.385
 9787SOL     OW30259   4.538   3.452   1.698
 9787SOL    HW130260   4.617   3.513   1.696
 9787SOL    HW230261   4.460   3.497   1.654
 9788SOL     OW30262   0.254   0.463   3.967
 9788SOL    HW130263   0.321   0.406   3.920
 9788SOL    HW230264   0.190   0.501   3.901
 9789SOL     OW30265   1.421   5.675   0.227
 9789SOL    HW130266   1.339   5.628   0.260
 9789SOL    HW230267   1.413   5.773   0.245
 9790SOL     OW30268   5.810   3.952   5.667
 9790SOL    HW130269   5.799   4.006   5.583
 9790SOL    HW230270   5.729   3.896   5.682
 9791SOL     OW30271   7.001   1.722   2.848
 9791SOL    HW130272   0.037   1.666   2.901
 9791SOL    HW230273   6.921   1.667   2.823
 9792SOL     OW30274   5.550   5.502   2.308
 9792SOL    HW130275   5.640   5.479   2.270
 9792SOL    HW230276   5.560   5.527   2.404
 9793SOL     OW30277   5.585   5.002   3.378
 9793SOL    HW130278   5.515   4.933   3.390
 9793SOL    HW230279   5.595   5.056   3.462
 9794SOL     OW30280   6.347   4.772   6.853
 9794SOL    HW130281   6.409   4.693   6.858
 9794SOL    HW230282   6.262   4.744   6.808
 9795SOL     OW30283   1.443   2.211   4.133
 9795SOL    HW130284   1.427   2.268   4.213
 9795SOL    HW230285   1.508   2.139   4.157
 9796SOL     OW30286   4.189   2.609   1.378
 9796SOL    HW130287   4.289   2.614   1.387
 9796SOL    HW230288   4.149   2.699   1.398
 9797SOL     OW30289   3.547   5.172   6.461
 9797SOL    HW130290   3.589   5.123   6.385
 9797SOL    HW230291   3.611   5.241   6.496
 9798SOL     OW30292   2.455   0.618   1.046
 9798SOL    HW130293   2.408   0.684   1.104
 9798SOL    HW230294   2.536   0.582   1.094
 9799SOL     OW30295   3.380   3.754   3.194
 9799SOL    HW130296   3.332   3.687   3.249
 9799SOL    HW230297   3.395   3.717   3.102
 9800SOL     OW30298   2.972   6.606   5.353
 9800SOL    HW130299   3.062   6.566   5.342
 9800SOL    HW230300   2.969   6.659   5.438
 9801SOL     OW30301   4.759   4.493   0.255
 9801SOL    HW130302   4.773   4.513   0.352
 9801SOL    HW230303   4.782   4.574   0.200
 9802SOL     OW30304   0.796   2.669   2.270
 9802SOL    HW130305   0.755   2.734   2.334
 9802SOL    HW230306   0.888   2.645   2.300
 9803SOL     OW30307   6.268   1.585   0.470
 9803SOL    HW130308   6.237   1.632   0.553
 9803SOL    HW230309   6.228   1.493   0.467
 9804SOL     OW30310   0.777   6.149   2.853
 9804SOL    HW130311   0.797   6.151   2.951
 9804SOL    HW230312   0.859   6.121   2.803
 9805SOL     OW30313   1.214   6.117   5.520
 9805SOL    HW130314   1.306   6.154   5.534
 9805SOL    HW230315   1.176   6.152   5.434
 9806SOL     OW30316   1.165   2.111   0.259
 9806SOL    HW130317   1.220   2.116   0.176
 9806SOL    HW230318   1.180   2.023   0.304
 9807SOL     OW30319   1.949   2.758   6.914
 9807SOL    HW130320   1.903   2.671   6.932
 9807SOL    HW230321   1.883   2.825   6.880
 9808SOL     OW30322   5.803   1.284   5.751
 9808SOL    HW130323   5.811   1.191   5.785
 9808SOL    HW230324   5.820   1.285   5.653
 9809SOL     OW30325   1.086   2.026   6.571
 9809SOL    HW130326   1.128   2.102   6.521
 9809SOL    HW230327   1.134   2.013   6.658
 9810SOL     OW30328   2.479   2.488   4.095
 9810SOL    HW130329   2.469   2.535   4.007
 9810SOL    HW230330   2.464   2.552   4.170
 9811SOL     OW30331   5.369   5.849   4.252
 9811SOL    HW130332   5.273   5.839   4.229
 9811SOL    HW230333   5.386   5.941   4.287
 9812SOL     OW30334   3.121   2.359   5.989
 9812SOL    HW130335   3.156   2.266   5.974
 9812SOL    HW230336   3.041   2.373   5.930
 9813SOL     OW30337   5.692   0.262   6.929
 9813SOL    HW130338   5.783   0.251   6.969
 9813SOL    HW230339   5.623   0.241   6.997
 9814SOL     OW30340   0.809   1.209   6.914
 9814SOL    HW130341   0.884   1.275   6.919
 9814SOL    HW230342   0.777   1.202   6.820
 9815SOL     OW30343   6.127   3.559   2.418
 9815SOL    HW130344   6.045   3.614   2.404
 9815SOL    HW230345   6.104   3.462   2.412
 9816SOL     OW30346   6.976   1.264   6.494
 9816SOL    HW130347   0.034   1.215   6.509
 9816SOL    HW230348   6.965   1.284   6.397
 9817SOL     OW30349   2.959   5.651   2.479
 9817SOL    HW130350   2.961   5.552   2.469
 9817SOL    HW230351   2.907   5.675   2.561
 9818SOL     OW30352   1.899   0.994   4.039
 9818SOL    HW130353   1.849   0.928   3.982
 9818SOL    HW230354   1.988   1.014   3.997
 9819SOL     OW30355   5.272   3.035   5.302
 9819SOL    HW130356   5.289   2.999   5.210
 9819SOL    HW230357   5.254   2.958   5.364
 9820SOL     OW30358   3.744   3.270   6.721
 9820SOL    HW130359   3.760   3.174   6.700
 9820SOL    HW230360   3.697   3.314   6.644
 9821SOL     OW30361   4.268   1.379   0.751
 9821SOL    HW130362   4.172   1.405   0.743
 9821SOL    HW230363   4.287   1.350   0.844
 9822SOL     OW30364   3.516   5.532   3.712
 9822SOL    HW130365   3.509   5.629   3.687
 9822SOL    HW230366   3.442   5.481   3.668
 9823SOL     OW30367   2.107   0.083   1.993
 9823SOL    HW130368   2.032   0.072   2.058
 9823SOL    HW230369   2.091   0.165   1.937
 9824SOL     OW30370   2.040   5.769   4.978
 9824SOL    HW130371   2.127   5.768   5.027
 9824SOL    HW230372   1.970   5.813   5.035
 9825SOL     OW30373   5.967   6.274   5.032
 9825SOL    HW130374   5.914   6.340   5.086
 9825SOL    HW230375   6.065   6.292   5.045
 9826SOL     OW30376   3.729   6.306   5.418
 9826SOL    HW130377   3.719   6.305   5.518
 9826SOL    HW230378   3.743   6.400   5.387
 9827SOL     OW30379   2.130   3.721   3.364
 9827SOL    HW130380   2.188   3.801   3.378
 9827SOL    HW230381   2.104   3.683   3.453
 9828SOL     OW30382   2.843   2.296   4.976
 9828SOL    HW130383   2.834   2.379   5.032
 9828SOL    HW230384   2.937   2.263   4.981
 9829SOL     OW30385   4.665   5.891   6.387
 9829SOL    HW130386   4.753   5.940   6.384
 9829SOL    HW230387   4.652   5.841   6.301
 9830SOL     OW30388   4.933   1.885   1.499
 9830SOL    HW130389   4.972   1.936   1.575
 9830SOL    HW230390   4.970   1.792   1.499
 9831SOL     OW30391   0.562   4.577   2.260
 9831SOL    HW130392   0.534   4.498   2.316
 9831SOL    HW230393   0.532   4.563   2.166
 9832SOL     OW30394   4.551   5.734   2.992
 9832SOL    HW130395   4.494   5.778   3.062
 9832SOL    HW230396   4.545   5.634   3.002
 9833SOL     OW30397   3.755   2.906   3.179
 9833SOL    HW130398   3.665   2.943   3.200
 9833SOL    HW230399   3.754   2.869   3.085
 9834SOL     OW30400   1.724   4.733   5.533
 9834SOL    HW130401   1.635   4.780   5.527
 9834SOL    HW230402   1.797   4.799   5.514
 9835SOL     OW30403   3.620   3.420   4.176
 9835SOL    HW130404   3.664   3.505   4.149
 9835SOL    HW230405   3.640   3.401   4.272
 9836SOL     OW30406   0.691   4.478   4.487
 9836SOL    HW130407   0.611   4.421   4.468
 9836SOL    HW230408   0.770   4.420   4.507
 9837SOL     OW30409   5.477   0.669   2.286
 9837SOL    HW130410   5.429   0.729   2.221
 9837SOL    HW230411   5.572   0.659   2.259
 9838SOL     OW30412   1.555   6.989   0.862
 9838SOL    HW130413   1.640   6.977   0.811
 9838SOL    HW230414   1.572   0.014   0.945
 9839SOL     OW30415   4.644   6.834   3.005
 9839SOL    HW130416   4.555   6.815   3.045
 9839SOL    HW230417   4.649   6.930   2.979
 9840SOL     OW30418   4.781   1.828   0.537
 9840SOL    HW130419   4.751   1.916   0.502
 9840SOL    HW230420   4.810   1.838   0.633
 9841SOL     OW30421   0.643   5.062   3.402
 9841SOL    HW130422   0.697   5.108   3.331
 9841SOL    HW230423   0.561   5.116   3.422
 9842SOL     OW30424   3.490   2.934   0.498
 9842SOL    HW130425   3.493   2.954   0.595
 9842SOL    HW230426   3.490   3.019   0.446
 9843SOL     OW30427   0.069   0.128   1.911
 9843SOL    HW130428   0.072   0.035   1.947
 9843SOL    HW230429   0.129   0.187   1.965
 9844SOL     OW30430   6.049   1.124   3.933
 9844SOL    HW130431   5.959   1.169   3.929
 9844SOL    HW230432   6.074   1.109   4.029
 9845SOL     OW30433   1.385   2.625   2.506
 9845SOL    HW130434   1.469   2.656   2.550
 9845SOL    HW230435   1.320   2.595   2.576
 9846SOL     OW30436   4.757   1.512   0.723
 9846SOL    HW130437   4.794   1.594   0.767
 9846SOL    HW230438   4.745   1.440   0.791
 9847SOL     OW30439   3.856   2.984   2.087
 9847SOL    HW130440   3.855   3.011   2.183
 9847SOL    HW230441   3.901   2.896   2.077
 9848SOL     OW30442   3.959   4.665   5.688
 9848SOL    HW130443   3.981   4.738   5.623
 9848SOL    HW230444   3.876   4.690   5.738
 9849SOL     OW30445   0.978   6.892   6.890
 9849SOL    HW130446   0.945   6.954   6.818
 9849SOL    HW230447   0.937   6.802   6.877
 9850SOL     OW30448   0.163   0.603   3.493
 9850SOL    HW130449   0.226   0.673   3.527
 9850SOL    HW230450   0.083   0.599   3.553
 9851SOL     OW30451   2.626   6.331   4.658
 9851SOL    HW130452   2.721   6.317   4.627
 9851SOL    HW230453   2.567   6.265   4.611
 9852SOL     OW30454   1.605   1.417   4.957
 9852SOL    HW130455   1.524   1.358   4.952
 9852SOL    HW230456   1.613   1.470   4.873
 9853SOL     OW30457   6.446   3.431   5.546
 9853SOL    HW130458   6.492   3.342   5.539
 9853SOL    HW230459   6.511   3.503   5.523
 9854SOL     OW30460   0.800   5.767   4.928
 9854SOL    HW130461   0.813   5.860   4.893
 9854SOL    HW230462   0.731   5.768   5.001
 9855SOL     OW30463   1.349   3.189   1.024
 9855SOL    HW130464   1.311   3.096   1.026
 9855SOL    HW230465   1.408   3.203   1.104
 9856SOL     OW30466   5.286   4.628   4.116
 9856SOL    HW130467   5.254   4.661   4.027
 9856SOL    HW230468   5.376   4.666   4.135
 9857SOL     OW30469   5.399   3.096   2.722
 9857SOL    HW130470   5.465   3.159   2.682
 9857SOL    HW230471   5.444   3.040   2.792
 9858SOL     OW30472   0.627   6.591   1.645
 9858SOL    HW130473   0.725   6.585   1.627
 9858SOL    HW230474   0.594   6.683   1.621
 9859SOL     OW30475   6.935   4.645   4.496
 9859SOL    HW130476   6.855   4.584   4.496
 9859SOL    HW230477   7.015   4.594   4.464
 9860SOL     OW30478   1.471   2.153   4.854
 9860SOL    HW130479   1.448   2.067   4.900
 9860SOL    HW230480   1.388   2.209   4.847
 9861SOL     OW30481   3.051   0.466   3.720
 9861SOL    HW130482   3.048   0.562   3.693
 9861SOL    HW230483   3.026   0.408   3.642
 9862SOL     OW30484   2.826   3.849   0.720
 9862SOL    HW130485   2.834   3.946   0.743
 9862SOL    HW230486   2.730   3.824   0.710
 9863SOL     OW30487   3.168   5.608   1.027
 9863SOL    HW130488   3.230   5.684   1.011
 9863SOL    HW230489   3.183   5.572   1.119
 9864SOL     OW30490   3.251   0.810   5.354
 9864SOL    HW130491   3.175   0.868   5.324
 9864SOL    HW230492   3.225   0.714   5.348
 9865SOL     OW30493   0.706   6.315   4.812
 9865SOL    HW130494   0.688   6.217   4.821
 9865SOL    HW230495   0.773   6.343   4.881
 9866SOL     OW30496   6.153   4.383   4.805
 9866SOL    HW130497   6.216   4.310   4.780
 9866SOL    HW230498   6.202   4.470   4.807
 9867SOL     OW30499   6.469   2.705   2.476
 9867SOL    HW130500   6.501   2.680   2.385
 9867SOL    HW230501   6.421   2.627   2.517
 9868SOL     OW30502   0.460   3.674   4.450
 9868SOL    HW130503   0.441   3.711   4.359
 9868SOL    HW230504   0.558   3.678   4.468
 9869SOL     OW30505   0.817   2.799   1.202
 9869SOL    HW130506   0.833   2.871   1.270
 9869SOL    HW230507   0.905   2.764   1.170
 9870SOL     OW30508   4.339   0.594   2.853
 9870SOL    HW130509   4.252   0.546   2.868
 9870SOL    HW230510   4.357   0.600   2.755
 9871SOL     OW30511   6.970   3.390   5.908
 9871SOL    HW130512   6.918   3.376   5.992
 9871SOL    HW230513   6.950   3.317   5.843
 9872SOL     OW30514   2.237   5.186   5.123
 9872SOL    HW130515   2.255   5.231   5.210
 9872SOL    HW230516   2.210   5.091   5.139
 9873SOL     OW30517   2.053   2.188   5.919
 9873SOL    HW130518   1.976   2.134   5.885
 9873SOL    HW230519   2.095   2.237   5.843
 9874SOL     OW30520   0.418   3.372   4.904
 9874SOL    HW130521   0.438   3.464   4.939
 9874SOL    HW230522   0.362   3.323   4.971
 9875SOL     OW30523   6.756   5.915   2.443
 9875SOL    HW130524   6.775   5.879   2.351
 9875SOL    HW230525   6.841   5.917   2.495
 9876SOL     OW30526   5.050   0.901   4.460
 9876SOL    HW130527   5.124   0.910   4.527
 9876SOL    HW230528   4.996   0.819   4.480
 9877SOL     OW30529   6.727   4.377   4.433
 9877SOL    HW130530   6.664   4.392   4.356
 9877SOL    HW230531   6.679   4.395   4.519
 9878SOL     OW30532   2.371   4.094   6.863
 9878SOL    HW130533   2.424   4.153   6.802
 9878SOL    HW230534   2.280   4.134   6.876
 9879SOL     OW30535   0.388   4.628   5.614
 9879SOL    HW130536   0.442   4.544   5.619
 9879SOL    HW230537   0.448   4.707   5.626
 9880SOL     OW30538   2.199   0.400   0.369
 9880SOL    HW130539   2.219   0.471   0.302
 9880SOL    HW230540   2.282   0.348   0.389
 9881SOL     OW30541   6.464   1.048   4.516
 9881SOL    HW130542   6.383   1.016   4.466
 9881SOL    HW230543   6.440   1.128   4.571
 9882SOL     OW30544   3.749   3.385   4.964
 9882SOL    HW130545   3.666   3.340   4.932
 9882SOL    HW230546   3.803   3.321   5.019
 9883SOL     OW30547   1.646   5.719   1.721
 9883SOL    HW130548   1.616   5.626   1.702
 9883SOL    HW230549   1.689   5.722   1.811
 9884SOL     OW30550   3.483   2.288   0.281
 9884SOL    HW130551   3.431   2.350   0.222
 9884SOL    HW230552   3.496   2.201   0.234
 9885SOL     OW30553   1.116   3.458   4.139
 9885SOL    HW130554   1.121   3.521   4.061
 9885SOL    HW230555   1.060   3.499   4.211
 9886SOL     OW30556   6.649   6.812   2.099
 9886SOL    HW130557   6.649   6.768   2.009
 9886SOL    HW230558   6.558   6.804   2.140
 9887SOL     OW30559   3.247   0.060   0.683
 9887SOL    HW130560   3.286   0.121   0.753
 9887SOL    HW230561   3.319   0.005   0.643
 9888SOL     OW30562   5.681   5.917   3.467
 9888SOL    HW130563   5.721   5.997   3.511
 9888SOL    HW230564   5.581   5.923   3.471
 9889SOL     OW30565   1.158   5.148   2.668
 9889SOL    HW130566   1.170   5.054   2.697
 9889SOL    HW230567   1.096   5.195   2.731
 9890SOL     OW30568   6.511   3.043   0.326
 9890SOL    HW130569   6.517   2.976   0.400
 9890SOL    HW230570   6.602   3.073   0.300
 9891SOL     OW30571   5.166   5.080   1.630
 9891SOL    HW130572   5.145   5.175   1.607
 9891SOL    HW230573   5.178   5.027   1.546
 9892SOL     OW30574   2.080   5.440   3.896
 9892SOL    HW130575   2.027   5.519   3.927
 9892SOL    HW230576   2.019   5.361   3.888
 9893SOL     OW30577   6.456   6.096   2.399
 9893SOL    HW130578   6.515   6.155   2.344
 9893SOL    HW230579   6.476   6.000   2.378
 9894SOL     OW30580   2.698   1.176   6.630
 9894SOL    HW130581   2.638   1.118   6.576
 9894SOL    HW230582   2.722   1.258   6.577
 9895SOL     OW30583   6.468   2.061   5.667
 9895SOL    HW130584   6.540   2.055   5.598
 9895SOL    HW230585   6.401   2.129   5.640
 9896SOL     OW30586   4.675   2.694   0.844
 9896SOL    HW130587   4.589   2.743   0.860
 9896SOL    HW230588   4.750   2.744   0.887
 9897SOL     OW30589   5.296   1.129   2.401
 9897SOL    HW130590   5.317   1.154   2.306
 9897SOL    HW230591   5.313   1.208   2.460
 9898SOL     OW30592   0.788   5.396   5.215
 9898SOL    HW130593   0.830   5.475   5.171
 9898SOL    HW230594   0.831   5.312   5.181
 9899SOL     OW30595   6.164   4.536   2.056
 9899SOL    HW130596   6.159   4.557   2.154
 9899SOL    HW230597   6.157   4.437   2.043
 9900SOL     OW30598   2.187   1.971   2.634
 9900SOL    HW130599   2.168   2.070   2.632
 9900SOL    HW230600   2.140   1.930   2.711
 9901SOL     OW30601   1.213   2.603   0.521
 9901SOL    HW130602   1.147   2.627   0.592
 9901SOL    HW230603   1.188   2.514   0.482
 9902SOL     OW30604   3.501   3.032   1.170
 9902SOL    HW130605   3.490   2.948   1.117
 9902SOL    HW230606   3.567   3.017   1.244
 9903SOL     OW30607   4.565   0.350   2.680
 9903SOL    HW130608   4.589   0.382   2.772
 9903SOL    HW230609   4.629   0.278   2.652
 9904SOL     OW30610   0.009   3.201   6.668
 9904SOL    HW130611   6.970   3.271   6.641
 9904SOL    HW230612   0.022   3.204   6.767
 9905SOL     OW30613   1.728   6.716   0.732
 9905SOL    HW130614   1.659   6.720   0.803
 9905SOL    HW230615   1.813   6.758   0.765
 9906SOL     OW30616   1.466   3.056   0.197
 9906SOL    HW130617   1.559   3.075   0.229
 9906SOL    HW230618   1.404   3.126   0.233
 9907SOL     OW30619   2.791   0.304   3.286
 9907SOL    HW130620   2.731   0.229   3.314
 9907SOL    HW230621   2.803   0.302   3.187
 9908SOL     OW30622   0.766   3.314   6.260
 9908SOL    HW130623   0.825   3.328   6.340
 9908SOL    HW230624   0.798   3.372   6.185
 9909SOL     OW30625   3.712   0.789   3.234
 9909SOL    HW130626   3.730   0.874   3.284
 9909SOL    HW230627   3.621   0.756   3.258
 9910SOL     OW30628   0.011   4.935   1.751
 9910SOL    HW130629   0.080   4.904   1.686
 9910SOL    HW230630   6.984   5.008   1.710
 9911SOL     OW30631   5.035   5.115   3.329
 9911SOL    HW130632   4.998   5.172   3.403
 9911SOL    HW230633   5.098   5.048   3.368
 9912SOL     OW30634   4.519   0.802   2.977
 9912SOL    HW130635   4.469   0.734   2.924
 9912SOL    HW230636   4.501   0.893   2.939
 9913SOL     OW30637   6.262   3.116   2.125
 9913SOL    HW130638   6.229   3.095   2.217
 9913SOL    HW230639   6.185   3.135   2.065
 9914SOL     OW30640   0.823   0.848   5.650
 9914SOL    HW130641   0.876   0.798   5.717
 9914SOL    HW230642   0.801   0.940   5.685
 9915SOL     OW30643   5.352   3.919   3.981
 9915SOL    HW130644   5.377   4.012   3.955
 9915SOL    HW230645   5.412   3.854   3.934
 9916SOL     OW30646   2.894   1.933   4.127
 9916SOL    HW130647   2.819   1.877   4.162
 9916SOL    HW230648   2.907   1.914   4.029
 9917SOL     OW30649   3.261   2.997   4.494
 9917SOL    HW130650   3.262   3.000   4.394
 9917SOL    HW230651   3.352   2.976   4.528
 9918SOL     OW30652   1.376   1.408   0.500
 9918SOL    HW130653   1.403   1.312   0.493
 9918SOL    HW230654   1.434   1.464   0.440
 9919SOL     OW30655   2.139   4.638   2.434
 9919SOL    HW130656   2.074   4.617   2.507
 9919SOL    HW230657   2.228   4.659   2.474
 9920SOL     OW30658   3.510   1.081   2.889
 9920SOL    HW130659   3.442   1.045   2.825
 9920SOL    HW230660   3.464   1.118   2.970
 9921SOL     OW30661   5.795   6.339   3.954
 9921SOL    HW130662   5.704   6.331   3.913
 9921SOL    HW230663   5.861   6.289   3.897
 9922SOL     OW30664   4.482   4.374   0.495
 9922SOL    HW130665   4.416   4.300   0.479
 9922SOL    HW230666   4.561   4.338   0.543
 9923SOL     OW30667   6.955   2.994   0.486
 9923SOL    HW130668   7.010   3.074   0.509
 9923SOL    HW230669   6.898   2.968   0.564
 9924SOL     OW30670   5.578   1.550   1.765
 9924SOL    HW130671   5.584   1.650   1.766
 9924SOL    HW230672   5.661   1.511   1.727
 9925SOL     OW30673   2.051   4.346   5.301
 9925SOL    HW130674   2.038   4.258   5.255
 9925SOL    HW230675   2.036   4.421   5.236
 9926SOL     OW30676   3.397   2.429   1.426
 9926SOL    HW130677   3.430   2.509   1.375
 9926SOL    HW230678   3.439   2.427   1.516
 9927SOL     OW30679   1.029   2.645   1.321
 9927SOL    HW130680   0.988   2.565   1.363
 9927SOL    HW230681   1.118   2.663   1.362
 9928SOL     OW30682   6.200   4.639   2.319
 9928SOL    HW130683   6.208   4.554   2.372
 9928SOL    HW230684   6.129   4.697   2.360
 9929SOL     OW30685   2.727   4.127   5.461
 9929SOL    HW130686   2.706   4.057   5.392
 9929SOL    HW230687   2.716   4.218   5.420
 9930SOL     OW30688   6.886   0.552   5.698
 9930SOL    HW130689   6.800   0.508   5.723
 9930SOL    HW230690   6.962   0.506   5.745
 9931SOL     OW30691   0.229   5.587   5.054
 9931SOL    HW130692   0.280   5.669   5.029
 9931SOL    HW230693   0.164   5.608   5.127
 9932SOL     OW30694   1.592   2.223   0.584
 9932SOL    HW130695   1.535   2.152   0.544
 9932SOL    HW230696   1.560   2.242   0.677
 9933SOL     OW30697   2.171   0.939   3.928
 9933SOL    HW130698   2.196   0.983   3.842
 9933SOL    HW230699   2.227   0.976   4.002
 9934SOL     OW30700   5.965   2.212   0.398
 9934SOL    HW130701   6.038   2.144   0.399
 9934SOL    HW230702   5.938   2.231   0.303
 9935SOL     OW30703   3.143   2.210   0.630
 9935SOL    HW130704   3.067   2.180   0.687
 9935SOL    HW230705   3.146   2.154   0.547
 9936SOL     OW30706   5.628   4.710   6.336
 9936SOL    HW130707   5.569   4.677   6.410
 9936SOL    HW230708   5.678   4.790   6.367
 9937SOL     OW30709   1.270   0.903   2.954
 9937SOL    HW130710   1.282   0.988   3.005
 9937SOL    HW230711   1.214   0.839   3.007
 9938SOL     OW30712   5.524   0.378   3.482
 9938SOL    HW130713   5.481   0.435   3.412
 9938SOL    HW230714   5.623   0.379   3.470
 9939SOL     OW30715   1.819   2.905   1.110
 9939SOL    HW130716   1.854   2.830   1.166
 9939SOL    HW230717   1.859   2.991   1.141
 9940SOL     OW30718   0.034   0.268   3.651
 9940SOL    HW130719   0.059   0.354   3.697
 9940SOL    HW230720   6.967   0.274   3.619
 9941SOL     OW30721   3.402   5.579   5.899
 9941SOL    HW130722   3.415   5.575   5.998
 9941SOL    HW230723   3.409   5.673   5.868
 9942SOL     OW30724   4.957   4.418   2.690
 9942SOL    HW130725   4.932   4.511   2.665
 9942SOL    HW230726   4.998   4.372   2.612
 9943SOL     OW30727   1.045   4.359   6.355
 9943SOL    HW130728   1.049   4.260   6.368
 9943SOL    HW230729   1.094   4.404   6.430
 9944SOL     OW30730   6.955   5.710   6.885
 9944SOL    HW130731   6.949   5.619   6.844
 9944SOL    HW230732   6.863   5.740   6.912
 9945SOL     OW30733   5.353   3.881   6.472
 9945SOL    HW130734   5.290   3.836   6.409
 9945SOL    HW230735   5.389   3.814   6.536
 9946SOL     OW30736   6.345   0.385   3.573
 9946SOL    HW130737   6.407   0.462   3.559
 9946SOL    HW230738   6.388   0.301   3.540
 9947SOL     OW30739   1.774   1.417   3.400
 9947SOL    HW130740   1.806   1.399   3.307
 9947SOL    HW230741   1.737   1.332   3.439
 9948SOL     OW30742   6.822   5.790   4.918
 9948SOL    HW130743   6.916   5.798   4.949
 9948SOL    HW230744   6.760   5.801   4.995
 9949SOL     OW30745   0.422   5.252   4.027
 9949SOL    HW130746   0.506   5.247   3.972
 9949SOL    HW230747   0.445   5.251   4.124
 9950SOL     OW30748   6.630   5.178   6.196
 9950SOL    HW130749   6.550   5.124   6.224
 9950SOL    HW230750   6.705   5.160   6.259
 9951SOL     OW30751   1.569   2.327   2.843
 9951SOL    HW130752   1.643   2.373   2.793
 9951SOL    HW230753   1.533   2.389   2.913
 9952SOL     OW30754   1.067   3.781   1.714
 9952SOL    HW130755   1.119   3.866   1.713
 9952SOL    HW230756   0.973   3.800   1.741
 9953SOL     OW30757   5.954   2.342   3.234
 9953SOL    HW130758   5.971   2.245   3.218
 9953SOL    HW230759   5.936   2.357   3.332
 9954SOL     OW30760   1.563   0.975   4.959
 9954SOL    HW130761   1.608   0.984   5.048
 9954SOL    HW230762   1.629   0.944   4.891
 9955SOL     OW30763   4.812   3.163   6.724
 9955SOL    HW130764   4.736   3.108   6.689
 9955SOL    HW230765   4.853   3.216   6.650
 9956SOL     OW30766   0.121   3.846   2.533
 9956SOL    HW130767   0.155   3.921   2.476
 9956SOL    HW230768   0.198   3.803   2.581
 9957SOL     OW30769   5.722   0.062   1.070
 9957SOL    HW130770   5.733   6.998   1.109
 9957SOL    HW230771   5.799   0.120   1.096
 9958SOL     OW30772   3.560   5.863   6.198
 9958SOL    HW130773   3.475   5.912   6.180
 9958SOL    HW230774   3.550   5.767   6.173
 9959SOL     OW30775   4.084   3.505   1.464
 9959SOL    HW130776   4.008   3.447   1.432
 9959SOL    HW230777   4.075   3.596   1.423
 9960SOL     OW30778   0.157   6.301   1.569
 9960SOL    HW130779   0.231   6.245   1.605
 9960SOL    HW230780   0.178   6.327   1.474
 9961SOL     OW30781   2.125   4.293   2.705
 9961SOL    HW130782   2.158   4.207   2.743
 9961SOL    HW230783   2.193   4.330   2.641
 9962SOL     OW30784   3.915   0.848   1.955
 9962SOL    HW130785   4.012   0.833   1.978
 9962SOL    HW230786   3.883   0.932   2.000
 9963SOL     OW30787   2.686   2.650   0.169
 9963SOL    HW130788   2.597   2.638   0.127
 9963SOL    HW230789   2.733   2.728   0.128
 9964SOL     OW30790   3.455   4.867   5.745
 9964SOL    HW130791   3.368   4.884   5.698
 9964SOL    HW230792   3.528   4.917   5.699
 9965SOL     OW30793   3.445   5.559   4.614
 9965SOL    HW130794   3.391   5.517   4.687
 9965SOL    HW230795   3.434   5.506   4.530
 9966SOL     OW30796   2.835   5.144   2.392
 9966SOL    HW130797   2.918   5.171   2.342
 9966SOL    HW230798   2.781   5.225   2.415
 9967SOL     OW30799   6.059   5.379   2.978
 9967SOL    HW130800   6.071   5.462   2.924
 9967SOL    HW230801   5.979   5.389   3.038
 9968SOL     OW30802   4.094   5.563   7.015
 9968SOL    HW130803   3.995   5.576   0.001
 9968SOL    HW230804   4.111   5.472   6.977
 9969SOL     OW30805   1.804   3.243   4.325
 9969SOL    HW130806   1.840   3.157   4.361
 9969SOL    HW230807   1.780   3.303   4.401
 9970SOL     OW30808   6.570   5.565   1.310
 9970SOL    HW130809   6.607   5.492   1.368
 9970SOL    HW230810   6.632   5.582   1.234
 9971SOL     OW30811   2.076   2.612   1.468
 9971SOL    HW130812   2.014   2.573   1.537
 9971SOL    HW230813   2.126   2.689   1.508
 9972SOL     OW30814   2.481   4.025   1.274
 9972SOL    HW130815   2.561   4.062   1.322
 9972SOL    HW230816   2.469   3.929   1.300
 9973SOL     OW30817   4.837   2.905   4.585
 9973SOL    HW130818   4.936   2.905   4.571
 9973SOL    HW230819   4.792   2.947   4.507
 9974SOL     OW30820   0.268   2.401   3.085
 9974SOL    HW130821   0.324   2.338   3.139
 9974SOL    HW230822   0.294   2.395   2.989
 9975SOL     OW30823   0.588   5.582   6.347
 9975SOL    HW130824   0.652   5.656   6.329
 9975SOL    HW230825   0.508   5.592   6.289
 9976SOL     OW30826   1.128   4.973   5.228
 9976SOL    HW130827   1.077   4.970   5.142
 9976SOL    HW230828   1.150   5.068   5.249
 9977SOL     OW30829   5.083   4.929   5.632
 9977SOL    HW130830   5.085   4.934   5.732
 9977SOL    HW230831   5.036   4.845   5.605
 9978SOL     OW30832   7.014   1.696   5.358
 9978SOL    HW130833   6.968   1.677   5.271
 9978SOL    HW230834   6.984   1.629   5.426
 9979SOL     OW30835   6.534   4.081   6.523
 9979SOL    HW130836   6.485   4.119   6.445
 9979SOL    HW230837   6.624   4.049   6.493
 9980SOL     OW30838   2.109   0.183   0.752
 9980SOL    HW130839   2.208   0.195   0.742
 9980SOL    HW230840   2.065   0.273   0.750
 9981SOL     OW30841   1.774   2.019   0.770
 9981SOL    HW130842   1.805   2.072   0.691
 9981SOL    HW230843   1.758   1.924   0.742
 9982SOL     OW30844   1.040   0.975   4.213
 9982SOL    HW130845   0.952   0.929   4.225
 9982SOL    HW230846   1.109   0.930   4.270
 9983SOL     OW30847   0.067   1.537   2.195
 9983SOL    HW130848   0.109   1.601   2.130
 9983SOL    HW230849   0.112   1.448   2.187
 9984SOL     OW30850   0.829   6.012   0.509
 9984SOL    HW130851   0.776   6.008   0.594
 9984SOL    HW230852   0.887   6.094   0.509
 9985SOL     OW30853   2.907   5.388   1.258
 9985SOL    HW130854   2.903   5.411   1.355
 9985SOL    HW230855   2.815   5.375   1.222
 9986SOL     OW30856   5.898   5.060   0.753
 9986SOL    HW130857   5.961   5.081   0.828
 9986SOL    HW230858   5.950   5.043   0.670
 9987SOL     OW30859   6.281   2.412   2.224
 9987SOL    HW130860   6.364   2.465   2.209
 9987SOL    HW230861   6.283   2.329   2.168
 9988SOL     OW30862   6.717   5.486   4.343
 9988SOL    HW130863   6.624   5.451   4.332
 9988SOL    HW230864   6.714   5.583   4.367
 9989SOL     OW30865   6.183   4.022   2.202
 9989SOL    HW130866   6.155   3.926   2.205
 9989SOL    HW230867   6.196   4.057   2.295
 9990SOL     OW30868   2.125   6.666   3.109
 9990SOL    HW130869   2.087   6.651   3.017
 9990SOL    HW230870   2.110   6.585   3.165
 9991SOL     OW30871   2.031   3.668   3.598
 9991SOL    HW130872   2.068   3.592   3.652
 9991SOL    HW230873   1.940   3.691   3.630
 9992SOL     OW30874   3.684   3.690   0.851
 9992SOL    HW130875   3.738   3.675   0.934
 9992SOL    HW230876   3.591   3.654   0.865
 9993SOL     OW30877   3.822   6.784   3.821
 9993SOL    HW130878   3.869   6.701   3.793
 9993SOL    HW230879   3.888   6.858   3.833
 9994SOL     OW30880   6.891   3.894   2.530
 9994SOL    HW130881   6.989   3.880   2.544
 9994SOL    HW230882   6.866   3.986   2.559
 9995SOL     OW30883   3.673   1.291   3.746
 9995SOL    HW130884   3.726   1.327   3.669
 9995SOL    HW230885   3.585   1.340   3.751
 9996SOL     OW30886   2.713   3.950   1.707
 9996SOL    HW130887   2.680   3.861   1.676
 9996SOL    HW230888   2.673   4.022   1.651
 9997SOL     OW30889   5.639   0.476   2.600
 9997SOL    HW130890   5.561   0.458   2.660
 9997SOL    HW230891   5.620   0.437   2.509
 9998SOL     OW30892   5.624   3.312   1.783
 9998SOL    HW130893   5.703   3.330   1.725
 9998SOL    HW230894   5.645   3.239   1.848
 9999SOL     OW30895   0.049   5.840   5.035
 9999SOL    HW130896   0.146   5.849   5.011
 9999SOL    HW230897   0.036   5.861   5.132
10000SOL     OW30898   5.618   2.388   0.187
10000SOL    HW130899   5.629   2.406   0.285
10000SOL    HW230900   5.598   2.291   0.173
10001SOL     OW30901   3.300   0.196   1.613
10001SOL    HW130902   3.390   0.228   1.642
10001SOL    HW230903   3.277   0.112   1.662
10002SOL     OW30904   1.712   1.137   1.758
10002SOL    HW130905   1.638   1.110   1.820
10002SOL    HW230906   1.798   1.144   1.809
10003SOL     OW30907   2.799   2.206   2.265
10003SOL    HW130908   2.884   2.232   2.311
10003SOL    HW230909   2.801   2.236   2.170
10004SOL     OW30910   5.548   3.059   5.359
10004SOL    HW130911   5.451   3.075   5.340
10004SOL    HW230912   5.569   2.962   5.346
10005SOL     OW30913   3.416   5.640   3.016
10005SOL    HW130914   3.454   5.553   2.983
10005SOL    HW230915   3.460   5.716   2.967
10006SOL     OW30916   5.820   0.275   5.561
10006SOL    HW130917   5.853   0.180   5.559
10006SOL    HW230918   5.759   0.291   5.484
10007SOL     OW30919   0.895   3.100   4.031
10007SOL    HW130920   0.978   3.109   4.087
10007SOL    HW230921   0.817   3.084   4.090
10008SOL     OW30922   4.794   1.211   3.664
10008SOL    HW130923   4.810   1.122   3.707
10008SOL    HW230924   4.749   1.272   3.730
10009SOL     OW30925   1.637   3.735   1.412
10009SOL    HW130926   1.614   3.638   1.401
10009SOL    HW230927   1.577   3.776   1.482
10010SOL     OW30928   2.504   6.182   0.545
10010SOL    HW130929   2.485   6.084   0.545
10010SOL    HW230930   2.455   6.226   0.470
10011SOL     OW30931   0.767   4.567   6.628
10011SOL    HW130932   0.720   4.621   6.697
10011SOL    HW230933   0.741   4.471   6.637
10012SOL     OW30934   5.172   6.844   1.792
10012SOL    HW130935   5.247   6.781   1.771
10012SOL    HW230936   5.120   6.863   1.709
10013SOL     OW30937   1.809   2.339   4.258
10013SOL    HW130938   1.876   2.367   4.189
10013SOL    HW230939   1.724   2.389   4.244
10014SOL     OW30940   0.936   0.906   1.587
10014SOL    HW130941   0.914   0.830   1.648
10014SOL    HW230942   1.020   0.950   1.617
10015SOL     OW30943   4.113   5.146   0.260
10015SOL    HW130944   4.055   5.227   0.252
10015SOL    HW230945   4.063   5.066   0.226
10016SOL     OW30946   1.817   0.881   4.823
10016SOL    HW130947   1.806   0.783   4.814
10016SOL    HW230948   1.810   0.925   4.733
10017SOL     OW30949   1.915   1.382   2.749
10017SOL    HW130950   1.898   1.433   2.665
10017SOL    HW230951   1.981   1.432   2.805
10018SOL     OW30952   6.785   4.892   5.578
10018SOL    HW130953   6.853   4.954   5.618
10018SOL    HW230954   6.825   4.848   5.497
10019SOL     OW30955   0.463   1.607   3.240
10019SOL    HW130956   0.502   1.619   3.332
10019SOL    HW230957   0.523   1.652   3.173
10020SOL     OW30958   0.211   0.688   1.395
10020SOL    HW130959   0.263   0.605   1.373
10020SOL    HW230960   0.209   0.701   1.494
10021SOL     OW30961   0.716   2.630   2.634
10021SOL    HW130962   0.627   2.662   2.602
10021SOL    HW230963   0.726   2.533   2.616
10022SOL     OW30964   3.347   6.701   0.810
10022SOL    HW130965   3.407   6.650   0.871
10022SOL    HW230966   3.400   6.769   0.760
10023SOL     OW30967   1.946   5.080   4.078
10023SOL    HW130968   1.911   5.057   4.169
10023SOL    HW230969   2.046   5.074   4.078
10024SOL     OW30970   2.043   5.676   2.115
10024SOL    HW130971   2.029   5.740   2.191
10024SOL    HW230972   2.078   5.589   2.150
10025SOL     OW30973   1.338   2.989   2.246
10025SOL    HW130974   1.296   2.944   2.168
10025SOL    HW230975   1.386   3.071   2.215
10026SOL     OW30976   5.270   0.460   3.061
10026SOL    HW130977   5.212   0.524   3.111
10026SOL    HW230978   5.223   0.433   2.976
10027SOL     OW30979   0.881   2.434   5.330
10027SOL    HW130980   0.861   2.345   5.371
10027SOL    HW230981   0.800   2.493   5.339
10028SOL     OW30982   1.949   1.857   2.006
10028SOL    HW130983   1.967   1.783   1.942
10028SOL    HW230984   1.997   1.940   1.975
10029SOL     OW30985   1.833   2.409   3.329
10029SOL    HW130986   1.739   2.420   3.360
10029SOL    HW230987   1.856   2.312   3.326
10030SOL     OW30988   3.344   0.334   5.102
10030SOL    HW130989   3.375   0.429   5.105
10030SOL    HW230990   3.373   0.286   5.185
10031SOL     OW30991   5.488   4.331   4.499
10031SOL    HW130992   5.421   4.375   4.439
10031SOL    HW230993   5.572   4.385   4.500
10032SOL     OW30994   4.523   0.445   5.391
10032SOL    HW130995   4.518   0.532   5.441
10032SOL    HW230996   4.465   0.451   5.309
10033SOL     OW30997   4.867   2.481   3.908
10033SOL    HW130998   4.784   2.433   3.936
10033SOL    HW230999   4.859   2.578   3.930
10034SOL     OW31000   3.289   0.483   3.838
10034SOL    HW131001   3.199   0.449   3.811
10034SOL    HW231002   3.324   0.427   3.913
10035SOL     OW31003   6.431   5.100   1.195
10035SOL    HW131004   6.402   5.076   1.287
10035SOL    HW231005   6.365   5.065   1.128
10036SOL     OW31006   6.503   0.594   0.735
10036SOL    HW131007   6.575   0.556   0.675
10036SOL    HW231008   6.465   0.676   0.693
10037SOL     OW31009   5.843   0.757   0.249
10037SOL    HW131010   5.929   0.770   0.200
10037SOL    HW231011   5.857   0.775   0.346
10038SOL     OW31012   4.159   6.905   6.430
10038SOL    HW131013   4.165   6.947   6.521
10038SOL    HW231014   4.126   6.811   6.439
10039SOL     OW31015   4.492   6.558   5.199
10039SOL    HW131016   4.574   6.508   5.171
10039SOL    HW231017   4.515   6.620   5.274
10040SOL     OW31018   4.058   5.985   6.450
10040SOL    HW131019   4.117   6.043   6.394
10040SOL    HW231020   4.086   5.992   6.546
10041SOL     OW31021   4.876   6.446   6.600
10041SOL    HW131022   4.871   6.352   6.566
10041SOL    HW231023   4.838   6.450   6.692
10042SOL     OW31024   1.359   1.940   5.012
10042SOL    HW131025   1.289   2.007   5.038
10042SOL    HW231026   1.317   1.850   5.005
10043SOL     OW31027   0.380   2.116   4.304
10043SOL    HW131028   0.413   2.060   4.380
10043SOL    HW231029   0.290   2.082   4.274
10044SOL     OW31030   2.295   1.683   3.991
10044SOL    HW131031   2.316   1.776   4.021
10044SOL    HW231032   2.322   1.618   4.061
10045SOL     OW31033   5.198   6.702   4.106
10045SOL    HW131034   5.125   6.689   4.039
10045SOL    HW231035   5.280   6.653   4.076
10046SOL     OW31036   1.006   3.786   1.437
10046SOL    HW131037   0.986   3.773   1.534
10046SOL    HW231038   0.963   3.871   1.405
10047SOL     OW31039   6.474   3.896   4.997
10047SOL    HW131040   6.543   3.882   4.927
10047SOL    HW231041   6.387   3.856   4.968
10048SOL     OW31042   5.070   2.187   2.343
10048SOL    HW131043   5.075   2.285   2.323
10048SOL    HW231044   5.123   2.167   2.425
10049SOL     OW31045   0.900   0.160   6.708
10049SOL    HW131046   0.894   0.259   6.717
10049SOL    HW231047   0.821   0.118   6.753
10050SOL     OW31048   6.724   2.686   5.078
10050SOL    HW131049   6.746   2.744   5.156
10050SOL    HW231050   6.639   2.718   5.036
10051SOL     OW31051   6.081   2.554   4.872
10051SOL    HW131052   6.149   2.546   4.799
10051SOL    HW231053   6.024   2.634   4.856
10052SOL     OW31054   3.341   2.127   3.270
10052SOL    HW131055   3.247   2.161   3.263
10052SOL    HW231056   3.400   2.181   3.210
10053SOL     OW31057   3.686   5.738   1.895
10053SOL    HW131058   3.606   5.769   1.843
10053SOL    HW231059   3.768   5.752   1.840
10054SOL     OW31060   4.811   5.006   6.079
10054SOL    HW131061   4.799   5.015   6.178
10054SOL    HW231062   4.738   5.055   6.032
10055SOL     OW31063   6.238   2.070   5.238
10055SOL    HW131064   6.194   2.157   5.262
10055SOL    HW231065   6.182   1.994   5.271
10056SOL     OW31066   5.588   4.354   1.856
10056SOL    HW131067   5.546   4.364   1.947
10056SOL    HW231068   5.530   4.399   1.788
10057SOL     OW31069   4.311   2.396   4.663
10057SOL    HW131070   4.299   2.307   4.620
10057SOL    HW231071   4.251   2.402   4.743
10058SOL     OW31072   0.273   3.895   4.494
10058SOL    HW131073   0.356   3.945   4.470
10058SOL    HW231074   0.283   3.798   4.472
10059SOL     OW31075   4.873   6.323   0.973
10059SOL    HW131076   4.925   6.402   1.006
10059SOL    HW231077   4.775   6.343   0.982
10060SOL     OW31078   1.580   1.629   1.588
10060SOL    HW131079   1.543   1.583   1.507
10060SOL    HW231080   1.671   1.593   1.607
10061SOL     OW31081   5.368   1.318   4.576
10061SOL    HW131082   5.427   1.317   4.657
10061SOL    HW231083   5.394   1.242   4.516
10062SOL     OW31084   6.588   0.290   4.615
10062SOL    HW131085   6.645   0.211   4.638
10062SOL    HW231086   6.538   0.321   4.696
10063SOL     OW31087   1.809   1.481   4.081
10063SOL    HW131088   1.783   1.553   4.145
10063SOL    HW231089   1.899   1.445   4.107
10064SOL     OW31090   4.771   6.775   0.188
10064SOL    HW131091   4.728   6.805   0.274
10064SOL    HW231092   4.860   6.820   0.178
10065SOL     OW31093   2.045   6.997   2.584
10065SOL    HW131094   2.078   6.925   2.646
10065SOL    HW231095   2.112   0.043   2.581
10066SOL     OW31096   1.107   1.999   3.066
10066SOL    HW131097   1.026   2.041   3.024
10066SOL    HW231098   1.113   2.028   3.161
10067SOL     OW31099   6.340   4.271   4.634
10067SOL    HW131100   6.423   4.215   4.644
10067SOL    HW231101   6.278   4.226   4.570
10068SOL     OW31102   6.821   3.379   2.691
10068SOL    HW131103   6.748   3.414   2.751
10068SOL    HW231104   6.804   3.283   2.671
10069SOL     OW31105   1.840   5.345   3.529
10069SOL    HW131106   1.742   5.336   3.509
10069SOL    HW231107   1.853   5.403   3.609
10070SOL     OW31108   6.218   0.256   5.097
10070SOL    HW131109   6.311   0.221   5.110
10070SOL    HW231110   6.169   0.253   5.184
10071SOL     OW31111   6.236   5.816   3.661
10071SOL    HW131112   6.140   5.810   3.686
10071SOL    HW231113   6.292   5.775   3.733
10072SOL     OW31114   0.263   6.360   3.922
10072SOL    HW131115   0.191   6.427   3.906
10072SOL    HW231116   0.353   6.403   3.910
10073SOL     OW31117   6.021   4.707   5.146
10073SOL    HW131118   6.030   4.681   5.050
10073SOL    HW231119   5.996   4.804   5.151
10074SOL     OW31120   1.343   0.674   5.392
10074SOL    HW131121   1.436   0.695   5.422
10074SOL    HW231122   1.283   0.664   5.472
10075SOL     OW31123   1.427   2.722   3.380
10075SOL    HW131124   1.475   2.760   3.301
10075SOL    HW231125   1.329   2.734   3.370
10076SOL     OW31126   0.222   0.149   3.426
10076SOL    HW131127   0.187   0.158   3.519
10076SOL    HW231128   0.194   0.229   3.372
10077SOL     OW31129   3.751   3.010   6.210
10077SOL    HW131130   3.739   3.078   6.139
10077SOL    HW231131   3.733   3.051   6.299
10078SOL     OW31132   0.379   5.121   3.505
10078SOL    HW131133   0.365   5.051   3.435
10078SOL    HW231134   0.318   5.198   3.488
10079SOL     OW31135   6.780   3.781   2.750
10079SOL    HW131136   6.729   3.866   2.762
10079SOL    HW231137   6.834   3.785   2.666
10080SOL     OW31138   3.972   1.368   5.068
10080SOL    HW131139   3.932   1.433   5.004
10080SOL    HW231140   4.037   1.309   5.020
10081SOL     OW31141   0.122   6.918   0.403
10081SOL    HW131142   0.045   6.908   0.465
10081SOL    HW231143   0.099   6.880   0.314
10082SOL     OW31144   6.262   4.941   1.708
10082SOL    HW131145   6.244   4.874   1.780
10082SOL    HW231146   6.269   5.032   1.748
10083SOL     OW31147   4.907   1.160   3.262
10083SOL    HW131148   4.960   1.221   3.202
10083SOL    HW231149   4.813   1.194   3.268
10084SOL     OW31150   2.162   0.643   5.291
10084SOL    HW131151   2.254   0.607   5.272
10084SOL    HW231152   2.170   0.735   5.329
10085SOL     OW31153   1.717   5.852   2.205
10085SOL    HW131154   1.803   5.881   2.245
10085SOL    HW231155   1.640   5.886   2.260
10086SOL     OW31156   4.856   5.723   2.319
10086SOL    HW131157   4.923   5.729   2.393
10086SOL    HW231158   4.764   5.739   2.356
10087SOL     OW31159   0.270   0.065   3.751
10087SOL    HW131160   0.313   0.155   3.750
10087SOL    HW231161   0.174   0.073   3.726
10088SOL     OW31162   0.083   7.002   1.082
10088SOL    HW131163   7.014   0.001   1.072
10088SOL    HW231164   0.115   6.960   0.997
10089SOL     OW31165   2.917   1.714   2.526
10089SOL    HW131166   2.832   1.758   2.554
10089SOL    HW231167   2.901   1.660   2.443
10090SOL     OW31168   1.162   4.809   1.305
10090SOL    HW131169   1.226   4.761   1.244
10090SOL    HW231170   1.202   4.814   1.396
10091SOL     OW31171   1.177   3.562   6.101
10091SOL    HW131172   1.105   3.579   6.168
10091SOL    HW231173   1.206   3.649   6.061
10092SOL     OW31174   1.966   2.835   5.046
10092SOL    HW131175   1.920   2.891   5.116
10092SOL    HW231176   2.061   2.821   5.072
10093SOL     OW31177   6.498   3.562   5.262
10093SOL    HW131178   6.411   3.516   5.242
10093SOL    HW231179   6.480   3.650   5.306
10094SOL     OW31180   2.544   5.758   2.259
10094SOL    HW131181   2.600   5.675   2.251
10094SOL    HW231182   2.462   5.749   2.202
10095SOL     OW31183   5.715   1.605   5.414
10095SOL    HW131184   5.711   1.625   5.512
10095SOL    HW231185   5.624   1.614   5.374
10096SOL     OW31186   4.672   5.095   2.393
10096SOL    HW131187   4.591   5.037   2.393
10096SOL    HW231188   4.749   5.045   2.353
10097SOL     OW31189   1.045   0.569   0.598
10097SOL    HW131190   1.095   0.492   0.558
10097SOL    HW231191   0.947   0.549   0.599
10098SOL     OW31192   2.659   0.562   5.113
10098SOL    HW131193   2.716   0.597   5.188
10098SOL    HW231194   2.718   0.533   5.038
10099SOL     OW31195   6.912   5.072   0.786
10099SOL    HW131196   6.817   5.063   0.813
10099SOL    HW231197   6.972   5.047   0.862
10100SOL     OW31198   5.304   0.125   4.706
10100SOL    HW131199   5.224   0.173   4.741
10100SOL    HW231200   5.387   0.165   4.745
10101SOL     OW31201   5.963   3.809   1.579
10101SOL    HW131202   5.910   3.873   1.524
10101SOL    HW231203   5.902   3.739   1.617
10102SOL     OW31204   0.709   1.119   2.087
10102SOL    HW131205   0.759   1.201   2.114
10102SOL    HW231206   0.673   1.131   1.995
10103SOL     OW31207   2.582   7.002   5.940
10103SOL    HW131208   2.625   6.914   5.919
10103SOL    HW231209   2.652   0.046   5.943
10104SOL     OW31210   1.993   1.967   3.666
10104SOL    HW131211   2.090   1.977   3.645
10104SOL    HW231212   1.972   1.871   3.683
10105SOL     OW31213   1.823   0.606   0.619
10105SOL    HW131214   1.798   0.512   0.598
10105SOL    HW231215   1.807   0.663   0.538
10106SOL     OW31216   3.957   6.669   0.855
10106SOL    HW131217   3.879   6.618   0.820
10106SOL    HW231218   3.924   6.748   0.908
10107SOL     OW31219   6.544   1.413   6.406
10107SOL    HW131220   6.529   1.357   6.324
10107SOL    HW231221   6.523   1.359   6.488
10108SOL     OW31222   6.529   6.816   0.192
10108SOL    HW131223   6.469   6.786   0.118
10108SOL    HW231224   6.547   6.914   0.183
10109SOL     OW31225   5.189   0.103   0.734
10109SOL    HW131226   5.157   0.194   0.710
10109SOL    HW231227   5.255   0.072   0.665
10110SOL     OW31228   3.990   5.658   4.541
10110SOL    HW131229   4.037   5.575   4.511
10110SOL    HW231230   3.893   5.638   4.556
10111SOL     OW31231   5.358   3.489   3.819
10111SOL    HW131232   5.395   3.418   3.758
10111SOL    HW231233   5.424   3.508   3.891
10112SOL     OW31234   5.548   3.505   4.018
10112SOL    HW131235   5.505   3.437   4.076
10112SOL    HW231236   5.604   3.567   4.074
10113SOL     OW31237   4.455   0.459   6.078
10113SOL    HW131238   4.472   0.469   5.980
10113SOL    HW231239   4.404   0.538   6.112
10114SOL     OW31240   5.644   1.124   1.007
10114SOL    HW131241   5.738   1.124   0.973
10114SOL    HW231242   5.598   1.209   0.979
10115SOL     OW31243   3.582   1.549   4.596
10115SOL    HW131244   3.547   1.642   4.607
10115SOL    HW231245   3.576   1.501   4.684
10116SOL     OW31246   0.671   6.277   0.661
10116SOL    HW131247   0.579   6.240   0.651
10116SOL    HW231248   0.690   6.339   0.585
10117SOL     OW31249   6.522   5.842   5.707
10117SOL    HW131250   6.587   5.809   5.638
10117SOL    HW231251   6.565   5.915   5.761
10118SOL     OW31252   1.819   4.742   2.746
10118SOL    HW131253   1.853   4.700   2.830
10118SOL    HW231254   1.879   4.819   2.721
10119SOL     OW31255   0.594   5.788   4.447
10119SOL    HW131256   0.644   5.725   4.507
10119SOL    HW231257   0.498   5.762   4.444
10120SOL     OW31258   1.666   3.294   5.049
10120SOL    HW131259   1.659   3.315   5.146
10120SOL    HW231260   1.649   3.377   4.996
10121SOL     OW31261   6.352   3.906   6.671
10121SOL    HW131262   6.398   3.960   6.601
10121SOL    HW231263   6.325   3.966   6.747
10122SOL     OW31264   6.183   3.359   1.832
10122SOL    HW131265   6.207   3.435   1.892
10122SOL    HW231266   6.266   3.314   1.800
10123SOL     OW31267   5.431   6.886   0.155
10123SOL    HW131268   5.489   6.841   0.086
10123SOL    HW231269   5.481   6.891   0.241
10124SOL     OW31270   1.191   4.304   0.475
10124SOL    HW131271   1.234   4.323   0.563
10124SOL    HW231272   1.226   4.366   0.406
10125SOL     OW31273   2.059   1.518   2.108
10125SOL    HW131274   1.969   1.476   2.117
10125SOL    HW231275   2.071   1.554   2.015
10126SOL     OW31276   0.012   6.559   6.505
10126SOL    HW131277   0.086   6.494   6.490
10126SOL    HW231278   6.967   6.516   6.558
10127SOL     OW31279   2.836   4.657   6.373
10127SOL    HW131280   2.770   4.582   6.374
10127SOL    HW231281   2.800   4.733   6.319
10128SOL     OW31282   2.551   1.483   0.879
10128SOL    HW131283   2.533   1.462   0.783
10128SOL    HW231284   2.564   1.398   0.930
10129SOL     OW31285   5.840   1.452   2.512
10129SOL    HW131286   5.909   1.523   2.509
10129SOL    HW231287   5.848   1.394   2.431
10130SOL     OW31288   1.631   3.500   1.861
10130SOL    HW131289   1.596   3.406   1.861
10130SOL    HW231290   1.724   3.501   1.897
10131SOL     OW31291   1.092   0.237   4.538
10131SOL    HW131292   1.163   0.232   4.609
10131SOL    HW231293   1.048   0.148   4.530
10132SOL     OW31294   3.539   0.263   4.470
10132SOL    HW131295   3.482   0.277   4.389
10132SOL    HW231296   3.540   0.166   4.494
10133SOL     OW31297   3.438   5.956   1.140
10133SOL    HW131298   3.349   5.914   1.157
10133SOL    HW231299   3.458   5.952   1.042
10134SOL     OW31300   0.382   5.919   3.234
10134SOL    HW131301   0.468   5.895   3.280
10134SOL    HW231302   0.388   6.012   3.198
10135SOL     OW31303   5.135   3.496   3.311
10135SOL    HW131304   5.074   3.417   3.323
10135SOL    HW231305   5.230   3.465   3.313
10136SOL     OW31306   5.243   0.743   2.703
10136SOL    HW131307   5.192   0.804   2.642
10136SOL    HW231308   5.285   0.798   2.776
10137SOL     OW31309   6.652   4.013   3.915
10137SOL    HW131310   6.672   3.938   3.978
10137SOL    HW231311   6.646   3.978   3.821
10138SOL     OW31312   5.316   3.615   0.376
10138SOL    HW131313   5.264   3.544   0.329
10138SOL    HW231314   5.317   3.698   0.319
10139SOL     OW31315   3.039   3.871   3.441
10139SOL    HW131316   3.050   3.849   3.538
10139SOL    HW231317   3.127   3.900   3.404
10140SOL     OW31318   5.571   6.252   0.120
10140SOL    HW131319   5.584   6.233   0.022
10140SOL    HW231320   5.648   6.217   0.172
10141SOL     OW31321   4.033   1.390   5.333
10141SOL    HW131322   4.119   1.341   5.352
10141SOL    HW231323   4.013   1.386   5.235
10142SOL     OW31324   6.308   6.913   5.298
10142SOL    HW131325   6.237   6.885   5.364
10142SOL    HW231326   6.275   6.896   5.205
10143SOL     OW31327   5.378   1.324   7.016
10143SOL    HW131328   5.309   1.336   0.060
10143SOL    HW231329   5.453   1.389   0.003
10144SOL     OW31330   2.911   0.538   6.043
10144SOL    HW131331   2.957   0.488   6.117
10144SOL    HW231332   2.846   0.604   6.082
10145SOL     OW31333   3.003   5.075   3.976
10145SOL    HW131334   3.020   5.063   3.878
10145SOL    HW231335   2.941   5.003   4.008
10146SOL     OW31336   4.528   4.527   4.761
10146SOL    HW131337   4.454   4.524   4.828
10146SOL    HW231338   4.520   4.610   4.706
10147SOL     OW31339   5.742   3.819   5.323
10147SOL    HW131340   5.669   3.855   5.265
10147SOL    HW231341   5.766   3.886   5.393
10148SOL     OW31342   5.062   4.778   6.722
10148SOL    HW131343   5.080   4.767   6.820
10148SOL    HW231344   4.967   4.755   6.702
10149SOL     OW31345   5.805   3.219   0.612
10149SOL    HW131346   5.712   3.238   0.579
10149SOL    HW231347   5.871   3.253   0.545
10150SOL     OW31348   3.408   3.811   0.364
10150SOL    HW131349   3.394   3.812   0.464
10150SOL    HW231350   3.327   3.851   0.320
10151SOL     OW31351   0.758   5.969   6.823
10151SOL    HW131352   0.718   5.882   6.851
10151SOL    HW231353   0.771   5.969   6.724
10152SOL     OW31354   6.996   6.011   4.303
10152SOL    HW131355   0.066   5.989   4.315
10152SOL    HW231356   6.945   5.928   4.283
10153SOL     OW31357   4.608   6.301   3.705
10153SOL    HW131358   4.595   6.210   3.744
10153SOL    HW231359   4.663   6.294   3.621
10154SOL     OW31360   4.458   6.693   5.480
10154SOL    HW131361   4.420   6.613   5.525
10154SOL    HW231362   4.385   6.745   5.437
10155SOL     OW31363   3.914   2.474   6.011
10155SOL    HW131364   3.914   2.374   6.011
10155SOL    HW231365   4.001   2.508   5.975
10156SOL     OW31366   5.956   0.155   2.257
10156SOL    HW131367   5.902   0.076   2.230
10156SOL    HW231368   6.036   0.163   2.197
10157SOL     OW31369   0.248   1.486   0.657
10157SOL    HW131370   0.246   1.586   0.654
10157SOL    HW231371   0.323   1.452   0.601
10158SOL     OW31372   5.748   5.608   0.267
10158SOL    HW131373   5.683   5.535   0.287
10158SOL    HW231374   5.798   5.632   0.350
10159SOL     OW31375   2.162   3.324   0.330
10159SOL    HW131376   2.087   3.259   0.318
10159SOL    HW231377   2.244   3.274   0.359
10160SOL     OW31378   1.875   3.001   2.215
10160SOL    HW131379   1.812   2.923   2.214
10160SOL    HW231380   1.939   2.991   2.291
10161SOL     OW31381   3.533   2.905   0.829
10161SOL    HW131382   3.486   2.869   0.910
10161SOL    HW231383   3.524   3.004   0.827
10162SOL     OW31384   3.355   4.580   1.036
10162SOL    HW131385   3.286   4.508   1.034
10162SOL    HW231386   3.413   4.569   1.116
10163SOL     OW31387   6.267   4.462   6.868
10163SOL    HW131388   6.202   4.530   6.834
10163SOL    HW231389   6.257   4.377   6.816
10164SOL     OW31390   6.012   3.886   3.984
10164SOL    HW131391   6.090   3.949   3.993
10164SOL    HW231392   6.046   3.793   3.970
10165SOL     OW31393   6.777   1.635   3.434
10165SOL    HW131394   6.826   1.555   3.466
10165SOL    HW231395   6.830   1.680   3.362
10166SOL     OW31396   3.403   1.910   2.076
10166SOL    HW131397   3.419   1.965   1.994
10166SOL    HW231398   3.443   1.957   2.155
10167SOL     OW31399   1.882   4.548   6.788
10167SOL    HW131400   1.932   4.574   6.871
10167SOL    HW231401   1.947   4.511   6.721
10168SOL     OW31402   5.868   2.895   6.282
10168SOL    HW131403   5.813   2.813   6.301
10168SOL    HW231404   5.816   2.976   6.308
10169SOL     OW31405   6.442   4.828   3.620
10169SOL    HW131406   6.473   4.885   3.544
10169SOL    HW231407   6.438   4.733   3.590
10170SOL     OW31408   6.864   5.695   5.264
10170SOL    HW131409   6.915   5.776   5.292
10170SOL    HW231410   6.922   5.614   5.272
10171SOL     OW31411   0.167   2.971   4.407
10171SOL    HW131412   0.202   2.878   4.418
10171SOL    HW231413   0.092   2.986   4.472
10172SOL     OW31414   0.310   5.874   4.960
10172SOL    HW131415   0.351   5.826   4.882
10172SOL    HW231416   0.374   5.944   4.993
10173SOL     OW31417   1.422   2.645   0.792
10173SOL    HW131418   1.450   2.701   0.871
10173SOL    HW231419   1.503   2.615   0.742
10174SOL     OW31420   5.055   4.408   3.388
10174SOL    HW131421   4.988   4.361   3.332
10174SOL    HW231422   5.062   4.504   3.359
10175SOL     OW31423   6.246   1.836   3.367
10175SOL    HW131424   6.313   1.824   3.440
10175SOL    HW231425   6.289   1.886   3.291
10176SOL     OW31426   0.818   3.366   4.789
10176SOL    HW131427   0.752   3.441   4.788
10176SOL    HW231428   0.892   3.385   4.725
10177SOL     OW31429   2.165   0.929   1.637
10177SOL    HW131430   2.139   0.933   1.734
10177SOL    HW231431   2.180   0.834   1.610
10178SOL     OW31432   0.570   1.165   6.628
10178SOL    HW131433   0.669   1.152   6.634
10178SOL    HW231434   0.524   1.077   6.642
10179SOL     OW31435   0.286   2.578   6.551
10179SOL    HW131436   0.319   2.549   6.640
10179SOL    HW231437   0.186   2.587   6.553
10180SOL     OW31438   4.144   0.572   5.941
10180SOL    HW131439   4.227   0.607   5.897
10180SOL    HW231440   4.131   0.476   5.916
10181SOL     OW31441   6.169   3.398   1.236
10181SOL    HW131442   6.264   3.415   1.259
10181SOL    HW231443   6.140   3.312   1.277
10182SOL     OW31444   4.581   0.650   1.745
10182SOL    HW131445   4.495   0.601   1.761
10182SOL    HW231446   4.636   0.648   1.828
10183SOL     OW31447   0.136   3.005   6.499
10183SOL    HW131448   0.215   2.969   6.548
10183SOL    HW231449   0.084   3.065   6.560
10184SOL     OW31450   4.105   1.528   6.037
10184SOL    HW131451   4.181   1.580   5.997
10184SOL    HW231452   4.125   1.430   6.031
10185SOL     OW31453   6.395   5.762   2.899
10185SOL    HW131454   6.458   5.697   2.858
10185SOL    HW231455   6.391   5.747   2.998
10186SOL     OW31456   5.778   3.683   3.944
10186SOL    HW131457   5.856   3.744   3.947
10186SOL    HW231458   5.801   3.601   3.890
10187SOL     OW31459   1.440   3.579   0.353
10187SOL    HW131460   1.460   3.543   0.262
10187SOL    HW231461   1.459   3.509   0.421
10188SOL     OW31462   4.112   4.430   0.253
10188SOL    HW131463   4.067   4.352   0.210
10188SOL    HW231464   4.126   4.502   0.186
10189SOL     OW31465   1.057   1.016   5.963
10189SOL    HW131466   0.970   0.973   5.939
10189SOL    HW231467   1.116   0.949   6.008
10190SOL     OW31468   4.931   3.206   1.655
10190SOL    HW131469   4.831   3.212   1.659
10190SOL    HW231470   4.957   3.123   1.607
10191SOL     OW31471   4.110   6.370   6.586
10191SOL    HW131472   4.145   6.455   6.547
10191SOL    HW231473   4.141   6.363   6.681
10192SOL     OW31474   4.212   1.331   4.885
10192SOL    HW131475   4.264   1.280   4.954
10192SOL    HW231476   4.263   1.414   4.860
10193SOL     OW31477   3.781   3.183   1.824
10193SOL    HW131478   3.706   3.160   1.762
10193SOL    HW231479   3.778   3.124   1.905
10194SOL     OW31480   5.447   5.994   5.303
10194SOL    HW131481   5.392   5.999   5.387
10194SOL    HW231482   5.424   6.071   5.244
10195SOL     OW31483   6.227   5.684   6.996
10195SOL    HW131484   6.212   5.768   6.944
10195SOL    HW231485   6.146   5.664   0.023
10196SOL     OW31486   4.685   1.909   3.582
10196SOL    HW131487   4.690   1.972   3.659
10196SOL    HW231488   4.735   1.825   3.605
10197SOL     OW31489   5.624   1.231   4.689
10197SOL    HW131490   5.613   1.203   4.594
10197SOL    HW231491   5.611   1.151   4.749
10198SOL     OW31492   2.837   6.803   2.597
10198SOL    HW131493   2.825   6.741   2.675
10198SOL    HW231494   2.780   6.884   2.610
10199SOL     OW31495   1.916   3.160   0.599
10199SOL    HW131496   1.975   3.081   0.586
10199SOL    HW231497   1.971   3.238   0.629
10200SOL     OW31498   4.870   2.609   6.348
10200SOL    HW131499   4.778   2.574   6.368
10200SOL    HW231500   4.871   2.708   6.363
10201SOL     OW31501   1.272   5.258   0.252
10201SOL    HW131502   1.331   5.190   0.208
10201SOL    HW231503   1.327   5.314   0.315
10202SOL     OW31504   3.305   4.857   1.066
10202SOL    HW131505   3.380   4.890   1.122
10202SOL    HW231506   3.313   4.758   1.054
10203SOL     OW31507   6.720   2.834   2.299
10203SOL    HW131508   6.771   2.859   2.217
10203SOL    HW231509   6.726   2.735   2.314
10204SOL     OW31510   4.748   5.853   6.924
10204SOL    HW131511   4.793   5.935   6.960
10204SOL    HW231512   4.794   5.772   6.960
10205SOL     OW31513   2.313   0.504   2.185
10205SOL    HW131514   2.379   0.561   2.235
10205SOL    HW231515   2.339   0.408   2.193
10206SOL     OW31516   6.815   0.270   6.497
10206SOL    HW131517   6.725   0.231   6.482
10206SOL    HW231518   6.844   0.255   6.591
10207SOL     OW31519   1.266   2.267   6.873
10207SOL    HW131520   1.343   2.331   6.871
10207SOL    HW231521   1.185   2.311   6.835
10208SOL     OW31522   6.353   4.969   3.817
10208SOL    HW131523   6.401   4.911   3.751
10208SOL    HW231524   6.398   5.059   3.822
10209SOL     OW31525   0.281   0.064   6.922
10209SOL    HW131526   0.352   7.024   6.943
10209SOL    HW231527   0.245   0.046   6.830
10210SOL     OW31528   4.300   6.544   1.833
10210SOL    HW131529   4.395   6.514   1.842
10210SOL    HW231530   4.269   6.582   1.921
10211SOL     OW31531   4.801   6.592   4.246
10211SOL    HW131532   4.803   6.642   4.333
10211SOL    HW231533   4.881   6.533   4.240
10212SOL     OW31534   0.125   0.375   5.620
10212SOL    HW131535   0.200   0.328   5.574
10212SOL    HW231536   0.049   0.311   5.634
10213SOL     OW31537   5.736   2.414   1.591
10213SOL    HW131538   5.764   2.493   1.537
10213SOL    HW231539   5.717   2.442   1.685
10214SOL     OW31540   0.520   1.973   1.319
10214SOL    HW131541   0.549   1.921   1.399
10214SOL    HW231542   0.454   2.043   1.346
10215SOL     OW31543   3.858   3.282   4.097
10215SOL    HW131544   3.927   3.259   4.166
10215SOL    HW231545   3.809   3.364   4.125
10216SOL     OW31546   7.001   1.233   1.644
10216SOL    HW131547   7.005   1.263   1.549
10216SOL    HW231548   0.049   1.170   1.662
10217SOL     OW31549   3.121   1.343   3.589
10217SOL    HW131550   3.186   1.418   3.604
10217SOL    HW231551   3.171   1.257   3.579
10218SOL     OW31552   1.213   1.227   1.827
10218SOL    HW131553   1.160   1.162   1.772
10218SOL    HW231554   1.219   1.314   1.779
10219SOL     OW31555   0.439   1.947   3.523
10219SOL    HW131556   0.493   2.030   3.509
10219SOL    HW231557   0.396   1.920   3.437
10220SOL     OW31558   4.863   1.717   0.889
10220SOL    HW131559   4.944   1.759   0.848
10220SOL    HW231560   4.874   1.714   0.989
10221SOL     OW31561   1.726   3.947   4.072
10221SOL    HW131562   1.633   3.940   4.037
10221SOL    HW231563   1.781   4.002   4.009
10222SOL     OW31564   3.085   4.318   5.251
10222SOL    HW131565   3.009   4.377   5.225
10222SOL    HW231566   3.050   4.225   5.266
10223SOL     OW31567   2.295   4.540   1.149
10223SOL    HW131568   2.258   4.630   1.174
10223SOL    HW231569   2.326   4.542   1.054
10224SOL     OW31570   5.991   2.717   5.846
10224SOL    HW131571   5.991   2.810   5.882
10224SOL    HW231572   6.084   2.691   5.823
10225SOL     OW31573   1.458   5.788   5.127
10225SOL    HW131574   1.433   5.693   5.106
10225SOL    HW231575   1.443   5.806   5.224
10226SOL     OW31576   2.361   0.258   6.199
10226SOL    HW131577   2.331   0.332   6.140
10226SOL    HW231578   2.362   0.289   6.294
10227SOL     OW31579   5.678   4.880   0.836
10227SOL    HW131580   5.704   4.786   0.857
10227SOL    HW231581   5.760   4.938   0.831
10228SOL     OW31582   0.685   6.437   2.144
10228SOL    HW131583   0.613   6.486   2.094
10228SOL    HW231584   0.682   6.463   2.240
10229SOL     OW31585   1.923   3.188   5.007
10229SOL    HW131586   1.953   3.135   5.086
10229SOL    HW231587   1.829   3.219   5.021
10230SOL     OW31588   6.289   6.071   3.090
10230SOL    HW131589   6.231   6.000   3.051
10230SOL    HW231590   6.249   6.161   3.072
10231SOL     OW31591   6.576   4.645   5.310
10231SOL    HW131592   6.536   4.627   5.220
10231SOL    HW231593   6.510   4.620   5.381
10232SOL     OW31594   3.469   1.360   4.145
10232SOL    HW131595   3.495   1.345   4.240
10232SOL    HW231596   3.390   1.422   4.141
10233SOL     OW31597   3.831   3.738   4.975
10233SOL    HW131598   3.922   3.705   4.950
10233SOL    HW231599   3.807   3.817   4.918
10234SOL     OW31600   5.604   0.502   0.621
10234SOL    HW131601   5.576   0.593   0.652
10234SOL    HW231602   5.702   0.503   0.599
10235SOL     OW31603   3.494   2.206   1.225
10235SOL    HW131604   3.524   2.224   1.319
10235SOL    HW231605   3.407   2.157   1.227
10236SOL     OW31606   2.433   1.111   0.855
10236SOL    HW131607   2.337   1.136   0.854
10236SOL    HW231608   2.460   1.077   0.765
10237SOL     OW31609   0.857   4.464   6.183
10237SOL    HW131610   0.796   4.523   6.237
10237SOL    HW231611   0.941   4.449   6.234
10238SOL     OW31612   3.889   4.287   1.722
10238SOL    HW131613   3.790   4.301   1.722
10238SOL    HW231614   3.912   4.211   1.784
10239SOL     OW31615   2.084   3.536   6.255
10239SOL    HW131616   2.171   3.509   6.296
10239SOL    HW231617   2.101   3.581   6.167
10240SOL     OW31618   1.774   4.712   2.421
10240SOL    HW131619   1.806   4.806   2.424
10240SOL    HW231620   1.744   4.689   2.329
10241SOL     OW31621   0.148   6.218   3.405
10241SOL    HW131622   0.066   6.257   3.449
10241SOL    HW231623   0.130   6.123   3.380
10242SOL     OW31624   0.117   0.836   1.201
10242SOL    HW131625   0.147   0.763   1.262
10242SOL    HW231626   0.029   0.810   1.159
10243SOL     OW31627   2.200   4.125   2.469
10243SOL    HW131628   2.180   4.085   2.380
10243SOL    HW231629   2.270   4.071   2.516
10244SOL     OW31630   1.580   4.336   0.883
10244SOL    HW131631   1.563   4.431   0.856
10244SOL    HW231632   1.501   4.300   0.933
10245SOL     OW31633   3.662   3.560   1.520
10245SOL    HW131634   3.587   3.502   1.553
10245SOL    HW231635   3.715   3.593   1.598
10246SOL     OW31636   3.230   3.334   3.800
10246SOL    HW131637   3.239   3.287   3.887
10246SOL    HW231638   3.164   3.286   3.742
10247SOL     OW31639   6.940   4.191   6.309
10247SOL    HW131640   6.885   4.243   6.244
10247SOL    HW231641   7.005   4.133   6.260
10248SOL     OW31642   1.537   6.525   2.688
10248SOL    HW131643   1.500   6.438   2.655
10248SOL    HW231644   1.529   6.529   2.787
10249SOL     OW31645   3.276   6.042   6.684
10249SOL    HW131646   3.231   6.121   6.726
10249SOL    HW231647   3.209   5.992   6.628
10250SOL     OW31648   6.473   2.695   1.526
10250SOL    HW131649   6.392   2.752   1.509
10250SOL    HW231650   6.542   2.749   1.574
10251SOL     OW31651   2.298   1.505   5.084
10251SOL    HW131652   2.308   1.442   5.007
10251SOL    HW231653   2.245   1.460   5.157
10252SOL     OW31654   3.667   4.529   6.013
10252SOL    HW131655   3.729   4.454   5.987
10252SOL    HW231656   3.576   4.491   6.032
10253SOL     OW31657   2.800   6.266   0.750
10253SOL    HW131658   2.784   6.295   0.656
10253SOL    HW231659   2.817   6.168   0.753
10254SOL     OW31660   5.134   1.326   5.662
10254SOL    HW131661   5.085   1.312   5.748
10254SOL    HW231662   5.204   1.397   5.674
10255SOL     OW31663   2.633   5.899   1.667
10255SOL    HW131664   2.576   5.826   1.705
10255SOL    HW231665   2.725   5.893   1.706
10256SOL     OW31666   4.953   2.177   2.007
10256SOL    HW131667   4.996   2.164   2.097
10256SOL    HW231668   5.025   2.185   1.938
10257SOL     OW31669   1.682   4.598   4.740
10257SOL    HW131670   1.780   4.590   4.722
10257SOL    HW231671   1.649   4.513   4.780
10258SOL     OW31672   3.454   1.437   3.656
10258SOL    HW131673   3.516   1.494   3.603
10258SOL    HW231674   3.376   1.492   3.685
10259SOL     OW31675   1.323   4.794   2.881
10259SOL    HW131676   1.322   4.893   2.893
10259SOL    HW231677   1.346   4.751   2.969
10260SOL     OW31678   1.483   1.640   3.561
10260SOL    HW131679   1.457   1.706   3.631
10260SOL    HW231680   1.506   1.689   3.476
10261SOL     OW31681   6.732   4.823   2.150
10261SOL    HW131682   6.650   4.775   2.120
10261SOL    HW231683   6.746   4.807   2.247
10262SOL     OW31684   2.532   6.835   5.533
10262SOL    HW131685   2.614   6.779   5.538
10262SOL    HW231686   2.488   6.840   5.623
10263SOL     OW31687   5.375   0.246   0.048
10263SOL    HW131688   5.285   0.238   0.091
10263SOL    HW231689   5.364   0.247   6.976
10264SOL     OW31690   5.973   0.091   6.645
10264SOL    HW131691   5.906   0.133   6.585
10264SOL    HW231692   5.983   0.146   6.728
10265SOL     OW31693   2.545   2.925   1.323
10265SOL    HW131694   2.503   2.874   1.398
10265SOL    HW231695   2.475   2.972   1.270
10266SOL     OW31696   3.851   3.125   3.625
10266SOL    HW131697   3.789   3.204   3.619
10266SOL    HW231698   3.899   3.128   3.713
10267SOL     OW31699   6.010   2.641   6.921
10267SOL    HW131700   5.936   2.574   6.922
10267SOL    HW231701   6.057   2.641   7.010
10268SOL     OW31702   6.014   5.700   2.559
10268SOL    HW131703   6.030   5.666   2.651
10268SOL    HW231704   6.097   5.746   2.526
10269SOL     OW31705   0.633   3.741   6.885
10269SOL    HW131706   0.705   3.781   6.829
10269SOL    HW231707   0.614   3.648   6.854
10270SOL     OW31708   3.516   4.869   2.472
10270SOL    HW131709   3.490   4.915   2.387
10270SOL    HW231710   3.475   4.778   2.475
10271SOL     OW31711   3.806   2.598   6.688
10271SOL    HW131712   3.860   2.679   6.665
10271SOL    HW231713   3.785   2.547   6.605
10272SOL     OW31714   1.647   1.626   5.134
10272SOL    HW131715   1.574   1.680   5.178
10272SOL    HW231716   1.606   1.548   5.087
10273SOL     OW31717   2.531   5.168   2.523
10273SOL    HW131718   2.609   5.196   2.578
10273SOL    HW231719   2.456   5.234   2.535
10274SOL     OW31720   0.732   5.456   5.494
10274SOL    HW131721   0.711   5.538   5.547
10274SOL    HW231722   0.745   5.481   5.398
10275SOL     OW31723   0.553   6.600   2.494
10275SOL    HW131724   0.566   6.508   2.531
10275SOL    HW231725   0.491   6.596   2.415
10276SOL     OW31726   5.483   5.129   5.542
10276SOL    HW131727   5.578   5.155   5.531
10276SOL    HW231728   5.426   5.211   5.546
10277SOL     OW31729   1.325   5.983   4.251
10277SOL    HW131730   1.419   5.950   4.242
10277SOL    HW231731   1.276   5.927   4.317
10278SOL     OW31732   1.172   1.774   3.646
10278SOL    HW131733   1.161   1.721   3.562
10278SOL    HW231734   1.269   1.794   3.660
10279SOL     OW31735   1.860   5.009   4.325
10279SOL    HW131736   1.949   4.966   4.344
10279SOL    HW231737   1.795   4.940   4.296
10280SOL     OW31738   0.197   2.992   0.221
10280SOL    HW131739   0.135   2.949   0.155
10280SOL    HW231740   0.186   2.949   0.310
10281SOL     OW31741   5.602   1.404   2.973
10281SOL    HW131742   5.609   1.384   2.875
10281SOL    HW231743   5.677   1.360   3.021
10282SOL     OW31744   5.782   3.862   4.231
10282SOL    HW131745   5.822   3.851   4.140
10282SOL    HW231746   5.686   3.837   4.229
10283SOL     OW31747   2.114   3.128   0.926
10283SOL    HW131748   2.122   3.190   0.847
10283SOL    HW231749   2.160   3.042   0.905
10284SOL     OW31750   5.150   2.258   5.055
10284SOL    HW131751   5.243   2.279   5.086
10284SOL    HW231752   5.128   2.163   5.076
10285SOL     OW31753   5.516   6.713   2.436
10285SOL    HW131754   5.533   6.633   2.494
10285SOL    HW231755   5.473   6.785   2.490
10286SOL     OW31756   3.440   1.793   3.295
10286SOL    HW131757   3.450   1.789   3.196
10286SOL    HW231758   3.497   1.867   3.331
10287SOL     OW31759   2.278   5.914   1.744
10287SOL    HW131760   2.261   5.948   1.836
10287SOL    HW231761   2.307   5.990   1.685
10288SOL     OW31762   4.620   5.232   3.008
10288SOL    HW131763   4.669   5.177   3.076
10288SOL    HW231764   4.614   5.182   2.922
10289SOL     OW31765   2.422   6.283   0.302
10289SOL    HW131766   2.385   6.376   0.306
10289SOL    HW231767   2.349   6.218   0.280
10290SOL     OW31768   3.193   3.929   2.640
10290SOL    HW131769   3.097   3.902   2.634
10290SOL    HW231770   3.231   3.899   2.728
10291SOL     OW31771   3.901   1.821   2.939
10291SOL    HW131772   3.896   1.819   2.839
10291SOL    HW231773   3.963   1.894   2.968
10292SOL     OW31774   1.810   1.548   5.407
10292SOL    HW131775   1.774   1.639   5.427
10292SOL    HW231776   1.748   1.479   5.444
10293SOL     OW31777   2.191   3.829   2.512
10293SOL    HW131778   2.187   3.808   2.609
10293SOL    HW231779   2.168   3.747   2.459
10294SOL     OW31780   5.483   2.949   2.945
10294SOL    HW131781   5.400   2.976   2.994
10294SOL    HW231782   5.509   2.857   2.973
10295SOL     OW31783   0.444   3.748   5.623
10295SOL    HW131784   0.416   3.825   5.566
10295SOL    HW231785   0.380   3.672   5.611
10296SOL     OW31786   4.765   1.555   6.934
10296SOL    HW131787   4.704   1.635   6.930
10296SOL    HW231788   4.846   1.572   6.877
10297SOL     OW31789   1.925   0.204   6.346
10297SOL    HW131790   2.004   0.176   6.292
10297SOL    HW231791   1.889   0.125   6.396
10298SOL     OW31792   2.375   4.222   1.822
10298SOL    HW131793   2.283   4.213   1.784
10298SOL    HW231794   2.369   4.234   1.922
10299SOL     OW31795   4.637   4.516   2.912
10299SOL    HW131796   4.609   4.441   2.972
10299SOL    HW231797   4.584   4.598   2.933
10300SOL     OW31798   1.057   4.113   2.274
10300SOL    HW131799   0.985   4.047   2.293
10300SOL    HW231800   1.106   4.086   2.191
10301SOL     OW31801   5.359   2.596   4.000
10301SOL    HW131802   5.390   2.686   4.029
10301SOL    HW231803   5.268   2.578   4.037
10302SOL     OW31804   1.695   6.801   4.256
10302SOL    HW131805   1.775   6.845   4.298
10302SOL    HW231806   1.632   6.872   4.223
10303SOL     OW31807   1.580   5.994   2.948
10303SOL    HW131808   1.618   5.924   2.888
10303SOL    HW231809   1.597   6.084   2.910
10304SOL     OW31810   5.475   6.903   1.451
10304SOL    HW131811   5.423   6.977   1.409
10304SOL    HW231812   5.564   6.939   1.481
10305SOL     OW31813   1.540   4.233   6.909
10305SOL    HW131814   1.630   4.273   6.927
10305SOL    HW231815   1.539   4.139   6.944
10306SOL     OW31816   5.113   6.969   6.544
10306SOL    HW131817   5.146   6.964   6.638
10306SOL    HW231818   5.138   6.886   6.495
10307SOL     OW31819   3.017   2.072   5.166
10307SOL    HW131820   3.009   2.107   5.259
10307SOL    HW231821   3.054   2.143   5.106
10308SOL     OW31822   1.860   3.850   2.962
10308SOL    HW131823   1.894   3.773   3.016
10308SOL    HW231824   1.848   3.822   2.867
10309SOL     OW31825   6.544   1.253   6.657
10309SOL    HW131826   6.603   1.185   6.701
10309SOL    HW231827   6.508   1.316   6.726
10310SOL     OW31828   3.312   3.238   1.188
10310SOL    HW131829   3.369   3.156   1.175
10310SOL    HW231830   3.229   3.213   1.237
10311SOL     OW31831   0.069   6.069   0.419
10311SOL    HW131832   0.116   6.009   0.484
10311SOL    HW231833   7.000   6.074   0.443
10312SOL     OW31834   3.522   5.783   2.519
10312SOL    HW131835   3.609   5.804   2.474
10312SOL    HW231836   3.501   5.853   2.586
10313SOL     OW31837   4.643   6.613   1.898
10313SOL    HW131838   4.677   6.642   1.988
10313SOL    HW231839   4.611   6.693   1.847
10314SOL     OW31840   6.310   0.813   1.759
10314SOL    HW131841   6.401   0.830   1.722
10314SOL    HW231842   6.316   0.743   1.830
10315SOL     OW31843   5.172   5.772   5.329
10315SOL    HW131844   5.220   5.709   5.390
10315SOL    HW231845   5.141   5.852   5.381
10316SOL     OW31846   5.675   1.717   4.096
10316SOL    HW131847   5.619   1.782   4.147
10316SOL    HW231848   5.764   1.707   4.140
10317SOL     OW31849   4.920   5.910   4.717
10317SOL    HW131850   4.821   5.899   4.705
10317SOL    HW231851   4.938   5.997   4.762
10318SOL     OW31852   5.376   6.760   6.701
10318SOL    HW131853   5.295   6.792   6.750
10318SOL    HW231854   5.395   6.821   6.625
10319SOL     OW31855   1.044   2.560   5.822
10319SOL    HW131856   1.053   2.565   5.921
10319SOL    HW231857   1.117   2.503   5.784
10320SOL     OW31858   0.363   0.942   2.907
10320SOL    HW131859   0.353   0.892   2.821
10320SOL    HW231860   0.372   0.876   2.982
10321SOL     OW31861   4.192   1.978   1.582
10321SOL    HW131862   4.135   1.938   1.653
10321SOL    HW231863   4.286   1.945   1.593
10322SOL     OW31864   6.462   5.744   5.309
10322SOL    HW131865   6.424   5.662   5.353
10322SOL    HW231866   6.458   5.733   5.210
10323SOL     OW31867   5.715   3.032   5.649
10323SOL    HW131868   5.690   3.088   5.571
10323SOL    HW231869   5.756   2.947   5.617
10324SOL     OW31870   3.333   3.427   2.350
10324SOL    HW131871   3.346   3.332   2.323
10324SOL    HW231872   3.236   3.444   2.365
10325SOL     OW31873   6.921   3.614   2.146
10325SOL    HW131874   6.871   3.573   2.223
10325SOL    HW231875   6.893   3.568   2.061
10326SOL     OW31876   3.322   4.829   0.102
10326SOL    HW131877   3.311   4.860   0.008
10326SOL    HW231878   3.393   4.759   0.106
10327SOL     OW31879   2.390   1.467   1.122
10327SOL    HW131880   2.453   1.394   1.096
10327SOL    HW231881   2.324   1.482   1.049
10328SOL     OW31882   6.162   2.545   0.905
10328SOL    HW131883   6.244   2.549   0.847
10328SOL    HW231884   6.092   2.490   0.859
10329SOL     OW31885   3.741   0.372   3.722
10329SOL    HW131886   3.649   0.398   3.694
10329SOL    HW231887   3.766   0.284   3.681
10330SOL     OW31888   4.740   0.503   2.268
10330SOL    HW131889   4.655   0.511   2.216
10330SOL    HW231890   4.739   0.418   2.320
10331SOL     OW31891   6.630   0.972   5.627
10331SOL    HW131892   6.710   0.999   5.679
10331SOL    HW231893   6.548   1.014   5.667
10332SOL     OW31894   6.887   6.683   0.461
10332SOL    HW131895   6.889   6.616   0.535
10332SOL    HW231896   6.880   6.775   0.499
10333SOL     OW31897   6.882   4.899   4.375
10333SOL    HW131898   6.919   4.818   4.419
10333SOL    HW231899   6.900   4.979   4.433
10334SOL     OW31900   3.999   6.575   3.550
10334SOL    HW131901   4.029   6.485   3.519
10334SOL    HW231902   3.970   6.629   3.471
10335SOL     OW31903   3.168   4.546   0.018
10335SOL    HW131904   3.258   4.587   0.037
10335SOL    HW231905   3.127   4.516   0.104
10336SOL     OW31906   6.811   6.418   2.222
10336SOL    HW131907   6.875   6.452   2.153
10336SOL    HW231908   6.817   6.474   2.304
10337SOL     OW31909   6.920   6.839   5.909
10337SOL    HW131910   6.930   6.836   5.809
10337SOL    HW231911   6.861   6.763   5.938
10338SOL     OW31912   2.324   6.683   2.817
10338SOL    HW131913   2.342   6.586   2.831
10338SOL    HW231914   2.386   6.737   2.874
10339SOL     OW31915   3.617   4.787   0.144
10339SOL    HW131916   3.654   4.845   0.072
10339SOL    HW231917   3.657   4.814   0.232
10340SOL     OW31918   1.784   4.290   0.718
10340SOL    HW131919   1.712   4.289   0.788
10340SOL    HW231920   1.831   4.378   0.719
10341SOL     OW31921   2.052   3.421   1.782
10341SOL    HW131922   2.020   3.471   1.702
10341SOL    HW231923   2.127   3.471   1.825
10342SOL     OW31924   1.080   0.163   5.404
10342SOL    HW131925   1.108   0.230   5.473
10342SOL    HW231926   1.113   0.072   5.431
10343SOL     OW31927   3.775   6.058   6.152
10343SOL    HW131928   3.693   6.002   6.161
10343SOL    HW231929   3.750   6.150   6.120
10344SOL     OW31930   4.482   4.083   1.636
10344SOL    HW131931   4.576   4.079   1.669
10344SOL    HW231932   4.429   4.146   1.693
10345SOL     OW31933   1.989   1.182   6.772
10345SOL    HW131934   1.925   1.137   6.711
10345SOL    HW231935   2.051   1.114   6.811
10346SOL     OW31936   6.728   6.724   1.838
10346SOL    HW131937   6.702   6.810   1.794
10346SOL    HW231938   6.649   6.663   1.843
10347SOL     OW31939   4.749   2.228   2.822
10347SOL    HW131940   4.783   2.228   2.916
10347SOL    HW231941   4.758   2.320   2.784
10348SOL     OW31942   6.582   1.231   0.031
10348SOL    HW131943   6.665   1.270   0.070
10348SOL    HW231944   6.591   1.223   6.960
10349SOL     OW31945   6.918   0.661   1.148
10349SOL    HW131946   6.871   0.575   1.166
10349SOL    HW231947   6.884   0.701   1.064
10350SOL     OW31948   1.798   6.859   5.414
10350SOL    HW131949   1.872   6.924   5.433
10350SOL    HW231950   1.826   6.767   5.440
10351SOL     OW31951   4.539   5.358   6.488
10351SOL    HW131952   4.603   5.425   6.527
10351SOL    HW231953   4.546   5.360   6.389
10352SOL     OW31954   4.465   2.184   5.696
10352SOL    HW131955   4.484   2.092   5.730
10352SOL    HW231956   4.519   2.202   5.614
10353SOL     OW31957   7.003   2.440   5.563
10353SOL    HW131958   0.018   2.436   5.654
10353SOL    HW231959   6.918   2.388   5.563
10354SOL     OW31960   5.908   2.389   1.849
10354SOL    HW131961   5.959   2.317   1.896
10354SOL    HW231962   5.929   2.386   1.751
10355SOL     OW31963   1.734   0.079   1.980
10355SOL    HW131964   1.647   0.083   2.030
10355SOL    HW231965   1.720   0.112   1.886
10356SOL     OW31966   0.485   4.616   6.003
10356SOL    HW131967   0.541   4.572   6.073
10356SOL    HW231968   0.474   4.555   5.925
10357SOL     OW31969   2.552   3.230   5.982
10357SOL    HW131970   2.481   3.167   5.952
10357SOL    HW231971   2.635   3.179   6.004
10358SOL     OW31972   6.480   2.989   2.524
10358SOL    HW131973   6.568   3.035   2.509
10358SOL    HW231974   6.492   2.891   2.515
10359SOL     OW31975   6.958   1.790   1.499
10359SOL    HW131976   6.930   1.740   1.580
10359SOL    HW231977   6.949   1.889   1.515
10360SOL     OW31978   4.745   5.686   2.685
10360SOL    HW131979   4.699   5.667   2.598
10360SOL    HW231980   4.712   5.623   2.755
10361SOL     OW31981   3.029   0.545   3.018
10361SOL    HW131982   2.955   0.594   2.972
10361SOL    HW231983   3.050   0.461   2.967
10362SOL     OW31984   1.075   5.327   4.559
10362SOL    HW131985   0.978   5.323   4.535
10362SOL    HW231986   1.130   5.316   4.476
10363SOL     OW31987   4.554   1.665   1.024
10363SOL    HW131988   4.588   1.746   0.976
10363SOL    HW231989   4.552   1.683   1.122
10364SOL     OW31990   3.131   3.603   1.984
10364SOL    HW131991   3.129   3.523   1.923
10364SOL    HW231992   3.211   3.598   2.043
10365SOL     OW31993   4.828   4.528   5.694
10365SOL    HW131994   4.912   4.581   5.682
10365SOL    HW231995   4.769   4.539   5.615
10366SOL     OW31996   4.505   0.352   4.359
10366SOL    HW131997   4.510   0.436   4.305
10366SOL    HW231998   4.552   0.278   4.311
10367SOL     OW31999   6.912   1.407   1.859
10367SOL    HW132000   6.947   1.348   1.786
10367SOL    HW232001   6.827   1.369   1.894
10368SOL     OW32002   1.924   1.189   1.924
10368SOL    HW132003   1.900   1.242   2.005
10368SOL    HW232004   1.996   1.123   1.947
10369SOL     OW32005   3.746   1.470   4.919
10369SOL    HW132006   3.726   1.417   4.836
10369SOL    HW232007   3.664   1.475   4.975
10370SOL     OW32008   5.721   1.832   5.204
10370SOL    HW132009   5.804   1.887   5.219
10370SOL    HW232010   5.670   1.824   5.290
10371SOL     OW32011   2.233   6.051   4.374
10371SOL    HW132012   2.197   5.958   4.389
10371SOL    HW232013   2.284   6.053   4.288
10372SOL     OW32014   1.628   1.296   0.025
10372SOL    HW132015   1.541   1.259   0.057
10372SOL    HW232016   1.683   1.324   0.103
10373SOL     OW32017   2.035   6.366   4.585
10373SOL    HW132018   2.057   6.272   4.609
10373SOL    HW232019   1.936   6.377   4.580
10374SOL     OW32020   4.092   1.119   2.684
10374SOL    HW132021   4.173   1.143   2.631
10374SOL    HW232022   4.071   1.194   2.748
10375SOL     OW32023   2.697   1.309   6.125
10375SOL    HW132024   2.667   1.243   6.193
10375SOL    HW232025   2.735   1.261   6.046
10376SOL     OW32026   1.423   6.421   4.180
10376SOL    HW132027   1.360   6.495   4.204
10376SOL    HW232028   1.502   6.458   4.132
10377SOL     OW32029   6.877   0.802   3.918
10377SOL    HW132030   6.977   0.804   3.930
10377SOL    HW232031   6.833   0.833   4.003
10378SOL     OW32032   6.029   0.051   5.906
10378SOL    HW132033   5.960   0.011   5.967
10378SOL    HW232034   5.989   0.126   5.855
10379SOL     OW32035   3.023   6.559   4.739
10379SOL    HW132036   3.045   6.462   4.754
10379SOL    HW232037   2.952   6.566   4.670
10380SOL     OW32038   0.758   1.719   4.153
10380SOL    HW132039   0.790   1.797   4.207
10380SOL    HW232040   0.798   1.635   4.190
10381SOL     OW32041   4.366   5.234   0.239
10381SOL    HW132042   4.433   5.163   0.264
10381SOL    HW232043   4.279   5.213   0.282
10382SOL     OW32044   2.251   4.252   0.256
10382SOL    HW132045   2.252   4.163   0.210
10382SOL    HW232046   2.286   4.322   0.194
10383SOL     OW32047   6.998   4.137   0.749
10383SOL    HW132048   6.916   4.098   0.791
10383SOL    HW232049   6.983   4.234   0.731
10384SOL     OW32050   0.851   6.912   0.960
10384SOL    HW132051   0.935   6.955   0.991
10384SOL    HW232052   0.779   6.926   1.028
10385SOL     OW32053   3.192   6.465   5.607
10385SOL    HW132054   3.098   6.470   5.640
10385SOL    HW232055   3.225   6.558   5.586
10386SOL     OW32056   6.286   2.875   5.852
10386SOL    HW132057   6.303   2.973   5.855
10386SOL    HW232058   6.287   2.843   5.757
10387SOL     OW32059   4.346   2.313   2.983
10387SOL    HW132060   4.427   2.321   3.040
10387SOL    HW232061   4.366   2.345   2.890
10388SOL     OW32062   2.169   5.860   2.625
10388SOL    HW132063   2.136   5.775   2.584
10388SOL    HW232064   2.118   5.879   2.709
10389SOL     OW32065   0.244   6.625   1.769
10389SOL    HW132066   0.150   6.614   1.802
10389SOL    HW232067   0.242   6.675   1.682
10390SOL     OW32068   2.179   2.827   1.593
10390SOL    HW132069   2.119   2.881   1.652
10390SOL    HW232070   2.273   2.860   1.601
10391SOL     OW32071   1.508   5.594   4.670
10391SOL    HW132072   1.414   5.559   4.674
10391SOL    HW232073   1.529   5.640   4.756
10392SOL     OW32074   6.644   4.328   0.021
10392SOL    HW132075   6.696   4.283   6.976
10392SOL    HW232076   6.585   4.262   0.067
10393SOL     OW32077   2.226   2.240   2.574
10393SOL    HW132078   2.146   2.268   2.626
10393SOL    HW232079   2.206   2.245   2.476
10394SOL     OW32080   2.339   6.544   4.889
10394SOL    HW132081   2.247   6.520   4.859
10394SOL    HW232082   2.403   6.534   4.812
10395SOL     OW32083   6.740   0.699   3.397
10395SOL    HW132084   6.835   0.728   3.412
10395SOL    HW232085   6.688   0.774   3.358
10396SOL     OW32086   2.362   0.504   4.288
10396SOL    HW132087   2.323   0.520   4.197
10396SOL    HW232088   2.291   0.512   4.357
10397SOL     OW32089   3.010   2.223   3.706
10397SOL    HW132090   3.062   2.293   3.659
10397SOL    HW232091   3.056   2.197   3.791
10398SOL     OW32092   6.019   2.638   0.559
10398SOL    HW132093   5.920   2.641   0.577
10398SOL    HW232094   6.054   2.731   0.553
10399SOL     OW32095   4.336   1.845   4.362
10399SOL    HW132096   4.328   1.745   4.367
10399SOL    HW232097   4.245   1.885   4.356
10400SOL     OW32098   3.803   5.575   1.553
10400SOL    HW132099   3.885   5.617   1.592
10400SOL    HW232100   3.730   5.643   1.548
10401SOL     OW32101   6.806   0.556   3.060
10401SOL    HW132102   6.819   0.649   3.025
10401SOL    HW232103   6.715   0.549   3.101
10402SOL     OW32104   0.191   2.701   5.325
10402SOL    HW132105   0.107   2.647   5.322
10402SOL    HW232106   0.185   2.767   5.400
10403SOL     OW32107   5.220   1.481   2.790
10403SOL    HW132108   5.137   1.522   2.828
10403SOL    HW232109   5.298   1.541   2.809
10404SOL     OW32110   0.251   6.544   3.599
10404SOL    HW132111   0.304   6.460   3.607
10404SOL    HW232112   0.243   6.569   3.503
10405SOL     OW32113   1.485   5.483   5.054
10405SOL    HW132114   1.558   5.535   5.009
10405SOL    HW232115   1.521   5.395   5.084
10406SOL     OW32116   2.058   3.768   5.232
10406SOL    HW132117   2.154   3.771   5.258
10406SOL    HW232118   2.051   3.749   5.134
10407SOL     OW32119   1.495   0.462   6.749
10407SOL    HW132120   1.531   0.556   6.745
10407SOL    HW232121   1.403   0.460   6.709
10408SOL     OW32122   3.596   6.175   2.158
10408SOL    HW132123   3.631   6.086   2.132
10408SOL    HW232124   3.496   6.171   2.165
10409SOL     OW32125   7.025   4.054   1.328
10409SOL    HW132126   0.030   4.144   1.357
10409SOL    HW232127   0.010   4.045   1.229
10410SOL     OW32128   4.999   1.602   1.449
10410SOL    HW132129   5.033   1.538   1.518
10410SOL    HW232130   5.054   1.594   1.366
10411SOL     OW32131   3.705   5.680   4.595
10411SOL    HW132132   3.621   5.635   4.561
10411SOL    HW232133   3.700   5.778   4.576
10412SOL     OW32134   0.569   0.901   0.438
10412SOL    HW132135   0.506   0.967   0.478
10412SOL    HW232136   0.545   0.809   0.469
10413SOL     OW32137   0.071   1.876   0.792
10413SOL    HW132138   0.074   1.892   0.890
10413SOL    HW232139   7.024   1.930   0.752
10414SOL     OW32140   4.946   6.194   5.573
10414SOL    HW132141   5.031   6.238   5.602
10414SOL    HW232142   4.901   6.250   5.504
10415SOL     OW32143   2.619   4.590   3.729
10415SOL    HW132144   2.529   4.607   3.690
10415SOL    HW232145   2.630   4.492   3.746
10416SOL     OW32146   6.570   1.192   5.452
10416SOL    HW132147   6.616   1.120   5.503
10416SOL    HW232148   6.487   1.155   5.410
10417SOL     OW32149   4.728   4.099   3.875
10417SOL    HW132150   4.757   4.098   3.971
10417SOL    HW232151   4.752   4.011   3.833
10418SOL     OW32152   6.363   4.356   5.198
10418SOL    HW132153   6.397   4.296   5.271
10418SOL    HW232154   6.270   4.384   5.220
10419SOL     OW32155   2.758   0.557   5.374
10419SOL    HW132156   2.702   0.498   5.433
10419SOL    HW232157   2.847   0.513   5.358
10420SOL     OW32158   6.843   3.661   3.913
10420SOL    HW132159   6.873   3.578   3.961
10420SOL    HW232160   6.791   3.636   3.832
10421SOL     OW32161   1.365   3.030   4.110
10421SOL    HW132162   1.464   3.042   4.120
10421SOL    HW232163   1.347   2.946   4.058
10422SOL     OW32164   6.643   3.780   5.864
10422SOL    HW132165   6.704   3.787   5.943
10422SOL    HW232166   6.637   3.685   5.834
10423SOL     OW32167   4.237   5.070   4.836
10423SOL    HW132168   4.268   4.976   4.851
10423SOL    HW232169   4.180   5.099   4.913
10424SOL     OW32170   4.432   2.507   6.823
10424SOL    HW132171   4.445   2.585   6.885
10424SOL    HW232172   4.442   2.422   6.875
10425SOL     OW32173   0.370   6.280   1.958
10425SOL    HW132174   0.376   6.325   1.869
10425SOL    HW232175   0.300   6.208   1.954
10426SOL     OW32176   5.454   3.538   5.847
10426SOL    HW132177   5.386   3.581   5.907
10426SOL    HW232178   5.430   3.442   5.834
10427SOL     OW32179   5.308   6.517   6.391
10427SOL    HW132180   5.384   6.539   6.331
10427SOL    HW232181   5.342   6.474   6.475
10428SOL     OW32182   1.830   1.829   4.094
10428SOL    HW132183   1.905   1.813   4.029
10428SOL    HW232184   1.853   1.787   4.182
10429SOL     OW32185   1.077   3.711   2.901
10429SOL    HW132186   0.981   3.683   2.910
10429SOL    HW232187   1.095   3.790   2.959
10430SOL     OW32188   3.877   6.179   4.481
10430SOL    HW132189   3.899   6.262   4.532
10430SOL    HW232190   3.786   6.147   4.508
10431SOL     OW32191   2.940   0.889   4.287
10431SOL    HW132192   2.886   0.804   4.286
10431SOL    HW232193   2.954   0.919   4.381
10432SOL     OW32194   0.271   1.496   5.269
10432SOL    HW132195   0.203   1.528   5.203
10432SOL    HW232196   0.362   1.523   5.238
10433SOL     OW32197   0.029   6.353   1.812
10433SOL    HW132198   0.070   6.361   1.721
10433SOL    HW232199   0.057   6.266   1.854
10434SOL     OW32200   4.543   6.105   4.596
10434SOL    HW132201   4.451   6.105   4.557
10434SOL    HW232202   4.571   6.011   4.615
10435SOL     OW32203   1.794   2.023   5.929
10435SOL    HW132204   1.837   1.936   5.951
10435SOL    HW232205   1.704   2.027   5.972
10436SOL     OW32206   6.692   4.274   4.017
10436SOL    HW132207   6.742   4.338   3.957
10436SOL    HW232208   6.689   4.184   3.974
10437SOL     OW32209   5.633   5.000   5.268
10437SOL    HW132210   5.723   5.043   5.270
10437SOL    HW232211   5.630   4.924   5.332
10438SOL     OW32212   6.892   5.892   5.928
10438SOL    HW132213   6.837   5.831   5.985
10438SOL    HW232214   6.939   5.959   5.985
10439SOL     OW32215   5.558   1.261   5.468
10439SOL    HW132216   5.499   1.335   5.436
10439SOL    HW232217   5.516   1.216   5.547
10440SOL     OW32218   6.716   6.681   6.993
10440SOL    HW132219   6.618   6.663   7.005
10440SOL    HW232220   6.760   6.684   0.055
10441SOL     OW32221   3.291   1.594   1.029
10441SOL    HW132222   3.370   1.610   1.089
10441SOL    HW232223   3.304   1.507   0.980
10442SOL     OW32224   4.472   0.547   4.855
10442SOL    HW132225   4.544   0.509   4.914
10442SOL    HW232226   4.448   0.479   4.785
10443SOL     OW32227   6.526   2.397   2.673
10443SOL    HW132228   6.452   2.394   2.605
10443SOL    HW232229   6.514   2.477   2.732
10444SOL     OW32230   3.228   5.078   3.040
10444SOL    HW132231   3.317   5.053   3.079
10444SOL    HW232232   3.160   5.084   3.113
10445SOL     OW32233   0.726   3.564   2.511
10445SOL    HW132234   0.728   3.660   2.538
10445SOL    HW232235   0.641   3.546   2.462
10446SOL     OW32236   1.725   4.061   6.231
10446SOL    HW132237   1.770   4.076   6.319
10446SOL    HW232238   1.774   3.989   6.180
10447SOL     OW32239   6.616   0.298   2.160
10447SOL    HW132240   6.639   0.202   2.143
10447SOL    HW232241   6.699   0.349   2.183
10448SOL     OW32242   3.454   0.332   2.957
10448SOL    HW132243   3.462   0.328   3.057
10448SOL    HW232244   3.475   0.424   2.925
10449SOL     OW32245   2.987   5.885   6.810
10449SOL    HW132246   3.005   5.983   6.820
10449SOL    HW232247   2.946   5.867   6.721
10450SOL     OW32248   6.665   0.745   6.570
10450SOL    HW132249   6.672   0.829   6.516
10450SOL    HW232250   6.756   0.720   6.603
10451SOL     OW32251   3.311   0.089   2.941
10451SOL    HW132252   3.353   0.180   2.951
10451SOL    HW232253   3.337   0.051   2.852
10452SOL     OW32254   6.797   3.066   2.490
10452SOL    HW132255   6.752   2.978   2.480
10452SOL    HW232256   6.894   3.052   2.512
10453SOL     OW32257   4.377   6.353   2.280
10453SOL    HW132258   4.457   6.401   2.243
10453SOL    HW232259   4.310   6.339   2.207
10454SOL     OW32260   5.893   0.782   0.536
10454SOL    HW132261   5.831   0.807   0.611
10454SOL    HW232262   5.904   0.682   0.534
10455SOL     OW32263   0.229   5.959   4.255
10455SOL    HW132264   0.271   5.877   4.294
10455SOL    HW232265   0.269   5.978   4.165
10456SOL     OW32266   0.481   5.742   0.436
10456SOL    HW132267   0.471   5.660   0.379
10456SOL    HW232268   0.454   5.721   0.530
10457SOL     OW32269   4.063   3.287   6.975
10457SOL    HW132270   4.163   3.284   6.971
10457SOL    HW232271   4.033   3.258   0.039
10458SOL     OW32272   6.544   6.659   6.626
10458SOL    HW132273   6.473   6.728   6.615
10458SOL    HW232274   6.623   6.700   6.672
10459SOL     OW32275   5.429   4.827   0.952
10459SOL    HW132276   5.510   4.852   0.899
10459SOL    HW232277   5.450   4.831   1.050
10460SOL     OW32278   0.310   3.662   2.117
10460SOL    HW132279   0.253   3.588   2.083
10460SOL    HW232280   0.267   3.750   2.095
10461SOL     OW32281   6.190   4.753   5.382
10461SOL    HW132282   6.143   4.708   5.307
10461SOL    HW232283   6.224   4.842   5.352
10462SOL     OW32284   6.020   2.253   2.820
10462SOL    HW132285   6.117   2.261   2.794
10462SOL    HW232286   5.977   2.343   2.816
10463SOL     OW32287   4.643   2.145   5.430
10463SOL    HW132288   4.612   2.055   5.399
10463SOL    HW232289   4.578   2.215   5.402
10464SOL     OW32290   5.978   6.209   1.937
10464SOL    HW132291   5.900   6.146   1.939
10464SOL    HW232292   5.958   6.288   1.994
10465SOL     OW32293   4.673   5.479   1.998
10465SOL    HW132294   4.763   5.523   2.001
10465SOL    HW232295   4.604   5.542   2.034
10466SOL     OW32296   4.752   4.386   6.115
10466SOL    HW132297   4.741   4.480   6.149
10466SOL    HW232298   4.701   4.323   6.173
10467SOL     OW32299   1.675   2.521   0.604
10467SOL    HW132300   1.744   2.512   0.676
10467SOL    HW232301   1.629   2.433   0.590
10468SOL     OW32302   4.368   4.778   3.900
10468SOL    HW132303   4.322   4.767   3.988
10468SOL    HW232304   4.302   4.807   3.831
10469SOL     OW32305   4.403   4.233   5.696
10469SOL    HW132306   4.349   4.179   5.760
10469SOL    HW232307   4.501   4.216   5.712
10470SOL     OW32308   2.495   1.529   3.325
10470SOL    HW132309   2.577   1.472   3.330
10470SOL    HW232310   2.415   1.471   3.311
10471SOL     OW32311   3.124   0.439   0.466
10471SOL    HW132312   3.035   0.442   0.422
10471SOL    HW232313   3.128   0.509   0.538
10472SOL     OW32314   2.815   5.484   0.617
10472SOL    HW132315   2.752   5.435   0.678
10472SOL    HW232316   2.871   5.547   0.670
10473SOL     OW32317   5.948   6.449   5.607
10473SOL    HW132318   5.962   6.386   5.531
10473SOL    HW232319   6.034   6.462   5.657
10474SOL     OW32320   4.350   1.113   3.758
10474SOL    HW132321   4.321   1.058   3.680
10474SOL    HW232322   4.345   1.058   3.841
10475SOL     OW32323   3.083   6.878   1.777
10475SOL    HW132324   3.154   6.945   1.801
10475SOL    HW232325   3.047   6.900   1.687
10476SOL     OW32326   5.051   6.419   5.950
10476SOL    HW132327   5.050   6.514   5.918
10476SOL    HW232328   5.086   6.417   6.044
10477SOL     OW32329   6.508   0.710   4.951
10477SOL    HW132330   6.510   0.732   4.853
10477SOL    HW232331   6.432   0.648   4.970
10478SOL     OW32332   6.621   6.196   6.818
10478SOL    HW132333   6.697   6.162   6.764
10478SOL    HW232334   6.575   6.270   6.769
10479SOL     OW32335   6.712   1.119   2.448
10479SOL    HW132336   6.634   1.158   2.498
10479SOL    HW232337   6.722   1.022   2.471
10480SOL     OW32338   1.101   0.837   2.157
10480SOL    HW132339   1.010   0.864   2.125
10480SOL    HW232340   1.149   0.918   2.191
10481SOL     OW32341   1.783   6.442   2.594
10481SOL    HW132342   1.845   6.519   2.580
10481SOL    HW232343   1.703   6.472   2.644
10482SOL     OW32344   6.450   5.300   4.553
10482SOL    HW132345   6.449   5.329   4.649
10482SOL    HW232346   6.523   5.233   4.540
10483SOL     OW32347   5.460   5.786   0.234
10483SOL    HW132348   5.464   5.693   0.271
10483SOL    HW232349   5.541   5.803   0.178
10484SOL     OW32350   4.935   1.709   1.834
10484SOL    HW132351   4.971   1.621   1.803
10484SOL    HW232352   4.867   1.694   1.906
10485SOL     OW32353   2.984   4.482   0.226
10485SOL    HW132354   3.064   4.517   0.274
10485SOL    HW232355   2.964   4.541   0.147
10486SOL     OW32356   6.887   0.434   0.318
10486SOL    HW132357   6.895   0.534   0.308
10486SOL    HW232358   6.978   0.394   0.325
10487SOL     OW32359   4.781   6.913   1.637
10487SOL    HW132360   4.781   6.930   1.736
10487SOL    HW232361   4.721   6.980   1.593
10488SOL     OW32362   3.373   1.486   5.788
10488SOL    HW132363   3.369   1.444   5.697
10488SOL    HW232364   3.366   1.585   5.779
10489SOL     OW32365   0.159   6.516   5.523
10489SOL    HW132366   0.210   6.552   5.445
10489SOL    HW232367   0.182   6.568   5.606
10490SOL     OW32368   6.029   1.155   1.510
10490SOL    HW132369   6.101   1.175   1.444
10490SOL    HW232370   6.065   1.094   1.581
10491SOL     OW32371   2.079   3.743   6.951
10491SOL    HW132372   2.071   3.662   7.009
10491SOL    HW232373   2.175   3.770   6.943
10492SOL     OW32374   6.031   4.347   5.692
10492SOL    HW132375   5.990   4.314   5.607
10492SOL    HW232376   6.124   4.378   5.674
10493SOL     OW32377   3.591   0.815   1.684
10493SOL    HW132378   3.689   0.821   1.665
10493SOL    HW232379   3.543   0.783   1.602
10494SOL     OW32380   5.034   3.816   5.781
10494SOL    HW132381   4.990   3.853   5.699
10494SOL    HW232382   4.982   3.737   5.813
10495SOL     OW32383   2.281   6.860   0.486
10495SOL    HW132384   2.197   6.912   0.502
10495SOL    HW232385   2.301   6.803   0.566
10496SOL     OW32386   0.109   4.793   6.373
10496SOL    HW132387   0.068   4.737   6.301
10496SOL    HW232388   0.124   4.737   6.454
10497SOL     OW32389   2.340   6.904   2.432
10497SOL    HW132390   2.410   6.835   2.413
10497SOL    HW232391   2.338   6.972   2.359
10498SOL     OW32392   2.844   5.989   1.407
10498SOL    HW132393   2.846   5.936   1.492
10498SOL    HW232394   2.772   5.953   1.348
10499SOL     OW32395   3.333   0.038   2.644
10499SOL    HW132396   3.296   6.973   2.644
10499SOL    HW232397   3.335   0.073   2.551
10500SOL     OW32398   6.955   0.591   6.655
10500SOL    HW132399   6.943   0.639   6.742
10500SOL    HW232400   7.016   0.513   6.668
10501SOL     OW32401   2.272   5.781   3.198
10501SOL    HW132402   2.231   5.823   3.279
10501SOL    HW232403   2.350   5.836   3.168
10502SOL     OW32404   2.893   0.302   1.402
10502SOL    HW132405   2.821   0.257   1.350
10502SOL    HW232406   2.877   0.401   1.402
10503SOL     OW32407   3.864   3.162   0.312
10503SOL    HW132408   3.811   3.078   0.298
10503SOL    HW232409   3.962   3.139   0.315
10504SOL     OW32410   1.941   1.622   7.017
10504SOL    HW132411   2.039   1.606   0.006
10504SOL    HW232412   1.926   1.720   7.000
10505SOL     OW32413   5.045   6.123   0.433
10505SOL    HW132414   5.103   6.184   0.487
10505SOL    HW232415   4.982   6.177   0.377
10506SOL     OW32416   6.754   5.101   7.021
10506SOL    HW132417   6.846   5.107   6.982
10506SOL    HW232418   6.709   5.018   6.987
10507SOL     OW32419   2.135   0.094   0.131
10507SOL    HW132420   2.101   0.084   0.225
10507SOL    HW232421   2.069   0.052   0.068
10508SOL     OW32422   6.088   6.386   4.362
10508SOL    HW132423   6.003   6.381   4.310
10508SOL    HW232424   6.079   6.453   4.435
10509SOL     OW32425   0.485   6.484   4.935
10509SOL    HW132426   0.413   6.425   4.899
10509SOL    HW232427   0.570   6.431   4.943
10510SOL     OW32428   4.971   5.953   5.946
10510SOL    HW132429   4.955   6.051   5.933
10510SOL    HW232430   4.914   5.901   5.882
10511SOL     OW32431   4.367   1.646   1.539
10511SOL    HW132432   4.384   1.608   1.448
10511SOL    HW232433   4.289   1.599   1.580
10512SOL     OW32434   3.788   6.855   5.534
10512SOL    HW132435   3.700   6.889   5.567
10512SOL    HW232436   3.836   6.809   5.609
10513SOL     OW32437   6.707   2.618   4.479
10513SOL    HW132438   6.678   2.691   4.541
10513SOL    HW232439   6.769   2.655   4.410
10514SOL     OW32440   0.179   3.570   0.226
10514SOL    HW132441   0.277   3.583   0.232
10514SOL    HW232442   0.158   3.472   0.227
10515SOL     OW32443   0.248   3.301   2.890
10515SOL    HW132444   0.242   3.333   2.985
10515SOL    HW232445   0.329   3.341   2.847
10516SOL     OW32446   3.653   0.857   0.189
10516SOL    HW132447   3.573   0.900   0.148
10516SOL    HW232448   3.696   0.919   0.254
10517SOL     OW32449   0.095   2.390   2.735
10517SOL    HW132450   0.033   2.311   2.738
10517SOL    HW232451   0.042   2.474   2.743
10518SOL     OW32452   1.213   5.215   6.745
10518SOL    HW132453   1.250   5.185   6.657
10518SOL    HW232454   1.185   5.310   6.739
10519SOL     OW32455   2.582   2.822   6.907
10519SOL    HW132456   2.537   2.742   6.946
10519SOL    HW232457   2.657   2.851   6.967
10520SOL     OW32458   1.283   2.955   6.804
10520SOL    HW132459   1.315   2.866   6.835
10520SOL    HW232460   1.229   2.944   6.721
10521SOL     OW32461   5.741   6.065   1.951
10521SOL    HW132462   5.696   6.120   1.881
10521SOL    HW232463   5.680   6.053   2.029
10522SOL     OW32464   6.090   0.214   6.315
10522SOL    HW132465   6.188   0.223   6.333
10522SOL    HW232466   6.046   0.303   6.328
10523SOL     OW32467   0.770   5.035   4.161
10523SOL    HW132468   0.719   4.975   4.222
10523SOL    HW232469   0.841   4.982   4.113
10524SOL     OW32470   1.733   0.607   4.748
10524SOL    HW132471   1.805   0.567   4.804
10524SOL    HW232472   1.660   0.541   4.736
10525SOL     OW32473   3.095   0.203   5.973
10525SOL    HW132474   3.182   0.171   6.010
10525SOL    HW232475   3.020   0.155   6.018
10526SOL     OW32476   0.498   6.806   2.888
10526SOL    HW132477   0.496   6.706   2.895
10526SOL    HW232478   0.589   6.839   2.910
10527SOL     OW32479   6.021   2.161   4.951
10527SOL    HW132480   6.087   2.154   5.027
10527SOL    HW232481   6.070   2.185   4.867
10528SOL     OW32482   1.314   3.403   5.768
10528SOL    HW132483   1.358   3.406   5.858
10528SOL    HW232484   1.384   3.394   5.697
10529SOL     OW32485   2.363   5.675   4.091
10529SOL    HW132486   2.457   5.682   4.057
10529SOL    HW232487   2.344   5.582   4.121
10530SOL     OW32488   2.387   0.625   6.928
10530SOL    HW132489   2.369   0.539   6.976
10530SOL    HW232490   2.326   0.633   6.849
10531SOL     OW32491   0.999   2.711   3.950
10531SOL    HW132492   1.088   2.699   3.905
10531SOL    HW232493   1.011   2.768   4.032
10532SOL     OW32494   1.633   4.692   6.458
10532SOL    HW132495   1.568   4.754   6.501
10532SOL    HW232496   1.647   4.612   6.516
10533SOL     OW32497   2.895   1.362   4.859
10533SOL    HW132498   2.936   1.413   4.935
10533SOL    HW232499   2.851   1.425   4.796
10534SOL     OW32500   5.687   5.751   1.180
10534SOL    HW132501   5.772   5.763   1.233
10534SOL    HW232502   5.701   5.787   1.088
10535SOL     OW32503   0.871   1.686   1.075
10535SOL    HW132504   0.874   1.780   1.108
10535SOL    HW232505   0.949   1.670   1.014
10536SOL     OW32506   3.994   1.146   3.440
10536SOL    HW132507   4.060   1.093   3.492
10536SOL    HW232508   4.035   1.176   3.354
10537SOL     OW32509   3.636   5.301   4.160
10537SOL    HW132510   3.624   5.378   4.097
10537SOL    HW232511   3.627   5.215   4.110
10538SOL     OW32512   5.473   2.722   0.537
10538SOL    HW132513   5.397   2.759   0.483
10538SOL    HW232514   5.436   2.661   0.608
10539SOL     OW32515   0.180   3.629   6.921
10539SOL    HW132516   0.185   3.541   6.969
10539SOL    HW232517   0.164   3.702   6.987
10540SOL     OW32518   1.334   2.723   5.062
10540SOL    HW132519   1.270   2.699   5.135
10540SOL    HW232520   1.409   2.657   5.061
10541SOL     OW32521   3.753   3.728   2.268
10541SOL    HW132522   3.699   3.644   2.264
10541SOL    HW232523   3.701   3.800   2.312
10542SOL     OW32524   6.804   1.364   6.256
10542SOL    HW132525   6.803   1.409   6.167
10542SOL    HW232526   6.758   1.422   6.323
10543SOL     OW32527   7.021   1.062   5.541
10543SOL    HW132528   0.082   1.078   5.584
10543SOL    HW232529   6.998   1.139   5.482
10544SOL     OW32530   1.758   6.605   2.031
10544SOL    HW132531   1.842   6.618   1.979
10544SOL    HW232532   1.765   6.521   2.085
10545SOL     OW32533   6.169   1.141   3.246
10545SOL    HW132534   6.106   1.218   3.231
10545SOL    HW232535   6.247   1.150   3.184
10546SOL     OW32536   1.255   0.965   6.437
10546SOL    HW132537   1.168   0.918   6.433
10546SOL    HW232538   1.293   0.973   6.344
10547SOL     OW32539   5.366   2.015   1.944
10547SOL    HW132540   5.464   2.018   1.965
10547SOL    HW232541   5.314   1.995   2.027
10548SOL     OW32542   5.461   4.294   4.773
10548SOL    HW132543   5.455   4.335   4.682
10548SOL    HW232544   5.494   4.362   4.838
10549SOL     OW32545   6.699   0.038   2.137
10549SOL    HW132546   6.710   0.050   2.236
10549SOL    HW232547   6.677   6.970   2.117
10550SOL     OW32548   4.164   6.010   4.988
10550SOL    HW132549   4.184   6.108   4.981
10550SOL    HW232550   4.066   5.997   5.006
10551SOL     OW32551   2.017   2.599   6.644
10551SOL    HW132552   1.925   2.625   6.674
10551SOL    HW232553   2.070   2.682   6.626
10552SOL     OW32554   3.855   2.205   6.268
10552SOL    HW132555   3.756   2.216   6.271
10552SOL    HW232556   3.891   2.199   6.361
10553SOL     OW32557   0.599   5.336   1.258
10553SOL    HW132558   0.620   5.276   1.181
10553SOL    HW232559   0.576   5.428   1.224
10554SOL     OW32560   5.170   5.484   0.117
10554SOL    HW132561   5.255   5.440   0.091
10554SOL    HW232562   5.146   5.554   0.049
10555SOL     OW32563   2.013   3.091   0.303
10555SOL    HW132564   2.025   3.046   0.392
10555SOL    HW232565   1.999   3.021   0.233
10556SOL     OW32566   2.057   2.566   5.210
10556SOL    HW132567   2.096   2.657   5.196
10556SOL    HW232568   2.012   2.562   5.299
10557SOL     OW32569   2.383   2.249   2.807
10557SOL    HW132570   2.367   2.234   2.710
10557SOL    HW232571   2.477   2.279   2.821
10558SOL     OW32572   4.189   0.671   3.823
10558SOL    HW132573   4.200   0.770   3.834
10558SOL    HW232574   4.186   0.628   3.914
10559SOL     OW32575   4.817   0.185   1.447
10559SOL    HW132576   4.746   0.168   1.515
10559SOL    HW232577   4.814   0.114   1.377
10560SOL     OW32578   3.544   6.207   3.511
10560SOL    HW132579   3.486   6.127   3.498
10560SOL    HW232580   3.634   6.189   3.472
10561SOL     OW32581   3.034   4.853   1.137
10561SOL    HW132582   3.103   4.915   1.102
10561SOL    HW232583   2.979   4.818   1.061
10562SOL     OW32584   4.793   5.641   0.184
10562SOL    HW132585   4.863   5.645   0.254
10562SOL    HW232586   4.705   5.668   0.224
10563SOL     OW32587   0.237   1.097   3.777
10563SOL    HW132588   0.205   1.141   3.693
10563SOL    HW232589   0.336   1.084   3.773
10564SOL     OW32590   5.822   6.640   2.427
10564SOL    HW132591   5.747   6.674   2.483
10564SOL    HW232592   5.851   6.551   2.461
10565SOL     OW32593   6.838   0.572   6.058
10565SOL    HW132594   6.755   0.516   6.058
10565SOL    HW232595   6.915   0.519   6.022
10566SOL     OW32596   4.052   3.052   0.107
10566SOL    HW132597   4.150   3.031   0.104
10566SOL    HW232598   4.000   2.972   0.077
10567SOL     OW32599   2.449   1.873   4.379
10567SOL    HW132600   2.429   1.785   4.422
10567SOL    HW232601   2.396   1.945   4.424
10568SOL     OW32602   6.060   2.208   0.969
10568SOL    HW132603   6.052   2.263   0.886
10568SOL    HW232604   6.011   2.253   1.044
10569SOL     OW32605   6.024   2.049   1.282
10569SOL    HW132606   5.950   2.071   1.218
10569SOL    HW232607   6.076   2.132   1.303
10570SOL     OW32608   1.576   5.007   3.385
10570SOL    HW132609   1.518   4.926   3.386
10570SOL    HW232610   1.537   5.075   3.323
10571SOL     OW32611   6.973   5.108   4.541
10571SOL    HW132612   6.955   5.201   4.573
10571SOL    HW232613   0.044   5.092   4.542
10572SOL     OW32614   0.306   4.271   3.915
10572SOL    HW132615   0.287   4.249   3.819
10572SOL    HW232616   0.313   4.186   3.968
10573SOL     OW32617   4.701   0.636   4.714
10573SOL    HW132618   4.636   0.618   4.788
10573SOL    HW232619   4.793   0.612   4.745
10574SOL     OW32620   1.000   1.691   4.424
10574SOL    HW132621   1.095   1.667   4.445
10574SOL    HW232622   0.953   1.611   4.389
10575SOL     OW32623   0.235   1.261   3.024
10575SOL    HW132624   0.168   1.194   2.992
10575SOL    HW232625   0.311   1.267   2.959
10576SOL     OW32626   0.088   5.867   5.308
10576SOL    HW132627   0.160   5.826   5.363
10576SOL    HW232628   0.082   5.965   5.329
10577SOL     OW32629   1.848   2.522   6.991
10577SOL    HW132630   1.803   2.436   6.967
10577SOL    HW232631   1.780   2.595   6.995
10578SOL     OW32632   6.214   0.651   3.215
10578SOL    HW132633   6.139   0.717   3.223
10578SOL    HW232634   6.210   0.606   3.126
10579SOL     OW32635   4.547   1.928   0.911
10579SOL    HW132636   4.561   1.886   0.821
10579SOL    HW232637   4.609   2.005   0.922
10580SOL     OW32638   6.419   0.279   6.813
10580SOL    HW132639   6.330   0.326   6.814
10580SOL    HW232640   6.404   0.180   6.807
10581SOL     OW32641   0.284   7.015   3.056
10581SOL    HW132642   0.213   6.964   3.104
10581SOL    HW232643   0.241   0.063   3.006
10582SOL     OW32644   4.678   5.193   6.830
10582SOL    HW132645   4.585   5.188   6.867
10582SOL    HW232646   4.741   5.222   6.902
10583SOL     OW32647   3.738   1.247   5.165
10583SOL    HW132648   3.673   1.288   5.100
10583SOL    HW232649   3.825   1.295   5.159
10584SOL     OW32650   6.454   6.294   1.257
10584SOL    HW132651   6.547   6.316   1.286
10584SOL    HW232652   6.398   6.274   1.338
10585SOL     OW32653   2.119   2.834   5.495
10585SOL    HW132654   2.205   2.853   5.543
10585SOL    HW232655   2.073   2.921   5.476
10586SOL     OW32656   0.805   5.280   4.551
10586SOL    HW132657   0.796   5.198   4.607
10586SOL    HW232658   0.738   5.278   4.477
10587SOL     OW32659   6.239   3.905   0.361
10587SOL    HW132660   6.239   3.912   0.261
10587SOL    HW232661   6.184   3.827   0.389
10588SOL     OW32662   0.181   4.004   2.913
10588SOL    HW132663   0.102   4.022   2.970
10588SOL    HW232664   0.205   3.907   2.919
10589SOL     OW32665   6.167   1.167   4.798
10589SOL    HW132666   6.099   1.204   4.734
10589SOL    HW232667   6.121   1.122   4.874
10590SOL     OW32668   1.435   0.493   1.662
10590SOL    HW132669   1.452   0.423   1.731
10590SOL    HW232670   1.353   0.470   1.610
10591SOL     OW32671   1.101   1.734   5.932
10591SOL    HW132672   1.130   1.721   5.837
10591SOL    HW232673   1.004   1.760   5.933
10592SOL     OW32674   6.361   3.097   0.728
10592SOL    HW132675   6.453   3.057   0.730
10592SOL    HW232676   6.369   3.197   0.721
10593SOL     OW32677   2.082   5.123   0.401
10593SOL    HW132678   2.181   5.111   0.391
10593SOL    HW232679   2.064   5.207   0.453
10594SOL     OW32680   5.422   0.885   2.438
10594SOL    HW132681   5.409   0.788   2.417
10594SOL    HW232682   5.335   0.933   2.425
10595SOL     OW32683   3.796   6.927   5.112
10595SOL    HW132684   3.717   6.876   5.080
10595SOL    HW232685   3.850   6.869   5.174
10596SOL     OW32686   4.846   0.068   0.137
10596SOL    HW132687   4.933   0.039   0.178
10596SOL    HW232688   4.834   0.166   0.152
10597SOL     OW32689   3.466   1.228   4.926
10597SOL    HW132690   3.381   1.280   4.912
10597SOL    HW232691   3.461   1.179   5.013
10598SOL     OW32692   2.491   2.399   6.877
10598SOL    HW132693   2.441   2.458   6.813
10598SOL    HW232694   2.431   2.375   6.954
10599SOL     OW32695   5.000   2.441   6.521
10599SOL    HW132696   5.015   2.446   6.619
10599SOL    HW232697   5.056   2.509   6.474
10600SOL     OW32698   1.771   2.540   0.331
10600SOL    HW132699   1.779   2.629   0.286
10600SOL    HW232700   1.755   2.553   0.429
10601SOL     OW32701   1.481   4.213   6.224
10601SOL    HW132702   1.566   4.160   6.218
10601SOL    HW232703   1.432   4.188   6.308
10602SOL     OW32704   4.944   2.231   3.094
10602SOL    HW132705   4.975   2.294   3.023
10602SOL    HW232706   5.008   2.234   3.171
10603SOL     OW32707   1.869   5.243   3.877
10603SOL    HW132708   1.905   5.192   3.799
10603SOL    HW232709   1.896   5.196   3.962
10604SOL     OW32710   6.203   3.924   5.747
10604SOL    HW132711   6.242   3.934   5.839
10604SOL    HW232712   6.134   3.853   5.747
10605SOL     OW32713   1.554   4.598   0.795
10605SOL    HW132714   1.576   4.654   0.874
10605SOL    HW232715   1.615   4.621   0.719
10606SOL     OW32716   6.730   0.042   2.410
10606SOL    HW132717   6.631   0.027   2.410
10606SOL    HW232718   6.777   6.983   2.390
10607SOL     OW32719   3.724   4.733   5.836
10607SOL    HW132720   3.692   4.826   5.852
10607SOL    HW232721   3.707   4.678   5.917
10608SOL     OW32722   5.118   1.771   6.167
10608SOL    HW132723   5.095   1.680   6.202
10608SOL    HW232724   5.055   1.838   6.205
10609SOL     OW32725   3.277   6.660   2.003
10609SOL    HW132726   3.255   6.741   2.057
10609SOL    HW232727   3.371   6.633   2.020
10610SOL     OW32728   1.165   3.270   6.043
10610SOL    HW132729   1.157   3.257   6.142
10610SOL    HW232730   1.113   3.350   6.016
10611SOL     OW32731   4.616   3.725   5.671
10611SOL    HW132732   4.599   3.746   5.575
10611SOL    HW232733   4.630   3.626   5.681
10612SOL     OW32734   2.768   0.222   5.772
10612SOL    HW132735   2.715   0.226   5.687
10612SOL    HW232736   2.859   0.259   5.755
10613SOL     OW32737   6.755   0.380   5.495
10613SOL    HW132738   6.800   0.469   5.508
10613SOL    HW232739   6.737   0.365   5.398
10614SOL     OW32740   6.704   2.565   4.782
10614SOL    HW132741   6.767   2.597   4.853
10614SOL    HW232742   6.755   2.519   4.710
10615SOL     OW32743   3.482   6.183   5.977
10615SOL    HW132744   3.448   6.266   5.932
10615SOL    HW232745   3.500   6.113   5.908
10616SOL     OW32746   2.966   6.559   1.377
10616SOL    HW132747   2.980   6.606   1.464
10616SOL    HW232748   2.964   6.460   1.392
10617SOL     OW32749   1.906   2.802   0.518
10617SOL    HW132750   1.828   2.830   0.462
10617SOL    HW232751   1.873   2.777   0.610
10618SOL     OW32752   6.401   3.529   6.201
10618SOL    HW132753   6.395   3.622   6.165
10618SOL    HW232754   6.310   3.498   6.229
10619SOL     OW32755   6.710   3.741   2.381
10619SOL    HW132756   6.637   3.771   2.319
10619SOL    HW232757   6.772   3.817   2.400
10620SOL     OW32758   1.421   5.390   5.941
10620SOL    HW132759   1.511   5.364   5.975
10620SOL    HW232760   1.358   5.313   5.954
10621SOL     OW32761   0.775   6.153   1.576
10621SOL    HW132762   0.695   6.138   1.518
10621SOL    HW232763   0.853   6.183   1.520
10622SOL     OW32764   5.060   0.827   1.348
10622SOL    HW132765   5.088   0.762   1.277
10622SOL    HW232766   4.997   0.894   1.309
10623SOL     OW32767   0.379   4.817   4.364
10623SOL    HW132768   0.347   4.752   4.295
10623SOL    HW232769   0.315   4.816   4.442
10624SOL     OW32770   0.417   1.875   4.820
10624SOL    HW132771   0.388   1.887   4.725
10624SOL    HW232772   0.515   1.854   4.822
10625SOL     OW32773   0.639   4.721   6.838
10625SOL    HW132774   0.561   4.758   6.890
10625SOL    HW232775   0.674   4.640   6.885
10626SOL     OW32776   2.012   3.108   1.182
10626SOL    HW132777   2.061   3.026   1.211
10626SOL    HW232778   2.034   3.128   1.086
10627SOL     OW32779   5.652   6.104   1.148
10627SOL    HW132780   5.733   6.074   1.098
10627SOL    HW232781   5.636   6.043   1.225
10628SOL     OW32782   5.300   5.748   6.284
10628SOL    HW132783   5.285   5.816   6.212
10628SOL    HW232784   5.218   5.690   6.292
10629SOL     OW32785   2.630   4.668   4.790
10629SOL    HW132786   2.553   4.624   4.835
10629SOL    HW232787   2.715   4.646   4.839
10630SOL     OW32788   6.492   1.208   3.836
10630SOL    HW132789   6.503   1.144   3.759
10630SOL    HW232790   6.493   1.302   3.802
10631SOL     OW32791   1.890   5.019   5.254
10631SOL    HW132792   1.850   4.971   5.176
10631SOL    HW232793   1.873   5.117   5.246
10632SOL     OW32794   5.581   1.658   3.833
10632SOL    HW132795   5.653   1.727   3.830
10632SOL    HW232796   5.561   1.635   3.928
10633SOL     OW32797   2.584   3.731   1.312
10633SOL    HW132798   2.574   3.738   1.412
10633SOL    HW232799   2.652   3.661   1.291
10634SOL     OW32800   3.186   5.356   1.557
10634SOL    HW132801   3.231   5.296   1.623
10634SOL    HW232802   3.091   5.371   1.586
10635SOL     OW32803   3.461   1.665   0.757
10635SOL    HW132804   3.433   1.575   0.789
10635SOL    HW232805   3.381   1.725   0.751
10636SOL     OW32806   1.489   1.530   1.345
10636SOL    HW132807   1.434   1.455   1.309
10636SOL    HW232808   1.558   1.555   1.278
10637SOL     OW32809   3.128   4.809   5.618
10637SOL    HW132810   3.069   4.741   5.575
10637SOL    HW232811   3.185   4.852   5.548
10638SOL     OW32812   7.011   5.612   2.898
10638SOL    HW132813   7.007   5.548   2.975
10638SOL    HW232814   0.016   5.564   2.816
10639SOL     OW32815   0.558   3.278   3.054
10639SOL    HW132816   0.548   3.265   2.955
10639SOL    HW232817   0.494   3.218   3.102
10640SOL     OW32818   3.670   0.242   5.591
10640SOL    HW132819   3.726   0.289   5.660
10640SOL    HW232820   3.592   0.198   5.637
10641SOL     OW32821   3.746   2.314   0.270
10641SOL    HW132822   3.770   2.407   0.296
10641SOL    HW232823   3.647   2.306   0.260
10642SOL     OW32824   6.544   2.449   1.425
10642SOL    HW132825   6.632   2.456   1.378
10642SOL    HW232826   6.516   2.539   1.459
10643SOL     OW32827   2.088   4.630   5.610
10643SOL    HW132828   2.144   4.675   5.679
10643SOL    HW232829   2.028   4.697   5.566
10644SOL     OW32830   6.024   2.068   3.156
10644SOL    HW132831   6.111   2.019   3.152
10644SOL    HW232832   5.955   2.017   3.105
10645SOL     OW32833   0.558   1.478   4.572
10645SOL    HW132834   0.597   1.444   4.486
10645SOL    HW232835   0.459   1.469   4.569
10646SOL     OW32836   0.467   1.510   5.967
10646SOL    HW132837   0.371   1.528   5.948
10646SOL    HW232838   0.521   1.591   5.946
10647SOL     OW32839   3.832   5.146   0.123
10647SOL    HW132840   3.857   5.210   0.051
10647SOL    HW232841   3.753   5.181   0.173
10648SOL     OW32842   4.723   4.493   6.412
10648SOL    HW132843   4.753   4.575   6.364
10648SOL    HW232844   4.635   4.463   6.377
10649SOL     OW32845   0.668   4.223   3.279
10649SOL    HW132846   0.650   4.179   3.191
10649SOL    HW232847   0.740   4.173   3.327
10650SOL     OW32848   1.329   6.790   2.753
10650SOL    HW132849   1.334   6.721   2.824
10650SOL    HW232850   1.419   6.799   2.709
10651SOL     OW32851   4.806   6.920   5.727
10651SOL    HW132852   4.869   6.900   5.803
10651SOL    HW232853   4.830   6.862   5.649
10652SOL     OW32854   3.392   0.210   6.324
10652SOL    HW132855   3.485   0.173   6.326
10652SOL    HW232856   3.396   0.309   6.313
10653SOL     OW32857   5.539   4.132   4.088
10653SOL    HW132858   5.561   4.088   4.174
10653SOL    HW232859   5.623   4.155   4.039
10654SOL     OW32860   4.188   0.993   0.915
10654SOL    HW132861   4.172   1.023   0.821
10654SOL    HW232862   4.127   0.916   0.936
10655SOL     OW32863   2.907   5.354   1.625
10655SOL    HW132864   2.900   5.451   1.648
10655SOL    HW232865   2.836   5.303   1.674
10656SOL     OW32866   6.285   2.773   0.366
10656SOL    HW132867   6.245   2.853   0.410
10656SOL    HW232868   6.379   2.760   0.399
10657SOL     OW32869   6.518   7.022   6.865
10657SOL    HW132870   6.615   7.021   6.890
10657SOL    HW232871   6.507   6.980   6.775
10658SOL     OW32872   6.512   3.771   4.295
10658SOL    HW132873   6.571   3.724   4.360
10658SOL    HW232874   6.567   3.828   4.234
10659SOL     OW32875   6.643   6.176   0.916
10659SOL    HW132876   6.589   6.260   0.916
10659SOL    HW232877   6.672   6.154   0.823
10660SOL     OW32878   5.182   4.472   6.274
10660SOL    HW132879   5.169   4.507   6.181
10660SOL    HW232880   5.276   4.438   6.284
10661SOL     OW32881   0.173   6.472   2.470
10661SOL    HW132882   0.145   6.527   2.548
10661SOL    HW232883   0.115   6.391   2.464
10662SOL     OW32884   5.893   0.868   2.130
10662SOL    HW132885   5.893   0.804   2.053
10662SOL    HW232886   5.888   0.817   2.216
10663SOL     OW32887   0.290   0.006   1.659
10663SOL    HW132888   0.335   0.094   1.646
10663SOL    HW232889   0.197   0.020   1.692
10664SOL     OW32890   1.934   4.422   5.559
10664SOL    HW132891   1.947   4.381   5.468
10664SOL    HW232892   2.005   4.490   5.575
10665SOL     OW32893   0.457   0.523   0.700
10665SOL    HW132894   0.385   0.477   0.647
10665SOL    HW232895   0.547   0.492   0.668
10666SOL     OW32896   3.418   5.063   0.727
10666SOL    HW132897   3.329   5.055   0.681
10666SOL    HW232898   3.437   4.980   0.778
10667SOL     OW32899   3.828   2.734   5.511
10667SOL    HW132900   3.799   2.829   5.497
10667SOL    HW232901   3.765   2.673   5.464
10668SOL     OW32902   1.014   1.846   5.416
10668SOL    HW132903   0.951   1.922   5.406
10668SOL    HW232904   0.995   1.776   5.347
10669SOL     OW32905   6.093   6.768   0.566
10669SOL    HW132906   6.060   6.689   0.515
10669SOL    HW232907   6.036   6.847   0.544
10670SOL     OW32908   4.847   3.953   5.211
10670SOL    HW132909   4.885   4.045   5.220
10670SOL    HW232910   4.887   3.908   5.131
10671SOL     OW32911   2.559   2.308   2.435
10671SOL    HW132912   2.534   2.225   2.485
10671SOL    HW232913   2.602   2.283   2.349
10672SOL     OW32914   6.948   2.419   0.350
10672SOL    HW132915   6.893   2.342   0.384
10672SOL    HW232916   7.026   2.433   0.412
10673SOL     OW32917   1.491   2.410   6.887
10673SOL    HW132918   1.516   2.427   6.982
10673SOL    HW232919   1.570   2.429   6.828
10674SOL     OW32920   3.486   3.478   0.940
10674SOL    HW132921   3.451   3.527   1.020
10674SOL    HW232922   3.561   3.418   0.968
10675SOL     OW32923   1.735   0.332   6.122
10675SOL    HW132924   1.756   0.387   6.203
10675SOL    HW232925   1.757   0.236   6.140
10676SOL     OW32926   6.398   6.576   6.050
10676SOL    HW132927   6.431   6.491   6.010
10676SOL    HW232928   6.434   6.654   5.998
10677SOL     OW32929   0.634   0.254   2.172
10677SOL    HW132930   0.610   0.159   2.156
10677SOL    HW232931   0.719   0.258   2.226
10678SOL     OW32932   3.654   5.236   3.052
10678SOL    HW132933   3.637   5.294   2.972
10678SOL    HW232934   3.589   5.159   3.051
10679SOL     OW32935   5.182   4.625   6.025
10679SOL    HW132936   5.264   4.586   5.983
10679SOL    HW232937   5.109   4.631   5.957
10680SOL     OW32938   1.935   2.101   4.194
10680SOL    HW132939   1.865   2.169   4.217
10680SOL    HW232940   1.909   2.054   4.109
10681SOL     OW32941   0.030   4.036   6.556
10681SOL    HW132942   0.035   4.022   6.655
10681SOL    HW232943   0.041   3.948   6.510
10682SOL     OW32944   2.049   2.318   2.746
10682SOL    HW132945   2.110   2.378   2.797
10682SOL    HW232946   1.983   2.277   2.808
10683SOL     OW32947   3.518   1.751   3.969
10683SOL    HW132948   3.502   1.777   3.873
10683SOL    HW232949   3.443   1.692   4.000
10684SOL     OW32950   4.482   3.835   0.330
10684SOL    HW132951   4.501   3.826   0.232
10684SOL    HW232952   4.565   3.863   0.377
10685SOL     OW32953   6.473   4.130   2.190
10685SOL    HW132954   6.424   4.044   2.200
10685SOL    HW232955   6.423   4.190   2.127
10686SOL     OW32956   3.969   5.419   6.575
10686SOL    HW132957   4.043   5.464   6.524
10686SOL    HW232958   3.889   5.478   6.577
10687SOL     OW32959   6.870   5.151   1.646
10687SOL    HW132960   6.810   5.170   1.725
10687SOL    HW232961   6.905   5.238   1.610
10688SOL     OW32962   6.700   4.710   2.395
10688SOL    HW132963   6.608   4.673   2.401
10688SOL    HW232964   6.753   4.681   2.475
10689SOL     OW32965   0.453   0.017   3.445
10689SOL    HW132966   0.464   0.006   3.346
10689SOL    HW232967   0.366   0.061   3.465
10690SOL     OW32968   5.862   5.454   4.049
10690SOL    HW132969   5.863   5.537   3.993
10690SOL    HW232970   5.806   5.469   4.130
10691SOL     OW32971   0.019   1.568   2.485
10691SOL    HW132972   7.027   1.661   2.516
10691SOL    HW232973   0.072   1.571   2.400
10692SOL     OW32974   3.295   5.416   3.542
10692SOL    HW132975   3.334   5.386   3.456
10692SOL    HW232976   3.245   5.502   3.528
10693SOL     OW32977   1.839   0.875   2.040
10693SOL    HW132978   1.891   0.813   2.099
10693SOL    HW232979   1.903   0.933   1.989
10694SOL     OW32980   3.519   6.106   1.659
10694SOL    HW132981   3.421   6.092   1.674
10694SOL    HW232982   3.542   6.080   1.565
10695SOL     OW32983   6.395   2.149   3.227
10695SOL    HW132984   6.464   2.198   3.174
10695SOL    HW232985   6.369   2.065   3.179
10696SOL     OW32986   6.972   5.183   2.244
10696SOL    HW132987   6.956   5.085   2.231
10696SOL    HW232988   6.978   5.228   2.155
10697SOL     OW32989   7.015   6.015   3.919
10697SOL    HW132990   0.021   5.932   3.963
10697SOL    HW232991   0.048   6.091   3.940
10698SOL     OW32992   3.149   6.560   4.227
10698SOL    HW132993   3.169   6.596   4.318
10698SOL    HW232994   3.233   6.524   4.186
10699SOL     OW32995   4.395   1.767   2.644
10699SOL    HW132996   4.421   1.761   2.547
10699SOL    HW232997   4.299   1.743   2.654
10700SOL     OW32998   1.012   0.151   0.339
10700SOL    HW132999   1.095   0.109   0.376
10700SOL    HW233000   0.947   0.079   0.313
10701SOL     OW33001   4.079   5.830   0.336
10701SOL    HW133002   4.151   5.763   0.315
10701SOL    HW233003   4.046   5.871   0.251
10702SOL     OW33004   5.958   2.513   2.297
10702SOL    HW133005   6.021   2.572   2.246
10702SOL    HW233006   5.889   2.569   2.343
10703SOL     OW33007   3.749   2.937   3.868
10703SOL    HW133008   3.682   2.997   3.825
10703SOL    HW233009   3.799   2.887   3.797
10704SOL     OW33010   4.941   5.978   1.826
10704SOL    HW133011   4.859   6.014   1.783
10704SOL    HW233012   4.993   6.053   1.867
10705SOL     OW33013   0.527   3.497   1.006
10705SOL    HW133014   0.585   3.416   1.002
10705SOL    HW233015   0.584   3.579   1.005
10706SOL     OW33016   4.404   6.798   2.071
10706SOL    HW133017   4.430   6.821   2.165
10706SOL    HW233018   4.330   6.731   2.073
10707SOL     OW33019   0.460   6.984   4.684
10707SOL    HW133020   0.395   6.986   4.760
10707SOL    HW233021   0.469   6.890   4.651
10708SOL     OW33022   4.718   1.061   1.767
10708SOL    HW133023   4.644   1.017   1.817
10708SOL    HW233024   4.788   1.092   1.832
10709SOL     OW33025   6.370   1.071   5.276
10709SOL    HW133026   6.422   1.057   5.191
10709SOL    HW233027   6.287   1.123   5.256
10710SOL     OW33028   0.903   6.593   4.857
10710SOL    HW133029   0.845   6.665   4.896
10710SOL    HW233030   0.905   6.514   4.918
10711SOL     OW33031   1.825   6.891   3.892
10711SOL    HW133032   1.901   6.851   3.945
10711SOL    HW233033   1.862   6.953   3.823
10712SOL     OW33034   3.758   0.991   3.394
10712SOL    HW133035   3.809   1.070   3.358
10712SOL    HW233036   3.768   0.987   3.493
10713SOL     OW33037   1.708   4.898   1.687
10713SOL    HW133038   1.662   4.810   1.699
10713SOL    HW233039   1.670   4.944   1.606
10714SOL     OW33040   6.794   3.585   5.276
10714SOL    HW133041   6.696   3.566   5.284
10714SOL    HW233042   6.810   3.652   5.204
10715SOL     OW33043   4.971   0.383   3.236
10715SOL    HW133044   4.874   0.360   3.225
10715SOL    HW233045   4.979   0.481   3.257
10716SOL     OW33046   0.153   2.459   3.528
10716SOL    HW133047   0.105   2.452   3.440
10716SOL    HW233048   0.106   2.404   3.596
10717SOL     OW33049   0.517   1.202   0.775
10717SOL    HW133050   0.549   1.136   0.843
10717SOL    HW233051   0.529   1.164   0.684
10718SOL     OW33052   6.488   4.718   0.188
10718SOL    HW133053   6.396   4.700   0.155
10718SOL    HW233054   6.529   4.633   0.222
10719SOL     OW33055   4.752   6.491   1.646
10719SOL    HW133056   4.850   6.502   1.628
10719SOL    HW233057   4.732   6.520   1.740
10720SOL     OW33058   6.618   3.466   5.796
10720SOL    HW133059   6.619   3.472   5.896
10720SOL    HW233060   6.524   3.450   5.765
10721SOL     OW33061   6.439   2.016   4.385
10721SOL    HW133062   6.438   1.931   4.333
10721SOL    HW233063   6.443   2.094   4.323
10722SOL     OW33064   0.071   3.272   6.932
10722SOL    HW133065   0.014   3.354   6.937
10722SOL    HW233066   0.150   3.283   6.993
10723SOL     OW33067   5.451   3.725   6.691
10723SOL    HW133068   5.494   3.755   6.776
10723SOL    HW233069   5.459   3.626   6.683
10724SOL     OW33070   3.911   6.505   5.930
10724SOL    HW133071   3.955   6.566   5.996
10724SOL    HW233072   3.973   6.430   5.907
10725SOL     OW33073   0.079   5.502   4.159
10725SOL    HW133074   0.177   5.491   4.145
10725SOL    HW233075   0.041   5.554   4.082
10726SOL     OW33076   6.543   6.962   4.751
10726SOL    HW133077   6.624   7.002   4.708
10726SOL    HW233078   6.505   6.890   4.692
10727SOL     OW33079   1.905   5.342   5.707
10727SOL    HW133080   1.844   5.262   5.704
10727SOL    HW233081   1.850   5.426   5.708
10728SOL     OW33082   5.850   6.516   2.836
10728SOL    HW133083   5.788   6.471   2.773
10728SOL    HW233084   5.827   6.614   2.841
10729SOL     OW33085   6.696   1.618   2.505
10729SOL    HW133086   6.774   1.673   2.534
10729SOL    HW233087   6.717   1.574   2.418
10730SOL     OW33088   2.664   6.536   2.136
10730SOL    HW133089   2.743   6.487   2.099
10730SOL    HW233090   2.624   6.593   2.064
10731SOL     OW33091   2.403   5.312   0.606
10731SOL    HW133092   2.474   5.268   0.551
10731SOL    HW233093   2.444   5.354   0.686
10732SOL     OW33094   6.550   0.244   2.919
10732SOL    HW133095   6.586   0.192   2.842
10732SOL    HW233096   6.611   0.235   2.998
10733SOL     OW33097   6.142   2.267   6.915
10733SOL    HW133098   6.072   2.316   6.862
10733SOL    HW233099   6.231   2.285   6.875
10734SOL     OW33100   0.687   0.471   6.249
10734SOL    HW133101   0.649   0.563   6.259
10734SOL    HW233102   0.695   0.427   6.338
10735SOL     OW33103   1.023   4.926   2.147
10735SOL    HW133104   1.033   4.894   2.241
10735SOL    HW233105   0.944   4.987   2.141
10736SOL     OW33106   0.706   1.100   3.236
10736SOL    HW133107   0.718   1.086   3.137
10736SOL    HW233108   0.647   1.179   3.251
10737SOL     OW33109   0.727   1.844   0.705
10737SOL    HW133110   0.776   1.757   0.696
10737SOL    HW233111   0.680   1.864   0.619
10738SOL     OW33112   2.187   0.219   2.586
10738SOL    HW133113   2.261   0.250   2.525
10738SOL    HW233114   2.218   0.227   2.681
10739SOL     OW33115   6.849   1.957   2.376
10739SOL    HW133116   6.861   1.882   2.312
10739SOL    HW233117   6.858   2.044   2.328
10740SOL     OW33118   1.412   6.153   5.870
10740SOL    HW133119   1.501   6.178   5.908
10740SOL    HW233120   1.412   6.055   5.848
10741SOL     OW33121   2.052   1.633   3.068
10741SOL    HW133122   2.112   1.581   3.128
10741SOL    HW233123   2.074   1.614   2.972
10742SOL     OW33124   5.819   6.979   2.177
10742SOL    HW133125   5.748   6.935   2.231
10742SOL    HW233126   5.822   6.939   2.085
10743SOL     OW33127   2.945   1.597   4.517
10743SOL    HW133128   3.021   1.559   4.569
10743SOL    HW233129   2.973   1.685   4.477
10744SOL     OW33130   3.083   1.570   2.256
10744SOL    HW133131   2.983   1.565   2.259
10744SOL    HW233132   3.115   1.650   2.307
10745SOL     OW33133   2.111   4.686   0.511
10745SOL    HW133134   2.211   4.687   0.518
10745SOL    HW233135   2.075   4.770   0.550
10746SOL     OW33136   2.240   5.554   1.082
10746SOL    HW133137   2.221   5.492   1.158
10746SOL    HW233138   2.204   5.514   0.997
10747SOL     OW33139   5.399   1.314   3.141
10747SOL    HW133140   5.406   1.395   3.200
10747SOL    HW233141   5.462   1.322   3.064
10748SOL     OW33142   5.261   5.554   1.251
10748SOL    HW133143   5.200   5.588   1.180
10748SOL    HW233144   5.353   5.540   1.212
10749SOL     OW33145   6.817   4.689   2.637
10749SOL    HW133146   6.768   4.690   2.725
10749SOL    HW233147   6.889   4.759   2.639
10750SOL     OW33148   4.951   4.110   4.599
10750SOL    HW133149   4.933   4.022   4.555
10750SOL    HW233150   4.934   4.103   4.697
10751SOL     OW33151   1.518   3.052   4.926
10751SOL    HW133152   1.603   3.103   4.936
10751SOL    HW233153   1.528   2.984   4.853
10752SOL     OW33154   5.939   4.671   7.017
10752SOL    HW133155   5.864   4.606   7.004
10752SOL    HW233156   5.911   4.743   0.053
10753SOL     OW33157   5.178   0.386   3.715
10753SOL    HW133158   5.164   0.352   3.808
10753SOL    HW233159   5.208   0.481   3.719
10754SOL     OW33160   1.379   2.727   2.266
10754SOL    HW133161   1.364   2.826   2.267
10754SOL    HW233162   1.381   2.692   2.360
10755SOL     OW33163   6.955   2.128   0.663
10755SOL    HW133164   6.878   2.065   0.647
10755SOL    HW233165   6.922   2.222   0.665
10756SOL     OW33166   6.682   2.475   0.137
10756SOL    HW133167   6.587   2.497   0.157
10756SOL    HW233168   6.686   2.383   0.096
10757SOL     OW33169   0.049   4.018   1.056
10757SOL    HW133170   7.017   4.007   0.976
10757SOL    HW233171   0.144   4.009   1.028
10758SOL     OW33172   0.561   5.367   5.914
10758SOL    HW133173   0.623   5.326   5.847
10758SOL    HW233174   0.498   5.298   5.949
10759SOL     OW33175   1.549   3.300   6.220
10759SOL    HW133176   1.635   3.249   6.214
10759SOL    HW233177   1.561   3.379   6.279
10760SOL     OW33178   0.565   5.581   1.001
10760SOL    HW133179   0.485   5.552   1.053
10760SOL    HW233180   0.631   5.626   1.061
10761SOL     OW33181   0.905   2.692   6.241
10761SOL    HW133182   0.945   2.679   6.150
10761SOL    HW233183   0.885   2.602   6.282
10762SOL     OW33184   4.701   1.137   5.644
10762SOL    HW133185   4.612   1.144   5.599
10762SOL    HW233186   4.743   1.228   5.647
10763SOL     OW33187   4.832   0.236   1.894
10763SOL    HW133188   4.742   0.242   1.938
10763SOL    HW233189   4.825   0.180   1.811
10764SOL     OW33190   5.390   1.481   6.145
10764SOL    HW133191   5.375   1.527   6.232
10764SOL    HW233192   5.417   1.549   6.076
10765SOL     OW33193   5.793   1.339   2.243
10765SOL    HW133194   5.709   1.285   2.240
10765SOL    HW233195   5.782   1.422   2.187
10766SOL     OW33196   2.314   3.995   0.165
10766SOL    HW133197   2.376   3.938   0.111
10766SOL    HW233198   2.226   4.002   0.118
10767SOL     OW33199   1.715   6.432   0.848
10767SOL    HW133200   1.743   6.356   0.907
10767SOL    HW233201   1.772   6.512   0.866
10768SOL     OW33202   5.158   5.662   6.939
10768SOL    HW133203   5.067   5.684   6.903
10768SOL    HW233204   5.190   5.737   6.996
10769SOL     OW33205   2.724   4.388   5.303
10769SOL    HW133206   2.774   4.473   5.288
10769SOL    HW233207   2.643   4.386   5.245
10770SOL     OW33208   5.551   0.351   4.395
10770SOL    HW133209   5.580   0.257   4.380
10770SOL    HW233210   5.455   0.353   4.423
10771SOL     OW33211   4.092   7.002   5.615
10771SOL    HW133212   4.045   6.970   5.698
10771SOL    HW233213   4.183   0.008   5.640
10772SOL     OW33214   6.639   6.433   3.553
10772SOL    HW133215   6.699   6.510   3.575
10772SOL    HW233216   6.643   6.365   3.626
10773SOL     OW33217   6.967   4.401   6.787
10773SOL    HW133218   6.990   4.464   6.861
10773SOL    HW233219   6.946   4.453   6.704
10774SOL     OW33220   1.525   2.341   1.505
10774SOL    HW133221   1.581   2.263   1.478
10774SOL    HW233222   1.555   2.375   1.594
10775SOL     OW33223   2.143   4.185   0.946
10775SOL    HW133224   2.111   4.212   0.855
10775SOL    HW233225   2.236   4.218   0.960
10776SOL     OW33226   0.185   6.631   2.059
10776SOL    HW133227   0.237   6.638   1.974
10776SOL    HW233228   0.093   6.597   2.040
10777SOL     OW33229   4.125   0.405   3.159
10777SOL    HW133230   4.086   0.496   3.172
10777SOL    HW233231   4.054   0.336   3.172
10778SOL     OW33232   6.284   6.614   4.870
10778SOL    HW133233   6.322   6.690   4.818
10778SOL    HW233234   6.248   6.544   4.807
10779SOL     OW33235   6.724   4.434   2.268
10779SOL    HW133236   6.798   4.502   2.265
10779SOL    HW233237   6.644   4.469   2.220
10780SOL     OW33238   0.428   5.729   4.053
10780SOL    HW133239   0.404   5.743   3.957
10780SOL    HW233240   0.485   5.804   4.085
10781SOL     OW33241   5.088   1.428   4.256
10781SOL    HW133242   5.060   1.520   4.228
10781SOL    HW233243   5.093   1.370   4.175
10782SOL     OW33244   6.288   2.688   4.140
10782SOL    HW133245   6.372   2.689   4.194
10782SOL    HW233246   6.232   2.768   4.163
10783SOL     OW33247   2.145   3.210   2.422
10783SOL    HW133248   2.165   3.118   2.387
10783SOL    HW233249   2.128   3.272   2.345
10784SOL     OW33250   2.788   6.844   2.281
10784SOL    HW133251   2.810   6.810   2.190
10784SOL    HW233252   2.721   6.784   2.323
10785SOL     OW33253   1.378   5.167   1.450
10785SOL    HW133254   1.459   5.213   1.415
10785SOL    HW233255   1.312   5.235   1.482
10786SOL     OW33256   5.265   2.031   2.193
10786SOL    HW133257   5.209   1.949   2.197
10786SOL    HW233258   5.221   2.104   2.245
10787SOL     OW33259   3.054   1.183   4.338
10787SOL    HW133260   3.093   1.169   4.247
10787SOL    HW233261   3.107   1.252   4.387
10788SOL     OW33262   2.114   3.929   0.649
10788SOL    HW133263   2.093   4.019   0.689
10788SOL    HW233264   2.175   3.941   0.571
10789SOL     OW33265   6.023   0.455   0.274
10789SOL    HW133266   6.053   0.519   0.204
10789SOL    HW233267   5.999   0.368   0.231
10790SOL     OW33268   7.006   0.794   5.826
10790SOL    HW133269   6.962   0.705   5.812
10790SOL    HW233270   0.064   0.782   5.876
10791SOL     OW33271   1.862   1.703   1.769
10791SOL    HW133272   1.787   1.768   1.757
10791SOL    HW233273   1.825   1.610   1.771
10792SOL     OW33274   3.291   2.900   1.617
10792SOL    HW133275   3.287   2.880   1.519
10792SOL    HW233276   3.263   2.819   1.668
10793SOL     OW33277   5.666   2.262   4.212
10793SOL    HW133278   5.735   2.196   4.181
10793SOL    HW233279   5.576   2.232   4.182
10794SOL     OW33280   3.938   4.018   1.865
10794SOL    HW133281   4.007   4.000   1.795
10794SOL    HW233282   3.942   3.946   1.935
10795SOL     OW33283   6.207   3.854   2.598
10795SOL    HW133284   6.297   3.817   2.577
10795SOL    HW233285   6.146   3.841   2.520
10796SOL     OW33286   3.677   0.172   6.386
10796SOL    HW133287   3.717   0.126   6.307
10796SOL    HW233288   3.683   0.112   6.466
10797SOL     OW33289   4.098   2.765   0.438
10797SOL    HW133290   4.123   2.862   0.429
10797SOL    HW233291   4.037   2.753   0.516
10798SOL     OW33292   2.441   0.418   0.093
10798SOL    HW133293   2.455   0.336   0.148
10798SOL    HW233294   2.349   0.454   0.109
10799SOL     OW33295   3.325   1.731   2.511
10799SOL    HW133296   3.302   1.644   2.554
10799SOL    HW233297   3.424   1.737   2.498
10800SOL     OW33298   1.971   6.219   0.753
10800SOL    HW133299   2.021   6.167   0.822
10800SOL    HW233300   1.911   6.158   0.701
10801SOL     OW33301   1.945   6.782   4.562
10801SOL    HW133302   1.929   6.880   4.570
10801SOL    HW233303   2.041   6.763   4.584
10802SOL     OW33304   2.497   2.601   4.353
10802SOL    HW133305   2.494   2.631   4.448
10802SOL    HW233306   2.480   2.503   4.348
10803SOL     OW33307   5.145   4.405   5.306
10803SOL    HW133308   5.211   4.461   5.256
10803SOL    HW233309   5.176   4.310   5.305
10804SOL     OW33310   6.921   4.442   0.695
10804SOL    HW133311   6.906   4.432   0.793
10804SOL    HW233312   6.900   4.535   0.667
10805SOL     OW33313   3.590   0.190   6.807
10805SOL    HW133314   3.530   0.213   6.730
10805SOL    HW233315   3.554   0.231   6.891
10806SOL     OW33316   5.915   4.315   0.048
10806SOL    HW133317   5.938   4.218   0.044
10806SOL    HW233318   5.994   4.367   0.079
10807SOL     OW33319   3.590   6.927   3.609
10807SOL    HW133320   3.616   6.856   3.543
10807SOL    HW233321   3.560   6.883   3.694
10808SOL     OW33322   6.891   3.759   0.074
10808SOL    HW133323   6.964   3.819   0.107
10808SOL    HW233324   6.811   3.768   0.133
10809SOL     OW33325   2.816   0.636   4.349
10809SOL    HW133326   2.789   0.578   4.426
10809SOL    HW233327   2.870   0.581   4.284
10810SOL     OW33328   0.651   1.534   5.581
10810SOL    HW133329   0.713   1.461   5.554
10810SOL    HW233330   0.561   1.495   5.604
10811SOL     OW33331   3.859   5.199   5.621
10811SOL    HW133332   3.862   5.194   5.521
10811SOL    HW233333   3.933   5.257   5.654
10812SOL     OW33334   0.473   2.997   2.260
10812SOL    HW133335   0.527   3.074   2.228
10812SOL    HW233336   0.519   2.911   2.237
10813SOL     OW33337   2.505   6.069   1.468
10813SOL    HW133338   2.553   6.005   1.529
10813SOL    HW233339   2.465   6.018   1.392
10814SOL     OW33340   1.724   0.298   5.820
10814SOL    HW133341   1.739   0.201   5.801
10814SOL    HW233342   1.770   0.324   5.904
10815SOL     OW33343   4.674   4.731   3.392
10815SOL    HW133344   4.638   4.670   3.462
10815SOL    HW233345   4.725   4.678   3.324
10816SOL     OW33346   1.807   1.395   2.104
10816SOL    HW133347   1.760   1.312   2.133
10816SOL    HW233348   1.760   1.434   2.024
10817SOL     OW33349   5.179   6.295   2.953
10817SOL    HW133350   5.099   6.299   2.894
10817SOL    HW233351   5.211   6.387   2.974
10818SOL     OW33352   5.846   2.509   5.765
10818SOL    HW133353   5.911   2.576   5.801
10818SOL    HW233354   5.828   2.528   5.669
10819SOL     OW33355   1.096   3.656   6.620
10819SOL    HW133356   1.007   3.614   6.602
10819SOL    HW233357   1.163   3.584   6.637
10820SOL     OW33358   0.256   6.837   3.906
10820SOL    HW133359   0.241   6.844   4.004
10820SOL    HW233360   0.266   6.929   3.868
10821SOL     OW33361   6.204   5.920   2.793
10821SOL    HW133362   6.250   5.860   2.858
10821SOL    HW233363   6.266   5.993   2.766
10822SOL     OW33364   1.282   3.532   2.941
10822SOL    HW133365   1.200   3.587   2.927
10822SOL    HW233366   1.294   3.470   2.863
10823SOL     OW33367   1.542   5.463   1.713
10823SOL    HW133368   1.444   5.470   1.697
10823SOL    HW233369   1.560   5.470   1.812
10824SOL     OW33370   5.159   6.820   3.512
10824SOL    HW133371   5.218   6.894   3.542
10824SOL    HW233372   5.115   6.777   3.591
10825SOL     OW33373   2.591   1.722   0.469
10825SOL    HW133374   2.647   1.734   0.551
10825SOL    HW233375   2.565   1.812   0.433
10826SOL     OW33376   6.580   3.236   2.475
10826SOL    HW133377   6.605   3.202   2.566
10826SOL    HW233378   6.574   3.336   2.477
10827SOL     OW33379   6.450   3.704   3.814
10827SOL    HW133380   6.461   3.662   3.904
10827SOL    HW233381   6.530   3.682   3.757
10828SOL     OW33382   0.734   6.030   1.813
10828SOL    HW133383   0.674   6.081   1.874
10828SOL    HW233384   0.737   6.075   1.724
10829SOL     OW33385   2.559   3.298   1.191
10829SOL    HW133386   2.654   3.276   1.214
10829SOL    HW233387   2.510   3.323   1.274
10830SOL     OW33388   6.162   2.507   3.981
10830SOL    HW133389   6.121   2.512   3.890
10830SOL    HW233390   6.219   2.587   3.997
10831SOL     OW33391   5.092   0.300   1.800
10831SOL    HW133392   5.103   0.398   1.789
10831SOL    HW233393   5.018   0.282   1.865
10832SOL     OW33394   0.648   1.989   0.930
10832SOL    HW133395   0.677   1.941   0.848
10832SOL    HW233396   0.606   1.924   0.994
10833SOL     OW33397   2.302   0.518   3.598
10833SOL    HW133398   2.285   0.615   3.583
10833SOL    HW233399   2.216   0.469   3.606
10834SOL     OW33400   0.321   1.225   5.296
10834SOL    HW133401   0.261   1.305   5.284
10834SOL    HW233402   0.409   1.255   5.334
10835SOL     OW33403   6.202   1.435   1.316
10835SOL    HW133404   6.112   1.400   1.292
10835SOL    HW233405   6.244   1.476   1.235
10836SOL     OW33406   6.790   1.815   5.470
10836SOL    HW133407   6.887   1.810   5.446
10836SOL    HW233408   6.766   1.737   5.528
10837SOL     OW33409   7.026   4.561   6.998
10837SOL    HW133410   6.984   4.648   7.022
10837SOL    HW233411   0.075   4.542   0.032
10838SOL     OW33412   5.777   0.604   5.315
10838SOL    HW133413   5.779   0.691   5.364
10838SOL    HW233414   5.687   0.563   5.323
10839SOL     OW33415   2.773   2.904   0.061
10839SOL    HW133416   2.829   2.946   7.016
10839SOL    HW233417   2.739   2.976   0.121
10840SOL     OW33418   3.614   5.769   1.539
10840SOL    HW133419   3.557   5.731   1.467
10840SOL    HW233420   3.645   5.860   1.512
10841SOL     OW33421   3.391   5.862   5.886
10841SOL    HW133422   3.340   5.879   5.970
10841SOL    HW233423   3.352   5.917   5.812
10842SOL     OW33424   6.227   2.727   1.219
10842SOL    HW133425   6.280   2.783   1.155
10842SOL    HW233426   6.277   2.643   1.240
10843SOL     OW33427   0.732   1.842   1.483
10843SOL    HW133428   0.683   1.763   1.446
10843SOL    HW233429   0.822   1.813   1.517
10844SOL     OW33430   6.842   6.481   4.354
10844SOL    HW133431   6.794   6.463   4.440
10844SOL    HW233432   6.880   6.395   4.319
10845SOL     OW33433   2.018   1.103   1.456
10845SOL    HW133434   1.987   1.030   1.395
10845SOL    HW233435   2.067   1.062   1.533
10846SOL     OW33436   4.749   2.145   0.764
10846SOL    HW133437   4.753   2.166   0.862
10846SOL    HW233438   4.654   2.152   0.733
10847SOL     OW33439   2.493   2.161   5.935
10847SOL    HW133440   2.560   2.127   6.000
10847SOL    HW233441   2.401   2.136   5.965
10848SOL     OW33442   2.736   1.484   6.765
10848SOL    HW133443   2.730   1.479   6.665
10848SOL    HW233444   2.812   1.543   6.791
10849SOL     OW33445   3.849   4.845   3.730
10849SOL    HW133446   3.892   4.868   3.817
10849SOL    HW233447   3.754   4.876   3.731
10850SOL     OW33448   3.794   6.848   6.976
10850SOL    HW133449   3.781   6.757   7.015
10850SOL    HW233450   3.733   6.912   7.021
10851SOL     OW33451   2.950   2.647   6.071
10851SOL    HW133452   2.964   2.574   6.138
10851SOL    HW233453   3.037   2.672   6.030
10852SOL     OW33454   0.340   0.316   6.763
10852SOL    HW133455   0.332   0.217   6.774
10852SOL    HW233456   0.253   0.352   6.730
10853SOL     OW33457   3.915   1.884   4.377
10853SOL    HW133458   3.818   1.897   4.358
10853SOL    HW233459   3.957   1.972   4.400
10854SOL     OW33460   6.015   0.305   6.874
10854SOL    HW133461   6.009   0.398   6.837
10854SOL    HW233462   6.091   0.300   6.938
10855SOL     OW33463   2.696   5.950   2.784
10855SOL    HW133464   2.674   6.011   2.860
10855SOL    HW233465   2.627   5.879   2.777
10856SOL     OW33466   6.230   0.323   0.934
10856SOL    HW133467   6.158   0.268   0.891
10856SOL    HW233468   6.320   0.287   0.909
10857SOL     OW33469   6.439   2.939   3.037
10857SOL    HW133470   6.456   2.977   2.946
10857SOL    HW233471   6.485   2.995   3.106
10858SOL     OW33472   1.914   3.129   6.714
10858SOL    HW133473   2.011   3.119   6.736
10858SOL    HW233474   1.904   3.173   6.625
10859SOL     OW33475   1.503   3.640   3.476
10859SOL    HW133476   1.478   3.558   3.528
10859SOL    HW233477   1.602   3.654   3.482
10860SOL     OW33478   6.205   0.994   6.968
10860SOL    HW133479   6.226   0.988   6.870
10860SOL    HW233480   6.222   1.088   6.999
10861SOL     OW33481   3.715   2.526   1.720
10861SOL    HW133482   3.706   2.613   1.769
10861SOL    HW233483   3.700   2.450   1.784
10862SOL     OW33484   2.343   1.875   6.104
10862SOL    HW133485   2.345   1.866   6.204
10862SOL    HW233486   2.304   1.963   6.079
10863SOL     OW33487   3.073   0.876   3.021
10863SOL    HW133488   3.076   0.974   3.037
10863SOL    HW233489   2.994   0.853   2.965
10864SOL     OW33490   2.011   4.662   1.758
10864SOL    HW133491   2.060   4.613   1.685
10864SOL    HW233492   1.939   4.603   1.794
10865SOL     OW33493   6.036   3.166   3.759
10865SOL    HW133494   5.937   3.159   3.753
10865SOL    HW233495   6.077   3.145   3.671
10866SOL     OW33496   5.819   3.192   0.884
10866SOL    HW133497   5.818   3.185   0.784
10866SOL    HW233498   5.906   3.156   0.918
10867SOL     OW33499   2.967   2.620   0.410
10867SOL    HW133500   2.968   2.720   0.423
10867SOL    HW233501   2.932   2.576   0.492
10868SOL     OW33502   1.318   1.900   2.919
10868SOL    HW133503   1.362   1.985   2.888
10868SOL    HW233504   1.232   1.923   2.965
10869NA      NA33505   0.876   1.947   6.479
10870NA      NA33506   4.510   4.539   5.135
10871NA      NA33507   1.667   4.600   2.611
10872NA      NA33508   5.089   4.310   3.808
10873NA      NA33509   4.384   2.432   5.169
10874NA      NA33510   3.144   4.625   1.570
10875NA      NA33511   0.996   4.784   0.173
10876NA      NA33512   3.993   4.377   1.534
10877NA      NA33513   4.624   3.877   1.049
10878NA      NA33514   3.848   1.219   5.800
10879NA      NA33515   4.944   5.744   1.840
10880NA      NA33516   1.535   0.412   5.712
10881NA      NA33517   4.918   4.999   2.028
10882NA      NA33518   3.499   3.351   0.482
   7.02740   7.02740   7.02740
